Generated by trjconv : CNT in water t= 194.00000
33518
    1C        C    1   2.843   2.770   4.748
    1C        C    2   2.897   2.718   4.868
    1C        C    3   2.843   2.773   4.985
    1C        C    4   2.852   2.778   4.260
    1C        C    5   2.900   2.725   4.382
    1C        C    6   2.845   2.770   4.504
    1C        C    7   3.014   2.643   4.626
    1C        C    8   2.897   2.722   4.627
    1C        C    9   3.082   2.610   4.746
    1C        C   10   3.011   2.636   4.865
    1C        C   11   3.180   2.489   4.977
    1C        C   12   3.065   2.569   4.976
    1C        C   13   2.851   2.772   3.775
    1C        C   14   2.906   2.726   3.896
    1C        C   15   2.852   2.774   4.018
    1C        C   16   3.023   2.650   4.141
    1C        C   17   2.904   2.726   4.140
    1C        C   18   3.084   2.617   4.263
    1C        C   19   3.021   2.652   4.385
    1C        C   20   3.210   2.555   4.507
    1C        C   21   3.081   2.611   4.506
    1C        C   22   3.279   2.530   4.628
    1C        C   23   3.213   2.555   4.750
    1C        C   24   3.414   2.485   4.867
    1C        C   25   3.271   2.502   4.868
    1C        C   26   3.490   2.487   4.984
    1C        C   27   2.854   2.770   3.285
    1C        C   28   2.908   2.727   3.408
    1C        C   29   2.859   2.775   3.531
    1C        C   30   3.024   2.644   3.653
    1C        C   31   2.909   2.727   3.654
    1C        C   32   3.080   2.603   3.776
    1C        C   33   3.019   2.642   3.898
    1C        C   34   3.212   2.551   4.019
    1C        C   35   3.083   2.609   4.020
    1C        C   36   3.281   2.533   4.141
    1C        C   37   3.214   2.560   4.263
    1C        C   38   3.419   2.509   4.383
    1C        C   39   3.280   2.537   4.385
    1C        C   40   3.488   2.496   4.505
    1C        C   41   3.417   2.501   4.627
    1C        C   42   3.633   2.485   4.747
    1C        C   43   3.490   2.486   4.747
    1C        C   44   3.705   2.490   4.869
    1C        C   45   3.629   2.484   4.986
    1C        C   46   2.839   2.754   2.796
    1C        C   47   2.897   2.708   2.917
    1C        C   48   2.849   2.763   3.038
    1C        C   49   3.022   2.645   3.165
    1C        C   50   2.905   2.724   3.161
    1C        C   51   3.079   2.605   3.288
    1C        C   52   3.020   2.640   3.411
    1C        C   53   3.212   2.544   3.532
    1C        C   54   3.084   2.603   3.532
    1C        C   55   3.280   2.526   3.655
    1C        C   56   3.211   2.551   3.776
    1C        C   57   3.419   2.505   3.894
    1C        C   58   3.280   2.532   3.897
    1C        C   59   3.490   2.498   4.016
    1C        C   60   3.420   2.507   4.139
    1C        C   61   3.631   2.500   4.263
    1C        C   62   3.490   2.499   4.261
    1C        C   63   3.703   2.508   4.384
    1C        C   64   3.629   2.499   4.505
    1C        C   65   3.834   2.556   4.626
    1C        C   66   3.700   2.511   4.626
    1C        C   67   3.905   2.571   4.746
    1C        C   68   3.838   2.536   4.866
    1C        C   69   4.054   2.590   4.979
    1C        C   70   3.923   2.541   4.977
    1C        C   71   2.825   2.736   2.313
    1C        C   72   2.884   2.692   2.433
    1C        C   73   2.838   2.749   2.553
    1C        C   74   3.008   2.624   2.675
    1C        C   75   2.891   2.703   2.675
    1C        C   76   3.076   2.593   2.796
    1C        C   77   3.017   2.632   2.918
    1C        C   78   3.208   2.548   3.041
    1C        C   79   3.077   2.602   3.042
    1C        C   80   3.277   2.532   3.163
    1C        C   81   3.210   2.553   3.286
    1C        C   82   3.416   2.503   3.405
    1C        C   83   3.276   2.526   3.407
    1C        C   84   3.487   2.494   3.527
    1C        C   85   3.419   2.500   3.651
    1C        C   86   3.631   2.497   3.771
    1C        C   87   3.490   2.495   3.773
    1C        C   88   3.699   2.508   3.895
    1C        C   89   3.631   2.499   4.018
    1C        C   90   3.837   2.543   4.138
    1C        C   91   3.701   2.503   4.141
    1C        C   92   3.903   2.577   4.258
    1C        C   93   3.838   2.550   4.380
    1C        C   94   4.027   2.642   4.502
    1C        C   95   3.901   2.578   4.503
    1C        C   96   4.093   2.674   4.622
    1C        C   97   4.033   2.633   4.743
    1C        C   98   4.195   2.771   4.863
    1C        C   99   4.100   2.664   4.865
    1C        C  100   4.226   2.842   4.980
    1C        C  101   2.827   2.736   2.073
    1C        C  102   2.989   2.594   2.193
    1C        C  103   2.875   2.680   2.192
    1C        C  104   3.065   2.576   2.312
    1C        C  105   3.005   2.618   2.433
    1C        C  106   3.201   2.534   2.555
    1C        C  107   3.072   2.591   2.554
    1C        C  108   3.272   2.516   2.676
    1C        C  109   3.204   2.534   2.799
    1C        C  110   3.414   2.496   2.918
    1C        C  111   3.275   2.520   2.921
    1C        C  112   3.486   2.493   3.039
    1C        C  113   3.416   2.505   3.161
    1C        C  114   3.628   2.498   3.282
    1C        C  115   3.486   2.499   3.283
    1C        C  116   3.698   2.508   3.404
    1C        C  117   3.628   2.499   3.527
    1C        C  118   3.835   2.549   3.649
    1C        C  119   3.698   2.513   3.648
    1C        C  120   3.902   2.573   3.771
    1C        C  121   3.835   2.547   3.893
    1C        C  122   4.025   2.638   4.013
    1C        C  123   3.901   2.569   4.015
    1C        C  124   4.084   2.683   4.134
    1C        C  125   4.026   2.647   4.257
    1C        C  126   4.198   2.768   4.378
    1C        C  127   4.088   2.679   4.380
    1C        C  128   4.247   2.822   4.499
    1C        C  129   4.194   2.773   4.620
    1C        C  130   4.328   2.940   4.742
    1C        C  131   4.240   2.828   4.742
    1C        C  132   4.361   3.007   4.861
    1C        C  133   4.292   2.964   4.976
    1C        C  134   3.172   2.469   2.085
    1C        C  135   3.039   2.514   2.085
    1C        C  136   3.261   2.483   2.192
    1C        C  137   3.197   2.524   2.311
    1C        C  138   3.407   2.488   2.429
    1C        C  139   3.268   2.512   2.433
    1C        C  140   3.480   2.488   2.550
    1C        C  141   3.411   2.493   2.673
    1C        C  142   3.624   2.494   2.793
    1C        C  143   3.483   2.486   2.795
    1C        C  144   3.696   2.504   2.914
    1C        C  145   3.628   2.492   3.038
    1C        C  146   3.835   2.538   3.158
    1C        C  147   3.698   2.500   3.160
    1C        C  148   3.899   2.566   3.280
    1C        C  149   3.835   2.544   3.404
    1C        C  150   4.026   2.635   3.526
    1C        C  151   3.900   2.571   3.526
    1C        C  152   4.084   2.679   3.647
    1C        C  153   4.023   2.646   3.770
    1C        C  154   4.193   2.771   3.890
    1C        C  155   4.082   2.684   3.893
    1C        C  156   4.244   2.822   4.012
    1C        C  157   4.193   2.772   4.134
    1C        C  158   4.338   2.927   4.256
    1C        C  159   4.246   2.821   4.256
    1C        C  160   4.379   2.989   4.376
    1C        C  161   4.332   2.935   4.498
    1C        C  162   4.438   3.121   4.619
    1C        C  163   4.370   2.997   4.619
    1C        C  164   4.473   3.186   4.739
    1C        C  165   4.438   3.126   4.861
    1C        C  166   4.522   3.322   4.978
    1C        C  167   4.489   3.187   4.976
    1C        C  168   3.477   2.438   2.077
    1C        C  169   3.401   2.461   2.192
    1C        C  170   3.620   2.466   2.310
    1C        C  171   3.478   2.462   2.310
    1C        C  172   3.694   2.489   2.428
    1C        C  173   3.621   2.492   2.549
    1C        C  174   3.830   2.539   2.668
    1C        C  175   3.693   2.505   2.670
    1C        C  176   3.896   2.566   2.790
    1C        C  177   3.833   2.537   2.913
    1C        C  178   4.025   2.627   3.034
    1C        C  179   3.900   2.560   3.035
    1C        C  180   4.082   2.671   3.155
    1C        C  181   4.021   2.638   3.278
    1C        C  182   4.190   2.764   3.399
    1C        C  183   4.080   2.674   3.401
    1C        C  184   4.247   2.808   3.520
    1C        C  185   4.197   2.765   3.644
    1C        C  186   4.338   2.922   3.767
    1C        C  187   4.245   2.816   3.767
    1C        C  188   4.374   2.985   3.888
    1C        C  189   4.332   2.932   4.012
    1C        C  190   4.447   3.110   4.133
    1C        C  191   4.379   2.986   4.134
    1C        C  192   4.477   3.176   4.254
    1C        C  193   4.450   3.112   4.377
    1C        C  194   4.516   3.317   4.495
    1C        C  195   4.471   3.183   4.497
    1C        C  196   4.534   3.387   4.617
    1C        C  197   4.516   3.322   4.741
    1C        C  198   4.565   3.537   4.853
    1C        C  199   4.538   3.397   4.860
    1C        C  200   4.593   3.625   4.963
    1C        C  201   3.616   2.420   2.074
    1C        C  202   3.827   2.515   2.185
    1C        C  203   3.693   2.464   2.187
    1C        C  204   3.901   2.544   2.303
    1C        C  205   3.831   2.525   2.424
    1C        C  206   4.025   2.615   2.546
    1C        C  207   3.897   2.557   2.545
    1C        C  208   4.082   2.661   2.667
    1C        C  209   4.019   2.636   2.791
    1C        C  210   4.197   2.754   2.907
    1C        C  211   4.083   2.670   2.912
    1C        C  212   4.242   2.807   3.030
    1C        C  213   4.195   2.757   3.154
    1C        C  214   4.335   2.915   3.278
    1C        C  215   4.245   2.806   3.276
    1C        C  216   4.374   2.977   3.399
    1C        C  217   4.332   2.921   3.522
    1C        C  218   4.437   3.107   3.641
    1C        C  219   4.374   2.980   3.643
    1C        C  220   4.462   3.176   3.762
    1C        C  221   4.441   3.109   3.884
    1C        C  222   4.503   3.309   4.004
    1C        C  223   4.469   3.172   4.008
    1C        C  224   4.520   3.381   4.125
    1C        C  225   4.513   3.312   4.248
    1C        C  226   4.530   3.524   4.368
    1C        C  227   4.521   3.383   4.370
    1C        C  228   4.529   3.596   4.490
    1C        C  229   4.538   3.528   4.613
    1C        C  230   4.508   3.744   4.730
    1C        C  231   4.539   3.605   4.731
    1C        C  232   4.501   3.822   4.848
    1C        C  233   4.551   3.759   4.962
    1C        C  234   4.018   2.613   2.067
    1C        C  235   3.897   2.544   2.067
    1C        C  236   4.087   2.652   2.182
    1C        C  237   4.027   2.610   2.303
    1C        C  238   4.199   2.738   2.424
    1C        C  239   4.088   2.649   2.424
    1C        C  240   4.252   2.791   2.543
    1C        C  241   4.193   2.748   2.665
    1C        C  242   4.335   2.912   2.787
    1C        C  243   4.246   2.802   2.784
    1C        C  244   4.374   2.970   2.910
    1C        C  245   4.330   2.917   3.033
    1C        C  246   4.441   3.097   3.149
    1C        C  247   4.375   2.973   3.155
    1C        C  248   4.463   3.164   3.272
    1C        C  249   4.436   3.104   3.397
    1C        C  250   4.506   3.306   3.515
    1C        C  251   4.464   3.171   3.518
    1C        C  252   4.520   3.378   3.636
    1C        C  253   4.505   3.311   3.760
    1C        C  254   4.531   3.520   3.880
    1C        C  255   4.514   3.380   3.883
    1C        C  256   4.525   3.591   4.002
    1C        C  257   4.528   3.522   4.125
    1C        C  258   4.505   3.734   4.245
    1C        C  259   4.529   3.595   4.246
    1C        C  260   4.484   3.803   4.366
    1C        C  261   4.501   3.734   4.488
    1C        C  262   4.424   3.938   4.604
    1C        C  263   4.477   3.807   4.607
    1C        C  264   4.397   4.007   4.723
    1C        C  265   4.437   3.947   4.845
    1C        C  266   4.323   4.130   4.959
    1C        C  267   4.396   4.012   4.962
    1C        C  268   4.269   2.777   2.065
    1C        C  269   4.204   2.731   2.180
    1C        C  270   4.344   2.893   2.300
    1C        C  271   4.255   2.781   2.302
    1C        C  272   4.382   2.955   2.421
    1C        C  273   4.345   2.897   2.545
    1C        C  274   4.451   3.087   2.663
    1C        C  275   4.379   2.965   2.664
    1C        C  276   4.481   3.155   2.783
    1C        C  277   4.446   3.091   2.904
    1C        C  278   4.507   3.296   3.025
    1C        C  279   4.472   3.159   3.026
    1C        C  280   4.521   3.365   3.147
    1C        C  281   4.505   3.299   3.270
    1C        C  282   4.524   3.512   3.390
    1C        C  283   4.520   3.371   3.391
    1C        C  284   4.521   3.585   3.511
    1C        C  285   4.527   3.519   3.636
    1C        C  286   4.502   3.730   3.756
    1C        C  287   4.528   3.591   3.757
    1C        C  288   4.481   3.798   3.878
    1C        C  289   4.497   3.729   4.000
    1C        C  290   4.429   3.930   4.119
    1C        C  291   4.484   3.800   4.122
    1C        C  292   4.398   3.997   4.239
    1C        C  293   4.432   3.935   4.361
    1C        C  294   4.321   4.121   4.481
    1C        C  295   4.393   3.999   4.480
    1C        C  296   4.279   4.183   4.601
    1C        C  297   4.326   4.131   4.723
    1C        C  298   4.201   4.314   4.840
    1C        C  299   4.285   4.198   4.842
    1C        C  300   4.172   4.402   4.949
    1C        C  301   4.358   2.884   2.062
    1C        C  302   4.469   3.072   2.180
    1C        C  303   4.396   2.949   2.180
    1C        C  304   4.485   3.146   2.300
    1C        C  305   4.449   3.079   2.420
    1C        C  306   4.515   3.285   2.538
    1C        C  307   4.479   3.148   2.539
    1C        C  308   4.526   3.360   2.658
    1C        C  309   4.513   3.293   2.781
    1C        C  310   4.528   3.506   2.902
    1C        C  311   4.520   3.365   2.902
    1C        C  312   4.523   3.578   3.024
    1C        C  313   4.527   3.507   3.146
    1C        C  314   4.496   3.719   3.266
    1C        C  315   4.525   3.581   3.267
    1C        C  316   4.476   3.790   3.387
    1C        C  317   4.495   3.724   3.511
    1C        C  318   4.433   3.928   3.630
    1C        C  319   4.482   3.796   3.632
    1C        C  320   4.406   3.994   3.752
    1C        C  321   4.432   3.930   3.875
    1C        C  322   4.317   4.110   3.993
    1C        C  323   4.396   3.993   3.997
    1C        C  324   4.275   4.170   4.114
    1C        C  325   4.325   4.118   4.236
    1C        C  326   4.184   4.278   4.357
    1C        C  327   4.285   4.179   4.358
    1C        C  328   4.136   4.338   4.475
    1C        C  329   4.190   4.293   4.598
    1C        C  330   4.022   4.431   4.715
    1C        C  331   4.138   4.348   4.717
    1C        C  332   3.972   4.492   4.831
    1C        C  333   4.052   4.474   4.945
    1C        C  334   4.549   3.271   2.057
    1C        C  335   4.532   3.132   2.066
    1C        C  336   4.541   3.350   2.172
    1C        C  337   4.514   3.285   2.294
    1C        C  338   4.537   3.496   2.414
    1C        C  339   4.524   3.355   2.416
    1C        C  340   4.534   3.572   2.533
    1C        C  341   4.532   3.501   2.655
    1C        C  342   4.500   3.711   2.776
    1C        C  343   4.524   3.572   2.777
    1C        C  344   4.489   3.784   2.896
    1C        C  345   4.502   3.717   3.021
    1C        C  346   4.432   3.918   3.141
    1C        C  347   4.484   3.786   3.143
    1C        C  348   4.392   3.981   3.261
    1C        C  349   4.428   3.922   3.385
    1C        C  350   4.318   4.103   3.502
    1C        C  351   4.399   3.988   3.507
    1C        C  352   4.277   4.161   3.624
    1C        C  353   4.324   4.110   3.747
    1C        C  354   4.174   4.260   3.868
    1C        C  355   4.276   4.163   3.869
    1C        C  356   4.120   4.311   3.988
    1C        C  357   4.179   4.273   4.111
    1C        C  358   4.010   4.395   4.231
    1C        C  359   4.130   4.322   4.234
    1C        C  360   3.951   4.441   4.351
    1C        C  361   4.019   4.417   4.472
    1C        C  362   3.831   4.522   4.594
    1C        C  363   3.957   4.458   4.592
    1C        C  364   3.764   4.552   4.714
    1C        C  365   3.842   4.547   4.832
    1C        C  366   3.629   4.591   4.952
    1C        C  367   3.767   4.572   4.947
    1C        C  368   4.509   3.565   2.056
    1C        C  369   4.532   3.491   2.173
    1C        C  370   4.505   3.706   2.290
    1C        C  371   4.527   3.566   2.292
    1C        C  372   4.483   3.778   2.409
    1C        C  373   4.508   3.711   2.531
    1C        C  374   4.423   3.906   2.649
    1C        C  375   4.483   3.778   2.653
    1C        C  376   4.395   3.972   2.771
    1C        C  377   4.436   3.914   2.893
    1C        C  378   4.324   4.093   3.013
    1C        C  379   4.405   3.977   3.016
    1C        C  380   4.274   4.151   3.132
    1C        C  381   4.310   4.096   3.257
    1C        C  382   4.172   4.256   3.379
    1C        C  383   4.267   4.151   3.379
    1C        C  384   4.121   4.304   3.501
    1C        C  385   4.175   4.259   3.624
    1C        C  386   4.007   4.390   3.743
    1C        C  387   4.122   4.307   3.745
    1C        C  388   3.945   4.428   3.864
    1C        C  389   4.005   4.393   3.987
    1C        C  390   3.817   4.489   4.113
    1C        C  391   3.945   4.429   4.110
    1C        C  392   3.753   4.523   4.234
    1C        C  393   3.825   4.504   4.354
    1C        C  394   3.618   4.558   4.475
    1C        C  395   3.757   4.536   4.474
    1C        C  396   3.548   4.570   4.597
    1C        C  397   3.624   4.569   4.716
    1C        C  398   3.411   4.555   4.839
    1C        C  399   3.551   4.575   4.837
    1C        C  400   3.345   4.515   4.956
    1C        C  401   4.502   3.703   2.049
    1C        C  402   4.458   3.914   2.167
    1C        C  403   4.493   3.777   2.168
    1C        C  404   4.409   3.975   2.284
    1C        C  405   4.439   3.912   2.407
    1C        C  406   4.324   4.092   2.529
    1C        C  407   4.403   3.975   2.528
    1C        C  408   4.273   4.144   2.650
    1C        C  409   4.314   4.088   2.773
    1C        C  410   4.172   4.247   2.890
    1C        C  411   4.274   4.148   2.893
    1C        C  412   4.120   4.297   3.011
    1C        C  413   4.175   4.251   3.133
    1C        C  414   4.000   4.375   3.254
    1C        C  415   4.119   4.298   3.255
    1C        C  416   3.941   4.412   3.377
    1C        C  417   4.003   4.382   3.501
    1C        C  418   3.812   4.476   3.624
    1C        C  419   3.943   4.423   3.622
    1C        C  420   3.747   4.502   3.747
    1C        C  421   3.813   4.480   3.870
    1C        C  422   3.608   4.533   3.990
    1C        C  423   3.746   4.504   3.992
    1C        C  424   3.541   4.551   4.112
    1C        C  425   3.613   4.542   4.233
    1C        C  426   3.402   4.550   4.359
    1C        C  427   3.543   4.559   4.355
    1C        C  428   3.331   4.551   4.481
    1C        C  429   3.407   4.561   4.599
    1C        C  430   3.195   4.522   4.726
    1C        C  431   3.335   4.550   4.720
    1C        C  432   3.124   4.498   4.847
    1C        C  433   3.207   4.497   4.960
    1C        C  434   4.388   4.125   2.055
    1C        C  435   4.452   4.001   2.057
    1C        C  436   4.306   4.165   2.166
    1C        C  437   4.335   4.096   2.287
    1C        C  438   4.179   4.246   2.403
    1C        C  439   4.283   4.151   2.407
    1C        C  440   4.127   4.297   2.525
    1C        C  441   4.172   4.243   2.647
    1C        C  442   4.004   4.375   2.766
    1C        C  443   4.120   4.294   2.768
    1C        C  444   3.943   4.413   2.887
    1C        C  445   4.003   4.377   3.010
    1C        C  446   3.811   4.469   3.133
    1C        C  447   3.940   4.411   3.132
    1C        C  448   3.747   4.492   3.256
    1C        C  449   3.814   4.474   3.379
    1C        C  450   3.609   4.531   3.499
    1C        C  451   3.747   4.502   3.501
    1C        C  452   3.541   4.541   3.622
    1C        C  453   3.610   4.534   3.745
    1C        C  454   3.398   4.549   3.867
    1C        C  455   3.539   4.546   3.867
    1C        C  456   3.331   4.538   3.990
    1C        C  457   3.399   4.549   4.113
    1C        C  458   3.194   4.510   4.239
    1C        C  459   3.332   4.540   4.237
    1C        C  460   3.127   4.489   4.362
    1C        C  461   3.193   4.519   4.484
    1C        C  462   2.998   4.436   4.605
    1C        C  463   3.125   4.498   4.606
    1C        C  464   2.931   4.404   4.725
    1C        C  465   2.990   4.449   4.847
    1C        C  466   2.797   4.346   4.959
    1C        C  467   2.908   4.432   4.963
    1C        C  468   4.127   4.288   2.045
    1C        C  469   4.193   4.252   2.163
    1C        C  470   4.011   4.377   2.284
    1C        C  471   4.126   4.293   2.281
    1C        C  472   3.944   4.408   2.405
    1C        C  473   4.010   4.375   2.525
    1C        C  474   3.816   4.474   2.645
    1C        C  475   3.944   4.414   2.644
    1C        C  476   3.748   4.495   2.767
    1C        C  477   3.815   4.474   2.889
    1C        C  478   3.607   4.522   3.011
    1C        C  479   3.747   4.497   3.010
    1C        C  480   3.538   4.530   3.134
    1C        C  481   3.608   4.520   3.256
    1C        C  482   3.396   4.533   3.379
    1C        C  483   3.537   4.533   3.377
    1C        C  484   3.326   4.534   3.502
    1C        C  485   3.400   4.545   3.623
    1C        C  486   3.191   4.504   3.751
    1C        C  487   3.328   4.539   3.744
    1C        C  488   3.124   4.485   3.873
    1C        C  489   3.193   4.509   3.994
    1C        C  490   3.001   4.421   4.116
    1C        C  491   3.127   4.486   4.117
    1C        C  492   2.944   4.384   4.240
    1C        C  493   3.002   4.425   4.362
    1C        C  494   2.830   4.303   4.484
    1C        C  495   2.938   4.394   4.485
    1C        C  496   2.776   4.255   4.605
    1C        C  497   2.821   4.313   4.726
    1C        C  498   2.668   4.166   4.844
    1C        C  499   2.754   4.277   4.845
    1C        C  500   2.603   4.116   4.958
    1C        C  501   4.003   4.352   2.047
    1C        C  502   3.817   4.465   2.158
    1C        C  503   3.945   4.406   2.162
    1C        C  504   3.746   4.482   2.278
    1C        C  505   3.811   4.456   2.401
    1C        C  506   3.608   4.513   2.525
    1C        C  507   3.746   4.485   2.522
    1C        C  508   3.536   4.523   2.646
    1C        C  509   3.608   4.518   2.768
    1C        C  510   3.395   4.530   2.890
    1C        C  511   3.537   4.526   2.889
    1C        C  512   3.324   4.527   3.012
    1C        C  513   3.396   4.534   3.133
    1C        C  514   3.189   4.497   3.257
    1C        C  515   3.327   4.529   3.256
    1C        C  516   3.124   4.476   3.380
    1C        C  517   3.189   4.499   3.503
    1C        C  518   3.001   4.412   3.627
    1C        C  519   3.126   4.480   3.628
    1C        C  520   2.942   4.377   3.750
    1C        C  521   2.998   4.421   3.872
    1C        C  522   2.836   4.286   3.997
    1C        C  523   2.940   4.382   3.995
    1C        C  524   2.790   4.239   4.122
    1C        C  525   2.835   4.294   4.244
    1C        C  526   2.692   4.137   4.364
    1C        C  527   2.774   4.252   4.364
    1C        C  528   2.654   4.078   4.486
    1C        C  529   2.686   4.147   4.606
    1C        C  530   2.586   3.960   4.732
    1C        C  531   2.640   4.092   4.727
    1C        C  532   2.543   3.902   4.855
    1C        C  533   2.532   3.995   4.962
    1C        C  534   3.620   4.559   2.042
    1C        C  535   3.753   4.516   2.044
    1C        C  536   3.538   4.539   2.157
    1C        C  537   3.608   4.517   2.279
    1C        C  538   3.398   4.521   2.402
    1C        C  539   3.539   4.525   2.402
    1C        C  540   3.323   4.518   2.522
    1C        C  541   3.394   4.522   2.644
    1C        C  542   3.189   4.487   2.769
    1C        C  543   3.326   4.519   2.767
    1C        C  544   3.119   4.471   2.891
    1C        C  545   3.186   4.496   3.013
    1C        C  546   2.996   4.405   3.138
    1C        C  547   3.121   4.471   3.136
    1C        C  548   2.942   4.366   3.262
    1C        C  549   2.999   4.411   3.383
    1C        C  550   2.832   4.282   3.507
    1C        C  551   2.939   4.374   3.506
    1C        C  552   2.780   4.235   3.630
    1C        C  553   2.839   4.281   3.750
    1C        C  554   2.704   4.122   3.877
    1C        C  555   2.791   4.233   3.874
    1C        C  556   2.670   4.062   4.000
    1C        C  557   2.706   4.126   4.120
    1C        C  558   2.598   3.946   4.249
    1C        C  559   2.658   4.073   4.243
    1C        C  560   2.564   3.882   4.370
    1C        C  561   2.590   3.952   4.490
    1C        C  562   2.537   3.749   4.618
    1C        C  563   2.566   3.887   4.613
    1C        C  564   2.517   3.683   4.742
    1C        C  565   2.518   3.761   4.861
    1C        C  566   2.530   3.547   4.977
    1C        C  567   2.531   3.686   4.978
    1C        C  568   3.331   4.478   2.041
    1C        C  569   3.399   4.512   2.159
    1C        C  570   3.188   4.477   2.282
    1C        C  571   3.326   4.509   2.281
    1C        C  572   3.119   4.458   2.404
    1C        C  573   3.185   4.488   2.525
    1C        C  574   2.990   4.409   2.649
    1C        C  575   3.118   4.468   2.648
    1C        C  576   2.930   4.368   2.770
    1C        C  577   2.994   4.407   2.891
    1C        C  578   2.830   4.277   3.019
    1C        C  579   2.937   4.368   3.015
    1C        C  580   2.781   4.225   3.141
    1C        C  581   2.837   4.272   3.263
    1C        C  582   2.698   4.115   3.387
    1C        C  583   2.788   4.224   3.386
    1C        C  584   2.662   4.059   3.511
    1C        C  585   2.695   4.122   3.633
    1C        C  586   2.592   3.939   3.758
    1C        C  587   2.657   4.065   3.756
    1C        C  588   2.572   3.873   3.882
    1C        C  589   2.604   3.937   4.004
    1C        C  590   2.537   3.740   4.129
    1C        C  591   2.575   3.876   4.128
    1C        C  592   2.522   3.673   4.253
    1C        C  593   2.530   3.745   4.374
    1C        C  594   2.517   3.536   4.499
    1C        C  595   2.522   3.678   4.497
    1C        C  596   2.525   3.467   4.622
    1C        C  597   2.523   3.541   4.742
    1C        C  598   2.539   3.327   4.865
    1C        C  599   2.528   3.468   4.862
    1C        C  600   2.540   3.254   4.984
    1C        C  601   3.197   4.442   2.043
    1C        C  602   2.985   4.400   2.163
    1C        C  603   3.122   4.441   2.161
    1C        C  604   2.926   4.362   2.286
    1C        C  605   2.991   4.399   2.406
    1C        C  606   2.824   4.270   2.530
    1C        C  607   2.931   4.363   2.529
    1C        C  608   2.778   4.220   2.653
    1C        C  609   2.826   4.272   2.775
    1C        C  610   2.691   4.113   2.897
    1C        C  611   2.778   4.225   2.899
    1C        C  612   2.650   4.058   3.021
    1C        C  613   2.691   4.116   3.143
    1C        C  614   2.594   3.929   3.269
    1C        C  615   2.654   4.057   3.266
    1C        C  616   2.568   3.866   3.393
    1C        C  617   2.598   3.933   3.514
    1C        C  618   2.537   3.733   3.642
    1C        C  619   2.570   3.870   3.637
    1C        C  620   2.521   3.665   3.765
    1C        C  621   2.532   3.738   3.886
    1C        C  622   2.514   3.527   4.010
    1C        C  623   2.524   3.668   4.008
    1C        C  624   2.515   3.458   4.133
    1C        C  625   2.513   3.532   4.253
    1C        C  626   2.539   3.326   4.383
    1C        C  627   2.513   3.464   4.377
    1C        C  628   2.553   3.252   4.503
    1C        C  629   2.534   3.326   4.622
    1C        C  630   2.597   3.122   4.744
    1C        C  631   2.551   3.256   4.743
    1C        C  632   2.621   3.052   4.866
    1C        C  633   2.566   3.116   4.982
    1C        C  634   2.781   4.312   2.056
    1C        C  635   2.894   4.395   2.053
    1C        C  636   2.750   4.235   2.169
    1C        C  637   2.814   4.274   2.289
    1C        C  638   2.680   4.109   2.411
    1C        C  639   2.768   4.220   2.411
    1C        C  640   2.645   4.051   2.534
    1C        C  641   2.689   4.110   2.655
    1C        C  642   2.588   3.924   2.780
    1C        C  643   2.651   4.051   2.777
    1C        C  644   2.569   3.860   2.904
    1C        C  645   2.591   3.930   3.024
    1C        C  646   2.530   3.728   3.151
    1C        C  647   2.566   3.864   3.147
    1C        C  648   2.517   3.658   3.273
    1C        C  649   2.534   3.729   3.394
    1C        C  650   2.509   3.524   3.522
    1C        C  651   2.520   3.665   3.519
    1C        C  652   2.515   3.453   3.644
    1C        C  653   2.508   3.524   3.765
    1C        C  654   2.535   3.317   3.891
    1C        C  655   2.509   3.455   3.889
    1C        C  656   2.554   3.251   4.014
    1C        C  657   2.533   3.318   4.137
    1C        C  658   2.602   3.122   4.260
    1C        C  659   2.553   3.254   4.262
    1C        C  660   2.637   3.059   4.382
    1C        C  661   2.606   3.121   4.505
    1C        C  662   2.715   2.937   4.625
    1C        C  663   2.637   3.055   4.626
    1C        C  664   2.752   2.879   4.748
    1C        C  665   2.696   2.930   4.868
    1C        C  666   2.743   2.870   4.986
    1C        C  667   2.680   4.028   2.055
    1C        C  668   2.684   4.111   2.167
    1C        C  669   2.594   3.915   2.292
    1C        C  670   2.649   4.046   2.288
    1C        C  671   2.564   3.851   2.414
    1C        C  672   2.588   3.922   2.534
    1C        C  673   2.525   3.721   2.661
    1C        C  674   2.566   3.856   2.658
    1C        C  675   2.513   3.652   2.783
    1C        C  676   2.533   3.723   2.904
    1C        C  677   2.519   3.517   3.033
    1C        C  678   2.519   3.659   3.029
    1C        C  679   2.514   3.447   3.155
    1C        C  680   2.503   3.517   3.277
    1C        C  681   2.532   3.311   3.401
    1C        C  682   2.505   3.450   3.402
    1C        C  683   2.552   3.244   3.523
    1C        C  684   2.536   3.313   3.645
    1C        C  685   2.610   3.117   3.771
    1C        C  686   2.555   3.248   3.769
    1C        C  687   2.644   3.059   3.895
    1C        C  688   2.607   3.120   4.017
    1C        C  689   2.715   2.940   4.138
    1C        C  690   2.632   3.054   4.140
    1C        C  691   2.757   2.883   4.261
    1C        C  692   2.715   2.941   4.382
    1C        C  693   2.758   2.882   4.503
    1C        C  694   2.631   3.897   2.058
    1C        C  695   2.527   3.707   2.177
    1C        C  696   2.577   3.839   2.174
    1C        C  697   2.512   3.639   2.300
    1C        C  698   2.521   3.717   2.418
    1C        C  699   2.494   3.508   2.545
    1C        C  700   2.506   3.649   2.541
    1C        C  701   2.506   3.438   2.667
    1C        C  702   2.508   3.511   2.788
    1C        C  703   2.531   3.304   2.912
    1C        C  704   2.514   3.444   2.912
    1C        C  705   2.556   3.239   3.034
    1C        C  706   2.542   3.309   3.156
    1C        C  707   2.604   3.109   3.282
    1C        C  708   2.557   3.242   3.280
    1C        C  709   2.641   3.050   3.404
    1C        C  710   2.610   3.115   3.526
    1C        C  711   2.717   2.934   3.650
    1C        C  712   2.640   3.053   3.649
    1C        C  713   2.763   2.883   3.773
    1C        C  714   2.720   2.940   3.895
    1C        C  715   2.761   2.883   4.018
    1C        C  716   2.448   3.502   2.067
    1C        C  717   2.486   3.637   2.063
    1C        C  718   2.458   3.425   2.187
    1C        C  719   2.481   3.501   2.305
    1C        C  720   2.517   3.292   2.427
    1C        C  721   2.490   3.431   2.427
    1C        C  722   2.537   3.223   2.548
    1C        C  723   2.531   3.299   2.668
    1C        C  724   2.602   3.102   2.792
    1C        C  725   2.545   3.231   2.791
    1C        C  726   2.632   3.042   2.916
    1C        C  727   2.608   3.107   3.039
    1C        C  728   2.713   2.924   3.159
    1C        C  729   2.639   3.044   3.161
    1C        C  730   2.762   2.877   3.283
    1C        C  731   2.724   2.935   3.406
    1C        C  732   2.763   2.878   3.529
    1C        C  733   2.497   3.205   2.072
    1C        C  734   2.490   3.285   2.187
    1C        C  735   2.579   3.086   2.309
    1C        C  736   2.522   3.217   2.307
    1C        C  737   2.604   3.016   2.429
    1C        C  738   2.583   3.090   2.548
    1C        C  739   2.704   2.916   2.672
    1C        C  740   2.626   3.034   2.670
    1C        C  741   2.746   2.859   2.794
    1C        C  742   2.707   2.922   2.915
    1C        C  743   2.754   2.867   3.036
    1C        C  744   2.552   3.077   2.073
    1C        C  745   2.687   2.903   2.190
    1C        C  746   2.608   3.020   2.188
    1C        C  747   2.728   2.841   2.310
    1C        C  748   2.687   2.902   2.430
    1C        C  749   2.742   2.853   2.551
    1C        C  750   2.745   2.848   2.075
    1C        C  751   3.653   2.309   1.984
    1C        O  752   3.621   2.190   2.010
    1C        O  753   3.684   2.335   1.850
    1C        C  754   4.629   3.064   1.978
    1C        O  755   4.598   3.022   1.863
    1C        O  756   4.733   2.989   2.034
    1C        C  757   4.430   4.222   1.951
    1C        O  758   4.543   4.276   1.965
    1C        O  759   4.405   4.219   1.814
    1C        C  760   3.577   4.639   1.924
    1C        O  761   3.562   4.762   1.947
    1C        O  762   3.548   4.589   1.796
    1C        C  763   2.908   4.473   1.928
    1C        O  764   2.918   4.413   1.818
    1C        O  765   2.835   4.592   1.926
    1C        C  766   2.339   3.470   1.971
    1C        O  767   2.370   3.440   1.853
    1C        O  768   2.203   3.467   2.003
    1C        C  769   4.711   3.609   5.052
    1C        O  770   4.690   3.566   5.169
    1C        O  771   4.837   3.603   4.991
    1C        C  772   4.263   4.438   5.060
    1C        O  773   4.223   4.450   5.179
    1C        O  774   4.396   4.474   5.035
    1C        C  775   4.151   2.515   5.062
    1C        O  776   4.254   2.458   5.015
    1C        O  777   4.186   2.572   5.185
    1C        C  778   2.892   4.534   5.068
    1C        O  779   2.865   4.655   5.042
    1C        O  780   2.938   4.517   5.199
    1C        C  781   2.463   3.050   5.065
    1C        O  782   2.339   3.067   5.059
    1C        O  783   2.496   3.046   5.200
    1C        C  784   2.400   4.018   5.024
    1C        O  785   2.309   4.074   4.956
    1C        O  786   2.386   4.013   5.163
    1C        C  787   2.950   2.435   1.997
    1C        O  788   2.947   2.446   1.872
    1C        O  789   2.873   2.332   2.051
    1C        C  790   3.154   2.350   5.019
    1C        O  791   3.144   2.256   4.936
    1C        O  792   3.174   2.306   5.151
    1C        H  793   4.265   3.034   5.052
    1C        H  794   4.231   2.779   5.066
    1C        H  795   4.511   3.125   5.060
    1C        H  796   4.480   3.378   5.059
    1C        H  797   4.596   3.823   5.035
    1C        H  798   4.387   3.949   5.048
    1C        H  799   4.298   4.180   5.050
    1C        H  800   4.034   4.544   5.023
    1C        H  801   3.821   4.601   5.035
    1C        H  802   3.604   4.676   5.011
    1C        H  803   3.390   4.450   5.029
    1C        H  804   3.168   4.526   5.056
    1C        H  805   3.878   2.521   5.072
    1C        H  806   3.677   2.472   5.081
    1C        H  807   3.007   2.567   5.066
    1C        H  808   3.442   2.441   5.068
    1C        H  809   2.869   2.728   5.079
    1C        H  810   2.689   2.886   5.077
    1C        H  811   2.543   3.301   5.080
    1C        H  812   2.493   3.505   5.069
    1C        H  813   2.544   3.731   5.074
    1C        H  814   2.578   4.183   5.037
    1C        H  815   2.733   4.348   5.045
    1C        H  816   2.743   2.906   1.985
    1C        H  817   2.864   2.706   1.977
    1C        H  818   3.207   2.436   1.990
    1C        H  819   3.423   2.440   1.985
    1C        H  820   3.833   2.553   1.981
    1C        H  821   4.073   2.605   1.976
    1C        H  822   4.257   2.722   1.974
    1C        H  823   4.400   2.910   1.967
    1C        H  824   4.571   3.311   1.961
    1C        H  825   4.449   3.514   1.983
    1C        H  826   4.477   3.751   1.957
    1C        H  827   3.792   4.492   1.947
    1C        H  828   3.940   4.339   1.962
    1C        H  829   4.147   4.228   1.958
    1C        H  830   4.477   3.961   1.961
    1C        H  831   2.610   3.849   1.965
    1C        H  832   2.718   4.060   1.960
    1C        H  833   2.723   4.298   1.967
    1C        H  834   3.389   4.444   1.958
    1C        H  835   3.163   4.377   1.965
    1C        H  836   2.568   3.037   1.975
    1C        H  837   2.478   3.248   1.976
    1C        H  838   2.462   3.693   1.976
    2V3OU   H29  839   2.809   3.553   1.983
    2V3OU   C27  840   2.784   3.504   2.081
    2V3OU   H27  841   2.731   3.577   2.147
    2V3OU   H28  842   2.733   3.405   2.071
    2V3OU   O11  843   2.910   3.480   2.145
    2V3OU   C15  844   2.929   3.397   2.254
    2V3OU   C13  845   3.053   3.376   2.317
    2V3OU   C14  846   3.079   3.271   2.405
    2V3OU   C16  847   2.977   3.183   2.438
    2V3OU    H6  848   2.989   3.101   2.511
    2V3OU   C12  849   3.216   3.232   2.448
    2V3OU    O2  850   3.245   3.128   2.512
    2V3OU   C10  851   3.329   3.313   2.401
    2V3OU    C8  852   3.459   3.271   2.420
    2V3OU   O10  853   3.493   3.149   2.472
    2V3OU   H26  854   3.403   3.119   2.492
    2V3OU    C6  855   3.569   3.353   2.379
    2V3OU    C5  856   3.541   3.469   2.308
    2V3OU    C4  857   3.707   3.298   2.367
    2V3OU    H4  858   3.733   3.236   2.458
    2V3OU    H5  859   3.713   3.227   2.279
    2V3OU    C2  860   3.821   3.400   2.364
    2V3OU    O6  861   3.817   3.484   2.480
    2V3OU   H21  862   3.761   3.557   2.450
    2V3OU    C3  863   3.784   3.498   2.252
    2V3OU    H2  864   3.857   3.583   2.241
    2V3OU    H3  865   3.790   3.443   2.154
    2V3OU   C25  866   3.953   3.329   2.336
    2V3OU    O7  867   3.997   3.302   2.225
    2V3OU   C26  868   4.029   3.286   2.461
    2V3OU   H22  869   4.069   3.376   2.514
    2V3OU   H23  870   4.112   3.217   2.431
    2V3OU    O8  871   3.959   3.207   2.554
    2V3OU   H24  872   3.935   3.262   2.630
    2V3OU    C1  873   3.648   3.564   2.266
    2V3OU    H1  874   3.625   3.614   2.167
    2V3OU    O3  875   3.658   3.656   2.375
    2V3OU   C19  876   3.623   3.794   2.364
    2V3OU    H9  877   3.528   3.808   2.303
    2V3OU    O4  878   3.713   3.851   2.271
    2V3OU   C20  879   3.844   3.881   2.319
    2V3OU   H10  880   3.896   3.781   2.328
    2V3OU   C24  881   3.613   3.860   2.501
    2V3OU   H16  882   3.554   3.792   2.568
    2V3OU   H17  883   3.564   3.960   2.502
    2V3OU   C23  884   3.753   3.882   2.559
    2V3OU   H15  885   3.795   3.779   2.583
    2V3OU    N1  886   3.744   3.958   2.682
    2V3OU   H19  887   3.817   3.929   2.743
    2V3OU   H20  888   3.651   3.934   2.711
    2V3OU   C21  889   3.849   3.949   2.456
    2V3OU   H11  890   3.956   3.925   2.483
    2V3OU    O5  891   3.835   4.090   2.463
    2V3OU   H18  892   3.788   4.105   2.547
    2V3OU   C22  893   3.914   3.956   2.207
    2V3OU   H12  894   3.859   4.052   2.191
    2V3OU   H13  895   3.904   3.899   2.110
    2V3OU   H14  896   4.023   3.964   2.230
    2V3OU   C11  897   3.160   3.476   2.297
    2V3OU    O1  898   3.130   3.590   2.257
    2V3OU    C9  899   3.298   3.432   2.329
    2V3OU    C7  900   3.405   3.504   2.278
    2V3OU    O9  901   3.386   3.624   2.214
    2V3OU   H25  902   3.290   3.632   2.202
    2V3OU   C17  903   2.823   3.318   2.301
    2V3OU    H7  904   2.723   3.342   2.264
    2V3OU   C18  905   2.850   3.214   2.389
    2V3OU    H8  906   2.769   3.170   2.448
    3SOL     OW  907   3.578   4.866   0.911
    3SOL    HW1  908   3.633   4.934   0.961
    3SOL    HW2  909   3.638   4.812   0.853
    4SOL     OW  910   6.840   6.089   1.669
    4SOL    HW1  911   6.761   6.030   1.653
    4SOL    HW2  912   6.835   6.128   1.761
    5SOL     OW  913   4.248   1.473   2.682
    5SOL    HW1  914   4.266   1.484   2.780
    5SOL    HW2  915   4.251   1.376   2.659
    6SOL     OW  916   4.347   1.465   0.873
    6SOL    HW1  917   4.387   1.376   0.852
    6SOL    HW2  918   4.281   1.489   0.801
    7SOL     OW  919   6.669   3.617   2.377
    7SOL    HW1  920   6.677   3.517   2.369
    7SOL    HW2  921   6.704   3.646   2.466
    8SOL     OW  922   2.679   0.225   6.402
    8SOL    HW1  923   2.736   0.150   6.436
    8SOL    HW2  924   2.586   0.215   6.437
    9SOL     OW  925   6.775   5.468   6.381
    9SOL    HW1  926   6.788   5.532   6.458
    9SOL    HW2  927   6.678   5.463   6.359
   10SOL     OW  928   0.655   5.138   5.980
   10SOL    HW1  929   0.641   5.228   5.939
   10SOL    HW2  930   0.696   5.077   5.913
   11SOL     OW  931   2.896   0.046   6.870
   11SOL    HW1  932   2.856   7.027   6.949
   11SOL    HW2  933   2.904   7.010   6.793
   12SOL     OW  934   3.823   6.353   4.314
   12SOL    HW1  935   3.827   6.357   4.214
   12SOL    HW2  936   3.820   6.258   4.344
   13SOL     OW  937   3.498   5.633   3.773
   13SOL    HW1  938   3.456   5.683   3.848
   13SOL    HW2  939   3.550   5.696   3.715
   14SOL     OW  940   5.005   5.031   6.305
   14SOL    HW1  941   5.040   4.938   6.318
   14SOL    HW2  942   5.047   5.072   6.225
   15SOL     OW  943   1.350   5.861   1.297
   15SOL    HW1  944   1.385   5.839   1.389
   15SOL    HW2  945   1.254   5.890   1.304
   16SOL     OW  946   5.359   3.086   5.791
   16SOL    HW1  947   5.426   3.140   5.841
   16SOL    HW2  948   5.402   3.004   5.755
   17SOL     OW  949   5.238   6.399   5.643
   17SOL    HW1  950   5.186   6.328   5.596
   17SOL    HW2  951   5.274   6.362   5.729
   18SOL     OW  952   3.266   1.000   5.987
   18SOL    HW1  953   3.292   0.934   5.917
   18SOL    HW2  954   3.171   1.029   5.973
   19SOL     OW  955   0.639   0.103   3.328
   19SOL    HW1  956   0.648   0.124   3.425
   19SOL    HW2  957   0.721   0.136   3.280
   20SOL     OW  958   5.502   2.746   4.774
   20SOL    HW1  959   5.439   2.725   4.849
   20SOL    HW2  960   5.595   2.753   4.810
   21SOL     OW  961   3.079   2.163   2.400
   21SOL    HW1  962   3.054   2.067   2.411
   21SOL    HW2  963   3.005   2.211   2.353
   22SOL     OW  964   2.380   6.886   7.024
   22SOL    HW1  965   2.458   6.936   0.034
   22SOL    HW2  966   2.307   6.881   0.064
   23SOL     OW  967   4.863   6.453   3.036
   23SOL    HW1  968   4.922   6.383   3.076
   23SOL    HW2  969   4.774   6.413   3.013
   24SOL     OW  970   4.925   1.079   3.452
   24SOL    HW1  971   4.918   0.995   3.397
   24SOL    HW2  972   4.892   1.061   3.545
   25SOL     OW  973   2.979   0.009   5.052
   25SOL    HW1  974   3.074   0.002   5.021
   25SOL    HW2  975   2.948   0.104   5.042
   26SOL     OW  976   6.396   0.876   0.522
   26SOL    HW1  977   6.350   0.873   0.611
   26SOL    HW2  978   6.457   0.954   0.519
   27SOL     OW  979   0.870   1.544   1.832
   27SOL    HW1  980   0.945   1.550   1.767
   27SOL    HW2  981   0.814   1.464   1.811
   28SOL     OW  982   3.697   1.341   6.570
   28SOL    HW1  983   3.769   1.305   6.629
   28SOL    HW2  984   3.709   1.440   6.560
   29SOL     OW  985   4.846   2.855   1.719
   29SOL    HW1  986   4.918   2.919   1.746
   29SOL    HW2  987   4.810   2.809   1.800
   30SOL     OW  988   3.365   0.950   4.518
   30SOL    HW1  989   3.391   0.934   4.423
   30SOL    HW2  990   3.447   0.972   4.572
   31SOL     OW  991   0.767   2.508   5.784
   31SOL    HW1  992   0.747   2.419   5.743
   31SOL    HW2  993   0.733   2.581   5.725
   32SOL     OW  994   0.299   1.673   3.096
   32SOL    HW1  995   0.248   1.758   3.109
   32SOL    HW2  996   0.282   1.637   3.005
   33SOL     OW  997   2.347   3.710   6.937
   33SOL    HW1  998   2.377   3.795   6.894
   33SOL    HW2  999   2.312   3.729   0.001
   34SOL     OW 1000   2.206   1.701   3.512
   34SOL    HW1 1001   2.282   1.749   3.556
   34SOL    HW2 1002   2.208   1.604   3.537
   35SOL     OW 1003   3.538   2.841   6.828
   35SOL    HW1 1004   3.561   2.777   6.755
   35SOL    HW2 1005   3.452   2.887   6.806
   36SOL     OW 1006   6.341   0.925   5.705
   36SOL    HW1 1007   6.252   0.971   5.715
   36SOL    HW2 1008   6.328   0.826   5.713
   37SOL     OW 1009   1.253   0.279   0.489
   37SOL    HW1 1010   1.307   0.227   0.423
   37SOL    HW2 1011   1.199   0.216   0.544
   38SOL     OW 1012   6.958   4.685   2.402
   38SOL    HW1 1013   6.968   4.768   2.457
   38SOL    HW2 1014   6.878   4.694   2.342
   39SOL     OW 1015   0.027   5.119   6.775
   39SOL    HW1 1016   6.979   5.183   6.781
   39SOL    HW2 1017   7.020   5.027   6.756
   40SOL     OW 1018   5.280   2.115   1.473
   40SOL    HW1 1019   5.195   2.107   1.421
   40SOL    HW2 1020   5.349   2.055   1.432
   41SOL     OW 1021   6.499   6.466   3.976
   41SOL    HW1 1022   6.566   6.527   3.934
   41SOL    HW2 1023   6.457   6.512   4.054
   42SOL     OW 1024   2.407   5.643   5.417
   42SOL    HW1 1025   2.405   5.553   5.374
   42SOL    HW2 1026   2.339   5.702   5.375
   43SOL     OW 1027   5.525   6.453   5.445
   43SOL    HW1 1028   5.579   6.371   5.461
   43SOL    HW2 1029   5.511   6.502   5.531
   44SOL     OW 1030   5.601   2.043   6.490
   44SOL    HW1 1031   5.558   2.124   6.530
   44SOL    HW2 1032   5.531   1.978   6.462
   45SOL     OW 1033   3.357   6.524   3.209
   45SOL    HW1 1034   3.364   6.589   3.133
   45SOL    HW2 1035   3.332   6.434   3.174
   46SOL     OW 1036   1.296   3.351   3.186
   46SOL    HW1 1037   1.254   3.391   3.268
   46SOL    HW2 1038   1.235   3.279   3.150
   47SOL     OW 1039   4.860   4.708   1.144
   47SOL    HW1 1040   4.958   4.709   1.164
   47SOL    HW2 1041   4.845   4.677   1.050
   48SOL     OW 1042   6.858   2.826   6.029
   48SOL    HW1 1043   6.895   2.832   6.122
   48SOL    HW2 1044   6.871   2.913   5.982
   49SOL     OW 1045   4.789   4.166   1.865
   49SOL    HW1 1046   4.784   4.068   1.845
   49SOL    HW2 1047   4.696   4.203   1.875
   50SOL     OW 1048   6.397   2.404   5.497
   50SOL    HW1 1049   6.315   2.352   5.522
   50SOL    HW2 1050   6.396   2.422   5.398
   51SOL     OW 1051   2.998   6.313   2.548
   51SOL    HW1 1052   3.024   6.408   2.528
   51SOL    HW2 1053   2.928   6.312   2.619
   52SOL     OW 1054   5.272   2.309   3.275
   52SOL    HW1 1055   5.323   2.228   3.245
   52SOL    HW2 1056   5.300   2.388   3.220
   53SOL     OW 1057   4.064   6.780   4.498
   53SOL    HW1 1058   4.153   6.799   4.540
   53SOL    HW2 1059   4.046   6.682   4.502
   54SOL     OW 1060   3.968   4.796   1.111
   54SOL    HW1 1061   4.052   4.751   1.078
   54SOL    HW2 1062   3.903   4.727   1.141
   55SOL     OW 1063   3.315   1.671   6.167
   55SOL    HW1 1064   3.347   1.576   6.161
   55SOL    HW2 1065   3.338   1.719   6.083
   56SOL     OW 1066   0.296   0.559   1.264
   56SOL    HW1 1067   0.352   0.476   1.261
   56SOL    HW2 1068   0.252   0.572   1.175
   57SOL     OW 1069   5.249   0.179   0.727
   57SOL    HW1 1070   5.219   0.262   0.680
   57SOL    HW2 1071   5.237   0.190   0.825
   58SOL     OW 1072   6.668   6.810   6.018
   58SOL    HW1 1073   6.673   6.910   6.028
   58SOL    HW2 1074   6.757   6.774   5.992
   59SOL     OW 1075   1.365   1.568   5.837
   59SOL    HW1 1076   1.395   1.566   5.741
   59SOL    HW2 1077   1.418   1.502   5.889
   60SOL     OW 1078   5.382   0.984   5.979
   60SOL    HW1 1079   5.391   0.994   6.078
   60SOL    HW2 1080   5.288   0.959   5.956
   61SOL     OW 1081   5.164   2.107   4.979
   61SOL    HW1 1082   5.132   2.021   5.021
   61SOL    HW2 1083   5.187   2.172   5.051
   62SOL     OW 1084   6.657   1.182   3.003
   62SOL    HW1 1085   6.720   1.104   3.005
   62SOL    HW2 1086   6.691   1.254   3.064
   63SOL     OW 1087   5.618   1.420   3.904
   63SOL    HW1 1088   5.560   1.467   3.836
   63SOL    HW2 1089   5.652   1.335   3.865
   64SOL     OW 1090   0.283   3.741   6.035
   64SOL    HW1 1091   0.279   3.655   6.086
   64SOL    HW2 1092   0.190   3.777   6.024
   65SOL     OW 1093   6.817   4.596   5.289
   65SOL    HW1 1094   6.764   4.675   5.319
   65SOL    HW2 1095   6.915   4.613   5.302
   66SOL     OW 1096   3.948   0.682   5.609
   66SOL    HW1 1097   3.903   0.712   5.524
   66SOL    HW2 1098   3.997   0.596   5.592
   67SOL     OW 1099   5.173   4.321   5.826
   67SOL    HW1 1100   5.085   4.353   5.791
   67SOL    HW2 1101   5.246   4.378   5.789
   68SOL     OW 1102   5.388   0.627   6.697
   68SOL    HW1 1103   5.425   0.660   6.784
   68SOL    HW2 1104   5.305   0.574   6.715
   69SOL     OW 1105   1.155   3.791   6.173
   69SOL    HW1 1106   1.083   3.854   6.143
   69SOL    HW2 1107   1.165   3.797   6.272
   70SOL     OW 1108   5.777   4.865   4.234
   70SOL    HW1 1109   5.839   4.845   4.311
   70SOL    HW2 1110   5.822   4.928   4.171
   71SOL     OW 1111   4.252   1.655   3.224
   71SOL    HW1 1112   4.274   1.665   3.321
   71SOL    HW2 1113   4.245   1.745   3.181
   72SOL     OW 1114   2.620   6.541   4.416
   72SOL    HW1 1115   2.582   6.452   4.442
   72SOL    HW2 1116   2.703   6.527   4.363
   73SOL     OW 1117   3.264   0.990   0.826
   73SOL    HW1 1118   3.255   1.081   0.785
   73SOL    HW2 1119   3.189   0.932   0.793
   74SOL     OW 1120   5.403   6.444   6.525
   74SOL    HW1 1121   5.405   6.407   6.618
   74SOL    HW2 1122   5.334   6.396   6.471
   75SOL     OW 1123   3.837   0.120   0.159
   75SOL    HW1 1124   3.883   0.049   0.212
   75SOL    HW2 1125   3.817   0.085   0.067
   76SOL     OW 1126   2.559   2.745   1.047
   76SOL    HW1 1127   2.581   2.657   1.005
   76SOL    HW2 1128   2.571   2.817   0.979
   77SOL     OW 1129   6.277   6.530   3.313
   77SOL    HW1 1130   6.204   6.596   3.334
   77SOL    HW2 1131   6.330   6.513   3.396
   78SOL     OW 1132   5.901   0.697   6.567
   78SOL    HW1 1133   5.843   0.710   6.487
   78SOL    HW2 1134   5.995   0.679   6.538
   79SOL     OW 1135   3.224   6.206   0.135
   79SOL    HW1 1136   3.272   6.170   0.055
   79SOL    HW2 1137   3.287   6.257   0.192
   80SOL     OW 1138   5.451   1.963   3.885
   80SOL    HW1 1139   5.473   1.884   3.827
   80SOL    HW2 1140   5.353   1.964   3.904
   81SOL     OW 1141   2.132   0.456   3.089
   81SOL    HW1 1142   2.074   0.460   3.170
   81SOL    HW2 1143   2.090   0.395   3.022
   82SOL     OW 1144   6.809   5.030   1.079
   82SOL    HW1 1145   6.775   4.997   1.167
   82SOL    HW2 1146   6.886   4.974   1.049
   83SOL     OW 1147   0.319   0.694   0.690
   83SOL    HW1 1148   0.345   0.602   0.662
   83SOL    HW2 1149   0.290   0.746   0.609
   84SOL     OW 1150   5.407   2.788   3.615
   84SOL    HW1 1151   5.467   2.826   3.544
   84SOL    HW2 1152   5.338   2.729   3.571
   85SOL     OW 1153   2.080   2.027   4.620
   85SOL    HW1 1154   2.034   1.963   4.558
   85SOL    HW2 1155   2.080   2.118   4.579
   86SOL     OW 1156   0.082   0.516   5.103
   86SOL    HW1 1157   0.015   0.493   5.033
   86SOL    HW2 1158   0.162   0.456   5.093
   87SOL     OW 1159   5.446   3.752   0.493
   87SOL    HW1 1160   5.398   3.824   0.442
   87SOL    HW2 1161   5.409   3.748   0.586
   88SOL     OW 1162   3.693   1.702   6.063
   88SOL    HW1 1163   3.632   1.780   6.077
   88SOL    HW2 1164   3.785   1.735   6.042
   89SOL     OW 1165   1.133   2.679   5.423
   89SOL    HW1 1166   1.070   2.629   5.482
   89SOL    HW2 1167   1.225   2.640   5.431
   90SOL     OW 1168   3.843   5.806   2.484
   90SOL    HW1 1169   3.765   5.859   2.517
   90SOL    HW2 1170   3.864   5.833   2.390
   91SOL     OW 1171   4.608   4.308   5.057
   91SOL    HW1 1172   4.693   4.354   5.031
   91SOL    HW2 1173   4.531   4.350   5.010
   92SOL     OW 1174   3.515   4.141   0.295
   92SOL    HW1 1175   3.563   4.225   0.319
   92SOL    HW2 1176   3.555   4.103   0.211
   93SOL     OW 1177   2.648   3.884   6.658
   93SOL    HW1 1178   2.653   3.800   6.711
   93SOL    HW2 1179   2.552   3.908   6.642
   94SOL     OW 1180   2.581   6.058   6.078
   94SOL    HW1 1181   2.542   5.977   6.036
   94SOL    HW2 1182   2.611   6.122   6.007
   95SOL     OW 1183   1.384   0.672   2.886
   95SOL    HW1 1184   1.294   0.714   2.876
   95SOL    HW2 1185   1.413   0.635   2.798
   96SOL     OW 1186   3.209   0.251   5.389
   96SOL    HW1 1187   3.182   0.155   5.385
   96SOL    HW2 1188   3.300   0.259   5.429
   97SOL     OW 1189   2.165   3.098   5.932
   97SOL    HW1 1190   2.121   3.031   5.873
   97SOL    HW2 1191   2.251   3.127   5.891
   98SOL     OW 1192   6.598   3.572   0.595
   98SOL    HW1 1193   6.689   3.540   0.623
   98SOL    HW2 1194   6.528   3.515   0.639
   99SOL     OW 1195   4.155   3.677   1.053
   99SOL    HW1 1196   4.251   3.661   1.031
   99SOL    HW2 1197   4.102   3.686   0.969
  100SOL     OW 1198   6.783   6.854   5.149
  100SOL    HW1 1199   6.770   6.832   5.052
  100SOL    HW2 1200   6.764   6.951   5.163
  101SOL     OW 1201   1.768   5.563   2.351
  101SOL    HW1 1202   1.686   5.524   2.309
  101SOL    HW2 1203   1.812   5.625   2.287
  102SOL     OW 1204   3.722   0.029   2.826
  102SOL    HW1 1205   3.784   0.107   2.816
  102SOL    HW2 1206   3.638   0.059   2.872
  103SOL     OW 1207   3.007   1.146   2.247
  103SOL    HW1 1208   3.036   1.055   2.219
  103SOL    HW2 1209   2.939   1.180   2.182
  104SOL     OW 1210   0.564   5.470   2.794
  104SOL    HW1 1211   0.527   5.562   2.805
  104SOL    HW2 1212   0.512   5.406   2.851
  105SOL     OW 1213   6.868   2.737   6.719
  105SOL    HW1 1214   6.803   2.664   6.742
  105SOL    HW2 1215   6.820   2.825   6.719
  106SOL     OW 1216   3.491   6.255   5.070
  106SOL    HW1 1217   3.477   6.293   4.979
  106SOL    HW2 1218   3.421   6.186   5.089
  107SOL     OW 1219   2.245   1.290   1.904
  107SOL    HW1 1220   2.317   1.328   1.845
  107SOL    HW2 1221   2.285   1.264   1.992
  108SOL     OW 1222   3.771   5.320   5.884
  108SOL    HW1 1223   3.789   5.234   5.931
  108SOL    HW2 1224   3.678   5.321   5.848
  109SOL     OW 1225   0.013   0.598   1.696
  109SOL    HW1 1226   0.049   0.547   1.617
  109SOL    HW2 1227   7.011   0.533   1.766
  110SOL     OW 1228   3.312   5.473   5.166
  110SOL    HW1 1229   3.408   5.480   5.192
  110SOL    HW2 1230   3.274   5.388   5.202
  111SOL     OW 1231   2.509   1.476   4.314
  111SOL    HW1 1232   2.563   1.536   4.372
  111SOL    HW2 1233   2.525   1.498   4.218
  112SOL     OW 1234   4.852   6.850   6.305
  112SOL    HW1 1235   4.951   6.857   6.296
  112SOL    HW2 1236   4.808   6.917   6.245
  113SOL     OW 1237   5.871   6.046   2.986
  113SOL    HW1 1238   5.852   5.949   2.974
  113SOL    HW2 1239   5.941   6.059   3.055
  114SOL     OW 1240   0.601   0.435   1.386
  114SOL    HW1 1241   0.513   0.420   1.432
  114SOL    HW2 1242   0.611   0.368   1.313
  115SOL     OW 1243   4.002   1.342   3.609
  115SOL    HW1 1244   4.018   1.440   3.618
  115SOL    HW2 1245   3.917   1.326   3.559
  116SOL     OW 1246   5.712   4.732   1.602
  116SOL    HW1 1247   5.640   4.710   1.668
  116SOL    HW2 1248   5.673   4.786   1.527
  117SOL     OW 1249   1.210   1.725   0.673
  117SOL    HW1 1250   1.264   1.641   0.680
  117SOL    HW2 1251   1.117   1.708   0.703
  118SOL     OW 1252   1.808   1.164   3.549
  118SOL    HW1 1253   1.788   1.189   3.644
  118SOL    HW2 1254   1.891   1.211   3.519
  119SOL     OW 1255   0.278   1.291   6.972
  119SOL    HW1 1256   0.207   1.280   6.903
  119SOL    HW2 1257   0.343   1.216   6.966
  120SOL     OW 1258   6.701   6.418   0.241
  120SOL    HW1 1259   6.754   6.397   0.323
  120SOL    HW2 1260   6.727   6.508   0.207
  121SOL     OW 1261   2.167   3.670   6.258
  121SOL    HW1 1262   2.091   3.606   6.253
  121SOL    HW2 1263   2.218   3.655   6.343
  122SOL     OW 1264   2.166   4.112   6.420
  122SOL    HW1 1265   2.106   4.053   6.473
  122SOL    HW2 1266   2.113   4.155   6.346
  123SOL     OW 1267   0.195   1.197   2.081
  123SOL    HW1 1268   0.290   1.182   2.106
  123SOL    HW2 1269   0.182   1.179   1.984
  124SOL     OW 1270   4.366   3.284   0.925
  124SOL    HW1 1271   4.456   3.245   0.944
  124SOL    HW2 1272   4.373   3.351   0.851
  125SOL     OW 1273   3.593   1.775   1.648
  125SOL    HW1 1274   3.552   1.863   1.622
  125SOL    HW2 1275   3.684   1.791   1.686
  126SOL     OW 1276   2.742   3.864   0.925
  126SOL    HW1 1277   2.737   3.843   1.022
  126SOL    HW2 1278   2.653   3.894   0.892
  127SOL     OW 1279   0.850   5.402   6.704
  127SOL    HW1 1280   0.758   5.365   6.717
  127SOL    HW2 1281   0.865   5.422   6.607
  128SOL     OW 1282   4.996   3.141   1.284
  128SOL    HW1 1283   5.069   3.074   1.266
  128SOL    HW2 1284   5.030   3.233   1.266
  129SOL     OW 1285   2.297   2.994   6.285
  129SOL    HW1 1286   2.386   3.038   6.271
  129SOL    HW2 1287   2.258   2.968   6.196
  130SOL     OW 1288   0.938   1.863   3.811
  130SOL    HW1 1289   0.932   1.764   3.796
  130SOL    HW2 1290   1.013   1.900   3.757
  131SOL     OW 1291   5.198   1.746   3.766
  131SOL    HW1 1292   5.190   1.829   3.822
  131SOL    HW2 1293   5.174   1.766   3.672
  132SOL     OW 1294   2.229   2.185   1.175
  132SOL    HW1 1295   2.183   2.260   1.223
  132SOL    HW2 1296   2.186   2.172   1.085
  133SOL     OW 1297   4.702   6.623   3.848
  133SOL    HW1 1298   4.788   6.588   3.811
  133SOL    HW2 1299   4.636   6.548   3.854
  134SOL     OW 1300   6.816   1.232   2.406
  134SOL    HW1 1301   6.836   1.216   2.502
  134SOL    HW2 1302   6.721   1.261   2.395
  135SOL     OW 1303   5.519   3.700   3.873
  135SOL    HW1 1304   5.577   3.662   3.945
  135SOL    HW2 1305   5.519   3.638   3.794
  136SOL     OW 1306   3.552   3.731   5.785
  136SOL    HW1 1307   3.472   3.717   5.844
  136SOL    HW2 1308   3.626   3.671   5.815
  137SOL     OW 1309   5.614   1.976   4.687
  137SOL    HW1 1310   5.541   1.978   4.619
  137SOL    HW2 1311   5.574   1.965   4.778
  138SOL     OW 1312   0.988   4.144   2.788
  138SOL    HW1 1313   0.922   4.200   2.738
  138SOL    HW2 1314   1.052   4.204   2.837
  139SOL     OW 1315   2.205   0.131   4.710
  139SOL    HW1 1316   2.161   0.196   4.648
  139SOL    HW2 1317   2.181   0.038   4.683
  140SOL     OW 1318   1.072   5.457   2.709
  140SOL    HW1 1319   1.156   5.477   2.659
  140SOL    HW2 1320   1.079   5.366   2.750
  141SOL     OW 1321   6.149   3.389   5.314
  141SOL    HW1 1322   6.119   3.317   5.375
  141SOL    HW2 1323   6.161   3.474   5.365
  142SOL     OW 1324   1.216   3.725   0.639
  142SOL    HW1 1325   1.142   3.709   0.705
  142SOL    HW2 1326   1.287   3.656   0.652
  143SOL     OW 1327   6.216   4.532   1.189
  143SOL    HW1 1328   6.258   4.454   1.237
  143SOL    HW2 1329   6.117   4.520   1.187
  144SOL     OW 1330   1.283   6.570   5.979
  144SOL    HW1 1331   1.214   6.582   5.908
  144SOL    HW2 1332   1.319   6.477   5.975
  145SOL     OW 1333   6.991   5.752   0.205
  145SOL    HW1 1334   7.013   5.698   0.123
  145SOL    HW2 1335   6.892   5.769   0.208
  146SOL     OW 1336   4.659   7.019   6.762
  146SOL    HW1 1337   4.712   7.021   6.847
  146SOL    HW2 1338   4.718   6.992   6.687
  147SOL     OW 1339   6.594   3.791   6.895
  147SOL    HW1 1340   6.556   3.775   6.804
  147SOL    HW2 1341   6.521   3.787   6.963
  148SOL     OW 1342   7.013   5.337   6.249
  148SOL    HW1 1343   6.995   5.239   6.246
  148SOL    HW2 1344   6.932   5.384   6.285
  149SOL     OW 1345   3.068   1.668   4.277
  149SOL    HW1 1346   3.094   1.574   4.302
  149SOL    HW2 1347   3.023   1.711   4.355
  150SOL     OW 1348   6.016   5.480   6.834
  150SOL    HW1 1349   6.042   5.576   6.826
  150SOL    HW2 1350   5.999   5.442   6.743
  151SOL     OW 1351   2.981   2.143   0.915
  151SOL    HW1 1352   2.906   2.077   0.918
  151SOL    HW2 1353   3.068   2.094   0.919
  152SOL     OW 1354   1.524   0.935   2.615
  152SOL    HW1 1355   1.484   0.963   2.528
  152SOL    HW2 1356   1.620   0.912   2.602
  153SOL     OW 1357   2.663   0.586   1.842
  153SOL    HW1 1358   2.624   0.626   1.759
  153SOL    HW2 1359   2.758   0.617   1.852
  154SOL     OW 1360   0.503   2.239   2.502
  154SOL    HW1 1361   0.543   2.255   2.411
  154SOL    HW2 1362   0.446   2.317   2.527
  155SOL     OW 1363   6.973   1.871   3.307
  155SOL    HW1 1364   7.011   1.942   3.366
  155SOL    HW2 1365   6.922   1.805   3.363
  156SOL     OW 1366   0.499   2.019   0.569
  156SOL    HW1 1367   0.532   2.102   0.616
  156SOL    HW2 1368   0.400   2.022   0.562
  157SOL     OW 1369   5.739   3.033   1.640
  157SOL    HW1 1370   5.712   3.023   1.736
  157SOL    HW2 1371   5.674   2.984   1.582
  158SOL     OW 1372   2.023   5.601   2.526
  158SOL    HW1 1373   1.924   5.589   2.522
  158SOL    HW2 1374   2.060   5.606   2.433
  159SOL     OW 1375   4.288   4.638   2.467
  159SOL    HW1 1376   4.307   4.601   2.558
  159SOL    HW2 1377   4.326   4.577   2.398
  160SOL     OW 1378   5.810   5.198   0.158
  160SOL    HW1 1379   5.742   5.143   0.108
  160SOL    HW2 1380   5.815   5.289   0.117
  161SOL     OW 1381   1.695   5.961   4.096
  161SOL    HW1 1382   1.684   6.019   4.016
  161SOL    HW2 1383   1.790   5.932   4.104
  162SOL     OW 1384   3.580   5.707   0.285
  162SOL    HW1 1385   3.550   5.662   0.201
  162SOL    HW2 1386   3.641   5.783   0.262
  163SOL     OW 1387   5.702   5.829   0.780
  163SOL    HW1 1388   5.729   5.853   0.873
  163SOL    HW2 1389   5.699   5.730   0.771
  164SOL     OW 1390   6.512   4.550   0.156
  164SOL    HW1 1391   6.526   4.451   0.158
  164SOL    HW2 1392   6.600   4.596   0.168
  165SOL     OW 1393   4.964   3.098   1.590
  165SOL    HW1 1394   4.965   3.117   1.492
  165SOL    HW2 1395   4.873   3.117   1.627
  166SOL     OW 1396   0.017   4.465   3.162
  166SOL    HW1 1397   7.016   4.382   3.211
  166SOL    HW2 1398   0.111   4.487   3.188
  167SOL     OW 1399   5.070   2.683   0.657
  167SOL    HW1 1400   5.138   2.756   0.659
  167SOL    HW2 1401   5.100   2.611   0.595
  168SOL     OW 1402   2.437   2.974   1.455
  168SOL    HW1 1403   2.427   3.054   1.395
  168SOL    HW2 1404   2.531   2.971   1.491
  169SOL     OW 1405   4.581   1.102   1.426
  169SOL    HW1 1406   4.592   1.194   1.464
  169SOL    HW2 1407   4.619   1.099   1.334
  170SOL     OW 1408   1.534   1.364   3.120
  170SOL    HW1 1409   1.587   1.343   3.202
  170SOL    HW2 1410   1.590   1.349   3.039
  171SOL     OW 1411   3.886   4.382   6.579
  171SOL    HW1 1412   3.832   4.321   6.522
  171SOL    HW2 1413   3.838   4.397   6.666
  172SOL     OW 1414   6.157   1.942   3.638
  172SOL    HW1 1415   6.082   1.919   3.576
  172SOL    HW2 1416   6.141   2.032   3.677
  173SOL     OW 1417   7.006   1.995   4.654
  173SOL    HW1 1418   6.915   2.036   4.646
  173SOL    HW2 1419   0.047   2.060   4.620
  174SOL     OW 1420   3.691   5.211   3.335
  174SOL    HW1 1421   3.669   5.126   3.287
  174SOL    HW2 1422   3.666   5.202   3.431
  175SOL     OW 1423   2.308   0.359   1.670
  175SOL    HW1 1424   2.336   0.270   1.635
  175SOL    HW2 1425   2.214   0.353   1.705
  176SOL     OW 1426   1.055   4.476   0.766
  176SOL    HW1 1427   1.027   4.491   0.671
  176SOL    HW2 1428   1.153   4.494   0.775
  177SOL     OW 1429   6.004   3.156   2.996
  177SOL    HW1 1430   6.035   3.239   3.042
  177SOL    HW2 1431   5.998   3.173   2.897
  178SOL     OW 1432   2.408   2.663   6.929
  178SOL    HW1 1433   2.434   2.711   7.013
  178SOL    HW2 1434   2.489   2.620   6.889
  179SOL     OW 1435   3.154   1.090   5.696
  179SOL    HW1 1436   3.128   1.017   5.759
  179SOL    HW2 1437   3.161   1.052   5.603
  180SOL     OW 1438   1.861   6.711   0.448
  180SOL    HW1 1439   1.839   6.613   0.450
  180SOL    HW2 1440   1.781   6.764   0.474
  181SOL     OW 1441   3.370   2.437   6.409
  181SOL    HW1 1442   3.454   2.488   6.390
  181SOL    HW2 1443   3.366   2.414   6.506
  182SOL     OW 1444   3.981   1.360   4.448
  182SOL    HW1 1445   3.886   1.379   4.470
  182SOL    HW2 1446   4.031   1.339   4.532
  183SOL     OW 1447   3.431   2.061   3.126
  183SOL    HW1 1448   3.411   2.018   3.214
  183SOL    HW2 1449   3.529   2.081   3.119
  184SOL     OW 1450   1.799   6.367   4.409
  184SOL    HW1 1451   1.768   6.325   4.324
  184SOL    HW2 1452   1.722   6.410   4.455
  185SOL     OW 1453   0.215   1.443   6.069
  185SOL    HW1 1454   0.305   1.484   6.080
  185SOL    HW2 1455   0.222   1.344   6.078
  186SOL     OW 1456   5.549   1.107   4.750
  186SOL    HW1 1457   5.597   1.195   4.756
  186SOL    HW2 1458   5.571   1.064   4.662
  187SOL     OW 1459   4.067   6.991   3.271
  187SOL    HW1 1460   4.127   0.033   3.310
  187SOL    HW2 1461   4.022   6.940   3.344
  188SOL     OW 1462   0.492   1.826   2.630
  188SOL    HW1 1463   0.501   1.727   2.624
  188SOL    HW2 1464   0.560   1.862   2.693
  189SOL     OW 1465   1.854   5.582   1.558
  189SOL    HW1 1466   1.845   5.483   1.548
  189SOL    HW2 1467   1.921   5.602   1.629
  190SOL     OW 1468   5.400   2.027   4.545
  190SOL    HW1 1469   5.312   1.998   4.580
  190SOL    HW2 1470   5.413   2.125   4.565
  191SOL     OW 1471   5.907   6.213   6.987
  191SOL    HW1 1472   5.950   6.132   7.027
  191SOL    HW2 1473   5.810   6.215   7.012
  192SOL     OW 1474   0.722   5.898   2.045
  192SOL    HW1 1475   0.790   5.971   2.060
  192SOL    HW2 1476   0.632   5.930   2.076
  193SOL     OW 1477   5.139   2.803   5.567
  193SOL    HW1 1478   5.189   2.784   5.651
  193SOL    HW2 1479   5.198   2.854   5.504
  194SOL     OW 1480   3.765   0.389   2.803
  194SOL    HW1 1481   3.684   0.383   2.861
  194SOL    HW2 1482   3.842   0.343   2.848
  195SOL     OW 1483   1.701   7.021   4.993
  195SOL    HW1 1484   1.692   0.066   4.925
  195SOL    HW2 1485   1.618   7.018   5.049
  196SOL     OW 1486   2.835   0.417   0.706
  196SOL    HW1 1487   2.791   0.332   0.736
  196SOL    HW2 1488   2.809   0.436   0.611
  197SOL     OW 1489   2.602   6.776   1.459
  197SOL    HW1 1490   2.602   6.876   1.460
  197SOL    HW2 1491   2.511   6.743   1.486
  198SOL     OW 1492   4.844   0.662   2.914
  198SOL    HW1 1493   4.788   0.594   2.866
  198SOL    HW2 1494   4.816   0.754   2.887
  199SOL     OW 1495   6.911   1.975   3.911
  199SOL    HW1 1496   6.811   1.972   3.905
  199SOL    HW2 1497   6.948   1.887   3.883
  200SOL     OW 1498   1.207   3.393   0.579
  200SOL    HW1 1499   1.144   3.317   0.595
  200SOL    HW2 1500   1.212   3.413   0.481
  201SOL     OW 1501   0.443   0.294   6.130
  201SOL    HW1 1502   0.534   0.334   6.139
  201SOL    HW2 1503   0.446   0.197   6.157
  202SOL     OW 1504   3.636   0.973   7.006
  202SOL    HW1 1505   3.682   0.891   0.012
  202SOL    HW2 1506   3.540   0.973   0.008
  203SOL     OW 1507   5.689   2.460   5.493
  203SOL    HW1 1508   5.727   2.502   5.576
  203SOL    HW2 1509   5.623   2.521   5.452
  204SOL     OW 1510   1.068   0.608   4.937
  204SOL    HW1 1511   1.027   0.607   4.846
  204SOL    HW2 1512   1.007   0.657   5.000
  205SOL     OW 1513   0.026   2.219   3.217
  205SOL    HW1 1514   6.960   2.242   3.192
  205SOL    HW2 1515   0.026   2.151   3.290
  206SOL     OW 1516   0.560   4.342   0.780
  206SOL    HW1 1517   0.528   4.430   0.746
  206SOL    HW2 1518   0.659   4.343   0.789
  207SOL     OW 1519   6.316   1.859   3.911
  207SOL    HW1 1520   6.298   1.956   3.926
  207SOL    HW2 1521   6.306   1.809   3.997
  208SOL     OW 1522   6.612   4.570   5.591
  208SOL    HW1 1523   6.662   4.505   5.649
  208SOL    HW2 1524   6.664   4.586   5.507
  209SOL     OW 1525   0.449   5.703   4.293
  209SOL    HW1 1526   0.390   5.626   4.318
  209SOL    HW2 1527   0.393   5.777   4.255
  210SOL     OW 1528   4.609   1.640   0.605
  210SOL    HW1 1529   4.700   1.628   0.567
  210SOL    HW2 1530   4.592   1.738   0.620
  211SOL     OW 1531   2.053   6.544   2.338
  211SOL    HW1 1532   1.985   6.509   2.403
  211SOL    HW2 1533   2.114   6.608   2.386
  212SOL     OW 1534   0.919   3.822   1.751
  212SOL    HW1 1535   0.988   3.881   1.709
  212SOL    HW2 1536   0.964   3.744   1.796
  213SOL     OW 1537   2.947   0.087   0.455
  213SOL    HW1 1538   2.853   0.085   0.492
  213SOL    HW2 1539   3.012   0.082   0.530
  214SOL     OW 1540   4.140   5.419   2.536
  214SOL    HW1 1541   4.201   5.388   2.609
  214SOL    HW2 1542   4.054   5.449   2.576
  215SOL     OW 1543   2.638   3.744   0.681
  215SOL    HW1 1544   2.726   3.719   0.721
  215SOL    HW2 1545   2.570   3.675   0.704
  216SOL     OW 1546   1.311   6.021   3.681
  216SOL    HW1 1547   1.276   6.096   3.737
  216SOL    HW2 1548   1.387   6.053   3.626
  217SOL     OW 1549   1.219   3.136   3.645
  217SOL    HW1 1550   1.134   3.109   3.600
  217SOL    HW2 1551   1.293   3.076   3.616
  218SOL     OW 1552   0.620   3.272   4.453
  218SOL    HW1 1553   0.680   3.342   4.415
  218SOL    HW2 1554   0.583   3.304   4.540
  219SOL     OW 1555   4.240   0.687   0.023
  219SOL    HW1 1556   4.297   0.767   0.042
  219SOL    HW2 1557   4.187   0.665   0.105
  220SOL     OW 1558   3.192   6.896   1.713
  220SOL    HW1 1559   3.236   6.930   1.796
  220SOL    HW2 1560   3.093   6.894   1.726
  221SOL     OW 1561   6.129   4.252   1.072
  221SOL    HW1 1562   6.163   4.275   1.163
  221SOL    HW2 1563   6.061   4.179   1.079
  222SOL     OW 1564   2.032   4.697   5.339
  222SOL    HW1 1565   2.070   4.608   5.315
  222SOL    HW2 1566   2.059   4.765   5.270
  223SOL     OW 1567   6.643   3.218   6.284
  223SOL    HW1 1568   6.551   3.224   6.245
  223SOL    HW2 1569   6.647   3.271   6.369
  224SOL     OW 1570   2.535   1.703   5.686
  224SOL    HW1 1571   2.571   1.617   5.649
  224SOL    HW2 1572   2.507   1.690   5.781
  225SOL     OW 1573   4.833   3.950   6.870
  225SOL    HW1 1574   4.799   3.959   6.776
  225SOL    HW2 1575   4.778   3.884   6.920
  226SOL     OW 1576   1.117   1.424   5.886
  226SOL    HW1 1577   1.201   1.469   5.856
  226SOL    HW2 1578   1.093   1.352   5.820
  227SOL     OW 1579   1.055   3.833   1.408
  227SOL    HW1 1580   1.047   3.895   1.330
  227SOL    HW2 1581   1.068   3.885   1.492
  228SOL     OW 1582   2.780   0.314   3.660
  228SOL    HW1 1583   2.839   0.244   3.700
  228SOL    HW2 1584   2.724   0.274   3.588
  229SOL     OW 1585   6.159   6.328   6.027
  229SOL    HW1 1586   6.127   6.389   6.099
  229SOL    HW2 1587   6.258   6.339   6.016
  230SOL     OW 1588   3.538   4.903   3.443
  230SOL    HW1 1589   3.557   4.922   3.539
  230SOL    HW2 1590   3.471   4.829   3.437
  231SOL     OW 1591   5.845   1.427   6.992
  231SOL    HW1 1592   5.943   1.431   6.976
  231SOL    HW2 1593   5.827   1.398   0.059
  232SOL     OW 1594   0.379   3.430   6.744
  232SOL    HW1 1595   0.460   3.373   6.725
  232SOL    HW2 1596   0.322   3.385   6.812
  233SOL     OW 1597   3.466   1.357   2.909
  233SOL    HW1 1598   3.541   1.402   2.957
  233SOL    HW2 1599   3.404   1.315   2.975
  234SOL     OW 1600   5.400   0.563   6.272
  234SOL    HW1 1601   5.302   0.542   6.276
  234SOL    HW2 1602   5.429   0.604   6.358
  235SOL     OW 1603   4.478   2.536   1.701
  235SOL    HW1 1604   4.522   2.625   1.697
  235SOL    HW2 1605   4.384   2.546   1.733
  236SOL     OW 1606   5.948   2.597   6.795
  236SOL    HW1 1607   5.881   2.672   6.787
  236SOL    HW2 1608   5.903   2.516   6.833
  237SOL     OW 1609   6.762   4.905   1.974
  237SOL    HW1 1610   6.722   4.852   1.899
  237SOL    HW2 1611   6.860   4.916   1.959
  238SOL     OW 1612   5.403   0.939   0.543
  238SOL    HW1 1613   5.393   1.036   0.520
  238SOL    HW2 1614   5.462   0.929   0.623
  239SOL     OW 1615   0.602   5.283   6.686
  239SOL    HW1 1616   0.507   5.310   6.705
  239SOL    HW2 1617   0.603   5.187   6.656
  240SOL     OW 1618   6.770   2.965   3.596
  240SOL    HW1 1619   6.677   2.948   3.631
  240SOL    HW2 1620   6.820   3.021   3.662
  241SOL     OW 1621   2.995   2.081   5.031
  241SOL    HW1 1622   3.086   2.114   5.004
  241SOL    HW2 1623   2.957   2.143   5.099
  242SOL     OW 1624   3.730   3.729   4.224
  242SOL    HW1 1625   3.646   3.756   4.271
  242SOL    HW2 1626   3.803   3.716   4.291
  243SOL     OW 1627   4.284   0.638   6.421
  243SOL    HW1 1628   4.223   0.700   6.373
  243SOL    HW2 1629   4.236   0.597   6.499
  244SOL     OW 1630   5.978   3.165   5.435
  244SOL    HW1 1631   5.883   3.195   5.426
  244SOL    HW2 1632   6.018   3.205   5.518
  245SOL     OW 1633   5.039   2.713   4.227
  245SOL    HW1 1634   5.006   2.795   4.273
  245SOL    HW2 1635   5.120   2.736   4.173
  246SOL     OW 1636   4.978   2.171   3.046
  246SOL    HW1 1637   4.905   2.234   3.021
  246SOL    HW2 1638   5.059   2.223   3.072
  247SOL     OW 1639   2.918   1.636   6.865
  247SOL    HW1 1640   2.983   1.710   6.883
  247SOL    HW2 1641   2.898   1.588   6.951
  248SOL     OW 1642   3.978   1.425   2.548
  248SOL    HW1 1643   4.006   1.343   2.499
  248SOL    HW2 1644   4.049   1.451   2.614
  249SOL     OW 1645   4.296   0.337   4.936
  249SOL    HW1 1646   4.305   0.409   5.005
  249SOL    HW2 1647   4.272   0.251   4.980
  250SOL     OW 1648   4.915   3.110   0.617
  250SOL    HW1 1649   4.906   3.011   0.621
  250SOL    HW2 1650   4.939   3.145   0.708
  251SOL     OW 1651   4.618   3.828   5.663
  251SOL    HW1 1652   4.599   3.772   5.744
  251SOL    HW2 1653   4.713   3.858   5.665
  252SOL     OW 1654   0.180   5.849   5.402
  252SOL    HW1 1655   0.112   5.878   5.470
  252SOL    HW2 1656   0.137   5.788   5.336
  253SOL     OW 1657   2.492   4.843   6.099
  253SOL    HW1 1658   2.577   4.803   6.064
  253SOL    HW2 1659   2.435   4.770   6.138
  254SOL     OW 1660   6.176   2.400   3.960
  254SOL    HW1 1661   6.218   2.437   4.043
  254SOL    HW2 1662   6.078   2.387   3.974
  255SOL     OW 1663   1.554   4.864   5.334
  255SOL    HW1 1664   1.468   4.913   5.348
  255SOL    HW2 1665   1.564   4.794   5.405
  256SOL     OW 1666   6.130   3.685   6.148
  256SOL    HW1 1667   6.138   3.713   6.052
  256SOL    HW2 1668   6.047   3.723   6.187
  257SOL     OW 1669   5.074   0.478   4.166
  257SOL    HW1 1670   5.006   0.486   4.238
  257SOL    HW2 1671   5.081   0.382   4.138
  258SOL     OW 1672   2.359   5.055   5.114
  258SOL    HW1 1673   2.295   5.118   5.071
  258SOL    HW2 1674   2.329   5.037   5.208
  259SOL     OW 1675   6.611   2.382   2.935
  259SOL    HW1 1676   6.665   2.436   2.871
  259SOL    HW2 1677   6.522   2.425   2.948
  260SOL     OW 1678   4.246   0.160   1.710
  260SOL    HW1 1679   4.250   0.249   1.754
  260SOL    HW2 1680   4.151   0.138   1.687
  261SOL     OW 1681   6.328   3.518   0.265
  261SOL    HW1 1682   6.267   3.520   0.186
  261SOL    HW2 1683   6.334   3.425   0.301
  262SOL     OW 1684   0.606   3.531   0.053
  262SOL    HW1 1685   0.595   3.458   0.121
  262SOL    HW2 1686   0.659   3.606   0.092
  263SOL     OW 1687   1.992   1.057   4.564
  263SOL    HW1 1688   1.929   1.094   4.632
  263SOL    HW2 1689   2.052   0.989   4.607
  264SOL     OW 1690   5.888   3.438   7.017
  264SOL    HW1 1691   5.880   3.478   6.925
  264SOL    HW2 1692   5.968   3.476   0.036
  265SOL     OW 1693   5.405   6.756   3.144
  265SOL    HW1 1694   5.407   6.663   3.181
  265SOL    HW2 1695   5.492   6.801   3.162
  266SOL     OW 1696   3.385   2.660   5.808
  266SOL    HW1 1697   3.304   2.625   5.761
  266SOL    HW2 1698   3.408   2.751   5.773
  267SOL     OW 1699   0.672   1.342   6.621
  267SOL    HW1 1700   0.698   1.251   6.590
  267SOL    HW2 1701   0.593   1.336   6.682
  268SOL     OW 1702   3.610   1.122   5.840
  268SOL    HW1 1703   3.519   1.103   5.877
  268SOL    HW2 1704   3.673   1.048   5.866
  269SOL     OW 1705   1.633   3.456   1.248
  269SOL    HW1 1706   1.538   3.437   1.274
  269SOL    HW2 1707   1.635   3.533   1.184
  270SOL     OW 1708   1.007   6.701   0.443
  270SOL    HW1 1709   1.077   6.657   0.499
  270SOL    HW2 1710   0.999   6.797   0.470
  271SOL     OW 1711   6.749   1.865   6.778
  271SOL    HW1 1712   6.796   1.895   6.695
  271SOL    HW2 1713   6.665   1.919   6.789
  272SOL     OW 1714   3.672   5.611   4.403
  272SOL    HW1 1715   3.654   5.637   4.308
  272SOL    HW2 1716   3.607   5.540   4.432
  273SOL     OW 1717   2.234   4.544   4.597
  273SOL    HW1 1718   2.332   4.521   4.597
  273SOL    HW2 1719   2.183   4.473   4.548
  274SOL     OW 1720   4.085   2.226   3.073
  274SOL    HW1 1721   4.108   2.137   3.110
  274SOL    HW2 1722   4.048   2.216   2.980
  275SOL     OW 1723   6.046   4.804   3.920
  275SOL    HW1 1724   6.070   4.750   3.840
  275SOL    HW2 1725   6.114   4.791   3.992
  276SOL     OW 1726   6.549   6.955   3.038
  276SOL    HW1 1727   6.608   7.018   2.987
  276SOL    HW2 1728   6.462   6.943   2.988
  277SOL     OW 1729   1.635   4.332   0.209
  277SOL    HW1 1730   1.704   4.388   0.255
  277SOL    HW2 1731   1.677   4.283   0.133
  278SOL     OW 1732   6.935   5.227   1.863
  278SOL    HW1 1733   6.903   5.168   1.789
  278SOL    HW2 1734   6.857   5.269   1.909
  279SOL     OW 1735   6.092   3.407   4.165
  279SOL    HW1 1736   5.997   3.386   4.143
  279SOL    HW2 1737   6.103   3.506   4.176
  280SOL     OW 1738   3.212   6.672   3.382
  280SOL    HW1 1739   3.272   6.643   3.308
  280SOL    HW2 1740   3.267   6.696   3.462
  281SOL     OW 1741   2.812   4.224   1.679
  281SOL    HW1 1742   2.829   4.246   1.583
  281SOL    HW2 1743   2.851   4.296   1.737
  282SOL     OW 1744   3.149   1.471   5.942
  282SOL    HW1 1745   3.162   1.414   6.023
  282SOL    HW2 1746   3.195   1.430   5.864
  283SOL     OW 1747   6.221   1.678   6.387
  283SOL    HW1 1748   6.159   1.740   6.435
  283SOL    HW2 1749   6.315   1.696   6.416
  284SOL     OW 1750   1.567   4.263   3.402
  284SOL    HW1 1751   1.662   4.234   3.408
  284SOL    HW2 1752   1.524   4.221   3.322
  285SOL     OW 1753   5.906   4.746   4.481
  285SOL    HW1 1754   5.891   4.766   4.578
  285SOL    HW2 1755   5.819   4.730   4.436
  286SOL     OW 1756   3.366   5.579   5.721
  286SOL    HW1 1757   3.272   5.605   5.698
  286SOL    HW2 1758   3.390   5.617   5.810
  287SOL     OW 1759   0.822   3.750   0.461
  287SOL    HW1 1760   0.743   3.711   0.415
  287SOL    HW2 1761   0.815   3.849   0.461
  288SOL     OW 1762   3.724   1.231   6.114
  288SOL    HW1 1763   3.688   1.215   6.022
  288SOL    HW2 1764   3.820   1.204   6.117
  289SOL     OW 1765   0.789   4.480   5.338
  289SOL    HW1 1766   0.778   4.527   5.250
  289SOL    HW2 1767   0.724   4.405   5.345
  290SOL     OW 1768   6.350   2.121   4.918
  290SOL    HW1 1769   6.440   2.089   4.950
  290SOL    HW2 1770   6.278   2.070   4.963
  291SOL     OW 1771   1.729   2.123   4.412
  291SOL    HW1 1772   1.643   2.077   4.433
  291SOL    HW2 1773   1.762   2.092   4.323
  292SOL     OW 1774   1.500   2.701   3.261
  292SOL    HW1 1775   1.507   2.622   3.322
  292SOL    HW2 1776   1.529   2.675   3.169
  293SOL     OW 1777   4.288   5.917   2.421
  293SOL    HW1 1778   4.312   5.853   2.494
  293SOL    HW2 1779   4.272   6.008   2.459
  294SOL     OW 1780   1.114   5.351   6.387
  294SOL    HW1 1781   1.146   5.372   6.295
  294SOL    HW2 1782   1.015   5.368   6.392
  295SOL     OW 1783   3.621   1.797   3.851
  295SOL    HW1 1784   3.578   1.849   3.925
  295SOL    HW2 1785   3.720   1.800   3.862
  296SOL     OW 1786   3.683   2.107   3.048
  296SOL    HW1 1787   3.732   2.107   2.960
  296SOL    HW2 1788   3.742   2.144   3.119
  297SOL     OW 1789   2.430   4.563   3.469
  297SOL    HW1 1790   2.361   4.554   3.397
  297SOL    HW2 1791   2.498   4.631   3.442
  298SOL     OW 1792   3.719   5.858   1.351
  298SOL    HW1 1793   3.721   5.919   1.272
  298SOL    HW2 1794   3.722   5.763   1.321
  299SOL     OW 1795   5.185   3.082   6.270
  299SOL    HW1 1796   5.171   3.181   6.277
  299SOL    HW2 1797   5.209   3.045   6.359
  300SOL     OW 1798   6.705   0.810   2.694
  300SOL    HW1 1799   6.614   0.793   2.733
  300SOL    HW2 1800   6.696   0.869   2.613
  301SOL     OW 1801   4.881   3.406   1.471
  301SOL    HW1 1802   4.965   3.421   1.418
  301SOL    HW2 1803   4.803   3.404   1.409
  302SOL     OW 1804   0.616   0.779   3.291
  302SOL    HW1 1805   0.523   0.801   3.322
  302SOL    HW2 1806   0.681   0.843   3.331
  303SOL     OW 1807   5.672   0.686   2.247
  303SOL    HW1 1808   5.644   0.647   2.159
  303SOL    HW2 1809   5.661   0.786   2.244
  304SOL     OW 1810   2.449   0.184   3.994
  304SOL    HW1 1811   2.455   0.101   3.939
  304SOL    HW2 1812   2.531   0.191   4.052
  305SOL     OW 1813   0.954   3.359   0.285
  305SOL    HW1 1814   0.969   3.261   0.297
  305SOL    HW2 1815   1.042   3.406   0.278
  306SOL     OW 1816   1.815   1.816   3.326
  306SOL    HW1 1817   1.886   1.834   3.258
  306SOL    HW2 1818   1.851   1.838   3.417
  307SOL     OW 1819   4.686   0.050   0.877
  307SOL    HW1 1820   4.755   7.007   0.864
  307SOL    HW2 1821   4.607   0.012   0.926
  308SOL     OW 1822   6.345   3.664   5.153
  308SOL    HW1 1823   6.303   3.673   5.243
  308SOL    HW2 1824   6.393   3.749   5.130
  309SOL     OW 1825   3.249   4.561   6.604
  309SOL    HW1 1826   3.254   4.472   6.557
  309SOL    HW2 1827   3.330   4.615   6.581
  310SOL     OW 1828   6.463   6.790   5.768
  310SOL    HW1 1829   6.540   6.825   5.821
  310SOL    HW2 1830   6.497   6.752   5.682
  311SOL     OW 1831   6.070   5.351   1.526
  311SOL    HW1 1832   6.075   5.374   1.429
  311SOL    HW2 1833   6.036   5.257   1.536
  312SOL     OW 1834   4.611   1.677   5.900
  312SOL    HW1 1835   4.656   1.698   5.987
  312SOL    HW2 1836   4.621   1.754   5.837
  313SOL     OW 1837   2.997   4.053   1.833
  313SOL    HW1 1838   3.048   4.077   1.751
  313SOL    HW2 1839   2.919   4.115   1.844
  314SOL     OW 1840   3.473   5.071   6.748
  314SOL    HW1 1841   3.400   5.031   6.692
  314SOL    HW2 1842   3.561   5.046   6.708
  315SOL     OW 1843   1.176   3.505   3.405
  315SOL    HW1 1844   1.122   3.432   3.446
  315SOL    HW2 1845   1.229   3.552   3.477
  316SOL     OW 1846   2.608   2.388   4.028
  316SOL    HW1 1847   2.648   2.417   3.942
  316SOL    HW2 1848   2.681   2.375   4.096
  317SOL     OW 1849   0.968   0.317   1.226
  317SOL    HW1 1850   0.915   0.263   1.292
  317SOL    HW2 1851   0.994   0.259   1.149
  318SOL     OW 1852   0.827   6.176   0.048
  318SOL    HW1 1853   0.764   6.148   0.121
  318SOL    HW2 1854   0.787   6.155   6.987
  319SOL     OW 1855   0.011   1.026   3.576
  319SOL    HW1 1856   7.024   0.931   3.602
  319SOL    HW2 1857   0.053   1.030   3.485
  320SOL     OW 1858   5.779   2.193   0.257
  320SOL    HW1 1859   5.749   2.098   0.254
  320SOL    HW2 1860   5.734   2.245   0.185
  321SOL     OW 1861   2.917   1.275   1.435
  321SOL    HW1 1862   2.877   1.218   1.363
  321SOL    HW2 1863   2.995   1.325   1.398
  322SOL     OW 1864   3.450   3.775   4.774
  322SOL    HW1 1865   3.454   3.703   4.705
  322SOL    HW2 1866   3.355   3.784   4.807
  323SOL     OW 1867   0.415   3.649   6.903
  323SOL    HW1 1868   0.492   3.623   6.961
  323SOL    HW2 1869   0.412   3.590   6.822
  324SOL     OW 1870   2.087   2.952   3.866
  324SOL    HW1 1871   2.039   3.039   3.872
  324SOL    HW2 1872   2.118   2.937   3.772
  325SOL     OW 1873   1.709   2.880   1.624
  325SOL    HW1 1874   1.675   2.817   1.694
  325SOL    HW2 1875   1.735   2.966   1.667
  326SOL     OW 1876   1.798   5.309   6.044
  326SOL    HW1 1877   1.841   5.398   6.031
  326SOL    HW2 1878   1.698   5.320   6.047
  327SOL     OW 1879   1.601   5.551   4.065
  327SOL    HW1 1880   1.508   5.552   4.029
  327SOL    HW2 1881   1.641   5.460   4.052
  328SOL     OW 1882   2.685   5.835   1.843
  328SOL    HW1 1883   2.714   5.790   1.759
  328SOL    HW2 1884   2.735   5.921   1.854
  329SOL     OW 1885   3.147   3.948   4.452
  329SOL    HW1 1886   3.097   3.917   4.371
  329SOL    HW2 1887   3.226   4.003   4.424
  330SOL     OW 1888   3.044   6.569   1.760
  330SOL    HW1 1889   3.118   6.552   1.824
  330SOL    HW2 1890   3.082   6.591   1.670
  331SOL     OW 1891   4.233   4.928   6.473
  331SOL    HW1 1892   4.226   4.836   6.435
  331SOL    HW2 1893   4.264   4.923   6.567
  332SOL     OW 1894   3.657   1.996   4.564
  332SOL    HW1 1895   3.624   2.033   4.651
  332SOL    HW2 1896   3.599   1.919   4.537
  333SOL     OW 1897   3.265   6.852   6.764
  333SOL    HW1 1898   3.241   6.948   6.750
  333SOL    HW2 1899   3.255   6.829   6.861
  334SOL     OW 1900   2.620   0.309   1.015
  334SOL    HW1 1901   2.682   0.231   1.025
  334SOL    HW2 1902   2.648   0.382   1.077
  335SOL     OW 1903   3.600   6.482   4.374
  335SOL    HW1 1904   3.686   6.448   4.334
  335SOL    HW2 1905   3.614   6.500   4.471
  336SOL     OW 1906   2.845   1.486   4.174
  336SOL    HW1 1907   2.910   1.560   4.159
  336SOL    HW2 1908   2.753   1.519   4.156
  337SOL     OW 1909   6.854   3.486   0.683
  337SOL    HW1 1910   6.921   3.416   0.657
  337SOL    HW2 1911   6.892   3.577   0.668
  338SOL     OW 1912   3.066   2.489   0.811
  338SOL    HW1 1913   3.019   2.423   0.753
  338SOL    HW2 1914   3.038   2.476   0.907
  339SOL     OW 1915   3.625   6.485   4.641
  339SOL    HW1 1916   3.612   6.419   4.715
  339SOL    HW2 1917   3.638   6.576   4.679
  340SOL     OW 1918   4.803   4.024   4.727
  340SOL    HW1 1919   4.773   4.101   4.672
  340SOL    HW2 1920   4.781   4.041   4.823
  341SOL     OW 1921   6.510   7.024   4.217
  341SOL    HW1 1922   6.447   6.960   4.262
  341SOL    HW2 1923   6.473   0.022   4.128
  342SOL     OW 1924   5.662   3.575   0.160
  342SOL    HW1 1925   5.738   3.513   0.138
  342SOL    HW2 1926   5.697   3.653   0.212
  343SOL     OW 1927   2.061   5.808   0.782
  343SOL    HW1 1928   2.118   5.772   0.856
  343SOL    HW2 1929   2.013   5.733   0.737
  344SOL     OW 1930   1.437   5.004   1.814
  344SOL    HW1 1931   1.519   4.953   1.842
  344SOL    HW2 1932   1.366   4.940   1.785
  345SOL     OW 1933   6.481   1.385   5.394
  345SOL    HW1 1934   6.519   1.460   5.449
  345SOL    HW2 1935   6.556   1.326   5.364
  346SOL     OW 1936   1.923   0.686   1.902
  346SOL    HW1 1937   1.991   0.760   1.905
  346SOL    HW2 1938   1.959   0.606   1.950
  347SOL     OW 1939   4.095   6.367   6.476
  347SOL    HW1 1940   4.021   6.431   6.458
  347SOL    HW2 1941   4.176   6.392   6.423
  348SOL     OW 1942   4.915   5.415   1.257
  348SOL    HW1 1943   4.890   5.471   1.336
  348SOL    HW2 1944   4.833   5.399   1.201
  349SOL     OW 1945   6.561   4.772   1.801
  349SOL    HW1 1946   6.512   4.795   1.717
  349SOL    HW2 1947   6.536   4.680   1.830
  350SOL     OW 1948   3.722   3.275   1.728
  350SOL    HW1 1949   3.774   3.199   1.687
  350SOL    HW2 1950   3.702   3.253   1.823
  351SOL     OW 1951   2.488   2.379   0.135
  351SOL    HW1 1952   2.500   2.471   0.098
  351SOL    HW2 1953   2.523   2.375   0.228
  352SOL     OW 1954   3.654   0.224   4.853
  352SOL    HW1 1955   3.610   0.219   4.764
  352SOL    HW2 1956   3.704   0.310   4.862
  353SOL     OW 1957   2.671   7.022   1.260
  353SOL    HW1 1958   2.709   0.046   1.184
  353SOL    HW2 1959   2.595   6.966   1.228
  354SOL     OW 1960   4.234   2.426   0.439
  354SOL    HW1 1961   4.167   2.429   0.365
  354SOL    HW2 1962   4.311   2.367   0.413
  355SOL     OW 1963   6.902   2.976   3.017
  355SOL    HW1 1964   6.863   2.885   3.028
  355SOL    HW2 1965   6.953   2.980   2.931
  356SOL     OW 1966   4.003   5.884   4.594
  356SOL    HW1 1967   4.021   5.878   4.692
  356SOL    HW2 1968   4.012   5.793   4.552
  357SOL     OW 1969   6.677   0.007   5.768
  357SOL    HW1 1970   6.675   0.017   5.867
  357SOL    HW2 1971   6.619   0.078   5.726
  358SOL     OW 1972   5.442   0.328   2.096
  358SOL    HW1 1973   5.520   0.330   2.033
  358SOL    HW2 1974   5.462   0.264   2.170
  359SOL     OW 1975   1.809   2.152   2.566
  359SOL    HW1 1976   1.878   2.082   2.544
  359SOL    HW2 1977   1.835   2.239   2.523
  360SOL     OW 1978   2.183   5.739   6.260
  360SOL    HW1 1979   2.220   5.831   6.258
  360SOL    HW2 1980   2.257   5.673   6.247
  361SOL     OW 1981   5.640   5.616   2.996
  361SOL    HW1 1982   5.633   5.586   2.901
  361SOL    HW2 1983   5.588   5.554   3.054
  362SOL     OW 1984   3.386   4.190   0.723
  362SOL    HW1 1985   3.468   4.179   0.668
  362SOL    HW2 1986   3.339   4.274   0.696
  363SOL     OW 1987   4.648   4.481   3.584
  363SOL    HW1 1988   4.721   4.475   3.516
  363SOL    HW2 1989   4.651   4.401   3.644
  364SOL     OW 1990   0.418   5.746   5.360
  364SOL    HW1 1991   0.444   5.734   5.264
  364SOL    HW2 1992   0.334   5.799   5.366
  365SOL     OW 1993   4.770   5.632   2.558
  365SOL    HW1 1994   4.715   5.550   2.542
  365SOL    HW2 1995   4.736   5.680   2.639
  366SOL     OW 1996   5.819   0.840   0.425
  366SOL    HW1 1997   5.906   0.817   0.469
  366SOL    HW2 1998   5.773   0.911   0.478
  367SOL     OW 1999   5.226   2.957   0.638
  367SOL    HW1 2000   5.203   2.991   0.547
  367SOL    HW2 2001   5.318   2.986   0.662
  368SOL     OW 2002   0.701   3.840   4.894
  368SOL    HW1 2003   0.682   3.828   4.991
  368SOL    HW2 2004   0.772   3.910   4.882
  369SOL     OW 2005   6.307   4.923   1.995
  369SOL    HW1 2006   6.374   4.891   1.927
  369SOL    HW2 2007   6.225   4.864   1.990
  370SOL     OW 2008   3.152   1.923   5.570
  370SOL    HW1 2009   3.148   1.958   5.476
  370SOL    HW2 2010   3.177   1.997   5.632
  371SOL     OW 2011   2.324   3.734   6.555
  371SOL    HW1 2012   2.385   3.808   6.523
  371SOL    HW2 2013   2.341   3.718   6.652
  372SOL     OW 2014   6.458   0.877   5.116
  372SOL    HW1 2015   6.452   0.972   5.086
  372SOL    HW2 2016   6.384   0.824   5.074
  373SOL     OW 2017   6.165   6.660   5.093
  373SOL    HW1 2018   6.135   6.683   5.186
  373SOL    HW2 2019   6.200   6.566   5.092
  374SOL     OW 2020   3.694   0.003   2.567
  374SOL    HW1 2021   3.699   7.021   2.666
  374SOL    HW2 2022   3.680   0.099   2.544
  375SOL     OW 2023   0.277   4.937   3.927
  375SOL    HW1 2024   0.364   4.986   3.924
  375SOL    HW2 2025   0.282   4.856   3.868
  376SOL     OW 2026   1.632   3.283   3.876
  376SOL    HW1 2027   1.559   3.221   3.848
  376SOL    HW2 2028   1.632   3.291   3.976
  377SOL     OW 2029   6.194   2.927   2.052
  377SOL    HW1 2030   6.160   2.904   1.961
  377SOL    HW2 2031   6.272   2.990   2.043
  378SOL     OW 2032   3.069   2.653   5.685
  378SOL    HW1 2033   3.024   2.566   5.665
  378SOL    HW2 2034   3.100   2.695   5.599
  379SOL     OW 2035   6.144   4.440   1.650
  379SOL    HW1 2036   6.047   4.455   1.671
  379SOL    HW2 2037   6.172   4.502   1.577
  380SOL     OW 2038   2.687   1.614   1.815
  380SOL    HW1 2039   2.674   1.696   1.759
  380SOL    HW2 2040   2.684   1.639   1.912
  381SOL     OW 2041   2.012   4.835   1.452
  381SOL    HW1 2042   1.955   4.760   1.418
  381SOL    HW2 2043   2.089   4.798   1.503
  382SOL     OW 2044   5.071   5.660   6.383
  382SOL    HW1 2045   5.092   5.681   6.287
  382SOL    HW2 2046   5.105   5.735   6.440
  383SOL     OW 2047   6.329   3.041   6.416
  383SOL    HW1 2048   6.384   3.026   6.499
  383SOL    HW2 2049   6.382   3.014   6.336
  384SOL     OW 2050   0.653   4.185   4.905
  384SOL    HW1 2051   0.680   4.190   4.809
  384SOL    HW2 2052   0.596   4.104   4.919
  385SOL     OW 2053   4.555   6.063   6.845
  385SOL    HW1 2054   4.592   6.087   6.755
  385SOL    HW2 2055   4.476   6.121   6.866
  386SOL     OW 2056   3.672   0.061   5.118
  386SOL    HW1 2057   3.634   0.093   5.031
  386SOL    HW2 2058   3.748   0.120   5.145
  387SOL     OW 2059   6.915   5.798   3.487
  387SOL    HW1 2060   6.914   5.708   3.443
  387SOL    HW2 2061   6.903   5.869   3.417
  388SOL     OW 2062   0.485   2.005   4.490
  388SOL    HW1 2063   0.395   1.991   4.449
  388SOL    HW2 2064   0.539   2.066   4.432
  389SOL     OW 2065   4.187   4.164   1.633
  389SOL    HW1 2066   4.168   4.072   1.665
  389SOL    HW2 2067   4.262   4.204   1.686
  390SOL     OW 2068   3.398   1.020   0.066
  390SOL    HW1 2069   3.390   1.022   0.166
  390SOL    HW2 2070   3.337   1.088   0.026
  391SOL     OW 2071   2.094   4.198   5.058
  391SOL    HW1 2072   2.047   4.247   4.984
  391SOL    HW2 2073   2.174   4.150   5.020
  392SOL     OW 2074   1.845   3.133   2.160
  392SOL    HW1 2075   1.767   3.185   2.194
  392SOL    HW2 2076   1.878   3.174   2.075
  393SOL     OW 2077   1.386   5.703   0.188
  393SOL    HW1 2078   1.433   5.782   0.229
  393SOL    HW2 2079   1.443   5.664   0.116
  394SOL     OW 2080   0.852   3.099   6.818
  394SOL    HW1 2081   0.756   3.082   6.797
  394SOL    HW2 2082   0.861   3.182   6.872
  395SOL     OW 2083   5.169   4.052   2.193
  395SOL    HW1 2084   5.075   4.019   2.188
  395SOL    HW2 2085   5.219   4.003   2.265
  396SOL     OW 2086   2.323   2.062   2.393
  396SOL    HW1 2087   2.294   1.990   2.456
  396SOL    HW2 2088   2.422   2.058   2.380
  397SOL     OW 2089   5.550   1.355   5.985
  397SOL    HW1 2090   5.462   1.351   6.033
  397SOL    HW2 2091   5.557   1.278   5.922
  398SOL     OW 2092   1.224   6.178   4.587
  398SOL    HW1 2093   1.190   6.108   4.525
  398SOL    HW2 2094   1.324   6.178   4.585
  399SOL     OW 2095   6.230   5.942   4.397
  399SOL    HW1 2096   6.257   5.999   4.474
  399SOL    HW2 2097   6.211   6.000   4.318
  400SOL     OW 2098   6.552   6.466   5.111
  400SOL    HW1 2099   6.525   6.533   5.042
  400SOL    HW2 2100   6.600   6.390   5.067
  401SOL     OW 2101   5.887   0.076   6.273
  401SOL    HW1 2102   5.875   0.135   6.193
  401SOL    HW2 2103   5.977   0.092   6.313
  402SOL     OW 2104   6.189   0.441   2.271
  402SOL    HW1 2105   6.205   0.450   2.173
  402SOL    HW2 2106   6.232   0.357   2.304
  403SOL     OW 2107   3.163   0.068   6.719
  403SOL    HW1 2108   3.134   0.100   6.629
  403SOL    HW2 2109   3.091   0.087   6.786
  404SOL     OW 2110   2.975   5.820   5.595
  404SOL    HW1 2111   2.919   5.795   5.516
  404SOL    HW2 2112   2.931   5.893   5.646
  405SOL     OW 2113   2.259   4.108   3.397
  405SOL    HW1 2114   2.319   4.172   3.443
  405SOL    HW2 2115   2.232   4.036   3.461
  406SOL     OW 2116   0.669   5.070   5.414
  406SOL    HW1 2117   0.736   5.144   5.422
  406SOL    HW2 2118   0.712   4.983   5.441
  407SOL     OW 2119   1.397   3.351   3.633
  407SOL    HW1 2120   1.327   3.355   3.704
  407SOL    HW2 2121   1.437   3.259   3.630
  408SOL     OW 2122   3.440   2.080   2.807
  408SOL    HW1 2123   3.452   2.089   2.906
  408SOL    HW2 2124   3.522   2.111   2.760
  409SOL     OW 2125   6.887   3.719   1.988
  409SOL    HW1 2126   6.823   3.708   1.911
  409SOL    HW2 2127   6.908   3.816   1.999
  410SOL     OW 2128   1.536   1.763   1.251
  410SOL    HW1 2129   1.634   1.742   1.242
  410SOL    HW2 2130   1.512   1.765   1.348
  411SOL     OW 2131   6.386   2.014   2.015
  411SOL    HW1 2132   6.441   2.093   1.987
  411SOL    HW2 2133   6.446   1.943   2.052
  412SOL     OW 2134   3.169   5.183   2.621
  412SOL    HW1 2135   3.208   5.125   2.693
  412SOL    HW2 2136   3.227   5.178   2.540
  413SOL     OW 2137   3.973   5.281   1.933
  413SOL    HW1 2138   3.976   5.378   1.907
  413SOL    HW2 2139   4.025   5.227   1.867
  414SOL     OW 2140   3.521   0.332   3.711
  414SOL    HW1 2141   3.470   0.402   3.761
  414SOL    HW2 2142   3.538   0.364   3.617
  415SOL     OW 2143   6.992   1.512   0.325
  415SOL    HW1 2144   0.046   1.547   0.281
  415SOL    HW2 2145   7.017   1.464   0.409
  416SOL     OW 2146   5.193   4.329   4.492
  416SOL    HW1 2147   5.211   4.344   4.395
  416SOL    HW2 2148   5.276   4.350   4.544
  417SOL     OW 2149   2.129   1.331   6.596
  417SOL    HW1 2150   2.204   1.339   6.661
  417SOL    HW2 2151   2.160   1.360   6.505
  418SOL     OW 2152   3.152   7.026   5.405
  418SOL    HW1 2153   3.188   7.002   5.315
  418SOL    HW2 2154   3.091   6.953   5.437
  419SOL     OW 2155   7.002   6.775   2.897
  419SOL    HW1 2156   0.072   6.787   2.884
  419SOL    HW2 2157   6.954   6.861   2.881
  420SOL     OW 2158   5.468   0.776   6.481
  420SOL    HW1 2159   5.475   0.867   6.522
  420SOL    HW2 2160   5.458   0.708   6.554
  421SOL     OW 2161   5.805   4.265   5.726
  421SOL    HW1 2162   5.877   4.197   5.719
  421SOL    HW2 2163   5.729   4.241   5.666
  422SOL     OW 2164   5.085   1.770   0.822
  422SOL    HW1 2165   5.079   1.676   0.857
  422SOL    HW2 2166   4.993   1.807   0.810
  423SOL     OW 2167   2.806   0.808   6.563
  423SOL    HW1 2168   2.903   0.818   6.541
  423SOL    HW2 2169   2.764   0.742   6.501
  424SOL     OW 2170   1.967   5.104   3.021
  424SOL    HW1 2171   2.030   5.072   3.092
  424SOL    HW2 2172   1.874   5.110   3.058
  425SOL     OW 2173   5.119   1.057   5.074
  425SOL    HW1 2174   5.087   1.065   5.169
  425SOL    HW2 2175   5.159   0.967   5.060
  426SOL     OW 2176   2.427   2.817   5.317
  426SOL    HW1 2177   2.328   2.823   5.307
  426SOL    HW2 2178   2.470   2.893   5.267
  427SOL     OW 2179   5.274   1.162   4.475
  427SOL    HW1 2180   5.222   1.240   4.509
  427SOL    HW2 2181   5.323   1.189   4.392
  428SOL     OW 2182   2.371   0.977   4.519
  428SOL    HW1 2183   2.400   1.026   4.601
  428SOL    HW2 2184   2.364   1.042   4.443
  429SOL     OW 2185   0.627   5.516   4.224
  429SOL    HW1 2186   0.577   5.596   4.257
  429SOL    HW2 2187   0.642   5.453   4.301
  430SOL     OW 2188   1.583   0.387   3.833
  430SOL    HW1 2189   1.672   0.344   3.844
  430SOL    HW2 2190   1.515   0.340   3.890
  431SOL     OW 2191   2.501   2.309   0.968
  431SOL    HW1 2192   2.540   2.223   1.000
  431SOL    HW2 2193   2.438   2.345   1.037
  432SOL     OW 2194   5.804   1.860   1.148
  432SOL    HW1 2195   5.745   1.787   1.183
  432SOL    HW2 2196   5.808   1.854   1.048
  433SOL     OW 2197   3.841   6.222   6.234
  433SOL    HW1 2198   3.808   6.209   6.328
  433SOL    HW2 2199   3.898   6.143   6.208
  434SOL     OW 2200   3.582   6.124   3.567
  434SOL    HW1 2201   3.626   6.151   3.482
  434SOL    HW2 2202   3.487   6.099   3.549
  435SOL     OW 2203   4.063   1.746   5.724
  435SOL    HW1 2204   4.051   1.713   5.818
  435SOL    HW2 2205   3.984   1.720   5.669
  436SOL     OW 2206   3.619   6.120   2.821
  436SOL    HW1 2207   3.715   6.105   2.797
  436SOL    HW2 2208   3.566   6.038   2.801
  437SOL     OW 2209   0.024   1.175   4.832
  437SOL    HW1 2210   0.084   1.224   4.769
  437SOL    HW2 2211   7.006   1.101   4.783
  438SOL     OW 2212   1.489   4.582   2.993
  438SOL    HW1 2213   1.435   4.597   2.910
  438SOL    HW2 2214   1.540   4.666   3.016
  439SOL     OW 2215   5.693   1.033   2.921
  439SOL    HW1 2216   5.718   1.002   3.013
  439SOL    HW2 2217   5.709   1.131   2.912
  440SOL     OW 2218   3.708   0.877   6.723
  440SOL    HW1 2219   3.675   0.959   6.771
  440SOL    HW2 2220   3.804   0.889   6.699
  441SOL     OW 2221   6.281   4.425   3.034
  441SOL    HW1 2222   6.188   4.447   3.066
  441SOL    HW2 2223   6.319   4.505   2.987
  442SOL     OW 2224   4.759   4.008   5.966
  442SOL    HW1 2225   4.774   4.085   5.904
  442SOL    HW2 2226   4.685   3.951   5.930
  443SOL     OW 2227   5.172   4.803   3.222
  443SOL    HW1 2228   5.105   4.811   3.149
  443SOL    HW2 2229   5.140   4.738   3.290
  444SOL     OW 2230   3.914   1.160   6.645
  444SOL    HW1 2231   3.988   1.170   6.579
  444SOL    HW2 2232   3.932   1.218   6.725
  445SOL     OW 2233   2.801   6.305   2.752
  445SOL    HW1 2234   2.702   6.318   2.742
  445SOL    HW2 2235   2.819   6.211   2.781
  446SOL     OW 2236   4.824   6.161   2.909
  446SOL    HW1 2237   4.895   6.117   2.854
  446SOL    HW2 2238   4.847   6.153   3.006
  447SOL     OW 2239   6.347   3.441   5.874
  447SOL    HW1 2240   6.349   3.496   5.790
  447SOL    HW2 2241   6.400   3.488   5.945
  448SOL     OW 2242   2.004   1.351   2.820
  448SOL    HW1 2243   2.091   1.310   2.850
  448SOL    HW2 2244   2.000   1.352   2.721
  449SOL     OW 2245   1.987   2.757   3.543
  449SOL    HW1 2246   2.079   2.784   3.571
  449SOL    HW2 2247   1.981   2.657   3.541
  450SOL     OW 2248   0.628   4.656   3.299
  450SOL    HW1 2249   0.680   4.587   3.349
  450SOL    HW2 2250   0.628   4.634   3.201
  451SOL     OW 2251   7.013   2.291   3.634
  451SOL    HW1 2252   6.936   2.229   3.645
  451SOL    HW2 2253   6.981   2.382   3.609
  452SOL     OW 2254   3.363   6.470   2.675
  452SOL    HW1 2255   3.376   6.535   2.600
  452SOL    HW2 2256   3.449   6.459   2.725
  453SOL     OW 2257   4.592   0.629   6.979
  453SOL    HW1 2258   4.686   0.653   6.952
  453SOL    HW2 2259   4.593   0.545   0.004
  454SOL     OW 2260   6.876   4.179   6.296
  454SOL    HW1 2261   6.855   4.112   6.225
  454SOL    HW2 2262   6.872   4.135   6.386
  455SOL     OW 2263   6.902   4.058   5.623
  455SOL    HW1 2264   6.860   4.094   5.540
  455SOL    HW2 2265   6.925   3.961   5.609
  456SOL     OW 2266   1.711   1.294   3.772
  456SOL    HW1 2267   1.756   1.308   3.861
  456SOL    HW2 2268   1.635   1.357   3.763
  457SOL     OW 2269   1.825   5.994   5.840
  457SOL    HW1 2270   1.786   5.916   5.890
  457SOL    HW2 2271   1.851   5.964   5.748
  458SOL     OW 2272   2.568   1.106   3.227
  458SOL    HW1 2273   2.607   1.095   3.318
  458SOL    HW2 2274   2.591   1.026   3.171
  459SOL     OW 2275   2.365   0.550   5.262
  459SOL    HW1 2276   2.444   0.587   5.312
  459SOL    HW2 2277   2.289   0.537   5.326
  460SOL     OW 2278   1.004   1.464   5.351
  460SOL    HW1 2279   1.066   1.534   5.388
  460SOL    HW2 2280   1.055   1.406   5.288
  461SOL     OW 2281   0.011   4.718   5.367
  461SOL    HW1 2282   0.000   4.785   5.441
  461SOL    HW2 2283   0.058   4.761   5.290
  462SOL     OW 2284   3.419   3.539   4.617
  462SOL    HW1 2285   3.481   3.543   4.539
  462SOL    HW2 2286   3.326   3.558   4.587
  463SOL     OW 2287   6.030   6.771   2.703
  463SOL    HW1 2288   6.014   6.828   2.784
  463SOL    HW2 2289   6.040   6.829   2.623
  464SOL     OW 2290   3.451   6.243   6.021
  464SOL    HW1 2291   3.522   6.303   6.060
  464SOL    HW2 2292   3.436   6.166   6.083
  465SOL     OW 2293   1.397   1.901   0.750
  465SOL    HW1 2294   1.369   1.933   0.841
  465SOL    HW2 2295   1.345   1.819   0.726
  466SOL     OW 2296   3.328   6.151   4.671
  466SOL    HW1 2297   3.342   6.205   4.588
  466SOL    HW2 2298   3.266   6.200   4.732
  467SOL     OW 2299   0.713   1.889   2.205
  467SOL    HW1 2300   0.614   1.892   2.194
  467SOL    HW2 2301   0.751   1.815   2.150
  468SOL     OW 2302   4.711   0.390   6.645
  468SOL    HW1 2303   4.614   0.376   6.625
  468SOL    HW2 2304   4.729   0.487   6.655
  469SOL     OW 2305   3.125   4.316   5.529
  469SOL    HW1 2306   3.063   4.237   5.531
  469SOL    HW2 2307   3.128   4.354   5.436
  470SOL     OW 2308   2.761   5.630   2.804
  470SOL    HW1 2309   2.701   5.686   2.862
  470SOL    HW2 2310   2.793   5.551   2.856
  471SOL     OW 2311   2.707   2.409   3.761
  471SOL    HW1 2312   2.695   2.321   3.716
  471SOL    HW2 2313   2.804   2.426   3.777
  472SOL     OW 2314   5.587   4.219   6.420
  472SOL    HW1 2315   5.637   4.132   6.412
  472SOL    HW2 2316   5.510   4.208   6.483
  473SOL     OW 2317   6.633   2.094   2.706
  473SOL    HW1 2318   6.654   2.191   2.693
  473SOL    HW2 2319   6.700   2.053   2.768
  474SOL     OW 2320   6.083   5.986   5.168
  474SOL    HW1 2321   6.067   6.007   5.265
  474SOL    HW2 2322   6.161   6.040   5.135
  475SOL     OW 2323   5.723   2.745   0.581
  475SOL    HW1 2324   5.718   2.659   0.530
  475SOL    HW2 2325   5.645   2.802   0.559
  476SOL     OW 2326   0.439   4.084   1.716
  476SOL    HW1 2327   0.526   4.052   1.680
  476SOL    HW2 2328   0.382   4.005   1.741
  477SOL     OW 2329   2.851   6.169   3.926
  477SOL    HW1 2330   2.810   6.138   3.840
  477SOL    HW2 2331   2.900   6.093   3.969
  478SOL     OW 2332   4.594   6.021   2.883
  478SOL    HW1 2333   4.510   6.059   2.921
  478SOL    HW2 2334   4.672   6.072   2.920
  479SOL     OW 2335   4.030   3.277   4.394
  479SOL    HW1 2336   3.961   3.250   4.327
  479SOL    HW2 2337   4.058   3.371   4.377
  480SOL     OW 2338   1.530   0.063   2.948
  480SOL    HW1 2339   1.620   0.019   2.948
  480SOL    HW2 2340   1.535   0.148   2.895
  481SOL     OW 2341   1.073   5.859   1.322
  481SOL    HW1 2342   1.003   5.893   1.260
  481SOL    HW2 2343   1.034   5.787   1.380
  482SOL     OW 2344   5.653   4.393   2.973
  482SOL    HW1 2345   5.675   4.305   3.016
  482SOL    HW2 2346   5.680   4.467   3.034
  483SOL     OW 2347   5.952   1.957   2.656
  483SOL    HW1 2348   5.989   1.979   2.746
  483SOL    HW2 2349   5.989   1.870   2.624
  484SOL     OW 2350   1.965   4.417   4.506
  484SOL    HW1 2351   1.923   4.422   4.416
  484SOL    HW2 2352   2.003   4.325   4.520
  485SOL     OW 2353   5.642   3.387   2.557
  485SOL    HW1 2354   5.695   3.391   2.473
  485SOL    HW2 2355   5.703   3.376   2.635
  486SOL     OW 2356   6.126   0.098   6.600
  486SOL    HW1 2357   6.032   0.069   6.617
  486SOL    HW2 2358   6.140   0.106   6.501
  487SOL     OW 2359   0.426   6.924   3.351
  487SOL    HW1 2360   0.489   6.998   3.326
  487SOL    HW2 2361   0.383   6.945   3.438
  488SOL     OW 2362   1.961   6.987   3.426
  488SOL    HW1 2363   1.923   6.907   3.379
  488SOL    HW2 2364   2.013   0.014   3.360
  489SOL     OW 2365   6.314   6.086   4.625
  489SOL    HW1 2366   6.284   6.030   4.702
  489SOL    HW2 2367   6.252   6.163   4.613
  490SOL     OW 2368   1.776   5.747   6.024
  490SOL    HW1 2369   1.722   5.683   6.078
  490SOL    HW2 2370   1.858   5.700   5.990
  491SOL     OW 2371   6.941   3.203   0.131
  491SOL    HW1 2372   6.971   3.109   0.148
  491SOL    HW2 2373   6.841   3.206   0.126
  492SOL     OW 2374   1.734   1.494   5.754
  492SOL    HW1 2375   1.780   1.407   5.770
  492SOL    HW2 2376   1.803   1.565   5.739
  493SOL     OW 2377   2.666   0.036   5.328
  493SOL    HW1 2378   2.752   7.016   5.311
  493SOL    HW2 2379   2.651   0.105   5.257
  494SOL     OW 2380   2.601   0.744   5.689
  494SOL    HW1 2381   2.511   0.699   5.688
  494SOL    HW2 2382   2.673   0.676   5.679
  495SOL     OW 2383   4.171   6.343   5.485
  495SOL    HW1 2384   4.186   6.295   5.571
  495SOL    HW2 2385   4.083   6.390   5.487
  496SOL     OW 2386   6.520   2.086   3.011
  496SOL    HW1 2387   6.526   2.172   2.959
  496SOL    HW2 2388   6.483   2.105   3.102
  497SOL     OW 2389   3.750   1.366   5.850
  497SOL    HW1 2390   3.695   1.285   5.830
  497SOL    HW2 2391   3.705   1.448   5.814
  498SOL     OW 2392   6.965   5.960   1.959
  498SOL    HW1 2393   6.936   5.867   1.983
  498SOL    HW2 2394   0.011   5.955   1.892
  499SOL     OW 2395   3.470   4.981   5.965
  499SOL    HW1 2396   3.512   4.890   5.963
  499SOL    HW2 2397   3.379   4.976   5.924
  500SOL     OW 2398   5.777   2.765   6.605
  500SOL    HW1 2399   5.686   2.740   6.638
  500SOL    HW2 2400   5.799   2.711   6.524
  501SOL     OW 2401   1.756   6.926   2.887
  501SOL    HW1 2402   1.830   6.861   2.901
  501SOL    HW2 2403   1.734   6.932   2.790
  502SOL     OW 2404   1.856   4.846   5.850
  502SOL    HW1 2405   1.930   4.780   5.865
  502SOL    HW2 2406   1.769   4.803   5.872
  503SOL     OW 2407   3.254   4.239   6.550
  503SOL    HW1 2408   3.182   4.195   6.603
  503SOL    HW2 2409   3.303   4.170   6.497
  504SOL     OW 2410   6.752   6.221   1.913
  504SOL    HW1 2411   6.824   6.290   1.912
  504SOL    HW2 2412   6.779   6.145   1.973
  505SOL     OW 2413   4.022   6.928   5.276
  505SOL    HW1 2414   4.028   7.021   5.239
  505SOL    HW2 2415   3.926   6.905   5.293
  506SOL     OW 2416   3.017   5.828   2.793
  506SOL    HW1 2417   2.923   5.861   2.778
  506SOL    HW2 2418   3.082   5.896   2.759
  507SOL     OW 2419   4.297   1.134   1.811
  507SOL    HW1 2420   4.306   1.109   1.715
  507SOL    HW2 2421   4.213   1.187   1.824
  508SOL     OW 2422   0.162   3.722   4.190
  508SOL    HW1 2423   0.258   3.705   4.213
  508SOL    HW2 2424   0.136   3.813   4.220
  509SOL     OW 2425   5.130   0.475   6.923
  509SOL    HW1 2426   5.079   0.389   6.919
  509SOL    HW2 2427   5.156   0.494   7.018
  510SOL     OW 2428   6.232   4.659   6.139
  510SOL    HW1 2429   6.160   4.592   6.122
  510SOL    HW2 2430   6.207   4.746   6.095
  511SOL     OW 2431   1.248   1.579   6.566
  511SOL    HW1 2432   1.347   1.573   6.556
  511SOL    HW2 2433   1.225   1.598   6.662
  512SOL     OW 2434   5.400   2.331   0.183
  512SOL    HW1 2435   5.395   2.312   0.281
  512SOL    HW2 2436   5.473   2.277   0.142
  513SOL     OW 2437   6.080   6.939   2.465
  513SOL    HW1 2438   6.080   6.848   2.423
  513SOL    HW2 2439   6.161   6.989   2.434
  514SOL     OW 2440   0.204   6.824   3.770
  514SOL    HW1 2441   0.257   6.759   3.716
  514SOL    HW2 2442   0.113   6.834   3.731
  515SOL     OW 2443   3.017   0.595   6.452
  515SOL    HW1 2444   3.043   0.609   6.547
  515SOL    HW2 2445   2.928   0.550   6.447
  516SOL     OW 2446   2.410   4.299   1.331
  516SOL    HW1 2447   2.411   4.242   1.413
  516SOL    HW2 2448   2.347   4.376   1.345
  517SOL     OW 2449   3.424   5.041   2.533
  517SOL    HW1 2450   3.398   5.125   2.486
  517SOL    HW2 2451   3.521   5.021   2.514
  518SOL     OW 2452   2.151   3.327   3.726
  518SOL    HW1 2453   2.184   3.291   3.813
  518SOL    HW2 2454   2.146   3.253   3.659
  519SOL     OW 2455   6.629   6.217   3.911
  519SOL    HW1 2456   6.572   6.300   3.909
  519SOL    HW2 2457   6.575   6.142   3.949
  520SOL     OW 2458   1.135   3.151   6.766
  520SOL    HW1 2459   1.108   3.057   6.744
  520SOL    HW2 2460   1.196   3.186   6.694
  521SOL     OW 2461   4.616   4.929   4.343
  521SOL    HW1 2462   4.711   4.962   4.340
  521SOL    HW2 2463   4.558   4.991   4.292
  522SOL     OW 2464   4.110   3.665   1.556
  522SOL    HW1 2465   4.190   3.719   1.532
  522SOL    HW2 2466   4.095   3.669   1.655
  523SOL     OW 2467   0.091   6.732   1.848
  523SOL    HW1 2468   0.043   6.817   1.872
  523SOL    HW2 2469   0.158   6.710   1.920
  524SOL     OW 2470   0.561   2.972   2.023
  524SOL    HW1 2471   0.652   2.946   1.991
  524SOL    HW2 2472   0.515   3.027   1.953
  525SOL     OW 2473   0.717   3.404   6.868
  525SOL    HW1 2474   0.666   3.468   6.925
  525SOL    HW2 2475   0.809   3.391   6.905
  526SOL     OW 2476   3.562   6.975   4.383
  526SOL    HW1 2477   3.524   6.887   4.356
  526SOL    HW2 2478   3.528   0.019   4.322
  527SOL     OW 2479   1.121   2.408   0.017
  527SOL    HW1 2480   1.127   2.347   6.966
  527SOL    HW2 2481   1.184   2.378   0.088
  528SOL     OW 2482   0.722   3.391   3.234
  528SOL    HW1 2483   0.756   3.306   3.273
  528SOL    HW2 2484   0.625   3.401   3.256
  529SOL     OW 2485   2.671   0.446   5.670
  529SOL    HW1 2486   2.746   0.512   5.666
  529SOL    HW2 2487   2.703   0.357   5.636
  530SOL     OW 2488   3.480   3.021   2.084
  530SOL    HW1 2489   3.415   3.040   2.011
  530SOL    HW2 2490   3.435   2.967   2.156
  531SOL     OW 2491   2.432   0.793   2.904
  531SOL    HW1 2492   2.527   0.772   2.925
  531SOL    HW2 2493   2.372   0.746   2.969
  532SOL     OW 2494   1.756   3.694   0.351
  532SOL    HW1 2495   1.691   3.767   0.370
  532SOL    HW2 2496   1.792   3.705   0.258
  533SOL     OW 2497   5.094   0.210   3.770
  533SOL    HW1 2498   5.070   0.256   3.685
  533SOL    HW2 2499   5.192   0.222   3.788
  534SOL     OW 2500   1.000   5.655   1.464
  534SOL    HW1 2501   0.912   5.699   1.484
  534SOL    HW2 2502   1.028   5.599   1.543
  535SOL     OW 2503   6.804   4.080   3.345
  535SOL    HW1 2504   6.794   4.144   3.270
  535SOL    HW2 2505   6.713   4.056   3.381
  536SOL     OW 2506   6.443   5.602   3.275
  536SOL    HW1 2507   6.505   5.570   3.348
  536SOL    HW2 2508   6.497   5.637   3.199
  537SOL     OW 2509   3.809   6.753   4.386
  537SOL    HW1 2510   3.766   6.761   4.476
  537SOL    HW2 2511   3.908   6.765   4.396
  538SOL     OW 2512   1.285   5.360   5.574
  538SOL    HW1 2513   1.341   5.354   5.491
  538SOL    HW2 2514   1.342   5.346   5.654
  539SOL     OW 2515   1.069   5.535   1.712
  539SOL    HW1 2516   1.013   5.480   1.774
  539SOL    HW2 2517   1.122   5.602   1.765
  540SOL     OW 2518   1.825   1.104   4.027
  540SOL    HW1 2519   1.832   1.020   3.972
  540SOL    HW2 2520   1.896   1.169   3.998
  541SOL     OW 2521   4.230   5.810   3.726
  541SOL    HW1 2522   4.171   5.874   3.678
  541SOL    HW2 2523   4.176   5.758   3.792
  542SOL     OW 2524   4.017   5.777   6.480
  542SOL    HW1 2525   4.032   5.679   6.476
  542SOL    HW2 2526   3.943   5.803   6.418
  543SOL     OW 2527   5.694   3.598   4.044
  543SOL    HW1 2528   5.672   3.515   3.993
  543SOL    HW2 2529   5.627   3.611   4.117
  544SOL     OW 2530   0.358   5.006   0.007
  544SOL    HW1 2531   0.327   4.959   6.953
  544SOL    HW2 2532   0.427   5.074   7.010
  545SOL     OW 2533   4.704   1.307   1.203
  545SOL    HW1 2534   4.627   1.345   1.255
  545SOL    HW2 2535   4.766   1.380   1.176
  546SOL     OW 2536   0.638   4.359   1.561
  546SOL    HW1 2537   0.577   4.336   1.637
  546SOL    HW2 2538   0.586   4.409   1.491
  547SOL     OW 2539   3.499   2.341   0.265
  547SOL    HW1 2540   3.594   2.349   0.296
  547SOL    HW2 2541   3.466   2.249   0.282
  548SOL     OW 2542   3.009   3.595   0.497
  548SOL    HW1 2543   3.014   3.695   0.503
  548SOL    HW2 2544   3.058   3.555   0.574
  549SOL     OW 2545   4.864   2.732   1.105
  549SOL    HW1 2546   4.802   2.716   1.028
  549SOL    HW2 2547   4.826   2.803   1.165
  550SOL     OW 2548   6.770   4.744   3.536
  550SOL    HW1 2549   6.765   4.712   3.630
  550SOL    HW2 2550   6.711   4.688   3.478
  551SOL     OW 2551   6.752   0.950   0.862
  551SOL    HW1 2552   6.714   1.042   0.876
  551SOL    HW2 2553   6.809   0.951   0.780
  552SOL     OW 2554   5.038   5.067   5.172
  552SOL    HW1 2555   5.014   5.071   5.269
  552SOL    HW2 2556   4.996   5.144   5.124
  553SOL     OW 2557   3.886   0.658   4.247
  553SOL    HW1 2558   3.970   0.658   4.301
  553SOL    HW2 2559   3.814   0.610   4.298
  554SOL     OW 2560   5.678   5.512   6.934
  554SOL    HW1 2561   5.724   5.552   7.013
  554SOL    HW2 2562   5.672   5.580   6.861
  555SOL     OW 2563   3.596   5.523   5.149
  555SOL    HW1 2564   3.672   5.519   5.213
  555SOL    HW2 2565   3.610   5.597   5.084
  556SOL     OW 2566   5.422   1.659   4.629
  556SOL    HW1 2567   5.352   1.710   4.578
  556SOL    HW2 2568   5.399   1.562   4.627
  557SOL     OW 2569   6.850   4.829   6.249
  557SOL    HW1 2570   6.854   4.751   6.186
  557SOL    HW2 2571   6.761   4.873   6.241
  558SOL     OW 2572   4.083   3.249   3.899
  558SOL    HW1 2573   4.099   3.342   3.934
  558SOL    HW2 2574   4.167   3.213   3.858
  559SOL     OW 2575   6.769   6.162   5.447
  559SOL    HW1 2576   6.675   6.128   5.445
  559SOL    HW2 2577   6.774   6.242   5.507
  560SOL     OW 2578   6.657   3.361   3.277
  560SOL    HW1 2579   6.753   3.358   3.307
  560SOL    HW2 2580   6.652   3.335   3.180
  561SOL     OW 2581   6.705   2.809   6.374
  561SOL    HW1 2582   6.787   2.839   6.326
  561SOL    HW2 2583   6.721   2.720   6.416
  562SOL     OW 2584   4.695   6.900   5.519
  562SOL    HW1 2585   4.661   6.943   5.435
  562SOL    HW2 2586   4.704   6.802   5.505
  563SOL     OW 2587   2.198   1.631   3.800
  563SOL    HW1 2588   2.253   1.602   3.878
  563SOL    HW2 2589   2.177   1.729   3.808
  564SOL     OW 2590   0.103   1.655   6.232
  564SOL    HW1 2591   0.062   1.654   6.324
  564SOL    HW2 2592   0.122   1.561   6.203
  565SOL     OW 2593   2.928   3.569   3.985
  565SOL    HW1 2594   3.025   3.544   3.981
  565SOL    HW2 2595   2.877   3.497   4.032
  566SOL     OW 2596   2.236   4.679   2.973
  566SOL    HW1 2597   2.241   4.658   3.071
  566SOL    HW2 2598   2.185   4.607   2.926
  567SOL     OW 2599   2.629   2.538   0.579
  567SOL    HW1 2600   2.564   2.609   0.608
  567SOL    HW2 2601   2.717   2.580   0.559
  568SOL     OW 2602   5.639   6.804   1.098
  568SOL    HW1 2603   5.631   6.817   0.999
  568SOL    HW2 2604   5.649   6.893   1.142
  569SOL     OW 2605   1.022   2.602   1.126
  569SOL    HW1 2606   0.952   2.642   1.186
  569SOL    HW2 2607   1.042   2.508   1.157
  570SOL     OW 2608   3.461   6.860   6.550
  570SOL    HW1 2609   3.366   6.846   6.580
  570SOL    HW2 2610   3.513   6.776   6.564
  571SOL     OW 2611   2.883   4.833   3.752
  571SOL    HW1 2612   2.971   4.872   3.777
  571SOL    HW2 2613   2.890   4.789   3.662
  572SOL     OW 2614   2.244   5.781   4.789
  572SOL    HW1 2615   2.194   5.866   4.775
  572SOL    HW2 2616   2.275   5.745   4.701
  573SOL     OW 2617   6.286   1.407   5.675
  573SOL    HW1 2618   6.359   1.457   5.630
  573SOL    HW2 2619   6.273   1.443   5.767
  574SOL     OW 2620   3.591   0.522   5.449
  574SOL    HW1 2621   3.560   0.555   5.360
  574SOL    HW2 2622   3.662   0.453   5.436
  575SOL     OW 2623   4.351   2.911   1.193
  575SOL    HW1 2624   4.300   2.838   1.149
  575SOL    HW2 2625   4.333   2.910   1.292
  576SOL     OW 2626   1.780   3.012   2.828
  576SOL    HW1 2627   1.712   3.074   2.867
  576SOL    HW2 2628   1.816   3.051   2.743
  577SOL     OW 2629   1.225   0.561   2.423
  577SOL    HW1 2630   1.169   0.497   2.369
  577SOL    HW2 2631   1.313   0.574   2.378
  578SOL     OW 2632   1.917   5.783   6.308
  578SOL    HW1 2633   1.867   5.782   6.222
  578SOL    HW2 2634   2.015   5.771   6.290
  579SOL     OW 2635   1.723   4.577   2.608
  579SOL    HW1 2636   1.810   4.612   2.571
  579SOL    HW2 2637   1.732   4.566   2.707
  580SOL     OW 2638   4.294   4.839   5.627
  580SOL    HW1 2639   4.340   4.912   5.576
  580SOL    HW2 2640   4.346   4.754   5.618
  581SOL     OW 2641   1.021   3.281   3.407
  581SOL    HW1 2642   0.966   3.247   3.331
  581SOL    HW2 2643   1.028   3.209   3.477
  582SOL     OW 2644   4.885   5.695   3.112
  582SOL    HW1 2645   4.896   5.669   3.208
  582SOL    HW2 2646   4.859   5.615   3.059
  583SOL     OW 2647   2.669   5.474   5.007
  583SOL    HW1 2648   2.656   5.376   4.991
  583SOL    HW2 2649   2.586   5.523   4.980
  584SOL     OW 2650   3.530   6.892   6.237
  584SOL    HW1 2651   3.555   6.989   6.234
  584SOL    HW2 2652   3.523   6.862   6.333
  585SOL     OW 2653   4.220   0.527   1.196
  585SOL    HW1 2654   4.216   0.462   1.120
  585SOL    HW2 2655   4.234   0.476   1.281
  586SOL     OW 2656   3.681   0.651   0.941
  586SOL    HW1 2657   3.667   0.607   1.030
  586SOL    HW2 2658   3.640   0.742   0.943
  587SOL     OW 2659   5.325   2.074   2.464
  587SOL    HW1 2660   5.266   1.999   2.494
  587SOL    HW2 2661   5.280   2.124   2.390
  588SOL     OW 2662   1.845   5.358   0.983
  588SOL    HW1 2663   1.892   5.395   1.063
  588SOL    HW2 2664   1.896   5.280   0.947
  589SOL     OW 2665   3.288   5.475   1.251
  589SOL    HW1 2666   3.336   5.393   1.219
  589SOL    HW2 2667   3.309   5.552   1.189
  590SOL     OW 2668   5.735   1.382   0.586
  590SOL    HW1 2669   5.649   1.412   0.545
  590SOL    HW2 2670   5.797   1.353   0.513
  591SOL     OW 2671   4.091   6.080   3.611
  591SOL    HW1 2672   4.069   6.088   3.708
  591SOL    HW2 2673   4.011   6.045   3.561
  592SOL     OW 2674   4.555   0.388   3.407
  592SOL    HW1 2675   4.514   0.437   3.330
  592SOL    HW2 2676   4.485   0.370   3.476
  593SOL     OW 2677   4.718   2.135   5.009
  593SOL    HW1 2678   4.772   2.214   5.036
  593SOL    HW2 2679   4.667   2.156   4.926
  594SOL     OW 2680   6.009   1.122   0.656
  594SOL    HW1 2681   5.991   1.031   0.696
  594SOL    HW2 2682   6.018   1.189   0.729
  595SOL     OW 2683   5.843   6.729   3.382
  595SOL    HW1 2684   5.743   6.718   3.390
  595SOL    HW2 2685   5.871   6.704   3.289
  596SOL     OW 2686   6.779   5.107   3.473
  596SOL    HW1 2687   6.736   5.081   3.560
  596SOL    HW2 2688   6.733   5.061   3.397
  597SOL     OW 2689   3.070   6.982   6.137
  597SOL    HW1 2690   3.155   6.941   6.169
  597SOL    HW2 2691   3.045   0.030   6.196
  598SOL     OW 2692   3.319   4.116   4.835
  598SOL    HW1 2693   3.359   4.120   4.926
  598SOL    HW2 2694   3.309   4.209   4.799
  599SOL     OW 2695   1.839   6.030   2.436
  599SOL    HW1 2696   1.787   6.064   2.358
  599SOL    HW2 2697   1.843   6.102   2.506
  600SOL     OW 2698   6.857   3.314   6.050
  600SOL    HW1 2699   6.816   3.270   6.130
  600SOL    HW2 2700   6.790   3.317   5.976
  601SOL     OW 2701   1.530   1.091   4.686
  601SOL    HW1 2702   1.582   1.073   4.602
  601SOL    HW2 2703   1.541   1.015   4.750
  602SOL     OW 2704   2.903   0.471   5.999
  602SOL    HW1 2705   2.912   0.533   6.077
  602SOL    HW2 2706   2.837   0.399   6.021
  603SOL     OW 2707   1.761   2.014   5.297
  603SOL    HW1 2708   1.813   2.096   5.320
  603SOL    HW2 2709   1.685   2.004   5.360
  604SOL     OW 2710   0.477   2.437   1.508
  604SOL    HW1 2711   0.549   2.473   1.567
  604SOL    HW2 2712   0.496   2.341   1.486
  605SOL     OW 2713   0.015   4.847   1.895
  605SOL    HW1 2714   0.069   4.927   1.869
  605SOL    HW2 2715   0.022   4.778   1.822
  606SOL     OW 2716   4.536   6.597   5.710
  606SOL    HW1 2717   4.440   6.614   5.689
  606SOL    HW2 2718   4.552   6.498   5.719
  607SOL     OW 2719   0.428   4.734   5.653
  607SOL    HW1 2720   0.409   4.760   5.748
  607SOL    HW2 2721   0.415   4.814   5.594
  608SOL     OW 2722   3.810   6.863   0.030
  608SOL    HW1 2723   3.807   6.763   0.026
  608SOL    HW2 2724   3.768   6.901   6.976
  609SOL     OW 2725   3.618   2.537   1.695
  609SOL    HW1 2726   3.551   2.591   1.745
  609SOL    HW2 2727   3.642   2.455   1.748
  610SOL     OW 2728   4.721   2.197   0.257
  610SOL    HW1 2729   4.702   2.125   0.190
  610SOL    HW2 2730   4.806   2.244   0.231
  611SOL     OW 2731   3.248   6.858   2.734
  611SOL    HW1 2732   3.295   6.880   2.649
  611SOL    HW2 2733   3.273   6.925   2.804
  612SOL     OW 2734   2.879   5.316   4.853
  612SOL    HW1 2735   2.891   5.251   4.928
  612SOL    HW2 2736   2.828   5.396   4.886
  613SOL     OW 2737   5.272   4.631   4.794
  613SOL    HW1 2738   5.176   4.661   4.796
  613SOL    HW2 2739   5.278   4.537   4.828
  614SOL     OW 2740   5.504   5.356   4.760
  614SOL    HW1 2741   5.530   5.369   4.665
  614SOL    HW2 2742   5.461   5.266   4.771
  615SOL     OW 2743   6.797   2.706   1.379
  615SOL    HW1 2744   6.810   2.698   1.478
  615SOL    HW2 2745   6.736   2.633   1.348
  616SOL     OW 2746   6.291   2.134   2.434
  616SOL    HW1 2747   6.384   2.135   2.397
  616SOL    HW2 2748   6.249   2.225   2.423
  617SOL     OW 2749   1.487   4.893   6.582
  617SOL    HW1 2750   1.396   4.849   6.584
  617SOL    HW2 2751   1.489   4.968   6.647
  618SOL     OW 2752   1.640   2.489   1.674
  618SOL    HW1 2753   1.631   2.472   1.772
  618SOL    HW2 2754   1.609   2.408   1.623
  619SOL     OW 2755   1.918   2.096   0.434
  619SOL    HW1 2756   1.951   2.143   0.352
  619SOL    HW2 2757   1.890   2.164   0.502
  620SOL     OW 2758   4.399   2.076   0.280
  620SOL    HW1 2759   4.422   2.053   0.185
  620SOL    HW2 2760   4.409   2.174   0.294
  621SOL     OW 2761   5.460   5.059   6.667
  621SOL    HW1 2762   5.463   5.016   6.577
  621SOL    HW2 2763   5.387   5.127   6.670
  622SOL     OW 2764   1.522   1.192   6.806
  622SOL    HW1 2765   1.558   1.258   6.740
  622SOL    HW2 2766   1.430   1.163   6.778
  623SOL     OW 2767   0.805   5.815   6.167
  623SOL    HW1 2768   0.786   5.717   6.168
  623SOL    HW2 2769   0.746   5.860   6.100
  624SOL     OW 2770   0.187   2.826   1.940
  624SOL    HW1 2771   0.268   2.832   1.882
  624SOL    HW2 2772   0.105   2.833   1.884
  625SOL     OW 2773   2.697   2.376   1.281
  625SOL    HW1 2774   2.675   2.288   1.322
  625SOL    HW2 2775   2.662   2.450   1.338
  626SOL     OW 2776   2.674   5.686   3.508
  626SOL    HW1 2777   2.754   5.746   3.507
  626SOL    HW2 2778   2.686   5.618   3.581
  627SOL     OW 2779   4.885   6.895   0.926
  627SOL    HW1 2780   4.919   6.887   1.020
  627SOL    HW2 2781   4.923   6.821   0.871
  628SOL     OW 2782   4.749   4.878   4.888
  628SOL    HW1 2783   4.704   4.902   4.802
  628SOL    HW2 2784   4.709   4.932   4.963
  629SOL     OW 2785   0.390   0.362   1.055
  629SOL    HW1 2786   0.373   0.314   1.142
  629SOL    HW2 2787   0.313   0.423   1.035
  630SOL     OW 2788   5.492   2.196   2.623
  630SOL    HW1 2789   5.558   2.123   2.605
  630SOL    HW2 2790   5.404   2.172   2.582
  631SOL     OW 2791   3.075   0.460   5.564
  631SOL    HW1 2792   3.077   0.407   5.650
  631SOL    HW2 2793   3.093   0.399   5.487
  632SOL     OW 2794   2.633   1.472   0.329
  632SOL    HW1 2795   2.730   1.455   0.347
  632SOL    HW2 2796   2.589   1.388   0.299
  633SOL     OW 2797   3.522   5.339   0.079
  633SOL    HW1 2798   3.519   5.438   0.091
  633SOL    HW2 2799   3.456   5.311   0.009
  634SOL     OW 2800   4.242   4.725   1.805
  634SOL    HW1 2801   4.271   4.630   1.789
  634SOL    HW2 2802   4.174   4.751   1.737
  635SOL     OW 2803   4.797   6.769   2.821
  635SOL    HW1 2804   4.872   6.729   2.768
  635SOL    HW2 2805   4.799   6.733   2.914
  636SOL     OW 2806   5.346   5.423   6.185
  636SOL    HW1 2807   5.359   5.385   6.277
  636SOL    HW2 2808   5.424   5.398   6.128
  637SOL     OW 2809   5.329   4.738   1.624
  637SOL    HW1 2810   5.391   4.665   1.652
  637SOL    HW2 2811   5.235   4.703   1.621
  638SOL     OW 2812   5.111   1.196   2.659
  638SOL    HW1 2813   5.110   1.172   2.562
  638SOL    HW2 2814   5.101   1.295   2.670
  639SOL     OW 2815   5.164   4.590   1.844
  639SOL    HW1 2816   5.077   4.640   1.854
  639SOL    HW2 2817   5.145   4.493   1.828
  640SOL     OW 2818   2.423   4.845   5.543
  640SOL    HW1 2819   2.522   4.832   5.542
  640SOL    HW2 2820   2.380   4.767   5.589
  641SOL     OW 2821   0.441   5.640   4.607
  641SOL    HW1 2822   0.461   5.695   4.526
  641SOL    HW2 2823   0.348   5.659   4.638
  642SOL     OW 2824   0.288   4.040   4.040
  642SOL    HW1 2825   0.335   4.021   4.127
  642SOL    HW2 2826   0.334   4.115   3.993
  643SOL     OW 2827   6.040   5.304   5.063
  643SOL    HW1 2828   6.026   5.246   5.143
  643SOL    HW2 2829   6.133   5.342   5.065
  644SOL     OW 2830   0.901   5.378   2.446
  644SOL    HW1 2831   0.817   5.344   2.487
  644SOL    HW2 2832   0.966   5.405   2.517
  645SOL     OW 2833   5.038   2.557   4.446
  645SOL    HW1 2834   4.961   2.598   4.494
  645SOL    HW2 2835   5.045   2.595   4.354
  646SOL     OW 2836   2.124   2.231   3.368
  646SOL    HW1 2837   2.118   2.151   3.428
  646SOL    HW2 2838   2.082   2.209   3.280
  647SOL     OW 2839   6.068   2.778   6.042
  647SOL    HW1 2840   6.040   2.697   5.991
  647SOL    HW2 2841   6.149   2.757   6.097
  648SOL     OW 2842   6.004   3.469   2.611
  648SOL    HW1 2843   6.013   3.467   2.511
  648SOL    HW2 2844   6.051   3.550   2.646
  649SOL     OW 2845   4.150   4.220   0.361
  649SOL    HW1 2846   4.139   4.234   0.460
  649SOL    HW2 2847   4.247   4.225   0.337
  650SOL     OW 2848   4.764   4.206   0.155
  650SOL    HW1 2849   4.699   4.280   0.171
  650SOL    HW2 2850   4.810   4.220   0.067
  651SOL     OW 2851   0.619   6.605   0.526
  651SOL    HW1 2852   0.665   6.660   0.596
  651SOL    HW2 2853   0.664   6.516   0.519
  652SOL     OW 2854   4.907   6.595   3.643
  652SOL    HW1 2855   4.863   6.684   3.631
  652SOL    HW2 2856   4.852   6.525   3.597
  653SOL     OW 2857   3.714   5.501   5.403
  653SOL    HW1 2858   3.619   5.469   5.400
  653SOL    HW2 2859   3.774   5.432   5.364
  654SOL     OW 2860   6.833   4.638   6.029
  654SOL    HW1 2861   6.897   4.605   5.960
  654SOL    HW2 2862   6.755   4.575   6.035
  655SOL     OW 2863   0.521   0.062   2.340
  655SOL    HW1 2864   0.612   0.033   2.310
  655SOL    HW2 2865   0.513   0.051   2.439
  656SOL     OW 2866   2.118   5.746   1.415
  656SOL    HW1 2867   2.043   5.798   1.457
  656SOL    HW2 2868   2.171   5.701   1.487
  657SOL     OW 2869   2.146   2.014   1.533
  657SOL    HW1 2870   2.228   2.070   1.517
  657SOL    HW2 2871   2.066   2.074   1.540
  658SOL     OW 2872   3.292   2.894   6.607
  658SOL    HW1 2873   3.304   2.859   6.514
  658SOL    HW2 2874   3.249   2.823   6.664
  659SOL     OW 2875   3.553   6.450   6.425
  659SOL    HW1 2876   3.512   6.373   6.474
  659SOL    HW2 2877   3.624   6.491   6.482
  660SOL     OW 2878   4.047   5.462   1.661
  660SOL    HW1 2879   4.003   5.551   1.671
  660SOL    HW2 2880   4.114   5.466   1.587
  661SOL     OW 2881   4.377   6.600   3.841
  661SOL    HW1 2882   4.444   6.530   3.864
  661SOL    HW2 2883   4.343   6.585   3.748
  662SOL     OW 2884   3.609   1.235   5.565
  662SOL    HW1 2885   3.677   1.211   5.496
  662SOL    HW2 2886   3.620   1.175   5.645
  663SOL     OW 2887   2.343   3.878   5.578
  663SOL    HW1 2888   2.326   3.783   5.549
  663SOL    HW2 2889   2.315   3.889   5.673
  664SOL     OW 2890   0.363   6.131   6.041
  664SOL    HW1 2891   0.377   6.226   6.069
  664SOL    HW2 2892   0.446   6.096   5.998
  665SOL     OW 2893   3.861   5.317   2.530
  665SOL    HW1 2894   3.808   5.402   2.526
  665SOL    HW2 2895   3.891   5.293   2.437
  666SOL     OW 2896   4.696   0.750   1.699
  666SOL    HW1 2897   4.788   0.713   1.715
  666SOL    HW2 2898   4.670   0.810   1.775
  667SOL     OW 2899   0.998   5.048   2.207
  667SOL    HW1 2900   1.098   5.053   2.210
  667SOL    HW2 2901   0.962   5.039   2.300
  668SOL     OW 2902   5.449   6.018   5.718
  668SOL    HW1 2903   5.382   5.948   5.694
  668SOL    HW2 2904   5.400   6.099   5.754
  669SOL     OW 2905   6.119   0.831   3.632
  669SOL    HW1 2906   6.150   0.736   3.628
  669SOL    HW2 2907   6.175   0.882   3.697
  670SOL     OW 2908   2.561   1.967   2.315
  670SOL    HW1 2909   2.554   1.874   2.352
  670SOL    HW2 2910   2.624   1.967   2.238
  671SOL     OW 2911   3.303   6.064   0.939
  671SOL    HW1 2912   3.363   6.025   1.009
  671SOL    HW2 2913   3.335   6.038   0.848
  672SOL     OW 2914   6.734   5.327   2.047
  672SOL    HW1 2915   6.655   5.281   2.005
  672SOL    HW2 2916   6.758   5.279   2.132
  673SOL     OW 2917   5.873   0.039   1.357
  673SOL    HW1 2918   5.784   0.009   1.323
  673SOL    HW2 2919   5.917   0.097   1.288
  674SOL     OW 2920   0.472   1.121   4.707
  674SOL    HW1 2921   0.518   1.210   4.717
  674SOL    HW2 2922   0.510   1.073   4.628
  675SOL     OW 2923   5.293   2.674   2.372
  675SOL    HW1 2924   5.226   2.636   2.308
  675SOL    HW2 2925   5.378   2.622   2.367
  676SOL     OW 2926   2.238   5.252   4.409
  676SOL    HW1 2927   2.284   5.208   4.486
  676SOL    HW2 2928   2.291   5.235   4.326
  677SOL     OW 2929   4.969   0.871   1.378
  677SOL    HW1 2930   4.935   0.841   1.289
  677SOL    HW2 2931   4.979   0.970   1.378
  678SOL     OW 2932   2.711   5.574   4.625
  678SOL    HW1 2933   2.725   5.672   4.633
  678SOL    HW2 2934   2.792   5.525   4.657
  679SOL     OW 2935   5.312   1.547   5.020
  679SOL    HW1 2936   5.319   1.483   4.944
  679SOL    HW2 2937   5.398   1.548   5.071
  680SOL     OW 2938   4.394   5.921   4.433
  680SOL    HW1 2939   4.486   5.949   4.404
  680SOL    HW2 2940   4.396   5.826   4.464
  681SOL     OW 2941   4.231   5.949   1.920
  681SOL    HW1 2942   4.266   5.933   2.012
  681SOL    HW2 2943   4.256   5.872   1.861
  682SOL     OW 2944   6.237   1.338   2.050
  682SOL    HW1 2945   6.214   1.409   1.983
  682SOL    HW2 2946   6.260   1.380   2.137
  683SOL     OW 2947   4.669   3.157   0.878
  683SOL    HW1 2948   4.636   3.110   0.796
  683SOL    HW2 2949   4.634   3.111   0.960
  684SOL     OW 2950   6.293   0.802   0.165
  684SOL    HW1 2951   6.226   0.874   0.187
  684SOL    HW2 2952   6.385   0.838   0.176
  685SOL     OW 2953   3.404   2.145   3.800
  685SOL    HW1 2954   3.314   2.145   3.845
  685SOL    HW2 2955   3.475   2.163   3.867
  686SOL     OW 2956   4.724   1.942   4.319
  686SOL    HW1 2957   4.780   1.989   4.251
  686SOL    HW2 2958   4.759   1.850   4.334
  687SOL     OW 2959   1.111   2.168   4.260
  687SOL    HW1 2960   1.144   2.132   4.173
  687SOL    HW2 2961   1.172   2.139   4.333
  688SOL     OW 2962   6.984   1.427   6.446
  688SOL    HW1 2963   0.021   1.482   6.499
  688SOL    HW2 2964   6.938   1.485   6.379
  689SOL     OW 2965   2.054   4.649   5.960
  689SOL    HW1 2966   2.039   4.552   5.981
  689SOL    HW2 2967   2.125   4.657   5.890
  690SOL     OW 2968   6.958   3.882   3.211
  690SOL    HW1 2969   6.902   3.937   3.274
  690SOL    HW2 2970   0.014   3.931   3.190
  691SOL     OW 2971   3.601   1.520   0.923
  691SOL    HW1 2972   3.609   1.460   1.002
  691SOL    HW2 2973   3.667   1.595   0.932
  692SOL     OW 2974   4.268   1.855   4.807
  692SOL    HW1 2975   4.325   1.863   4.889
  692SOL    HW2 2976   4.173   1.844   4.834
  693SOL     OW 2977   4.698   6.744   4.104
  693SOL    HW1 2978   4.715   6.721   4.008
  693SOL    HW2 2979   4.785   6.763   4.149
  694SOL     OW 2980   4.147   6.100   4.522
  694SOL    HW1 2981   4.074   6.039   4.553
  694SOL    HW2 2982   4.225   6.046   4.491
  695SOL     OW 2983   3.797   6.084   4.314
  695SOL    HW1 2984   3.727   6.087   4.242
  695SOL    HW2 2985   3.774   6.011   4.379
  696SOL     OW 2986   4.863   4.370   3.416
  696SOL    HW1 2987   4.890   4.462   3.445
  696SOL    HW2 2988   4.842   4.371   3.318
  697SOL     OW 2989   1.514   3.542   2.570
  697SOL    HW1 2990   1.461   3.561   2.653
  697SOL    HW2 2991   1.581   3.615   2.557
  698SOL     OW 2992   5.280   6.498   0.886
  698SOL    HW1 2993   5.247   6.420   0.833
  698SOL    HW2 2994   5.203   6.543   0.932
  699SOL     OW 2995   1.596   3.193   6.549
  699SOL    HW1 2996   1.631   3.264   6.487
  699SOL    HW2 2997   1.663   3.118   6.555
  700SOL     OW 2998   3.501   0.041   2.020
  700SOL    HW1 2999   3.499   0.051   2.119
  700SOL    HW2 3000   3.551   6.987   1.995
  701SOL     OW 3001   0.114   4.301   0.089
  701SOL    HW1 3002   0.103   4.386   0.141
  701SOL    HW2 3003   0.202   4.303   0.041
  702SOL     OW 3004   2.100   0.053   4.402
  702SOL    HW1 3005   2.082   0.150   4.390
  702SOL    HW2 3006   2.092   0.006   4.314
  703SOL     OW 3007   3.433   3.049   5.646
  703SOL    HW1 3008   3.373   3.097   5.582
  703SOL    HW2 3009   3.388   3.042   5.735
  704SOL     OW 3010   2.060   2.221   6.530
  704SOL    HW1 3011   2.137   2.202   6.591
  704SOL    HW2 3012   1.993   2.148   6.537
  705SOL     OW 3013   6.182   5.557   3.291
  705SOL    HW1 3014   6.149   5.556   3.385
  705SOL    HW2 3015   6.277   5.587   3.289
  706SOL     OW 3016   4.477   2.082   5.429
  706SOL    HW1 3017   4.389   2.111   5.468
  706SOL    HW2 3018   4.545   2.075   5.501
  707SOL     OW 3019   3.995   4.821   3.148
  707SOL    HW1 3020   4.064   4.826   3.076
  707SOL    HW2 3021   3.905   4.843   3.109
  708SOL     OW 3022   2.863   1.632   3.179
  708SOL    HW1 3023   2.804   1.562   3.219
  708SOL    HW2 3024   2.824   1.723   3.196
  709SOL     OW 3025   1.452   6.475   1.091
  709SOL    HW1 3026   1.376   6.492   1.154
  709SOL    HW2 3027   1.538   6.470   1.142
  710SOL     OW 3028   4.879   2.241   1.624
  710SOL    HW1 3029   4.972   2.240   1.659
  710SOL    HW2 3030   4.815   2.255   1.700
  711SOL     OW 3031   7.006   2.588   6.413
  711SOL    HW1 3032   7.019   2.683   6.384
  711SOL    HW2 3033   0.043   2.567   6.486
  712SOL     OW 3034   4.711   2.207   0.802
  712SOL    HW1 3035   4.735   2.163   0.716
  712SOL    HW2 3036   4.768   2.288   0.815
  713SOL     OW 3037   4.363   2.850   5.458
  713SOL    HW1 3038   4.358   2.940   5.503
  713SOL    HW2 3039   4.285   2.840   5.395
  714SOL     OW 3040   6.282   5.301   3.808
  714SOL    HW1 3041   6.230   5.220   3.780
  714SOL    HW2 3042   6.303   5.356   3.728
  715SOL     OW 3043   5.864   5.327   6.320
  715SOL    HW1 3044   5.947   5.348   6.269
  715SOL    HW2 3045   5.848   5.229   6.320
  716SOL     OW 3046   1.326   1.353   2.906
  716SOL    HW1 3047   1.392   1.370   2.979
  716SOL    HW2 3048   1.234   1.349   2.945
  717SOL     OW 3049   6.457   4.818   4.502
  717SOL    HW1 3050   6.425   4.886   4.568
  717SOL    HW2 3051   6.543   4.777   4.535
  718SOL     OW 3052   5.011   2.657   4.704
  718SOL    HW1 3053   5.039   2.750   4.681
  718SOL    HW2 3054   5.084   2.594   4.677
  719SOL     OW 3055   5.701   0.363   2.791
  719SOL    HW1 3056   5.703   0.463   2.788
  719SOL    HW2 3057   5.638   0.334   2.862
  720SOL     OW 3058   2.093   0.254   6.075
  720SOL    HW1 3059   2.141   0.174   6.037
  720SOL    HW2 3060   2.007   0.266   6.026
  721SOL     OW 3061   1.766   1.139   2.318
  721SOL    HW1 3062   1.816   1.054   2.303
  721SOL    HW2 3063   1.813   1.213   2.270
  722SOL     OW 3064   3.203   1.109   5.058
  722SOL    HW1 3065   3.154   1.152   5.134
  722SOL    HW2 3066   3.247   1.179   5.002
  723SOL     OW 3067   1.813   5.910   3.649
  723SOL    HW1 3068   1.892   5.867   3.691
  723SOL    HW2 3069   1.842   5.961   3.567
  724SOL     OW 3070   0.242   1.423   3.585
  724SOL    HW1 3071   0.173   1.447   3.517
  724SOL    HW2 3072   0.243   1.492   3.657
  725SOL     OW 3073   1.941   4.705   2.519
  725SOL    HW1 3074   1.896   4.732   2.434
  725SOL    HW2 3075   2.040   4.706   2.505
  726SOL     OW 3076   2.420   5.183   0.929
  726SOL    HW1 3077   2.326   5.150   0.933
  726SOL    HW2 3078   2.458   5.163   0.839
  727SOL     OW 3079   4.897   4.707   6.608
  727SOL    HW1 3080   4.804   4.682   6.581
  727SOL    HW2 3081   4.896   4.797   6.652
  728SOL     OW 3082   6.717   3.525   4.176
  728SOL    HW1 3083   6.809   3.536   4.139
  728SOL    HW2 3084   6.708   3.435   4.219
  729SOL     OW 3085   0.525   2.819   0.956
  729SOL    HW1 3086   0.453   2.763   0.996
  729SOL    HW2 3087   0.487   2.908   0.931
  730SOL     OW 3088   5.883   0.819   3.895
  730SOL    HW1 3089   5.837   0.856   3.815
  730SOL    HW2 3090   5.819   0.764   3.948
  731SOL     OW 3091   4.812   4.836   0.174
  731SOL    HW1 3092   4.807   4.936   0.169
  731SOL    HW2 3093   4.822   4.808   0.270
  732SOL     OW 3094   5.723   2.745   2.435
  732SOL    HW1 3095   5.725   2.678   2.509
  732SOL    HW2 3096   5.655   2.717   2.367
  733SOL     OW 3097   5.770   0.524   4.513
  733SOL    HW1 3098   5.757   0.440   4.565
  733SOL    HW2 3099   5.682   0.572   4.504
  734SOL     OW 3100   6.046   4.859   2.899
  734SOL    HW1 3101   6.135   4.868   2.854
  734SOL    HW2 3102   6.014   4.764   2.890
  735SOL     OW 3103   4.163   1.193   0.549
  735SOL    HW1 3104   4.104   1.191   0.630
  735SOL    HW2 3105   4.245   1.138   0.567
  736SOL     OW 3106   1.782   1.667   3.800
  736SOL    HW1 3107   1.844   1.693   3.874
  736SOL    HW2 3108   1.800   1.723   3.720
  737SOL     OW 3109   5.808   1.878   6.354
  737SOL    HW1 3110   5.719   1.833   6.342
  737SOL    HW2 3111   5.793   1.976   6.368
  738SOL     OW 3112   2.632   3.890   1.548
  738SOL    HW1 3113   2.712   3.891   1.608
  738SOL    HW2 3114   2.551   3.865   1.600
  739SOL     OW 3115   3.713   0.532   5.116
  739SOL    HW1 3116   3.757   0.616   5.147
  739SOL    HW2 3117   3.763   0.453   5.154
  740SOL     OW 3118   5.782   1.816   2.967
  740SOL    HW1 3119   5.823   1.864   3.044
  740SOL    HW2 3120   5.737   1.882   2.906
  741SOL     OW 3121   1.933   0.701   4.169
  741SOL    HW1 3122   1.859   0.638   4.146
  741SOL    HW2 3123   1.925   0.783   4.113
  742SOL     OW 3124   2.450   6.086   1.543
  742SOL    HW1 3125   2.376   6.126   1.489
  742SOL    HW2 3126   2.414   6.050   1.629
  743SOL     OW 3127   0.319   6.090   3.254
  743SOL    HW1 3128   0.407   6.099   3.208
  743SOL    HW2 3129   0.309   5.998   3.292
  744SOL     OW 3130   5.915   0.911   0.833
  744SOL    HW1 3131   5.980   0.834   0.835
  744SOL    HW2 3132   5.926   0.966   0.916
  745SOL     OW 3133   2.222   5.793   5.262
  745SOL    HW1 3134   2.169   5.878   5.270
  745SOL    HW2 3135   2.170   5.727   5.208
  746SOL     OW 3136   5.868   3.987   5.835
  746SOL    HW1 3137   5.923   4.036   5.903
  746SOL    HW2 3138   5.780   3.963   5.875
  747SOL     OW 3139   4.409   5.667   4.563
  747SOL    HW1 3140   4.451   5.609   4.493
  747SOL    HW2 3141   4.345   5.612   4.617
  748SOL     OW 3142   4.873   5.455   2.112
  748SOL    HW1 3143   4.943   5.526   2.121
  748SOL    HW2 3144   4.898   5.393   2.038
  749SOL     OW 3145   5.967   3.696   4.236
  749SOL    HW1 3146   5.876   3.734   4.220
  749SOL    HW2 3147   6.019   3.759   4.294
  750SOL     OW 3148   2.432   0.872   0.784
  750SOL    HW1 3149   2.398   0.957   0.825
  750SOL    HW2 3150   2.525   0.887   0.751
  751SOL     OW 3151   4.506   1.461   1.331
  751SOL    HW1 3152   4.412   1.443   1.359
  751SOL    HW2 3153   4.552   1.513   1.402
  752SOL     OW 3154   3.135   2.286   6.770
  752SOL    HW1 3155   3.163   2.197   6.736
  752SOL    HW2 3156   3.035   2.293   6.769
  753SOL     OW 3157   2.407   3.414   5.809
  753SOL    HW1 3158   2.463   3.479   5.757
  753SOL    HW2 3159   2.345   3.366   5.747
  754SOL     OW 3160   4.094   1.077   0.306
  754SOL    HW1 3161   4.121   1.123   0.390
  754SOL    HW2 3162   4.143   1.117   0.229
  755SOL     OW 3163   2.842   4.616   5.430
  755SOL    HW1 3164   2.910   4.592   5.500
  755SOL    HW2 3165   2.852   4.554   5.352
  756SOL     OW 3166   3.390   4.613   0.326
  756SOL    HW1 3167   3.309   4.667   0.303
  756SOL    HW2 3168   3.368   4.516   0.321
  757SOL     OW 3169   2.173   6.272   2.514
  757SOL    HW1 3170   2.114   6.195   2.488
  757SOL    HW2 3171   2.151   6.301   2.608
  758SOL     OW 3172   3.923   1.208   4.240
  758SOL    HW1 3173   3.959   1.256   4.320
  758SOL    HW2 3174   3.942   1.263   4.158
  759SOL     OW 3175   6.635   3.215   2.499
  759SOL    HW1 3176   6.726   3.174   2.503
  759SOL    HW2 3177   6.630   3.275   2.419
  760SOL     OW 3178   6.398   6.582   4.183
  760SOL    HW1 3179   6.351   6.640   4.116
  760SOL    HW2 3180   6.334   6.556   4.255
  761SOL     OW 3181   5.809   4.323   5.987
  761SOL    HW1 3182   5.800   4.300   5.890
  761SOL    HW2 3183   5.727   4.372   6.018
  762SOL     OW 3184   2.561   6.948   5.564
  762SOL    HW1 3185   2.631   6.885   5.596
  762SOL    HW2 3186   2.577   6.970   5.468
  763SOL     OW 3187   4.711   6.671   6.548
  763SOL    HW1 3188   4.747   6.758   6.514
  763SOL    HW2 3189   4.736   6.661   6.644
  764SOL     OW 3190   5.689   1.115   5.581
  764SOL    HW1 3191   5.747   1.040   5.548
  764SOL    HW2 3192   5.638   1.153   5.504
  765SOL     OW 3193   1.593   6.523   0.436
  765SOL    HW1 3194   1.645   6.468   0.371
  765SOL    HW2 3195   1.498   6.530   0.405
  766SOL     OW 3196   2.920   2.269   5.214
  766SOL    HW1 3197   2.903   2.231   5.305
  766SOL    HW2 3198   3.018   2.283   5.201
  767SOL     OW 3199   6.219   6.480   3.714
  767SOL    HW1 3200   6.128   6.514   3.688
  767SOL    HW2 3201   6.213   6.432   3.801
  768SOL     OW 3202   2.157   6.009   3.454
  768SOL    HW1 3203   2.204   5.921   3.463
  768SOL    HW2 3204   2.069   5.996   3.408
  769SOL     OW 3205   3.108   1.728   5.276
  769SOL    HW1 3206   3.078   1.674   5.354
  769SOL    HW2 3207   3.207   1.742   5.281
  770SOL     OW 3208   1.925   4.857   4.313
  770SOL    HW1 3209   2.006   4.799   4.302
  770SOL    HW2 3210   1.866   4.818   4.384
  771SOL     OW 3211   0.896   4.794   3.161
  771SOL    HW1 3212   0.953   4.869   3.196
  771SOL    HW2 3213   0.943   4.707   3.176
  772SOL     OW 3214   6.039   4.469   6.091
  772SOL    HW1 3215   5.969   4.444   6.024
  772SOL    HW2 3216   6.121   4.415   6.076
  773SOL     OW 3217   0.713   4.080   2.658
  773SOL    HW1 3218   0.651   4.002   2.650
  773SOL    HW2 3219   0.794   4.064   2.600
  774SOL     OW 3220   2.115   0.977   2.578
  774SOL    HW1 3221   2.083   1.059   2.531
  774SOL    HW2 3222   2.133   0.999   2.674
  775SOL     OW 3223   2.212   2.069   4.318
  775SOL    HW1 3224   2.293   2.085   4.375
  775SOL    HW2 3225   2.162   1.990   4.353
  776SOL     OW 3226   0.143   0.063   6.581
  776SOL    HW1 3227   0.196   0.075   6.497
  776SOL    HW2 3228   0.170   0.132   6.647
  777SOL     OW 3229   1.529   3.863   1.087
  777SOL    HW1 3230   1.483   3.814   1.162
  777SOL    HW2 3231   1.519   3.810   1.003
  778SOL     OW 3232   2.398   0.106   1.540
  778SOL    HW1 3233   2.358   0.038   1.478
  778SOL    HW2 3234   2.490   0.129   1.509
  779SOL     OW 3235   6.857   2.331   1.701
  779SOL    HW1 3236   6.796   2.277   1.643
  779SOL    HW2 3237   6.921   2.269   1.748
  780SOL     OW 3238   0.825   2.756   4.537
  780SOL    HW1 3239   0.909   2.702   4.531
  780SOL    HW2 3240   0.746   2.698   4.520
  781SOL     OW 3241   6.731   5.206   0.626
  781SOL    HW1 3242   6.799   5.142   0.661
  781SOL    HW2 3243   6.720   5.194   0.528
  782SOL     OW 3244   2.285   3.633   5.496
  782SOL    HW1 3245   2.325   3.586   5.417
  782SOL    HW2 3246   2.201   3.586   5.522
  783SOL     OW 3247   5.956   4.821   1.505
  783SOL    HW1 3248   5.959   4.819   1.405
  783SOL    HW2 3249   5.873   4.775   1.537
  784SOL     OW 3250   2.916   5.456   1.865
  784SOL    HW1 3251   2.917   5.372   1.919
  784SOL    HW2 3252   2.879   5.437   1.774
  785SOL     OW 3253   0.546   1.503   3.771
  785SOL    HW1 3254   0.450   1.486   3.796
  785SOL    HW2 3255   0.551   1.528   3.675
  786SOL     OW 3256   6.768   1.158   2.668
  786SOL    HW1 3257   6.719   1.228   2.718
  786SOL    HW2 3258   6.850   1.131   2.718
  787SOL     OW 3259   2.332   6.860   6.753
  787SOL    HW1 3260   2.333   6.766   6.717
  787SOL    HW2 3261   2.346   6.857   6.852
  788SOL     OW 3262   3.829   2.713   1.724
  788SOL    HW1 3263   3.767   2.639   1.695
  788SOL    HW2 3264   3.806   2.740   1.817
  789SOL     OW 3265   4.620   5.793   2.732
  789SOL    HW1 3266   4.540   5.736   2.751
  789SOL    HW2 3267   4.621   5.870   2.795
  790SOL     OW 3268   1.878   1.323   2.152
  790SOL    HW1 3269   1.807   1.388   2.126
  790SOL    HW2 3270   1.958   1.373   2.185
  791SOL     OW 3271   2.694   6.420   5.458
  791SOL    HW1 3272   2.698   6.450   5.554
  791SOL    HW2 3273   2.599   6.420   5.427
  792SOL     OW 3274   0.478   1.394   1.701
  792SOL    HW1 3275   0.567   1.367   1.665
  792SOL    HW2 3276   0.413   1.405   1.625
  793SOL     OW 3277   4.801   5.878   5.088
  793SOL    HW1 3278   4.762   5.936   5.159
  793SOL    HW2 3279   4.728   5.838   5.034
  794SOL     OW 3280   3.845   3.665   5.380
  794SOL    HW1 3281   3.758   3.648   5.334
  794SOL    HW2 3282   3.902   3.583   5.376
  795SOL     OW 3283   3.710   0.649   5.760
  795SOL    HW1 3284   3.798   0.618   5.726
  795SOL    HW2 3285   3.640   0.580   5.740
  796SOL     OW 3286   1.952   2.791   0.337
  796SOL    HW1 3287   2.004   2.733   0.274
  796SOL    HW2 3288   1.890   2.735   0.391
  797SOL     OW 3289   4.240   0.469   0.718
  797SOL    HW1 3290   4.172   0.433   0.654
  797SOL    HW2 3291   4.287   0.547   0.676
  798SOL     OW 3292   3.199   6.349   1.382
  798SOL    HW1 3293   3.172   6.340   1.286
  798SOL    HW2 3294   3.162   6.435   1.419
  799SOL     OW 3295   0.267   1.968   6.122
  799SOL    HW1 3296   0.257   2.041   6.189
  799SOL    HW2 3297   0.220   1.886   6.155
  800SOL     OW 3298   6.484   1.920   2.527
  800SOL    HW1 3299   6.484   1.995   2.460
  800SOL    HW2 3300   6.571   1.918   2.575
  801SOL     OW 3301   2.055   4.543   4.815
  801SOL    HW1 3302   2.097   4.619   4.864
  801SOL    HW2 3303   2.110   4.521   4.734
  802SOL     OW 3304   4.080   2.560   6.875
  802SOL    HW1 3305   4.099   2.582   6.971
  802SOL    HW2 3306   4.037   2.638   6.830
  803SOL     OW 3307   2.208   6.937   5.961
  803SOL    HW1 3308   2.131   6.927   5.898
  803SOL    HW2 3309   2.255   7.023   5.943
  804SOL     OW 3310   6.754   6.764   1.745
  804SOL    HW1 3311   6.693   6.711   1.803
  804SOL    HW2 3312   6.828   6.705   1.713
  805SOL     OW 3313   1.387   0.393   4.085
  805SOL    HW1 3314   1.332   0.317   4.119
  805SOL    HW2 3315   1.329   0.456   4.033
  806SOL     OW 3316   6.621   0.488   5.767
  806SOL    HW1 3317   6.699   0.493   5.830
  806SOL    HW2 3318   6.609   0.394   5.736
  807SOL     OW 3319   0.490   0.056   3.824
  807SOL    HW1 3320   0.466   7.020   3.751
  807SOL    HW2 3321   0.473   0.150   3.794
  808SOL     OW 3322   5.654   2.929   6.984
  808SOL    HW1 3323   5.668   3.027   6.991
  808SOL    HW2 3324   5.736   2.880   7.014
  809SOL     OW 3325   0.903   5.186   0.477
  809SOL    HW1 3326   0.906   5.132   0.394
  809SOL    HW2 3327   0.881   5.127   0.555
  810SOL     OW 3328   2.805   3.146   0.618
  810SOL    HW1 3329   2.826   3.105   0.706
  810SOL    HW2 3330   2.805   3.076   0.547
  811SOL     OW 3331   5.799   5.029   4.906
  811SOL    HW1 3332   5.727   4.985   4.960
  811SOL    HW2 3333   5.782   5.128   4.901
  812SOL     OW 3334   0.628   2.325   2.187
  812SOL    HW1 3335   0.722   2.313   2.154
  812SOL    HW2 3336   0.564   2.301   2.115
  813SOL     OW 3337   2.788   0.257   4.440
  813SOL    HW1 3338   2.811   0.218   4.529
  813SOL    HW2 3339   2.870   0.263   4.384
  814SOL     OW 3340   6.332   5.631   2.038
  814SOL    HW1 3341   6.394   5.597   2.109
  814SOL    HW2 3342   6.306   5.725   2.059
  815SOL     OW 3343   5.277   2.616   3.425
  815SOL    HW1 3344   5.183   2.631   3.396
  815SOL    HW2 3345   5.280   2.547   3.497
  816SOL     OW 3346   4.580   4.455   0.177
  816SOL    HW1 3347   4.549   4.466   0.083
  816SOL    HW2 3348   4.680   4.465   0.181
  817SOL     OW 3349   1.129   5.232   1.971
  817SOL    HW1 3350   1.035   5.200   1.977
  817SOL    HW2 3351   1.189   5.168   2.018
  818SOL     OW 3352   5.454   2.929   4.161
  818SOL    HW1 3353   5.537   2.985   4.164
  818SOL    HW2 3354   5.480   2.833   4.152
  819SOL     OW 3355   5.599   2.906   1.841
  819SOL    HW1 3356   5.534   2.866   1.905
  819SOL    HW2 3357   5.565   2.897   1.748
  820SOL     OW 3358   3.571   2.143   4.775
  820SOL    HW1 3359   3.573   2.240   4.753
  820SOL    HW2 3360   3.480   2.119   4.811
  821SOL     OW 3361   5.684   4.926   5.352
  821SOL    HW1 3362   5.638   4.944   5.439
  821SOL    HW2 3363   5.770   4.879   5.369
  822SOL     OW 3364   0.368   4.152   3.165
  822SOL    HW1 3365   0.395   4.130   3.259
  822SOL    HW2 3366   0.441   4.126   3.103
  823SOL     OW 3367   6.374   4.394   5.812
  823SOL    HW1 3368   6.462   4.379   5.766
  823SOL    HW2 3369   6.361   4.492   5.828
  824SOL     OW 3370   5.533   1.154   5.808
  824SOL    HW1 3371   5.583   1.123   5.727
  824SOL    HW2 3372   5.491   1.076   5.854
  825SOL     OW 3373   6.086   5.833   0.506
  825SOL    HW1 3374   6.149   5.784   0.567
  825SOL    HW2 3375   6.018   5.881   0.561
  826SOL     OW 3376   3.578   2.477   5.837
  826SOL    HW1 3377   3.626   2.498   5.752
  826SOL    HW2 3378   3.504   2.543   5.849
  827SOL     OW 3379   2.885   4.287   5.306
  827SOL    HW1 3380   2.786   4.286   5.294
  827SOL    HW2 3381   2.922   4.374   5.273
  828SOL     OW 3382   6.268   5.771   5.966
  828SOL    HW1 3383   6.216   5.827   6.031
  828SOL    HW2 3384   6.274   5.677   6.000
  829SOL     OW 3385   2.971   3.142   2.070
  829SOL    HW1 3386   2.901   3.170   2.136
  829SOL    HW2 3387   3.044   3.210   2.068
  830SOL     OW 3388   5.951   4.674   6.803
  830SOL    HW1 3389   5.981   4.634   6.890
  830SOL    HW2 3390   5.997   4.762   6.789
  831SOL     OW 3391   6.297   6.871   1.323
  831SOL    HW1 3392   6.363   6.866   1.248
  831SOL    HW2 3393   6.217   6.923   1.293
  832SOL     OW 3394   4.445   1.341   4.525
  832SOL    HW1 3395   4.510   1.382   4.589
  832SOL    HW2 3396   4.401   1.263   4.569
  833SOL     OW 3397   1.670   3.569   6.591
  833SOL    HW1 3398   1.661   3.498   6.521
  833SOL    HW2 3399   1.688   3.657   6.547
  834SOL     OW 3400   5.146   2.854   0.157
  834SOL    HW1 3401   5.125   2.942   0.200
  834SOL    HW2 3402   5.244   2.836   0.164
  835SOL     OW 3403   2.129   0.288   5.124
  835SOL    HW1 3404   2.168   0.377   5.101
  835SOL    HW2 3405   2.079   0.252   5.045
  836SOL     OW 3406   3.056   1.240   5.270
  836SOL    HW1 3407   3.103   1.304   5.331
  836SOL    HW2 3408   2.969   1.212   5.313
  837SOL     OW 3409   1.054   0.144   1.021
  837SOL    HW1 3410   1.131   0.166   0.960
  837SOL    HW2 3411   1.065   0.051   1.055
  838SOL     OW 3412   2.040   6.372   4.291
  838SOL    HW1 3413   1.943   6.372   4.313
  838SOL    HW2 3414   2.069   6.464   4.264
  839SOL     OW 3415   2.412   1.484   1.415
  839SOL    HW1 3416   2.471   1.503   1.337
  839SOL    HW2 3417   2.329   1.437   1.385
  840SOL     OW 3418   6.335   5.394   6.952
  840SOL    HW1 3419   6.257   5.368   7.009
  840SOL    HW2 3420   6.301   5.447   6.874
  841SOL     OW 3421   3.763   5.762   6.068
  841SOL    HW1 3422   3.807   5.674   6.048
  841SOL    HW2 3423   3.742   5.809   5.983
  842SOL     OW 3424   3.744   6.363   6.898
  842SOL    HW1 3425   3.645   6.364   6.889
  842SOL    HW2 3426   3.786   6.363   6.807
  843SOL     OW 3427   2.471   2.149   2.020
  843SOL    HW1 3428   2.386   2.202   2.024
  843SOL    HW2 3429   2.463   2.069   2.079
  844SOL     OW 3430   0.051   6.448   1.423
  844SOL    HW1 3431   0.118   6.385   1.384
  844SOL    HW2 3432   0.094   6.537   1.439
  845SOL     OW 3433   4.990   2.488   3.152
  845SOL    HW1 3434   4.995   2.466   3.249
  845SOL    HW2 3435   4.903   2.454   3.115
  846SOL     OW 3436   3.135   0.646   6.690
  846SOL    HW1 3437   3.111   0.719   6.754
  846SOL    HW2 3438   3.162   0.564   6.741
  847SOL     OW 3439   2.020   3.264   1.929
  847SOL    HW1 3440   2.081   3.336   1.962
  847SOL    HW2 3441   2.065   3.175   1.937
  848SOL     OW 3442   6.759   6.867   5.584
  848SOL    HW1 3443   6.686   6.825   5.530
  848SOL    HW2 3444   6.720   6.932   5.648
  849SOL     OW 3445   6.444   3.876   6.648
  849SOL    HW1 3446   6.464   3.973   6.660
  849SOL    HW2 3447   6.346   3.860   6.656
  850SOL     OW 3448   0.228   6.965   4.941
  850SOL    HW1 3449   0.135   6.929   4.951
  850SOL    HW2 3450   0.273   6.919   4.865
  851SOL     OW 3451   6.494   2.629   6.835
  851SOL    HW1 3452   6.523   2.683   6.914
  851SOL    HW2 3453   6.574   2.586   6.793
  852SOL     OW 3454   0.378   4.635   0.702
  852SOL    HW1 3455   0.280   4.641   0.682
  852SOL    HW2 3456   0.427   4.609   0.619
  853SOL     OW 3457   1.930   4.150   6.279
  853SOL    HW1 3458   1.875   4.090   6.338
  853SOL    HW2 3459   1.900   4.245   6.290
  854SOL     OW 3460   5.731   6.402   0.258
  854SOL    HW1 3461   5.783   6.341   0.316
  854SOL    HW2 3462   5.749   6.497   0.284
  855SOL     OW 3463   5.890   0.246   0.566
  855SOL    HW1 3464   5.822   0.173   0.571
  855SOL    HW2 3465   5.968   0.216   0.512
  856SOL     OW 3466   1.418   6.985   5.492
  856SOL    HW1 3467   1.462   6.912   5.544
  856SOL    HW2 3468   1.477   0.038   5.492
  857SOL     OW 3469   6.874   5.694   2.011
  857SOL    HW1 3470   6.920   5.609   2.036
  857SOL    HW2 3471   6.801   5.675   1.946
  858SOL     OW 3472   2.992   3.997   1.098
  858SOL    HW1 3473   3.083   3.973   1.131
  858SOL    HW2 3474   2.990   3.991   0.998
  859SOL     OW 3475   5.341   6.124   5.401
  859SOL    HW1 3476   5.259   6.074   5.429
  859SOL    HW2 3477   5.315   6.216   5.372
  860SOL     OW 3478   5.907   3.006   6.625
  860SOL    HW1 3479   5.886   2.909   6.633
  860SOL    HW2 3480   5.826   3.060   6.649
  861SOL     OW 3481   2.440   5.310   3.282
  861SOL    HW1 3482   2.450   5.390   3.342
  861SOL    HW2 3483   2.360   5.323   3.223
  862SOL     OW 3484   2.141   4.953   3.441
  862SOL    HW1 3485   2.134   4.877   3.505
  862SOL    HW2 3486   2.068   5.018   3.458
  863SOL     OW 3487   5.872   1.102   5.810
  863SOL    HW1 3488   5.792   1.108   5.750
  863SOL    HW2 3489   5.911   1.010   5.805
  864SOL     OW 3490   4.106   6.860   4.964
  864SOL    HW1 3491   4.096   6.877   5.062
  864SOL    HW2 3492   4.038   6.792   4.934
  865SOL     OW 3493   1.870   0.251   5.886
  865SOL    HW1 3494   1.781   0.284   5.916
  865SOL    HW2 3495   1.906   0.311   5.814
  866SOL     OW 3496   3.335   0.001   1.081
  866SOL    HW1 3497   3.395   6.966   1.131
  866SOL    HW2 3498   3.385   0.084   1.058
  867SOL     OW 3499   5.212   3.063   0.390
  867SOL    HW1 3500   5.298   3.091   0.347
  867SOL    HW2 3501   5.151   3.142   0.396
  868SOL     OW 3502   0.113   2.097   2.456
  868SOL    HW1 3503   0.200   2.049   2.471
  868SOL    HW2 3504   0.132   2.188   2.419
  869SOL     OW 3505   6.877   3.625   3.344
  869SOL    HW1 3506   6.919   3.707   3.304
  869SOL    HW2 3507   6.840   3.648   3.434
  870SOL     OW 3508   4.104   4.193   1.221
  870SOL    HW1 3509   4.159   4.188   1.304
  870SOL    HW2 3510   4.069   4.102   1.198
  871SOL     OW 3511   5.304   2.430   3.818
  871SOL    HW1 3512   5.296   2.340   3.775
  871SOL    HW2 3513   5.370   2.485   3.767
  872SOL     OW 3514   0.184   2.182   4.594
  872SOL    HW1 3515   0.275   2.141   4.593
  872SOL    HW2 3516   0.171   2.238   4.512
  873SOL     OW 3517   4.344   5.996   5.319
  873SOL    HW1 3518   4.324   6.089   5.286
  873SOL    HW2 3519   4.352   5.934   5.242
  874SOL     OW 3520   6.314   4.144   0.552
  874SOL    HW1 3521   6.270   4.083   0.618
  874SOL    HW2 3522   6.404   4.107   0.527
  875SOL     OW 3523   5.125   5.341   0.727
  875SOL    HW1 3524   5.063   5.402   0.778
  875SOL    HW2 3525   5.120   5.363   0.630
  876SOL     OW 3526   0.488   5.793   1.650
  876SOL    HW1 3527   0.390   5.779   1.641
  876SOL    HW2 3528   0.510   5.890   1.634
  877SOL     OW 3529   3.350   4.361   5.695
  877SOL    HW1 3530   3.342   4.316   5.784
  877SOL    HW2 3531   3.267   4.344   5.642
  878SOL     OW 3532   4.215   6.814   3.687
  878SOL    HW1 3533   4.236   6.904   3.724
  878SOL    HW2 3534   4.211   6.820   3.587
  879SOL     OW 3535   3.754   0.426   1.424
  879SOL    HW1 3536   3.684   0.440   1.494
  879SOL    HW2 3537   3.843   0.410   1.467
  880SOL     OW 3538   3.835   3.706   3.744
  880SOL    HW1 3539   3.892   3.779   3.781
  880SOL    HW2 3540   3.762   3.746   3.688
  881SOL     OW 3541   5.300   3.002   5.048
  881SOL    HW1 3542   5.212   3.019   5.090
  881SOL    HW2 3543   5.299   3.035   4.953
  882SOL     OW 3544   0.917   3.394   3.719
  882SOL    HW1 3545   0.841   3.370   3.780
  882SOL    HW2 3546   0.948   3.312   3.671
  883SOL     OW 3547   3.200   1.016   1.583
  883SOL    HW1 3548   3.127   0.983   1.643
  883SOL    HW2 3549   3.210   1.115   1.595
  884SOL     OW 3550   5.595   3.447   6.035
  884SOL    HW1 3551   5.560   3.373   6.093
  884SOL    HW2 3552   5.617   3.411   5.945
  885SOL     OW 3553   3.357   0.950   5.228
  885SOL    HW1 3554   3.391   1.016   5.295
  885SOL    HW2 3555   3.304   0.998   5.158
  886SOL     OW 3556   3.226   0.233   0.099
  886SOL    HW1 3557   3.294   0.258   0.030
  886SOL    HW2 3558   3.272   0.217   0.187
  887SOL     OW 3559   3.693   6.507   3.568
  887SOL    HW1 3560   3.634   6.447   3.623
  887SOL    HW2 3561   3.730   6.579   3.626
  888SOL     OW 3562   6.983   6.208   3.546
  888SOL    HW1 3563   6.988   6.132   3.481
  888SOL    HW2 3564   6.928   6.180   3.625
  889SOL     OW 3565   6.985   2.739   0.634
  889SOL    HW1 3566   6.966   2.641   0.645
  889SOL    HW2 3567   0.024   2.752   0.561
  890SOL     OW 3568   1.480   5.185   2.688
  890SOL    HW1 3569   1.553   5.131   2.731
  890SOL    HW2 3570   1.423   5.125   2.632
  891SOL     OW 3571   5.493   4.806   1.056
  891SOL    HW1 3572   5.547   4.756   0.987
  891SOL    HW2 3573   5.543   4.808   1.142
  892SOL     OW 3574   2.805   3.845   5.327
  892SOL    HW1 3575   2.821   3.880   5.235
  892SOL    HW2 3576   2.708   3.851   5.349
  893SOL     OW 3577   2.114   6.161   3.133
  893SOL    HW1 3578   2.159   6.101   3.066
  893SOL    HW2 3579   2.154   6.252   3.128
  894SOL     OW 3580   0.764   2.803   1.539
  894SOL    HW1 3581   0.765   2.705   1.519
  894SOL    HW2 3582   0.726   2.853   1.461
  895SOL     OW 3583   0.931   5.265   3.933
  895SOL    HW1 3584   0.932   5.267   4.033
  895SOL    HW2 3585   0.994   5.195   3.901
  896SOL     OW 3586   5.128   4.719   1.208
  896SOL    HW1 3587   5.160   4.741   1.300
  896SOL    HW2 3588   5.206   4.695   1.150
  897SOL     OW 3589   4.137   1.516   6.657
  897SOL    HW1 3590   4.093   1.437   6.615
  897SOL    HW2 3591   4.078   1.553   6.729
  898SOL     OW 3592   3.627   6.428   2.775
  898SOL    HW1 3593   3.624   6.399   2.871
  898SOL    HW2 3594   3.671   6.357   2.720
  899SOL     OW 3595   0.274   6.744   0.262
  899SOL    HW1 3596   0.335   6.692   0.322
  899SOL    HW2 3597   0.218   6.681   0.208
  900SOL     OW 3598   5.716   6.813   0.362
  900SOL    HW1 3599   5.803   6.859   0.379
  900SOL    HW2 3600   5.685   6.835   0.269
  901SOL     OW 3601   2.340   6.972   3.465
  901SOL    HW1 3602   2.385   7.022   3.539
  901SOL    HW2 3603   2.252   7.015   3.444
  902SOL     OW 3604   0.548   1.805   0.753
  902SOL    HW1 3605   0.518   1.874   0.688
  902SOL    HW2 3606   0.481   1.797   0.827
  903SOL     OW 3607   0.363   2.375   6.230
  903SOL    HW1 3608   0.420   2.388   6.149
  903SOL    HW2 3609   0.418   2.337   6.304
  904SOL     OW 3610   2.216   2.196   2.755
  904SOL    HW1 3611   2.278   2.117   2.761
  904SOL    HW2 3612   2.206   2.223   2.659
  905SOL     OW 3613   5.029   2.127   6.574
  905SOL    HW1 3614   5.008   2.223   6.551
  905SOL    HW2 3615   5.096   2.125   6.648
  906SOL     OW 3616   0.253   1.896   6.828
  906SOL    HW1 3617   0.164   1.881   6.872
  906SOL    HW2 3618   0.240   1.910   6.730
  907SOL     OW 3619   5.524   3.074   0.767
  907SOL    HW1 3620   5.614   3.092   0.728
  907SOL    HW2 3621   5.534   3.022   0.852
  908SOL     OW 3622   2.577   4.539   2.917
  908SOL    HW1 3623   2.613   4.573   3.004
  908SOL    HW2 3624   2.623   4.587   2.842
  909SOL     OW 3625   4.230   6.029   1.342
  909SOL    HW1 3626   4.272   6.089   1.273
  909SOL    HW2 3627   4.152   5.982   1.302
  910SOL     OW 3628   3.164   1.948   0.968
  910SOL    HW1 3629   3.231   1.930   1.040
  910SOL    HW2 3630   3.206   1.930   0.878
  911SOL     OW 3631   0.828   6.280   6.261
  911SOL    HW1 3632   0.836   6.379   6.275
  911SOL    HW2 3633   0.809   6.262   6.164
  912SOL     OW 3634   6.365   2.481   3.040
  912SOL    HW1 3635   6.335   2.444   3.128
  912SOL    HW2 3636   6.405   2.572   3.055
  913SOL     OW 3637   3.931   6.980   3.030
  913SOL    HW1 3638   3.963   6.924   2.954
  913SOL    HW2 3639   3.993   6.969   3.108
  914SOL     OW 3640   2.444   0.405   6.239
  914SOL    HW1 3641   2.359   0.407   6.291
  914SOL    HW2 3642   2.492   0.320   6.257
  915SOL     OW 3643   6.033   4.075   6.879
  915SOL    HW1 3644   6.050   4.048   6.784
  915SOL    HW2 3645   6.026   4.174   6.885
  916SOL     OW 3646   1.732   2.726   1.860
  916SOL    HW1 3647   1.692   2.777   1.936
  916SOL    HW2 3648   1.701   2.632   1.863
  917SOL     OW 3649   0.544   6.470   1.199
  917SOL    HW1 3650   0.470   6.447   1.137
  917SOL    HW2 3651   0.563   6.568   1.195
  918SOL     OW 3652   3.597   0.455   0.578
  918SOL    HW1 3653   3.570   0.433   0.484
  918SOL    HW2 3654   3.596   0.554   0.592
  919SOL     OW 3655   5.971   1.672   2.836
  919SOL    HW1 3656   5.930   1.634   2.753
  919SOL    HW2 3657   5.903   1.725   2.886
  920SOL     OW 3658   2.361   4.146   1.549
  920SOL    HW1 3659   2.262   4.136   1.542
  920SOL    HW2 3660   2.401   4.061   1.583
  921SOL     OW 3661   4.372   5.863   4.126
  921SOL    HW1 3662   4.307   5.928   4.167
  921SOL    HW2 3663   4.463   5.880   4.163
  922SOL     OW 3664   3.891   3.404   4.131
  922SOL    HW1 3665   3.858   3.459   4.208
  922SOL    HW2 3666   3.814   3.356   4.089
  923SOL     OW 3667   2.197   3.158   6.867
  923SOL    HW1 3668   2.114   3.164   6.811
  923SOL    HW2 3669   2.181   3.098   6.945
  924SOL     OW 3670   6.531   4.146   1.639
  924SOL    HW1 3671   6.561   4.073   1.577
  924SOL    HW2 3672   6.514   4.229   1.585
  925SOL     OW 3673   0.205   2.546   0.280
  925SOL    HW1 3674   0.106   2.530   0.279
  925SOL    HW2 3675   0.235   2.565   0.373
  926SOL     OW 3676   6.282   1.165   1.373
  926SOL    HW1 3677   6.241   1.075   1.358
  926SOL    HW2 3678   6.357   1.178   1.309
  927SOL     OW 3679   5.628   3.523   3.232
  927SOL    HW1 3680   5.585   3.433   3.242
  927SOL    HW2 3681   5.557   3.593   3.222
  928SOL     OW 3682   2.203   6.126   0.343
  928SOL    HW1 3683   2.267   6.080   0.404
  928SOL    HW2 3684   2.236   6.119   0.249
  929SOL     OW 3685   0.070   1.011   6.953
  929SOL    HW1 3686   7.027   0.972   6.895
  929SOL    HW2 3687   0.159   1.000   6.908
  930SOL     OW 3688   5.257   6.251   6.416
  930SOL    HW1 3689   5.193   6.293   6.352
  930SOL    HW2 3690   5.208   6.192   6.480
  931SOL     OW 3691   6.897   1.187   4.502
  931SOL    HW1 3692   6.903   1.102   4.554
  931SOL    HW2 3693   6.894   1.166   4.404
  932SOL     OW 3694   2.530   1.367   3.016
  932SOL    HW1 3695   2.550   1.296   3.083
  932SOL    HW2 3696   2.440   1.405   3.034
  933SOL     OW 3697   1.128   4.933   3.237
  933SOL    HW1 3698   1.188   4.857   3.209
  933SOL    HW2 3699   1.183   5.003   3.283
  934SOL     OW 3700   2.555   5.734   6.198
  934SOL    HW1 3701   2.513   5.795   6.132
  934SOL    HW2 3702   2.601   5.788   6.269
  935SOL     OW 3703   5.472   4.397   4.390
  935SOL    HW1 3704   5.513   4.341   4.318
  935SOL    HW2 3705   5.477   4.493   4.364
  936SOL     OW 3706   0.742   6.629   6.008
  936SOL    HW1 3707   0.653   6.622   5.963
  936SOL    HW2 3708   0.763   6.726   6.026
  937SOL     OW 3709   5.828   1.605   6.178
  937SOL    HW1 3710   5.850   1.703   6.170
  937SOL    HW2 3711   5.844   1.575   6.272
  938SOL     OW 3712   6.215   5.429   4.777
  938SOL    HW1 3713   6.209   5.529   4.776
  938SOL    HW2 3714   6.149   5.391   4.712
  939SOL     OW 3715   0.285   0.001   3.579
  939SOL    HW1 3716   0.205   7.008   3.636
  939SOL    HW2 3717   0.305   0.098   3.585
  940SOL     OW 3718   0.602   3.592   0.336
  940SOL    HW1 3719   0.640   3.500   0.335
  940SOL    HW2 3720   0.507   3.589   0.305
  941SOL     OW 3721   5.161   0.575   0.144
  941SOL    HW1 3722   5.234   0.630   0.103
  941SOL    HW2 3723   5.137   0.613   0.233
  942SOL     OW 3724   5.676   0.128   1.993
  942SOL    HW1 3725   5.725   0.114   2.079
  942SOL    HW2 3726   5.619   0.049   1.973
  943SOL     OW 3727   1.110   4.617   2.553
  943SOL    HW1 3728   1.098   4.529   2.508
  943SOL    HW2 3729   1.102   4.606   2.652
  944SOL     OW 3730   0.376   5.835   5.023
  944SOL    HW1 3731   0.428   5.911   4.985
  944SOL    HW2 3732   0.418   5.748   4.996
  945SOL     OW 3733   0.431   5.045   5.559
  945SOL    HW1 3734   0.390   5.043   5.467
  945SOL    HW2 3735   0.526   5.077   5.552
  946SOL     OW 3736   4.903   4.289   4.466
  946SOL    HW1 3737   4.845   4.290   4.547
  946SOL    HW2 3738   4.998   4.308   4.492
  947SOL     OW 3739   3.819   3.184   3.629
  947SOL    HW1 3740   3.804   3.137   3.542
  947SOL    HW2 3741   3.851   3.118   3.697
  948SOL     OW 3742   4.289   1.252   3.184
  948SOL    HW1 3743   4.332   1.163   3.200
  948SOL    HW2 3744   4.196   1.238   3.150
  949SOL     OW 3745   2.958   5.808   0.374
  949SOL    HW1 3746   2.970   5.868   0.295
  949SOL    HW2 3747   3.047   5.782   0.411
  950SOL     OW 3748   6.065   5.526   2.490
  950SOL    HW1 3749   5.974   5.519   2.449
  950SOL    HW2 3750   6.059   5.581   2.574
  951SOL     OW 3751   1.096   0.167   3.402
  951SOL    HW1 3752   1.151   0.087   3.429
  951SOL    HW2 3753   1.043   0.199   3.480
  952SOL     OW 3754   4.574   2.571   2.488
  952SOL    HW1 3755   4.542   2.499   2.550
  952SOL    HW2 3756   4.595   2.653   2.542
  953SOL     OW 3757   5.968   5.620   4.915
  953SOL    HW1 3758   6.004   5.529   4.934
  953SOL    HW2 3759   5.914   5.617   4.830
  954SOL     OW 3760   3.503   6.175   2.136
  954SOL    HW1 3761   3.452   6.201   2.055
  954SOL    HW2 3762   3.573   6.107   2.111
  955SOL     OW 3763   2.171   4.365   0.237
  955SOL    HW1 3764   2.135   4.279   0.271
  955SOL    HW2 3765   2.206   4.420   0.313
  956SOL     OW 3766   6.814   0.655   1.956
  956SOL    HW1 3767   6.795   0.707   1.872
  956SOL    HW2 3768   6.727   0.624   1.996
  957SOL     OW 3769   5.782   2.105   1.579
  957SOL    HW1 3770   5.768   2.138   1.672
  957SOL    HW2 3771   5.879   2.082   1.566
  958SOL     OW 3772   4.289   6.793   1.742
  958SOL    HW1 3773   4.316   6.889   1.744
  958SOL    HW2 3774   4.261   6.764   1.833
  959SOL     OW 3775   3.310   6.948   5.191
  959SOL    HW1 3776   3.379   6.986   5.252
  959SOL    HW2 3777   3.328   6.979   5.097
  960SOL     OW 3778   1.701   7.014   1.191
  960SOL    HW1 3779   1.699   0.057   1.262
  960SOL    HW2 3780   1.613   6.965   1.191
  961SOL     OW 3781   4.322   6.322   2.841
  961SOL    HW1 3782   4.355   6.383   2.769
  961SOL    HW2 3783   4.225   6.340   2.858
  962SOL     OW 3784   6.679   0.856   4.367
  962SOL    HW1 3785   6.724   0.926   4.312
  962SOL    HW2 3786   6.747   0.789   4.398
  963SOL     OW 3787   4.320   0.824   0.407
  963SOL    HW1 3788   4.329   0.910   0.457
  963SOL    HW2 3789   4.291   0.843   0.313
  964SOL     OW 3790   4.968   5.089   5.443
  964SOL    HW1 3791   4.954   4.994   5.471
  964SOL    HW2 3792   5.039   5.130   5.501
  965SOL     OW 3793   6.287   1.540   2.610
  965SOL    HW1 3794   6.260   1.636   2.596
  965SOL    HW2 3795   6.326   1.529   2.701
  966SOL     OW 3796   5.652   3.133   3.469
  966SOL    HW1 3797   5.612   3.042   3.453
  966SOL    HW2 3798   5.750   3.129   3.454
  967SOL     OW 3799   2.987   4.429   6.848
  967SOL    HW1 3800   2.934   4.434   6.933
  967SOL    HW2 3801   3.081   4.455   6.866
  968SOL     OW 3802   4.052   6.631   1.604
  968SOL    HW1 3803   4.138   6.642   1.654
  968SOL    HW2 3804   4.059   6.678   1.516
  969SOL     OW 3805   2.406   5.048   5.735
  969SOL    HW1 3806   2.403   4.980   5.661
  969SOL    HW2 3807   2.345   5.124   5.712
  970SOL     OW 3808   5.271   0.165   6.096
  970SOL    HW1 3809   5.263   0.193   6.001
  970SOL    HW2 3810   5.180   0.161   6.137
  971SOL     OW 3811   0.231   3.486   2.352
  971SOL    HW1 3812   0.320   3.499   2.308
  971SOL    HW2 3813   0.158   3.496   2.284
  972SOL     OW 3814   6.578   2.414   1.673
  972SOL    HW1 3815   6.669   2.451   1.656
  972SOL    HW2 3816   6.517   2.487   1.704
  973SOL     OW 3817   1.217   5.510   6.791
  973SOL    HW1 3818   1.127   5.553   6.788
  973SOL    HW2 3819   1.288   5.580   6.788
  974SOL     OW 3820   0.437   5.697   2.200
  974SOL    HW1 3821   0.383   5.748   2.268
  974SOL    HW2 3822   0.523   5.668   2.242
  975SOL     OW 3823   2.538   0.174   0.126
  975SOL    HW1 3824   2.575   0.262   0.155
  975SOL    HW2 3825   2.485   0.186   0.042
  976SOL     OW 3826   6.693   3.462   1.275
  976SOL    HW1 3827   6.676   3.553   1.312
  976SOL    HW2 3828   6.634   3.396   1.321
  977SOL     OW 3829   0.648   0.844   2.271
  977SOL    HW1 3830   0.637   0.935   2.310
  977SOL    HW2 3831   0.576   0.826   2.204
  978SOL     OW 3832   5.228   1.606   1.123
  978SOL    HW1 3833   5.270   1.551   1.195
  978SOL    HW2 3834   5.217   1.700   1.155
  979SOL     OW 3835   0.456   3.032   6.892
  979SOL    HW1 3836   0.373   3.079   6.923
  979SOL    HW2 3837   0.490   3.076   6.809
  980SOL     OW 3838   4.971   1.565   5.003
  980SOL    HW1 3839   5.031   1.568   4.922
  980SOL    HW2 3840   4.910   1.644   5.002
  981SOL     OW 3841   0.255   0.731   4.569
  981SOL    HW1 3842   0.202   0.650   4.594
  981SOL    HW2 3843   0.352   0.711   4.576
  982SOL     OW 3844   0.823   1.431   5.546
  982SOL    HW1 3845   0.759   1.505   5.522
  982SOL    HW2 3846   0.904   1.437   5.489
  983SOL     OW 3847   6.928   3.529   2.728
  983SOL    HW1 3848   7.006   3.528   2.790
  983SOL    HW2 3849   6.919   3.619   2.686
  984SOL     OW 3850   1.664   2.420   3.013
  984SOL    HW1 3851   1.709   2.403   2.925
  984SOL    HW2 3852   1.568   2.393   3.007
  985SOL     OW 3853   6.745   4.061   4.359
  985SOL    HW1 3854   6.788   4.115   4.431
  985SOL    HW2 3855   6.815   4.018   4.302
  986SOL     OW 3856   4.605   5.319   1.388
  986SOL    HW1 3857   4.507   5.302   1.397
  986SOL    HW2 3858   4.645   5.251   1.327
  987SOL     OW 3859   5.333   6.361   2.486
  987SOL    HW1 3860   5.299   6.333   2.576
  987SOL    HW2 3861   5.367   6.281   2.437
  988SOL     OW 3862   3.294   4.060   2.076
  988SOL    HW1 3863   3.203   4.029   2.102
  988SOL    HW2 3864   3.342   4.093   2.157
  989SOL     OW 3865   6.627   1.492   0.068
  989SOL    HW1 3866   6.685   1.574   0.058
  989SOL    HW2 3867   6.601   1.458   7.006
  990SOL     OW 3868   3.359   0.900   2.367
  990SOL    HW1 3869   3.335   0.975   2.306
  990SOL    HW2 3870   3.355   0.931   2.462
  991SOL     OW 3871   0.382   4.276   3.955
  991SOL    HW1 3872   0.333   4.343   3.899
  991SOL    HW2 3873   0.477   4.269   3.923
  992SOL     OW 3874   0.142   3.280   0.978
  992SOL    HW1 3875   0.239   3.298   0.992
  992SOL    HW2 3876   0.105   3.236   1.060
  993SOL     OW 3877   0.141   3.884   0.567
  993SOL    HW1 3878   0.139   3.959   0.502
  993SOL    HW2 3879   0.230   3.882   0.614
  994SOL     OW 3880   3.766   5.194   1.649
  994SOL    HW1 3881   3.752   5.256   1.726
  994SOL    HW2 3882   3.682   5.144   1.631
  995SOL     OW 3883   4.338   3.070   6.129
  995SOL    HW1 3884   4.255   3.038   6.174
  995SOL    HW2 3885   4.320   3.084   6.032
  996SOL     OW 3886   3.514   5.385   4.851
  996SOL    HW1 3887   3.585   5.345   4.909
  996SOL    HW2 3888   3.471   5.461   4.899
  997SOL     OW 3889   1.228   6.900   3.314
  997SOL    HW1 3890   1.240   6.807   3.280
  997SOL    HW2 3891   1.304   6.957   3.283
  998SOL     OW 3892   6.667   7.005   6.356
  998SOL    HW1 3893   6.612   6.942   6.410
  998SOL    HW2 3894   6.747   0.004   6.410
  999SOL     OW 3895   5.061   3.756   1.640
  999SOL    HW1 3896   4.967   3.723   1.633
  999SOL    HW2 3897   5.077   3.826   1.571
 1000SOL     OW 3898   4.303   1.418   1.580
 1000SOL    HW1 3899   4.276   1.405   1.485
 1000SOL    HW2 3900   4.288   1.333   1.631
 1001SOL     OW 3901   3.956   5.982   1.951
 1001SOL    HW1 3902   3.909   5.916   1.894
 1001SOL    HW2 3903   4.055   5.968   1.945
 1002SOL     OW 3904   5.445   2.384   1.064
 1002SOL    HW1 3905   5.541   2.356   1.074
 1002SOL    HW2 3906   5.438   2.454   0.993
 1003SOL     OW 3907   1.845   5.936   2.864
 1003SOL    HW1 3908   1.944   5.922   2.870
 1003SOL    HW2 3909   1.824   6.033   2.878
 1004SOL     OW 3910   0.039   1.072   2.305
 1004SOL    HW1 3911   6.981   1.123   2.300
 1004SOL    HW2 3912   0.096   1.095   2.226
 1005SOL     OW 3913   1.667   4.273   4.156
 1005SOL    HW1 3914   1.630   4.213   4.085
 1005SOL    HW2 3915   1.652   4.368   4.129
 1006SOL     OW 3916   1.605   4.145   0.418
 1006SOL    HW1 3917   1.614   4.217   0.349
 1006SOL    HW2 3918   1.637   4.179   0.506
 1007SOL     OW 3919   4.792   0.657   5.835
 1007SOL    HW1 3920   4.887   0.642   5.810
 1007SOL    HW2 3921   4.741   0.572   5.826
 1008SOL     OW 3922   7.021   3.431   5.235
 1008SOL    HW1 3923   6.938   3.377   5.221
 1008SOL    HW2 3924   0.073   3.377   5.209
 1009SOL     OW 3925   6.173   3.852   5.905
 1009SOL    HW1 3926   6.186   3.835   5.808
 1009SOL    HW2 3927   6.160   3.950   5.920
 1010SOL     OW 3928   2.621   2.566   1.437
 1010SOL    HW1 3929   2.643   2.592   1.531
 1010SOL    HW2 3930   2.533   2.605   1.410
 1011SOL     OW 3931   0.491   5.516   3.652
 1011SOL    HW1 3932   0.421   5.446   3.640
 1011SOL    HW2 3933   0.482   5.556   3.744
 1012SOL     OW 3934   6.845   6.550   2.166
 1012SOL    HW1 3935   6.939   6.572   2.192
 1012SOL    HW2 3936   6.793   6.523   2.248
 1013SOL     OW 3937   6.851   1.309   6.688
 1013SOL    HW1 3938   6.876   1.359   6.605
 1013SOL    HW2 3939   6.854   1.371   6.766
 1014SOL     OW 3940   0.657   3.764   5.166
 1014SOL    HW1 3941   0.737   3.704   5.165
 1014SOL    HW2 3942   0.592   3.731   5.234
 1015SOL     OW 3943   2.543   0.635   6.328
 1015SOL    HW1 3944   2.477   0.570   6.292
 1015SOL    HW2 3945   2.496   0.701   6.387
 1016SOL     OW 3946   4.648   5.116   1.208
 1016SOL    HW1 3947   4.735   5.083   1.171
 1016SOL    HW2 3948   4.590   5.037   1.231
 1017SOL     OW 3949   2.920   1.756   0.984
 1017SOL    HW1 3950   3.014   1.789   0.975
 1017SOL    HW2 3951   2.856   1.828   0.959
 1018SOL     OW 3952   0.527   5.058   3.921
 1018SOL    HW1 3953   0.552   5.109   3.838
 1018SOL    HW2 3954   0.568   5.101   4.000
 1019SOL     OW 3955   6.893   5.417   0.531
 1019SOL    HW1 3956   6.883   5.446   0.626
 1019SOL    HW2 3957   6.838   5.335   0.515
 1020SOL     OW 3958   6.036   1.292   1.401
 1020SOL    HW1 3959   6.113   1.230   1.383
 1020SOL    HW2 3960   5.964   1.242   1.450
 1021SOL     OW 3961   6.294   6.392   2.091
 1021SOL    HW1 3962   6.351   6.310   2.088
 1021SOL    HW2 3963   6.204   6.372   2.050
 1022SOL     OW 3964   2.779   5.472   6.029
 1022SOL    HW1 3965   2.706   5.428   5.976
 1022SOL    HW2 3966   2.780   5.570   6.008
 1023SOL     OW 3967   0.069   0.813   3.137
 1023SOL    HW1 3968   0.119   0.736   3.098
 1023SOL    HW2 3969   7.020   0.836   3.078
 1024SOL     OW 3970   0.605   1.741   4.091
 1024SOL    HW1 3971   0.662   1.701   4.163
 1024SOL    HW2 3972   0.513   1.701   4.096
 1025SOL     OW 3973   4.599   2.971   0.690
 1025SOL    HW1 3974   4.665   2.927   0.629
 1025SOL    HW2 3975   4.542   2.901   0.734
 1026SOL     OW 3976   2.903   2.978   1.435
 1026SOL    HW1 3977   2.846   2.940   1.363
 1026SOL    HW2 3978   2.928   2.905   1.499
 1027SOL     OW 3979   2.122   6.900   2.189
 1027SOL    HW1 3980   2.095   6.978   2.245
 1027SOL    HW2 3981   2.222   6.894   2.185
 1028SOL     OW 3982   1.055   6.686   2.934
 1028SOL    HW1 3983   1.072   6.780   2.962
 1028SOL    HW2 3984   0.996   6.641   3.001
 1029SOL     OW 3985   1.173   1.755   6.158
 1029SOL    HW1 3986   1.226   1.796   6.233
 1029SOL    HW2 3987   1.219   1.774   6.071
 1030SOL     OW 3988   3.365   3.091   1.852
 1030SOL    HW1 3989   3.418   3.074   1.769
 1030SOL    HW2 3990   3.399   3.174   1.897
 1031SOL     OW 3991   4.646   3.380   1.273
 1031SOL    HW1 3992   4.721   3.370   1.207
 1031SOL    HW2 3993   4.576   3.311   1.254
 1032SOL     OW 3994   2.091   1.327   5.207
 1032SOL    HW1 3995   2.139   1.378   5.136
 1032SOL    HW2 3996   2.112   1.364   5.297
 1033SOL     OW 3997   1.104   5.861   2.097
 1033SOL    HW1 3998   1.031   5.906   2.149
 1033SOL    HW2 3999   1.189   5.913   2.105
 1034SOL     OW 4000   1.315   5.960   3.965
 1034SOL    HW1 4001   1.319   5.965   3.865
 1034SOL    HW2 4002   1.336   5.867   3.995
 1035SOL     OW 4003   7.023   2.132   6.674
 1035SOL    HW1 4004   0.077   2.087   6.638
 1035SOL    HW2 4005   6.942   2.089   6.635
 1036SOL     OW 4006   4.333   1.065   1.540
 1036SOL    HW1 4007   4.265   1.090   1.471
 1036SOL    HW2 4008   4.424   1.064   1.498
 1037SOL     OW 4009   1.579   2.133   3.279
 1037SOL    HW1 4010   1.644   2.091   3.215
 1037SOL    HW2 4011   1.521   2.197   3.229
 1038SOL     OW 4012   1.433   0.976   5.650
 1038SOL    HW1 4013   1.379   0.931   5.722
 1038SOL    HW2 4014   1.478   0.907   5.595
 1039SOL     OW 4015   3.263   3.681   4.078
 1039SOL    HW1 4016   3.342   3.740   4.060
 1039SOL    HW2 4017   3.230   3.643   3.992
 1040SOL     OW 4018   4.788   1.282   2.291
 1040SOL    HW1 4019   4.885   1.259   2.289
 1040SOL    HW2 4020   4.765   1.336   2.211
 1041SOL     OW 4021   0.210   6.532   3.241
 1041SOL    HW1 4022   0.210   6.503   3.145
 1041SOL    HW2 4023   0.213   6.451   3.300
 1042SOL     OW 4024   4.624   5.470   3.026
 1042SOL    HW1 4025   4.530   5.477   2.994
 1042SOL    HW2 4026   4.686   5.482   2.948
 1043SOL     OW 4027   4.340   1.985   3.445
 1043SOL    HW1 4028   4.299   1.966   3.533
 1043SOL    HW2 4029   4.431   1.943   3.440
 1044SOL     OW 4030   6.101   5.805   1.740
 1044SOL    HW1 4031   6.136   5.714   1.763
 1044SOL    HW2 4032   6.169   5.874   1.763
 1045SOL     OW 4033   3.416   0.581   2.821
 1045SOL    HW1 4034   3.426   0.680   2.831
 1045SOL    HW2 4035   3.432   0.555   2.726
 1046SOL     OW 4036   1.535   1.744   6.801
 1046SOL    HW1 4037   1.480   1.823   6.774
 1046SOL    HW2 4038   1.503   1.710   6.890
 1047SOL     OW 4039   3.406   0.572   3.837
 1047SOL    HW1 4040   3.480   0.638   3.852
 1047SOL    HW2 4041   3.368   0.543   3.925
 1048SOL     OW 4042   2.866   5.819   2.132
 1048SOL    HW1 4043   2.937   5.760   2.095
 1048SOL    HW2 4044   2.778   5.772   2.126
 1049SOL     OW 4045   5.386   6.993   3.977
 1049SOL    HW1 4046   5.318   6.920   3.987
 1049SOL    HW2 4047   5.414   6.999   3.881
 1050SOL     OW 4048   3.528   5.841   2.275
 1050SOL    HW1 4049   3.531   5.931   2.319
 1050SOL    HW2 4050   3.452   5.838   2.210
 1051SOL     OW 4051   0.228   5.842   6.987
 1051SOL    HW1 4052   0.133   5.870   6.998
 1051SOL    HW2 4053   0.275   5.850   0.047
 1052SOL     OW 4054   4.726   0.951   5.451
 1052SOL    HW1 4055   4.821   0.936   5.479
 1052SOL    HW2 4056   4.665   0.931   5.527
 1053SOL     OW 4057   5.839   4.086   2.877
 1053SOL    HW1 4058   5.739   4.092   2.883
 1053SOL    HW2 4059   5.878   4.078   2.968
 1054SOL     OW 4060   2.913   3.405   0.697
 1054SOL    HW1 4061   2.868   3.337   0.639
 1054SOL    HW2 4062   2.845   3.451   0.754
 1055SOL     OW 4063   4.840   5.863   6.049
 1055SOL    HW1 4064   4.848   5.945   5.992
 1055SOL    HW2 4065   4.752   5.863   6.095
 1056SOL     OW 4066   0.833   3.876   7.014
 1056SOL    HW1 4067   0.907   3.810   7.005
 1056SOL    HW2 4068   0.753   3.845   6.963
 1057SOL     OW 4069   3.676   2.438   1.200
 1057SOL    HW1 4070   3.706   2.467   1.291
 1057SOL    HW2 4071   3.665   2.519   1.141
 1058SOL     OW 4072   4.978   2.626   3.426
 1058SOL    HW1 4073   4.885   2.652   3.399
 1058SOL    HW2 4074   5.004   2.676   3.508
 1059SOL     OW 4075   2.219   6.602   2.073
 1059SOL    HW1 4076   2.283   6.658   2.020
 1059SOL    HW2 4077   2.175   6.659   2.142
 1060SOL     OW 4078   0.642   5.164   4.143
 1060SOL    HW1 4079   0.738   5.187   4.133
 1060SOL    HW2 4080   0.611   5.187   4.236
 1061SOL     OW 4081   6.411   3.620   6.403
 1061SOL    HW1 4082   6.426   3.523   6.386
 1061SOL    HW2 4083   6.493   3.661   6.442
 1062SOL     OW 4084   4.143   5.863   5.545
 1062SOL    HW1 4085   4.211   5.894   5.611
 1062SOL    HW2 4086   4.154   5.913   5.459
 1063SOL     OW 4087   6.982   6.668   0.441
 1063SOL    HW1 4088   6.993   6.748   0.382
 1063SOL    HW2 4089   6.987   6.696   0.537
 1064SOL     OW 4090   1.079   4.007   1.591
 1064SOL    HW1 4091   1.138   4.052   1.524
 1064SOL    HW2 4092   1.003   4.068   1.615
 1065SOL     OW 4093   3.840   0.418   3.529
 1065SOL    HW1 4094   3.898   0.429   3.610
 1065SOL    HW2 4095   3.793   0.504   3.510
 1066SOL     OW 4096   4.446   6.901   2.153
 1066SOL    HW1 4097   4.536   6.858   2.156
 1066SOL    HW2 4098   4.436   6.963   2.230
 1067SOL     OW 4099   1.939   1.014   6.808
 1067SOL    HW1 4100   1.847   0.975   6.806
 1067SOL    HW2 4101   1.951   1.075   6.730
 1068SOL     OW 4102   6.155   4.135   1.474
 1068SOL    HW1 4103   6.108   4.156   1.560
 1068SOL    HW2 4104   6.104   4.064   1.425
 1069SOL     OW 4105   5.533   6.026   0.669
 1069SOL    HW1 4106   5.591   5.955   0.709
 1069SOL    HW2 4107   5.519   6.008   0.572
 1070SOL     OW 4108   2.259   6.721   2.439
 1070SOL    HW1 4109   2.354   6.700   2.417
 1070SOL    HW2 4110   2.226   6.795   2.380
 1071SOL     OW 4111   1.804   1.848   4.207
 1071SOL    HW1 4112   1.822   1.838   4.109
 1071SOL    HW2 4113   1.707   1.869   4.222
 1072SOL     OW 4114   2.333   0.973   1.512
 1072SOL    HW1 4115   2.298   0.916   1.438
 1072SOL    HW2 4116   2.431   0.988   1.498
 1073SOL     OW 4117   5.129   1.759   3.462
 1073SOL    HW1 4118   5.199   1.703   3.416
 1073SOL    HW2 4119   5.149   1.856   3.449
 1074SOL     OW 4120   2.460   4.818   1.930
 1074SOL    HW1 4121   2.462   4.833   1.831
 1074SOL    HW2 4122   2.413   4.894   1.974
 1075SOL     OW 4123   5.889   1.423   3.475
 1075SOL    HW1 4124   5.793   1.409   3.451
 1075SOL    HW2 4125   5.896   1.497   3.542
 1076SOL     OW 4126   0.575   2.813   5.338
 1076SOL    HW1 4127   0.605   2.789   5.431
 1076SOL    HW2 4128   0.475   2.819   5.336
 1077SOL     OW 4129   6.872   6.422   0.460
 1077SOL    HW1 4130   6.933   6.352   0.495
 1077SOL    HW2 4131   6.920   6.510   0.456
 1078SOL     OW 4132   6.596   0.593   2.928
 1078SOL    HW1 4133   6.547   0.662   2.874
 1078SOL    HW2 4134   6.548   0.578   3.015
 1079SOL     OW 4135   1.263   4.766   2.164
 1079SOL    HW1 4136   1.184   4.794   2.110
 1079SOL    HW2 4137   1.329   4.719   2.104
 1080SOL     OW 4138   2.410   5.858   3.727
 1080SOL    HW1 4139   2.502   5.888   3.705
 1080SOL    HW2 4140   2.366   5.926   3.786
 1081SOL     OW 4141   6.601   5.118   5.376
 1081SOL    HW1 4142   6.531   5.101   5.446
 1081SOL    HW2 4143   6.655   5.197   5.403
 1082SOL     OW 4144   5.768   2.169   6.263
 1082SOL    HW1 4145   5.688   2.180   6.321
 1082SOL    HW2 4146   5.743   2.119   6.180
 1083SOL     OW 4147   4.641   3.049   6.834
 1083SOL    HW1 4148   4.692   2.978   6.882
 1083SOL    HW2 4149   4.612   3.119   6.900
 1084SOL     OW 4150   6.720   6.878   6.804
 1084SOL    HW1 4151   6.807   6.831   6.799
 1084SOL    HW2 4152   6.707   6.933   6.722
 1085SOL     OW 4153   2.206   3.216   3.986
 1085SOL    HW1 4154   2.283   3.155   4.004
 1085SOL    HW2 4155   2.138   3.205   4.059
 1086SOL     OW 4156   6.816   5.214   6.522
 1086SOL    HW1 4157   6.822   5.204   6.622
 1086SOL    HW2 4158   6.831   5.309   6.497
 1087SOL     OW 4159   0.902   2.076   5.361
 1087SOL    HW1 4160   0.866   2.051   5.451
 1087SOL    HW2 4161   0.968   2.007   5.331
 1088SOL     OW 4162   0.347   4.685   3.354
 1088SOL    HW1 4163   0.314   4.600   3.395
 1088SOL    HW2 4164   0.446   4.679   3.341
 1089SOL     OW 4165   1.077   6.113   5.022
 1089SOL    HW1 4166   1.066   6.075   4.929
 1089SOL    HW2 4167   1.059   6.211   5.020
 1090SOL     OW 4168   4.414   1.989   2.632
 1090SOL    HW1 4169   4.452   1.994   2.724
 1090SOL    HW2 4170   4.336   1.926   2.631
 1091SOL     OW 4171   2.079   3.472   3.467
 1091SOL    HW1 4172   2.064   3.556   3.520
 1091SOL    HW2 4173   2.150   3.417   3.510
 1092SOL     OW 4174   0.587   5.646   0.784
 1092SOL    HW1 4175   0.533   5.649   0.700
 1092SOL    HW2 4176   0.638   5.561   0.787
 1093SOL     OW 4177   2.353   6.683   1.508
 1093SOL    HW1 4178   2.290   6.623   1.558
 1093SOL    HW2 4179   2.308   6.717   1.426
 1094SOL     OW 4180   0.997   6.594   2.683
 1094SOL    HW1 4181   1.023   6.634   2.771
 1094SOL    HW2 4182   0.984   6.667   2.616
 1095SOL     OW 4183   0.641   2.472   6.762
 1095SOL    HW1 4184   0.703   2.443   6.835
 1095SOL    HW2 4185   0.667   2.564   6.732
 1096SOL     OW 4186   3.473   4.114   1.583
 1096SOL    HW1 4187   3.428   4.110   1.672
 1096SOL    HW2 4188   3.510   4.205   1.568
 1097SOL     OW 4189   1.852   4.847   2.733
 1097SOL    HW1 4190   1.883   4.801   2.816
 1097SOL    HW2 4191   1.850   4.781   2.658
 1098SOL     OW 4192   6.325   3.935   6.227
 1098SOL    HW1 4193   6.273   3.869   6.173
 1098SOL    HW2 4194   6.421   3.910   6.228
 1099SOL     OW 4195   4.501   0.945   6.537
 1099SOL    HW1 4196   4.547   0.961   6.625
 1099SOL    HW2 4197   4.421   0.887   6.552
 1100SOL     OW 4198   4.010   1.599   4.764
 1100SOL    HW1 4199   4.103   1.563   4.756
 1100SOL    HW2 4200   4.008   1.691   4.725
 1101SOL     OW 4201   5.422   4.145   5.286
 1101SOL    HW1 4202   5.470   4.111   5.205
 1101SOL    HW2 4203   5.331   4.105   5.289
 1102SOL     OW 4204   2.079   1.323   4.848
 1102SOL    HW1 4205   2.014   1.386   4.805
 1102SOL    HW2 4206   2.149   1.376   4.896
 1103SOL     OW 4207   2.089   1.961   0.077
 1103SOL    HW1 4208   2.159   1.983   0.145
 1103SOL    HW2 4209   2.033   1.885   0.110
 1104SOL     OW 4210   1.929   4.020   3.800
 1104SOL    HW1 4211   1.903   3.954   3.730
 1104SOL    HW2 4212   1.870   4.101   3.794
 1105SOL     OW 4213   5.467   3.019   4.466
 1105SOL    HW1 4214   5.452   2.975   4.378
 1105SOL    HW2 4215   5.482   2.950   4.537
 1106SOL     OW 4216   0.432   1.860   1.024
 1106SOL    HW1 4217   0.518   1.816   1.048
 1106SOL    HW2 4218   0.356   1.798   1.046
 1107SOL     OW 4219   1.036   0.770   0.040
 1107SOL    HW1 4220   1.024   0.733   0.132
 1107SOL    HW2 4221   1.063   0.697   7.006
 1108SOL     OW 4222   3.555   6.657   5.413
 1108SOL    HW1 4223   3.546   6.620   5.506
 1108SOL    HW2 4224   3.470   6.706   5.389
 1109SOL     OW 4225   5.420   1.166   4.226
 1109SOL    HW1 4226   5.445   1.262   4.226
 1109SOL    HW2 4227   5.458   1.122   4.307
 1110SOL     OW 4228   3.661   0.837   3.408
 1110SOL    HW1 4229   3.679   0.858   3.504
 1110SOL    HW2 4230   3.565   0.856   3.387
 1111SOL     OW 4231   5.735   4.443   6.404
 1111SOL    HW1 4232   5.710   4.488   6.490
 1111SOL    HW2 4233   5.687   4.355   6.397
 1112SOL     OW 4234   6.534   0.812   3.269
 1112SOL    HW1 4235   6.492   0.902   3.283
 1112SOL    HW2 4236   6.510   0.752   3.345
 1113SOL     OW 4237   6.304   4.307   1.334
 1113SOL    HW1 4238   6.386   4.342   1.380
 1113SOL    HW2 4239   6.254   4.247   1.396
 1114SOL     OW 4240   2.886   1.906   6.207
 1114SOL    HW1 4241   2.851   1.960   6.130
 1114SOL    HW2 4242   2.960   1.847   6.176
 1115SOL     OW 4243   4.085   3.728   5.486
 1115SOL    HW1 4244   4.000   3.702   5.441
 1115SOL    HW2 4245   4.076   3.821   5.522
 1116SOL     OW 4246   5.946   6.919   0.285
 1116SOL    HW1 4247   6.012   6.987   0.318
 1116SOL    HW2 4248   5.927   6.936   0.188
 1117SOL     OW 4249   0.304   1.730   1.397
 1117SOL    HW1 4250   0.366   1.676   1.452
 1117SOL    HW2 4251   0.209   1.705   1.419
 1118SOL     OW 4252   2.619   5.150   0.477
 1118SOL    HW1 4253   2.592   5.208   0.554
 1118SOL    HW2 4254   2.700   5.189   0.434
 1119SOL     OW 4255   4.342   4.477   1.747
 1119SOL    HW1 4256   4.435   4.485   1.711
 1119SOL    HW2 4257   4.330   4.387   1.788
 1120SOL     OW 4258   6.658   5.724   1.093
 1120SOL    HW1 4259   6.578   5.664   1.091
 1120SOL    HW2 4260   6.741   5.669   1.100
 1121SOL     OW 4261   0.469   4.903   4.941
 1121SOL    HW1 4262   0.477   4.904   5.041
 1121SOL    HW2 4263   0.385   4.855   4.915
 1122SOL     OW 4264   5.900   2.965   2.096
 1122SOL    HW1 4265   5.999   2.947   2.103
 1122SOL    HW2 4266   5.854   2.883   2.064
 1123SOL     OW 4267   5.146   2.154   3.732
 1123SOL    HW1 4268   5.080   2.227   3.750
 1123SOL    HW2 4269   5.164   2.148   3.634
 1124SOL     OW 4270   0.302   4.427   5.864
 1124SOL    HW1 4271   0.305   4.327   5.869
 1124SOL    HW2 4272   0.336   4.456   5.774
 1125SOL     OW 4273   1.925   2.401   3.827
 1125SOL    HW1 4274   2.014   2.435   3.797
 1125SOL    HW2 4275   1.862   2.477   3.840
 1126SOL     OW 4276   5.611   6.191   5.486
 1126SOL    HW1 4277   5.677   6.153   5.422
 1126SOL    HW2 4278   5.521   6.149   5.470
 1127SOL     OW 4279   5.489   6.375   4.658
 1127SOL    HW1 4280   5.391   6.358   4.653
 1127SOL    HW2 4281   5.511   6.458   4.606
 1128SOL     OW 4282   6.279   1.431   4.831
 1128SOL    HW1 4283   6.228   1.514   4.813
 1128SOL    HW2 4284   6.324   1.438   4.920
 1129SOL     OW 4285   1.969   6.421   0.711
 1129SOL    HW1 4286   1.989   6.373   0.626
 1129SOL    HW2 4287   1.938   6.356   0.780
 1130SOL     OW 4288   1.922   4.936   1.173
 1130SOL    HW1 4289   1.998   4.923   1.110
 1130SOL    HW2 4290   1.946   4.901   1.263
 1131SOL     OW 4291   1.833   0.417   5.164
 1131SOL    HW1 4292   1.766   0.373   5.105
 1131SOL    HW2 4293   1.923   0.415   5.120
 1132SOL     OW 4294   3.961   0.354   3.224
 1132SOL    HW1 4295   4.053   0.326   3.199
 1132SOL    HW2 4296   3.912   0.277   3.265
 1133SOL     OW 4297   0.732   0.834   0.083
 1133SOL    HW1 4298   0.830   0.848   0.070
 1133SOL    HW2 4299   0.686   0.922   0.089
 1134SOL     OW 4300   5.497   0.028   3.047
 1134SOL    HW1 4301   5.468   0.123   3.044
 1134SOL    HW2 4302   5.533   0.006   3.137
 1135SOL     OW 4303   2.285   6.603   3.716
 1135SOL    HW1 4304   2.315   6.509   3.730
 1135SOL    HW2 4305   2.186   6.604   3.698
 1136SOL     OW 4306   3.612   4.940   2.761
 1136SOL    HW1 4307   3.638   4.991   2.679
 1136SOL    HW2 4308   3.562   4.858   2.736
 1137SOL     OW 4309   0.921   6.251   0.600
 1137SOL    HW1 4310   0.912   6.152   0.589
 1137SOL    HW2 4311   0.891   6.278   0.691
 1138SOL     OW 4312   0.771   1.629   5.002
 1138SOL    HW1 4313   0.860   1.620   5.048
 1138SOL    HW2 4314   0.698   1.605   5.065
 1139SOL     OW 4315   2.750   4.735   3.966
 1139SOL    HW1 4316   2.788   4.763   3.878
 1139SOL    HW2 4317   2.685   4.660   3.951
 1140SOL     OW 4318   2.709   0.314   2.838
 1140SOL    HW1 4319   2.779   0.385   2.835
 1140SOL    HW2 4320   2.747   0.228   2.803
 1141SOL     OW 4321   6.550   5.911   6.835
 1141SOL    HW1 4322   6.511   5.936   6.924
 1141SOL    HW2 4323   6.559   5.812   6.829
 1142SOL     OW 4324   3.444   0.004   3.889
 1142SOL    HW1 4325   3.491   0.021   3.975
 1142SOL    HW2 4326   3.357   0.054   3.888
 1143SOL     OW 4327   1.890   3.162   2.630
 1143SOL    HW1 4328   1.831   3.237   2.599
 1143SOL    HW2 4329   1.985   3.192   2.627
 1144SOL     OW 4330   5.765   4.328   3.270
 1144SOL    HW1 4331   5.688   4.274   3.237
 1144SOL    HW2 4332   5.759   4.336   3.370
 1145SOL     OW 4333   1.394   2.811   0.478
 1145SOL    HW1 4334   1.466   2.879   0.496
 1145SOL    HW2 4335   1.375   2.760   0.561
 1146SOL     OW 4336   0.800   1.855   1.439
 1146SOL    HW1 4337   0.895   1.880   1.423
 1146SOL    HW2 4338   0.777   1.774   1.385
 1147SOL     OW 4339   2.697   6.184   0.726
 1147SOL    HW1 4340   2.643   6.119   0.779
 1147SOL    HW2 4341   2.754   6.135   0.660
 1148SOL     OW 4342   3.905   6.471   0.757
 1148SOL    HW1 4343   3.981   6.536   0.745
 1148SOL    HW2 4344   3.899   6.412   0.677
 1149SOL     OW 4345   5.201   2.770   2.104
 1149SOL    HW1 4346   5.188   2.817   2.192
 1149SOL    HW2 4347   5.190   2.672   2.118
 1150SOL     OW 4348   0.699   3.939   0.240
 1150SOL    HW1 4349   0.610   3.984   0.233
 1150SOL    HW2 4350   0.742   3.936   0.150
 1151SOL     OW 4351   6.107   4.917   4.420
 1151SOL    HW1 4352   6.077   4.828   4.385
 1151SOL    HW2 4353   6.151   4.968   4.346
 1152SOL     OW 4354   5.108   6.385   6.232
 1152SOL    HW1 4355   5.087   6.403   6.136
 1152SOL    HW2 4356   5.056   6.448   6.290
 1153SOL     OW 4357   6.423   0.320   1.411
 1153SOL    HW1 4358   6.352   0.260   1.447
 1153SOL    HW2 4359   6.421   0.319   1.311
 1154SOL     OW 4360   0.529   3.891   0.747
 1154SOL    HW1 4361   0.447   3.914   0.799
 1154SOL    HW2 4362   0.506   3.826   0.674
 1155SOL     OW 4363   2.999   5.402   5.853
 1155SOL    HW1 4364   2.963   5.360   5.770
 1155SOL    HW2 4365   2.923   5.434   5.910
 1156SOL     OW 4366   4.576   2.228   4.798
 1156SOL    HW1 4367   4.602   2.318   4.835
 1156SOL    HW2 4368   4.478   2.216   4.806
 1157SOL     OW 4369   5.115   0.967   5.903
 1157SOL    HW1 4370   5.052   1.019   5.961
 1157SOL    HW2 4371   5.129   1.015   5.817
 1158SOL     OW 4372   6.424   5.785   4.930
 1158SOL    HW1 4373   6.351   5.771   4.862
 1158SOL    HW2 4374   6.407   5.869   4.981
 1159SOL     OW 4375   5.958   6.944   3.166
 1159SOL    HW1 4376   5.936   7.027   3.115
 1159SOL    HW2 4377   5.974   6.966   3.262
 1160SOL     OW 4378   4.292   5.366   1.898
 1160SOL    HW1 4379   4.229   5.418   1.956
 1160SOL    HW2 4380   4.239   5.310   1.834
 1161SOL     OW 4381   0.741   5.660   6.550
 1161SOL    HW1 4382   0.720   5.634   6.645
 1161SOL    HW2 4383   0.837   5.639   6.531
 1162SOL     OW 4384   2.337   2.656   5.647
 1162SOL    HW1 4385   2.436   2.660   5.642
 1162SOL    HW2 4386   2.299   2.658   5.554
 1163SOL     OW 4387   5.730   4.563   2.129
 1163SOL    HW1 4388   5.658   4.503   2.164
 1163SOL    HW2 4389   5.804   4.507   2.091
 1164SOL     OW 4390   5.138   2.819   5.194
 1164SOL    HW1 4391   5.091   2.877   5.127
 1164SOL    HW2 4392   5.148   2.869   5.280
 1165SOL     OW 4393   4.098   5.783   3.349
 1165SOL    HW1 4394   4.063   5.813   3.261
 1165SOL    HW2 4395   4.080   5.686   3.361
 1166SOL     OW 4396   2.392   5.897   0.037
 1166SOL    HW1 4397   2.311   5.951   0.015
 1166SOL    HW2 4398   2.456   5.898   6.988
 1167SOL     OW 4399   5.020   4.989   0.637
 1167SOL    HW1 4400   5.106   5.000   0.687
 1167SOL    HW2 4401   4.944   4.981   0.701
 1168SOL     OW 4402   6.367   2.777   1.213
 1168SOL    HW1 4403   6.350   2.853   1.275
 1168SOL    HW2 4404   6.390   2.695   1.265
 1169SOL     OW 4405   4.906   1.938   5.293
 1169SOL    HW1 4406   4.954   2.025   5.305
 1169SOL    HW2 4407   4.809   1.951   5.310
 1170SOL     OW 4408   5.564   0.296   3.504
 1170SOL    HW1 4409   5.618   0.308   3.421
 1170SOL    HW2 4410   5.480   0.247   3.482
 1171SOL     OW 4411   2.642   6.789   0.439
 1171SOL    HW1 4412   2.589   6.709   0.412
 1171SOL    HW2 4413   2.597   6.835   0.516
 1172SOL     OW 4414   5.431   4.042   1.036
 1172SOL    HW1 4415   5.348   4.083   0.998
 1172SOL    HW2 4416   5.472   3.980   0.969
 1173SOL     OW 4417   3.223   1.633   1.067
 1173SOL    HW1 4418   3.279   1.711   1.093
 1173SOL    HW2 4419   3.184   1.590   1.148
 1174SOL     OW 4420   3.657   4.038   2.013
 1174SOL    HW1 4421   3.627   4.015   2.106
 1174SOL    HW2 4422   3.644   4.136   1.997
 1175SOL     OW 4423   4.912   3.536   6.681
 1175SOL    HW1 4424   4.861   3.484   6.613
 1175SOL    HW2 4425   4.856   3.614   6.712
 1176SOL     OW 4426   5.023   3.253   0.420
 1176SOL    HW1 4427   4.975   3.191   0.483
 1176SOL    HW2 4428   5.028   3.344   0.461
 1177SOL     OW 4429   6.807   3.608   4.993
 1177SOL    HW1 4430   6.829   3.659   5.076
 1177SOL    HW2 4431   6.870   3.636   4.920
 1178SOL     OW 4432   2.497   4.110   0.666
 1178SOL    HW1 4433   2.595   4.097   0.654
 1178SOL    HW2 4434   2.452   4.116   0.577
 1179SOL     OW 4435   2.350   5.930   0.476
 1179SOL    HW1 4436   2.443   5.907   0.504
 1179SOL    HW2 4437   2.313   5.857   0.419
 1180SOL     OW 4438   2.903   6.409   3.779
 1180SOL    HW1 4439   2.826   6.458   3.738
 1180SOL    HW2 4440   2.871   6.323   3.818
 1181SOL     OW 4441   0.421   5.302   5.665
 1181SOL    HW1 4442   0.401   5.211   5.628
 1181SOL    HW2 4443   0.403   5.371   5.595
 1182SOL     OW 4444   4.051   4.973   3.374
 1182SOL    HW1 4445   3.969   4.985   3.429
 1182SOL    HW2 4446   4.037   4.898   3.309
 1183SOL     OW 4447   2.314   3.797   0.182
 1183SOL    HW1 4448   2.389   3.745   0.224
 1183SOL    HW2 4449   2.236   3.800   0.244
 1184SOL     OW 4450   6.755   0.748   4.637
 1184SOL    HW1 4451   6.718   0.656   4.652
 1184SOL    HW2 4452   6.683   0.807   4.602
 1185SOL     OW 4453   0.685   1.040   0.682
 1185SOL    HW1 4454   0.625   1.102   0.732
 1185SOL    HW2 4455   0.631   0.965   0.643
 1186SOL     OW 4456   5.826   6.793   5.758
 1186SOL    HW1 4457   5.737   6.839   5.762
 1186SOL    HW2 4458   5.815   6.703   5.716
 1187SOL     OW 4459   6.145   6.851   6.865
 1187SOL    HW1 4460   6.099   6.921   6.920
 1187SOL    HW2 4461   6.206   6.896   6.800
 1188SOL     OW 4462   3.681   6.047   5.524
 1188SOL    HW1 4463   3.747   6.003   5.585
 1188SOL    HW2 4464   3.646   5.980   5.459
 1189SOL     OW 4465   6.173   2.715   1.594
 1189SOL    HW1 4466   6.112   2.750   1.523
 1189SOL    HW2 4467   6.196   2.620   1.574
 1190SOL     OW 4468   3.062   5.193   3.442
 1190SOL    HW1 4469   2.976   5.145   3.423
 1190SOL    HW2 4470   3.042   5.290   3.460
 1191SOL     OW 4471   4.525   5.435   3.806
 1191SOL    HW1 4472   4.578   5.377   3.868
 1191SOL    HW2 4473   4.443   5.467   3.852
 1192SOL     OW 4474   4.374   5.546   2.471
 1192SOL    HW1 4475   4.282   5.506   2.468
 1192SOL    HW2 4476   4.415   5.544   2.380
 1193SOL     OW 4477   6.482   2.800   5.163
 1193SOL    HW1 4478   6.402   2.774   5.109
 1193SOL    HW2 4479   6.454   2.862   5.237
 1194SOL     OW 4480   5.959   0.078   1.728
 1194SOL    HW1 4481   5.921   0.170   1.736
 1194SOL    HW2 4482   5.886   0.014   1.703
 1195SOL     OW 4483   6.698   3.972   0.857
 1195SOL    HW1 4484   6.683   4.066   0.885
 1195SOL    HW2 4485   6.633   3.912   0.904
 1196SOL     OW 4486   0.316   5.639   2.761
 1196SOL    HW1 4487   0.238   5.646   2.699
 1196SOL    HW2 4488   0.294   5.684   2.848
 1197SOL     OW 4489   4.593   0.802   5.022
 1197SOL    HW1 4490   4.499   0.798   4.989
 1197SOL    HW2 4491   4.594   0.827   5.119
 1198SOL     OW 4492   1.174   2.700   2.411
 1198SOL    HW1 4493   1.222   2.666   2.492
 1198SOL    HW2 4494   1.095   2.642   2.392
 1199SOL     OW 4495   3.907   3.874   1.457
 1199SOL    HW1 4496   3.970   3.870   1.535
 1199SOL    HW2 4497   3.866   3.784   1.443
 1200SOL     OW 4498   3.267   3.660   4.354
 1200SOL    HW1 4499   3.191   3.631   4.411
 1200SOL    HW2 4500   3.247   3.639   4.258
 1201SOL     OW 4501   0.930   0.820   4.116
 1201SOL    HW1 4502   0.999   0.749   4.129
 1201SOL    HW2 4503   0.842   0.778   4.093
 1202SOL     OW 4504   0.336   5.545   5.530
 1202SOL    HW1 4505   0.386   5.616   5.479
 1202SOL    HW2 4506   0.319   5.577   5.623
 1203SOL     OW 4507   6.487   5.978   6.570
 1203SOL    HW1 4508   6.507   5.945   6.662
 1203SOL    HW2 4509   6.430   6.060   6.576
 1204SOL     OW 4510   3.456   6.516   1.553
 1204SOL    HW1 4511   3.449   6.419   1.574
 1204SOL    HW2 4512   3.479   6.528   1.457
 1205SOL     OW 4513   4.787   3.722   0.926
 1205SOL    HW1 4514   4.729   3.650   0.965
 1205SOL    HW2 4515   4.854   3.681   0.865
 1206SOL     OW 4516   2.756   2.779   5.421
 1206SOL    HW1 4517   2.847   2.749   5.393
 1206SOL    HW2 4518   2.740   2.872   5.389
 1207SOL     OW 4519   2.193   6.376   1.081
 1207SOL    HW1 4520   2.258   6.443   1.115
 1207SOL    HW2 4521   2.200   6.371   0.981
 1208SOL     OW 4522   3.239   3.779   1.442
 1208SOL    HW1 4523   3.197   3.848   1.500
 1208SOL    HW2 4524   3.167   3.723   1.399
 1209SOL     OW 4525   4.919   1.312   4.937
 1209SOL    HW1 4526   4.997   1.252   4.956
 1209SOL    HW2 4527   4.949   1.407   4.940
 1210SOL     OW 4528   3.199   0.499   3.497
 1210SOL    HW1 4529   3.265   0.574   3.486
 1210SOL    HW2 4530   3.141   0.517   3.576
 1211SOL     OW 4531   0.685   3.711   1.637
 1211SOL    HW1 4532   0.627   3.786   1.606
 1211SOL    HW2 4533   0.777   3.745   1.654
 1212SOL     OW 4534   6.209   0.552   0.089
 1212SOL    HW1 4535   6.249   0.641   0.109
 1212SOL    HW2 4536   6.122   0.542   0.137
 1213SOL     OW 4537   6.879   2.253   0.092
 1213SOL    HW1 4538   6.874   2.217   0.185
 1213SOL    HW2 4539   6.966   2.299   0.079
 1214SOL     OW 4540   0.974   2.824   6.338
 1214SOL    HW1 4541   1.060   2.865   6.369
 1214SOL    HW2 4542   0.899   2.887   6.358
 1215SOL     OW 4543   0.715   4.365   3.404
 1215SOL    HW1 4544   0.624   4.375   3.363
 1215SOL    HW2 4545   0.760   4.285   3.366
 1216SOL     OW 4546   4.844   0.643   0.837
 1216SOL    HW1 4547   4.888   0.555   0.821
 1216SOL    HW2 4548   4.749   0.629   0.864
 1217SOL     OW 4549   2.533   4.443   6.864
 1217SOL    HW1 4550   2.534   4.532   6.819
 1217SOL    HW2 4551   2.464   4.444   6.937
 1218SOL     OW 4552   2.328   4.183   4.453
 1218SOL    HW1 4553   2.296   4.220   4.366
 1218SOL    HW2 4554   2.316   4.084   4.455
 1219SOL     OW 4555   5.725   6.389   2.015
 1219SOL    HW1 4556   5.754   6.293   2.020
 1219SOL    HW2 4557   5.779   6.444   2.078
 1220SOL     OW 4558   1.121   4.789   3.557
 1220SOL    HW1 4559   1.135   4.707   3.500
 1220SOL    HW2 4560   1.025   4.814   3.557
 1221SOL     OW 4561   5.733   3.587   6.409
 1221SOL    HW1 4562   5.713   3.495   6.375
 1221SOL    HW2 4563   5.821   3.587   6.457
 1222SOL     OW 4564   6.520   6.813   6.511
 1222SOL    HW1 4565   6.536   6.730   6.564
 1222SOL    HW2 4566   6.440   6.861   6.547
 1223SOL     OW 4567   4.229   0.850   0.859
 1223SOL    HW1 4568   4.152   0.801   0.900
 1223SOL    HW2 4569   4.219   0.948   0.877
 1224SOL     OW 4570   3.173   5.333   0.253
 1224SOL    HW1 4571   3.175   5.423   0.209
 1224SOL    HW2 4572   3.105   5.276   0.208
 1225SOL     OW 4573   3.295   3.216   0.020
 1225SOL    HW1 4574   3.377   3.266   0.048
 1225SOL    HW2 4575   3.240   3.273   6.987
 1226SOL     OW 4576   2.342   5.279   1.250
 1226SOL    HW1 4577   2.343   5.353   1.316
 1226SOL    HW2 4578   2.290   5.202   1.286
 1227SOL     OW 4579   6.787   4.044   0.008
 1227SOL    HW1 4580   6.856   3.996   6.981
 1227SOL    HW2 4581   6.700   4.044   6.987
 1228SOL     OW 4582   4.050   1.847   6.602
 1228SOL    HW1 4583   4.102   1.932   6.615
 1228SOL    HW2 4584   4.061   1.815   6.508
 1229SOL     OW 4585   3.838   5.096   6.023
 1229SOL    HW1 4586   3.924   5.144   6.007
 1229SOL    HW2 4587   3.855   4.998   6.029
 1230SOL     OW 4588   4.794   0.268   3.056
 1230SOL    HW1 4589   4.849   0.309   3.129
 1230SOL    HW2 4590   4.807   0.169   3.056
 1231SOL     OW 4591   1.872   3.375   4.223
 1231SOL    HW1 4592   1.776   3.359   4.197
 1231SOL    HW2 4593   1.875   3.440   4.298
 1232SOL     OW 4594   0.618   2.188   5.395
 1232SOL    HW1 4595   0.700   2.230   5.357
 1232SOL    HW2 4596   0.642   2.139   5.479
 1233SOL     OW 4597   1.388   3.871   4.075
 1233SOL    HW1 4598   1.324   3.895   4.002
 1233SOL    HW2 4599   1.465   3.935   4.074
 1234SOL     OW 4600   6.584   3.795   5.027
 1234SOL    HW1 4601   6.572   3.711   4.974
 1234SOL    HW2 4602   6.625   3.866   4.969
 1235SOL     OW 4603   6.910   5.922   2.376
 1235SOL    HW1 4604   6.984   5.856   2.365
 1235SOL    HW2 4605   6.822   5.878   2.358
 1236SOL     OW 4606   5.144   1.027   0.328
 1236SOL    HW1 4607   5.236   1.000   0.298
 1236SOL    HW2 4608   5.148   1.054   0.424
 1237SOL     OW 4609   1.929   4.829   5.574
 1237SOL    HW1 4610   1.934   4.744   5.522
 1237SOL    HW2 4611   1.891   4.810   5.665
 1238SOL     OW 4612   2.586   0.916   0.394
 1238SOL    HW1 4613   2.494   0.954   0.407
 1238SOL    HW2 4614   2.602   0.845   0.462
 1239SOL     OW 4615   6.931   6.707   6.132
 1239SOL    HW1 4616   6.869   6.669   6.200
 1239SOL    HW2 4617   6.999   6.765   6.177
 1240SOL     OW 4618   5.486   6.013   1.982
 1240SOL    HW1 4619   5.580   5.985   1.999
 1240SOL    HW2 4620   5.452   5.968   1.900
 1241SOL     OW 4621   6.425   4.210   3.955
 1241SOL    HW1 4622   6.506   4.175   3.909
 1241SOL    HW2 4623   6.379   4.136   4.003
 1242SOL     OW 4624   6.832   3.470   1.652
 1242SOL    HW1 4625   6.930   3.478   1.636
 1242SOL    HW2 4626   6.807   3.373   1.657
 1243SOL     OW 4627   0.398   6.772   5.356
 1243SOL    HW1 4628   0.456   6.726   5.288
 1243SOL    HW2 4629   0.386   6.712   5.435
 1244SOL     OW 4630   6.728   7.007   3.560
 1244SOL    HW1 4631   6.779   0.046   3.506
 1244SOL    HW2 4632   6.763   6.915   3.541
 1245SOL     OW 4633   4.833   4.379   6.326
 1245SOL    HW1 4634   4.761   4.448   6.337
 1245SOL    HW2 4635   4.849   4.363   6.228
 1246SOL     OW 4636   2.289   6.248   1.402
 1246SOL    HW1 4637   2.288   6.299   1.316
 1246SOL    HW2 4638   2.205   6.195   1.411
 1247SOL     OW 4639   2.234   0.462   6.385
 1247SOL    HW1 4640   2.282   0.449   6.471
 1247SOL    HW2 4641   2.149   0.409   6.386
 1248SOL     OW 4642   2.372   0.380   4.422
 1248SOL    HW1 4643   2.455   0.420   4.383
 1248SOL    HW2 4644   2.390   0.287   4.453
 1249SOL     OW 4645   5.697   2.304   1.904
 1249SOL    HW1 4646   5.648   2.364   1.967
 1249SOL    HW2 4647   5.735   2.359   1.829
 1250SOL     OW 4648   6.740   4.926   4.613
 1250SOL    HW1 4649   6.720   5.011   4.660
 1250SOL    HW2 4650   6.808   4.942   4.541
 1251SOL     OW 4651   2.765   6.884   3.936
 1251SOL    HW1 4652   2.724   6.811   3.991
 1251SOL    HW2 4653   2.863   6.869   3.929
 1252SOL     OW 4654   3.624   3.338   5.606
 1252SOL    HW1 4655   3.723   3.321   5.613
 1252SOL    HW2 4656   3.575   3.252   5.621
 1253SOL     OW 4657   3.321   4.880   1.463
 1253SOL    HW1 4658   3.243   4.940   1.484
 1253SOL    HW2 4659   3.403   4.935   1.450
 1254SOL     OW 4660   6.471   3.126   2.702
 1254SOL    HW1 4661   6.486   3.029   2.720
 1254SOL    HW2 4662   6.520   3.152   2.619
 1255SOL     OW 4663   6.619   1.885   4.806
 1255SOL    HW1 4664   6.587   1.796   4.774
 1255SOL    HW2 4665   6.682   1.924   4.739
 1256SOL     OW 4666   6.674   6.741   3.228
 1256SOL    HW1 4667   6.592   6.695   3.195
 1256SOL    HW2 4668   6.672   6.837   3.200
 1257SOL     OW 4669   6.730   6.557   3.851
 1257SOL    HW1 4670   6.829   6.558   3.837
 1257SOL    HW2 4671   6.686   6.516   3.771
 1258SOL     OW 4672   1.540   5.097   3.666
 1258SOL    HW1 4673   1.526   5.089   3.568
 1258SOL    HW2 4674   1.475   5.163   3.704
 1259SOL     OW 4675   3.639   1.165   4.283
 1259SOL    HW1 4676   3.738   1.181   4.282
 1259SOL    HW2 4677   3.592   1.247   4.249
 1260SOL     OW 4678   1.573   1.342   6.540
 1260SOL    HW1 4679   1.528   1.429   6.560
 1260SOL    HW2 4680   1.559   1.319   6.444
 1261SOL     OW 4681   0.033   5.816   6.508
 1261SOL    HW1 4682   0.077   5.887   6.453
 1261SOL    HW2 4683   0.103   5.766   6.559
 1262SOL     OW 4684   5.587   5.266   1.172
 1262SOL    HW1 4685   5.502   5.268   1.225
 1262SOL    HW2 4686   5.665   5.264   1.234
 1263SOL     OW 4687   0.138   1.092   2.561
 1263SOL    HW1 4688   0.102   1.059   2.474
 1263SOL    HW2 4689   0.197   1.022   2.601
 1264SOL     OW 4690   0.514   4.481   6.086
 1264SOL    HW1 4691   0.556   4.504   5.998
 1264SOL    HW2 4692   0.421   4.518   6.089
 1265SOL     OW 4693   5.907   5.154   4.481
 1265SOL    HW1 4694   5.975   5.080   4.480
 1265SOL    HW2 4695   5.820   5.119   4.517
 1266SOL     OW 4696   0.516   0.579   4.247
 1266SOL    HW1 4697   0.438   0.519   4.231
 1266SOL    HW2 4698   0.544   0.621   4.161
 1267SOL     OW 4699   5.127   1.130   1.391
 1267SOL    HW1 4700   5.178   1.090   1.315
 1267SOL    HW2 4701   5.115   1.228   1.375
 1268SOL     OW 4702   2.969   2.970   7.014
 1268SOL    HW1 4703   3.051   2.931   0.029
 1268SOL    HW2 4704   2.932   2.905   6.947
 1269SOL     OW 4705   5.940   3.053   3.900
 1269SOL    HW1 4706   5.996   3.029   3.979
 1269SOL    HW2 4707   5.858   3.101   3.931
 1270SOL     OW 4708   2.208   4.774   2.499
 1270SOL    HW1 4709   2.255   4.745   2.416
 1270SOL    HW2 4710   2.262   4.747   2.579
 1271SOL     OW 4711   3.320   1.426   1.931
 1271SOL    HW1 4712   3.390   1.473   1.876
 1271SOL    HW2 4713   3.235   1.478   1.926
 1272SOL     OW 4714   6.088   4.517   6.611
 1272SOL    HW1 4715   6.047   4.587   6.670
 1272SOL    HW2 4716   6.032   4.507   6.528
 1273SOL     OW 4717   1.414   3.855   5.236
 1273SOL    HW1 4718   1.488   3.887   5.295
 1273SOL    HW2 4719   1.449   3.789   5.170
 1274SOL     OW 4720   0.299   4.250   0.586
 1274SOL    HW1 4721   0.245   4.231   0.668
 1274SOL    HW2 4722   0.397   4.242   0.607
 1275SOL     OW 4723   3.205   1.193   3.251
 1275SOL    HW1 4724   3.198   1.235   3.341
 1275SOL    HW2 4725   3.116   1.157   3.224
 1276SOL     OW 4726   5.624   5.374   5.023
 1276SOL    HW1 4727   5.576   5.354   4.938
 1276SOL    HW2 4728   5.664   5.465   5.019
 1277SOL     OW 4729   1.569   5.287   6.878
 1277SOL    HW1 4730   1.649   5.266   6.934
 1277SOL    HW2 4731   1.597   5.337   6.796
 1278SOL     OW 4732   1.511   0.411   4.542
 1278SOL    HW1 4733   1.438   0.355   4.582
 1278SOL    HW2 4734   1.476   0.458   4.461
 1279SOL     OW 4735   2.390   4.354   6.243
 1279SOL    HW1 4736   2.453   4.277   6.259
 1279SOL    HW2 4737   2.441   4.440   6.247
 1280SOL     OW 4738   4.306   0.012   3.897
 1280SOL    HW1 4739   4.396   0.056   3.907
 1280SOL    HW2 4740   4.309   6.949   3.938
 1281SOL     OW 4741   2.788   6.099   3.666
 1281SOL    HW1 4742   2.870   6.115   3.611
 1281SOL    HW2 4743   2.716   6.162   3.636
 1282SOL     OW 4744   6.930   2.578   6.973
 1282SOL    HW1 4745   6.984   2.661   6.980
 1282SOL    HW2 4746   6.897   2.567   6.879
 1283SOL     OW 4747   6.504   3.564   5.648
 1283SOL    HW1 4748   6.566   3.572   5.570
 1283SOL    HW2 4749   6.486   3.655   5.686
 1284SOL     OW 4750   3.945   0.957   1.270
 1284SOL    HW1 4751   3.910   0.883   1.327
 1284SOL    HW2 4752   3.879   0.978   1.198
 1285SOL     OW 4753   4.582   1.152   5.276
 1285SOL    HW1 4754   4.655   1.091   5.308
 1285SOL    HW2 4755   4.616   1.246   5.273
 1286SOL     OW 4756   4.433   2.262   0.854
 1286SOL    HW1 4757   4.417   2.311   0.940
 1286SOL    HW2 4758   4.531   2.244   0.843
 1287SOL     OW 4759   5.256   4.701   5.448
 1287SOL    HW1 4760   5.179   4.747   5.404
 1287SOL    HW2 4761   5.340   4.718   5.396
 1288SOL     OW 4762   3.994   4.764   5.586
 1288SOL    HW1 4763   4.088   4.798   5.574
 1288SOL    HW2 4764   3.961   4.789   5.677
 1289SOL     OW 4765   0.471   0.854   2.079
 1289SOL    HW1 4766   0.525   0.810   2.007
 1289SOL    HW2 4767   0.376   0.861   2.050
 1290SOL     OW 4768   1.663   6.725   0.841
 1290SOL    HW1 4769   1.569   6.747   0.813
 1290SOL    HW2 4770   1.681   6.628   0.825
 1291SOL     OW 4771   0.313   4.889   4.535
 1291SOL    HW1 4772   0.367   4.813   4.570
 1291SOL    HW2 4773   0.303   4.881   4.436
 1292SOL     OW 4774   0.748   5.413   2.201
 1292SOL    HW1 4775   0.782   5.460   2.120
 1292SOL    HW2 4776   0.821   5.408   2.269
 1293SOL     OW 4777   2.781   1.947   0.281
 1293SOL    HW1 4778   2.755   1.958   0.185
 1293SOL    HW2 4779   2.701   1.918   0.334
 1294SOL     OW 4780   1.542   4.073   6.261
 1294SOL    HW1 4781   1.490   4.017   6.196
 1294SOL    HW2 4782   1.622   4.021   6.292
 1295SOL     OW 4783   0.242   3.067   0.785
 1295SOL    HW1 4784   0.204   2.995   0.843
 1295SOL    HW2 4785   0.214   3.157   0.820
 1296SOL     OW 4786   4.618   6.715   5.323
 1296SOL    HW1 4787   4.544   6.763   5.277
 1296SOL    HW2 4788   4.580   6.643   5.382
 1297SOL     OW 4789   1.330   6.370   1.853
 1297SOL    HW1 4790   1.338   6.465   1.883
 1297SOL    HW2 4791   1.305   6.367   1.756
 1298SOL     OW 4792   4.970   6.282   3.563
 1298SOL    HW1 4793   4.889   6.326   3.523
 1298SOL    HW2 4794   4.964   6.183   3.551
 1299SOL     OW 4795   2.164   2.490   3.748
 1299SOL    HW1 4796   2.262   2.483   3.764
 1299SOL    HW2 4797   2.147   2.512   3.652
 1300SOL     OW 4798   1.763   3.123   1.741
 1300SOL    HW1 4799   1.714   3.119   1.828
 1300SOL    HW2 4800   1.856   3.157   1.758
 1301SOL     OW 4801   0.973   6.732   2.057
 1301SOL    HW1 4802   1.016   6.700   2.142
 1301SOL    HW2 4803   0.951   6.653   2.000
 1302SOL     OW 4804   5.531   0.237   5.423
 1302SOL    HW1 4805   5.629   0.218   5.418
 1302SOL    HW2 4806   5.517   0.322   5.473
 1303SOL     OW 4807   3.921   0.982   1.920
 1303SOL    HW1 4808   3.952   1.076   1.934
 1303SOL    HW2 4809   3.842   0.963   1.979
 1304SOL     OW 4810   1.930   0.739   1.444
 1304SOL    HW1 4811   2.016   0.744   1.392
 1304SOL    HW2 4812   1.935   0.802   1.522
 1305SOL     OW 4813   5.437   3.998   6.617
 1305SOL    HW1 4814   5.504   4.062   6.656
 1305SOL    HW2 4815   5.476   3.907   6.612
 1306SOL     OW 4816   1.689   6.036   4.506
 1306SOL    HW1 4817   1.741   5.993   4.433
 1306SOL    HW2 4818   1.684   5.974   4.584
 1307SOL     OW 4819   2.028   3.160   4.161
 1307SOL    HW1 4820   2.035   3.085   4.227
 1307SOL    HW2 4821   1.983   3.238   4.204
 1308SOL     OW 4822   0.080   6.972   6.174
 1308SOL    HW1 4823   7.028   0.000   6.196
 1308SOL    HW2 4824   0.104   6.983   6.078
 1309SOL     OW 4825   5.396   4.311   5.635
 1309SOL    HW1 4826   5.429   4.227   5.678
 1309SOL    HW2 4827   5.308   4.294   5.591
 1310SOL     OW 4828   0.344   4.414   3.149
 1310SOL    HW1 4829   0.391   4.450   3.068
 1310SOL    HW2 4830   0.358   4.315   3.154
 1311SOL     OW 4831   6.744   6.028   6.458
 1311SOL    HW1 4832   6.771   5.968   6.533
 1311SOL    HW2 4833   6.647   6.013   6.437
 1312SOL     OW 4834   1.948   6.995   6.936
 1312SOL    HW1 4835   2.008   0.037   6.897
 1312SOL    HW2 4836   1.854   0.002   6.940
 1313SOL     OW 4837   6.538   5.132   2.550
 1313SOL    HW1 4838   6.457   5.152   2.605
 1313SOL    HW2 4839   6.616   5.118   2.611
 1314SOL     OW 4840   3.216   1.991   4.472
 1314SOL    HW1 4841   3.209   2.064   4.541
 1314SOL    HW2 4842   3.263   2.027   4.391
 1315SOL     OW 4843   6.773   1.050   3.301
 1315SOL    HW1 4844   6.775   0.957   3.337
 1315SOL    HW2 4845   6.807   1.050   3.207
 1316SOL     OW 4846   3.238   0.483   5.188
 1316SOL    HW1 4847   3.294   0.566   5.199
 1316SOL    HW2 4848   3.246   0.427   5.270
 1317SOL     OW 4849   1.532   4.136   4.861
 1317SOL    HW1 4850   1.625   4.174   4.863
 1317SOL    HW2 4851   1.503   4.116   4.955
 1318SOL     OW 4852   1.701   2.808   6.730
 1318SOL    HW1 4853   1.693   2.801   6.830
 1318SOL    HW2 4854   1.721   2.718   6.692
 1319SOL     OW 4855   0.235   5.492   0.036
 1319SOL    HW1 4856   0.157   5.541   7.022
 1319SOL    HW2 4857   0.207   5.399   0.059
 1320SOL     OW 4858   3.267   2.905   7.015
 1320SOL    HW1 4859   3.262   3.004   7.002
 1320SOL    HW2 4860   3.292   2.885   0.082
 1321SOL     OW 4861   4.769   2.120   6.766
 1321SOL    HW1 4862   4.756   2.058   6.843
 1321SOL    HW2 4863   4.819   2.201   6.796
 1322SOL     OW 4864   4.236   1.902   4.247
 1322SOL    HW1 4865   4.311   1.866   4.191
 1322SOL    HW2 4866   4.189   1.826   4.292
 1323SOL     OW 4867   3.415   6.285   0.349
 1323SOL    HW1 4868   3.450   6.360   0.292
 1323SOL    HW2 4869   3.421   6.311   0.445
 1324SOL     OW 4870   0.668   3.338   0.235
 1324SOL    HW1 4871   0.642   3.256   0.184
 1324SOL    HW2 4872   0.764   3.333   0.261
 1325SOL     OW 4873   4.063   6.368   5.079
 1325SOL    HW1 4874   4.021   6.459   5.082
 1325SOL    HW2 4875   3.991   6.299   5.067
 1326SOL     OW 4876   4.880   3.916   5.215
 1326SOL    HW1 4877   4.959   3.881   5.163
 1326SOL    HW2 4878   4.849   3.846   5.280
 1327SOL     OW 4879   1.032   6.197   1.149
 1327SOL    HW1 4880   0.994   6.265   1.212
 1327SOL    HW2 4881   1.099   6.141   1.197
 1328SOL     OW 4882   2.135   3.039   0.098
 1328SOL    HW1 4883   2.166   2.949   0.068
 1328SOL    HW2 4884   2.214   3.098   0.115
 1329SOL     OW 4885   6.963   2.455   2.573
 1329SOL    HW1 4886   7.022   2.527   2.610
 1329SOL    HW2 4887   6.977   2.371   2.625
 1330SOL     OW 4888   1.120   2.144   0.952
 1330SOL    HW1 4889   1.040   2.158   1.010
 1330SOL    HW2 4890   1.094   2.156   0.856
 1331SOL     OW 4891   4.514   2.481   3.025
 1331SOL    HW1 4892   4.495   2.511   3.119
 1331SOL    HW2 4893   4.446   2.413   2.998
 1332SOL     OW 4894   2.747   6.775   0.773
 1332SOL    HW1 4895   2.788   6.687   0.751
 1332SOL    HW2 4896   2.805   6.849   0.739
 1333SOL     OW 4897   2.872   3.636   3.103
 1333SOL    HW1 4898   2.775   3.655   3.119
 1333SOL    HW2 4899   2.880   3.557   3.041
 1334SOL     OW 4900   6.859   1.444   4.183
 1334SOL    HW1 4901   6.902   1.427   4.272
 1334SOL    HW2 4902   6.908   1.393   4.112
 1335SOL     OW 4903   2.229   2.189   2.159
 1335SOL    HW1 4904   2.265   2.142   2.240
 1335SOL    HW2 4905   2.212   2.285   2.181
 1336SOL     OW 4906   4.100   1.855   5.316
 1336SOL    HW1 4907   4.077   1.876   5.411
 1336SOL    HW2 4908   4.199   1.866   5.302
 1337SOL     OW 4909   7.020   1.614   3.076
 1337SOL    HW1 4910   0.031   1.706   3.069
 1337SOL    HW2 4911   7.011   1.575   2.984
 1338SOL     OW 4912   0.249   3.768   3.809
 1338SOL    HW1 4913   0.271   3.819   3.893
 1338SOL    HW2 4914   0.233   3.672   3.831
 1339SOL     OW 4915   6.322   1.205   6.924
 1339SOL    HW1 4916   6.408   1.244   6.892
 1339SOL    HW2 4917   6.332   1.106   6.935
 1340SOL     OW 4918   5.512   1.145   2.640
 1340SOL    HW1 4919   5.536   1.183   2.551
 1340SOL    HW2 4920   5.581   1.077   2.667
 1341SOL     OW 4921   4.598   6.188   0.319
 1341SOL    HW1 4922   4.531   6.247   0.274
 1341SOL    HW2 4923   4.654   6.143   0.250
 1342SOL     OW 4924   2.764   5.523   6.343
 1342SOL    HW1 4925   2.792   5.454   6.409
 1342SOL    HW2 4926   2.681   5.492   6.295
 1343SOL     OW 4927   5.366   5.489   2.916
 1343SOL    HW1 4928   5.268   5.471   2.920
 1343SOL    HW2 4929   5.400   5.467   2.825
 1344SOL     OW 4930   0.503   6.670   4.364
 1344SOL    HW1 4931   0.482   6.765   4.339
 1344SOL    HW2 4932   0.418   6.617   4.365
 1345SOL     OW 4933   0.700   4.934   1.843
 1345SOL    HW1 4934   0.668   4.867   1.910
 1345SOL    HW2 4935   0.658   5.023   1.863
 1346SOL     OW 4936   2.653   5.713   5.877
 1346SOL    HW1 4937   2.731   5.746   5.932
 1346SOL    HW2 4938   2.687   5.651   5.806
 1347SOL     OW 4939   0.569   6.526   7.000
 1347SOL    HW1 4940   0.644   6.460   6.996
 1347SOL    HW2 4941   0.606   6.618   6.996
 1348SOL     OW 4942   0.005   6.728   5.238
 1348SOL    HW1 4943   6.941   6.766   5.224
 1348SOL    HW2 4944   0.039   6.758   5.327
 1349SOL     OW 4945   5.358   2.722   4.535
 1349SOL    HW1 4946   5.342   2.628   4.505
 1349SOL    HW2 4947   5.429   2.724   4.604
 1350SOL     OW 4948   4.709   5.150   5.509
 1350SOL    HW1 4949   4.671   5.237   5.538
 1350SOL    HW2 4950   4.805   5.162   5.482
 1351SOL     OW 4951   5.244   2.529   4.068
 1351SOL    HW1 4952   5.276   2.470   3.994
 1351SOL    HW2 4953   5.228   2.621   4.033
 1352SOL     OW 4954   6.630   6.283   4.350
 1352SOL    HW1 4955   6.706   6.227   4.317
 1352SOL    HW2 4956   6.649   6.380   4.333
 1353SOL     OW 4957   0.929   1.875   0.218
 1353SOL    HW1 4958   0.967   1.875   0.310
 1353SOL    HW2 4959   0.924   1.968   0.183
 1354SOL     OW 4960   6.683   4.395   2.138
 1354SOL    HW1 4961   6.630   4.394   2.223
 1354SOL    HW2 4962   6.710   4.301   2.115
 1355SOL     OW 4963   6.095   4.292   4.105
 1355SOL    HW1 4964   6.161   4.367   4.103
 1355SOL    HW2 4965   6.079   4.264   4.200
 1356SOL     OW 4966   3.684   3.190   1.984
 1356SOL    HW1 4967   3.774   3.150   2.004
 1356SOL    HW2 4968   3.613   3.135   2.027
 1357SOL     OW 4969   0.011   4.846   6.441
 1357SOL    HW1 4970   0.064   4.930   6.431
 1357SOL    HW2 4971   6.971   4.840   6.368
 1358SOL     OW 4972   6.251   6.530   0.179
 1358SOL    HW1 4973   6.187   6.463   0.218
 1358SOL    HW2 4974   6.300   6.489   0.102
 1359SOL     OW 4975   5.968   4.378   2.281
 1359SOL    HW1 4976   5.937   4.458   2.332
 1359SOL    HW2 4977   5.908   4.300   2.302
 1360SOL     OW 4978   2.378   3.150   0.208
 1360SOL    HW1 4979   2.477   3.141   0.220
 1360SOL    HW2 4980   2.334   3.163   0.297
 1361SOL     OW 4981   6.682   4.663   4.618
 1361SOL    HW1 4982   6.708   4.759   4.622
 1361SOL    HW2 4983   6.743   4.614   4.556
 1362SOL     OW 4984   3.939   3.770   2.834
 1362SOL    HW1 4985   3.969   3.773   2.929
 1362SOL    HW2 4986   4.017   3.745   2.776
 1363SOL     OW 4987   0.175   5.482   4.309
 1363SOL    HW1 4988   0.208   5.431   4.388
 1363SOL    HW2 4989   0.111   5.553   4.339
 1364SOL     OW 4990   5.054   4.252   0.308
 1364SOL    HW1 4991   5.018   4.244   0.401
 1364SOL    HW2 4992   5.056   4.349   0.282
 1365SOL     OW 4993   0.966   4.406   6.286
 1365SOL    HW1 4994   1.060   4.441   6.282
 1365SOL    HW2 4995   0.903   4.483   6.296
 1366SOL     OW 4996   1.877   6.726   6.196
 1366SOL    HW1 4997   1.825   6.745   6.280
 1366SOL    HW2 4998   1.813   6.717   6.119
 1367SOL     OW 4999   2.206   0.371   2.474
 1367SOL    HW1 5000   2.108   0.360   2.490
 1367SOL    HW2 5001   2.256   0.357   2.559
 1368SOL     OW 5002   5.195   0.028   4.854
 1368SOL    HW1 5003   5.184   0.122   4.822
 1368SOL    HW2 5004   5.291   0.010   4.873
 1369SOL     OW 5005   1.788   6.448   3.110
 1369SOL    HW1 5006   1.716   6.488   3.054
 1369SOL    HW2 5007   1.753   6.431   3.202
 1370SOL     OW 5008   3.451   0.927   1.812
 1370SOL    HW1 5009   3.451   0.876   1.726
 1370SOL    HW2 5010   3.357   0.948   1.839
 1371SOL     OW 5011   4.664   1.429   4.647
 1371SOL    HW1 5012   4.677   1.526   4.670
 1371SOL    HW2 5013   4.744   1.395   4.598
 1372SOL     OW 5014   1.897   3.357   1.288
 1372SOL    HW1 5015   1.806   3.378   1.251
 1372SOL    HW2 5016   1.965   3.414   1.241
 1373SOL     OW 5017   6.597   4.231   0.879
 1373SOL    HW1 5018   6.638   4.299   0.939
 1373SOL    HW2 5019   6.600   4.263   0.785
 1374SOL     OW 5020   4.237   1.981   0.759
 1374SOL    HW1 5021   4.265   1.904   0.816
 1374SOL    HW2 5022   4.287   2.063   0.786
 1375SOL     OW 5023   0.132   5.305   6.028
 1375SOL    HW1 5024   0.070   5.344   6.097
 1375SOL    HW2 5025   0.226   5.327   6.053
 1376SOL     OW 5026   4.688   2.685   3.414
 1376SOL    HW1 5027   4.655   2.653   3.503
 1376SOL    HW2 5028   4.733   2.773   3.425
 1377SOL     OW 5029   0.114   4.190   6.086
 1377SOL    HW1 5030   0.066   4.141   6.159
 1377SOL    HW2 5031   0.087   4.154   5.997
 1378SOL     OW 5032   0.566   2.532   5.135
 1378SOL    HW1 5033   0.578   2.558   5.039
 1378SOL    HW2 5034   0.645   2.562   5.188
 1379SOL     OW 5035   3.149   6.618   2.774
 1379SOL    HW1 5036   3.212   6.545   2.745
 1379SOL    HW2 5037   3.195   6.706   2.768
 1380SOL     OW 5038   6.720   7.016   2.655
 1380SOL    HW1 5039   6.701   0.021   2.562
 1380SOL    HW2 5040   6.685   6.923   2.664
 1381SOL     OW 5041   5.163   2.517   0.189
 1381SOL    HW1 5042   5.121   2.563   0.268
 1381SOL    HW2 5043   5.241   2.464   0.221
 1382SOL     OW 5044   6.256   4.822   6.392
 1382SOL    HW1 5045   6.281   4.770   6.310
 1382SOL    HW2 5046   6.196   4.898   6.368
 1383SOL     OW 5047   0.665   1.318   0.161
 1383SOL    HW1 5048   0.720   1.298   0.242
 1383SOL    HW2 5049   0.712   1.387   0.106
 1384SOL     OW 5050   3.085   1.601   3.716
 1384SOL    HW1 5051   3.087   1.611   3.617
 1384SOL    HW2 5052   3.041   1.514   3.740
 1385SOL     OW 5053   6.826   2.772   3.403
 1385SOL    HW1 5054   6.797   2.844   3.466
 1385SOL    HW2 5055   6.924   2.777   3.389
 1386SOL     OW 5056   2.207   2.776   4.348
 1386SOL    HW1 5057   2.218   2.814   4.256
 1386SOL    HW2 5058   2.296   2.762   4.389
 1387SOL     OW 5059   3.552   0.648   4.244
 1387SOL    HW1 5060   3.577   0.661   4.340
 1387SOL    HW2 5061   3.541   0.736   4.199
 1388SOL     OW 5062   6.157   6.980   4.113
 1388SOL    HW1 5063   6.176   6.883   4.101
 1388SOL    HW2 5064   6.232   0.006   4.075
 1389SOL     OW 5065   6.710   0.355   4.301
 1389SOL    HW1 5066   6.624   0.325   4.342
 1389SOL    HW2 5067   6.704   0.453   4.280
 1390SOL     OW 5068   4.076   1.479   0.064
 1390SOL    HW1 5069   4.029   1.528   0.137
 1390SOL    HW2 5070   4.057   1.524   7.004
 1391SOL     OW 5071   6.334   1.150   5.309
 1391SOL    HW1 5072   6.389   1.186   5.385
 1391SOL    HW2 5073   6.381   1.167   5.223
 1392SOL     OW 5074   5.037   5.741   5.871
 1392SOL    HW1 5075   5.034   5.788   5.959
 1392SOL    HW2 5076   5.018   5.644   5.884
 1393SOL     OW 5077   6.468   1.674   6.512
 1393SOL    HW1 5078   6.563   1.685   6.483
 1393SOL    HW2 5079   6.435   1.758   6.555
 1394SOL     OW 5080   3.970   6.208   3.256
 1394SOL    HW1 5081   3.958   6.298   3.299
 1394SOL    HW2 5082   3.882   6.162   3.249
 1395SOL     OW 5083   0.521   3.948   2.517
 1395SOL    HW1 5084   0.445   3.890   2.489
 1395SOL    HW2 5085   0.523   4.030   2.461
 1396SOL     OW 5086   1.660   1.034   4.431
 1396SOL    HW1 5087   1.673   0.940   4.462
 1396SOL    HW2 5088   1.636   1.034   4.334
 1397SOL     OW 5089   0.106   5.411   4.914
 1397SOL    HW1 5090   0.041   5.469   4.865
 1397SOL    HW2 5091   0.198   5.450   4.908
 1398SOL     OW 5092   2.268   1.356   0.173
 1398SOL    HW1 5093   2.284   1.454   0.168
 1398SOL    HW2 5094   2.212   1.327   0.095
 1399SOL     OW 5095   4.299   7.012   0.688
 1399SOL    HW1 5096   4.373   0.042   0.723
 1399SOL    HW2 5097   4.280   0.009   0.593
 1400SOL     OW 5098   6.757   0.599   4.212
 1400SOL    HW1 5099   6.835   0.649   4.248
 1400SOL    HW2 5100   6.691   0.664   4.174
 1401SOL     OW 5101   5.551   0.010   4.563
 1401SOL    HW1 5102   5.586   0.100   4.586
 1401SOL    HW2 5103   5.467   0.019   4.510
 1402SOL     OW 5104   5.515   3.889   0.842
 1402SOL    HW1 5105   5.479   3.797   0.849
 1402SOL    HW2 5106   5.464   3.940   0.772
 1403SOL     OW 5107   3.356   3.458   0.299
 1403SOL    HW1 5108   3.432   3.444   0.234
 1403SOL    HW2 5109   3.379   3.535   0.359
 1404SOL     OW 5110   4.910   0.479   1.129
 1404SOL    HW1 5111   4.877   0.386   1.143
 1404SOL    HW2 5112   4.840   0.532   1.081
 1405SOL     OW 5113   2.035   3.665   0.885
 1405SOL    HW1 5114   2.077   3.613   0.810
 1405SOL    HW2 5115   1.936   3.659   0.878
 1406SOL     OW 5116   2.524   3.563   1.459
 1406SOL    HW1 5117   2.438   3.601   1.492
 1406SOL    HW2 5118   2.513   3.529   1.366
 1407SOL     OW 5119   0.717   3.482   1.492
 1407SOL    HW1 5120   0.627   3.446   1.467
 1407SOL    HW2 5121   0.706   3.568   1.542
 1408SOL     OW 5122   6.138   5.775   6.382
 1408SOL    HW1 5123   6.233   5.745   6.392
 1408SOL    HW2 5124   6.130   5.836   6.303
 1409SOL     OW 5125   0.194   1.256   5.715
 1409SOL    HW1 5126   0.135   1.178   5.692
 1409SOL    HW2 5127   0.288   1.236   5.688
 1410SOL     OW 5128   2.622   2.758   6.057
 1410SOL    HW1 5129   2.592   2.667   6.087
 1410SOL    HW2 5130   2.541   2.813   6.033
 1411SOL     OW 5131   3.984   5.704   6.911
 1411SOL    HW1 5132   3.932   5.651   6.843
 1411SOL    HW2 5133   4.067   5.740   6.868
 1412SOL     OW 5134   1.343   2.671   0.709
 1412SOL    HW1 5135   1.408   2.722   0.767
 1412SOL    HW2 5136   1.253   2.673   0.751
 1413SOL     OW 5137   1.901   2.220   5.422
 1413SOL    HW1 5138   1.916   2.319   5.419
 1413SOL    HW2 5139   1.984   2.175   5.456
 1414SOL     OW 5140   0.829   3.256   2.367
 1414SOL    HW1 5141   0.761   3.290   2.432
 1414SOL    HW2 5142   0.911   3.313   2.372
 1415SOL     OW 5143   2.451   2.254   4.511
 1415SOL    HW1 5144   2.505   2.297   4.583
 1415SOL    HW2 5145   2.393   2.322   4.467
 1416SOL     OW 5146   4.184   6.917   5.835
 1416SOL    HW1 5147   4.102   6.961   5.873
 1416SOL    HW2 5148   4.259   6.982   5.836
 1417SOL     OW 5149   2.866   3.042   5.963
 1417SOL    HW1 5150   2.804   3.008   5.892
 1417SOL    HW2 5151   2.901   2.965   6.016
 1418SOL     OW 5152   3.507   3.803   0.164
 1418SOL    HW1 5153   3.541   3.877   0.105
 1418SOL    HW2 5154   3.575   3.784   0.235
 1419SOL     OW 5155   2.011   4.712   3.931
 1419SOL    HW1 5156   2.047   4.629   3.973
 1419SOL    HW2 5157   1.993   4.780   4.002
 1420SOL     OW 5158   3.960   4.890   2.737
 1420SOL    HW1 5159   3.912   4.856   2.818
 1420SOL    HW2 5160   3.965   4.818   2.668
 1421SOL     OW 5161   1.210   4.833   5.197
 1421SOL    HW1 5162   1.162   4.918   5.174
 1421SOL    HW2 5163   1.275   4.811   5.125
 1422SOL     OW 5164   2.346   4.171   5.942
 1422SOL    HW1 5165   2.298   4.242   5.891
 1422SOL    HW2 5166   2.434   4.206   5.973
 1423SOL     OW 5167   4.416   1.719   4.563
 1423SOL    HW1 5168   4.363   1.721   4.648
 1423SOL    HW2 5169   4.473   1.800   4.557
 1424SOL     OW 5170   6.306   2.945   6.748
 1424SOL    HW1 5171   6.266   2.856   6.769
 1424SOL    HW2 5172   6.377   2.935   6.678
 1425SOL     OW 5173   3.578   6.019   4.721
 1425SOL    HW1 5174   3.629   5.973   4.649
 1425SOL    HW2 5175   3.492   6.053   4.684
 1426SOL     OW 5176   2.580   1.562   6.376
 1426SOL    HW1 5177   2.604   1.515   6.461
 1426SOL    HW2 5178   2.657   1.558   6.313
 1427SOL     OW 5179   1.087   1.292   3.004
 1427SOL    HW1 5180   1.101   1.194   2.990
 1427SOL    HW2 5181   1.018   1.306   3.074
 1428SOL     OW 5182   0.158   2.802   2.623
 1428SOL    HW1 5183   0.192   2.709   2.607
 1428SOL    HW2 5184   0.134   2.844   2.535
 1429SOL     OW 5185   6.252   1.657   0.480
 1429SOL    HW1 5186   6.178   1.598   0.449
 1429SOL    HW2 5187   6.227   1.700   0.566
 1430SOL     OW 5188   2.443   4.419   3.863
 1430SOL    HW1 5189   2.474   4.510   3.834
 1430SOL    HW2 5190   2.512   4.351   3.840
 1431SOL     OW 5191   2.602   1.450   5.624
 1431SOL    HW1 5192   2.588   1.412   5.716
 1431SOL    HW2 5193   2.604   1.376   5.557
 1432SOL     OW 5194   2.286   1.057   0.985
 1432SOL    HW1 5195   2.231   1.134   0.952
 1432SOL    HW2 5196   2.241   1.014   1.064
 1433SOL     OW 5197   3.067   0.638   4.101
 1433SOL    HW1 5198   3.107   0.719   4.058
 1433SOL    HW2 5199   3.133   0.562   4.097
 1434SOL     OW 5200   0.129   2.536   6.173
 1434SOL    HW1 5201   0.211   2.485   6.197
 1434SOL    HW2 5202   0.076   2.555   6.256
 1435SOL     OW 5203   0.482   0.719   3.578
 1435SOL    HW1 5204   0.575   0.755   3.589
 1435SOL    HW2 5205   0.423   0.791   3.542
 1436SOL     OW 5206   5.861   2.469   0.664
 1436SOL    HW1 5207   5.862   2.454   0.565
 1436SOL    HW2 5208   5.878   2.566   0.683
 1437SOL     OW 5209   4.551   1.078   6.146
 1437SOL    HW1 5210   4.528   0.982   6.161
 1437SOL    HW2 5211   4.576   1.091   6.050
 1438SOL     OW 5212   2.614   1.011   1.484
 1438SOL    HW1 5213   2.631   1.109   1.494
 1438SOL    HW2 5214   2.644   0.981   1.394
 1439SOL     OW 5215   6.832   5.607   6.609
 1439SOL    HW1 5216   6.910   5.665   6.583
 1439SOL    HW2 5217   6.789   5.644   6.691
 1440SOL     OW 5218   3.229   3.060   4.125
 1440SOL    HW1 5219   3.154   3.113   4.164
 1440SOL    HW2 5220   3.205   3.029   4.033
 1441SOL     OW 5221   6.325   3.107   4.386
 1441SOL    HW1 5222   6.317   3.051   4.469
 1441SOL    HW2 5223   6.275   3.192   4.398
 1442SOL     OW 5224   5.769   4.358   0.479
 1442SOL    HW1 5225   5.721   4.310   0.406
 1442SOL    HW2 5226   5.852   4.400   0.444
 1443SOL     OW 5227   0.883   1.065   3.344
 1443SOL    HW1 5228   0.940   1.050   3.425
 1443SOL    HW2 5229   0.820   1.141   3.360
 1444SOL     OW 5230   4.705   0.177   3.505
 1444SOL    HW1 5231   4.802   0.161   3.488
 1444SOL    HW2 5232   4.674   0.253   3.447
 1445SOL     OW 5233   0.056   2.403   1.335
 1445SOL    HW1 5234   0.026   2.332   1.398
 1445SOL    HW2 5235   0.083   2.485   1.386
 1446SOL     OW 5236   3.651   2.036   1.335
 1446SOL    HW1 5237   3.715   2.104   1.371
 1446SOL    HW2 5238   3.575   2.024   1.399
 1447SOL     OW 5239   6.699   0.743   5.092
 1447SOL    HW1 5240   6.615   0.794   5.073
 1447SOL    HW2 5241   6.775   0.785   5.043
 1448SOL     OW 5242   5.545   1.485   0.390
 1448SOL    HW1 5243   5.447   1.467   0.390
 1448SOL    HW2 5244   5.569   1.543   0.313
 1449SOL     OW 5245   5.552   6.481   0.718
 1449SOL    HW1 5246   5.481   6.445   0.778
 1449SOL    HW2 5247   5.557   6.426   0.634
 1450SOL     OW 5248   5.708   2.829   2.851
 1450SOL    HW1 5249   5.697   2.921   2.814
 1450SOL    HW2 5250   5.630   2.773   2.824
 1451SOL     OW 5251   2.019   6.841   3.007
 1451SOL    HW1 5252   2.025   6.780   2.928
 1451SOL    HW2 5253   2.074   6.922   2.991
 1452SOL     OW 5254   5.041   0.489   5.080
 1452SOL    HW1 5255   4.958   0.545   5.081
 1452SOL    HW2 5256   5.039   0.427   5.002
 1453SOL     OW 5257   5.591   4.130   4.744
 1453SOL    HW1 5258   5.571   4.219   4.704
 1453SOL    HW2 5259   5.506   4.081   4.760
 1454SOL     OW 5260   5.433   2.912   2.056
 1454SOL    HW1 5261   5.397   2.989   2.003
 1454SOL    HW2 5262   5.357   2.853   2.084
 1455SOL     OW 5263   1.352   0.767   1.982
 1455SOL    HW1 5264   1.303   0.688   1.944
 1455SOL    HW2 5265   1.446   0.740   2.005
 1456SOL     OW 5266   6.710   6.862   4.028
 1456SOL    HW1 5267   6.656   6.922   4.086
 1456SOL    HW2 5268   6.740   6.783   4.081
 1457SOL     OW 5269   1.064   0.551   3.655
 1457SOL    HW1 5270   1.125   0.529   3.578
 1457SOL    HW2 5271   0.997   0.619   3.625
 1458SOL     OW 5272   5.137   6.910   5.791
 1458SOL    HW1 5273   5.162   6.814   5.802
 1458SOL    HW2 5274   5.170   6.962   5.871
 1459SOL     OW 5275   2.984   6.533   6.762
 1459SOL    HW1 5276   3.035   6.477   6.827
 1459SOL    HW2 5277   2.902   6.483   6.731
 1460SOL     OW 5278   0.822   6.435   0.169
 1460SOL    HW1 5279   0.807   6.341   0.138
 1460SOL    HW2 5280   0.827   6.496   0.090
 1461SOL     OW 5281   5.795   4.317   3.546
 1461SOL    HW1 5282   5.747   4.251   3.604
 1461SOL    HW2 5283   5.870   4.272   3.499
 1462SOL     OW 5284   6.245   1.173   0.981
 1462SOL    HW1 5285   6.301   1.090   0.982
 1462SOL    HW2 5286   6.296   1.248   1.023
 1463SOL     OW 5287   0.779   0.280   5.014
 1463SOL    HW1 5288   0.877   0.286   5.035
 1463SOL    HW2 5289   0.751   0.184   5.015
 1464SOL     OW 5290   0.345   6.614   0.506
 1464SOL    HW1 5291   0.333   6.712   0.524
 1464SOL    HW2 5292   0.443   6.596   0.493
 1465SOL     OW 5293   0.117   0.424   3.843
 1465SOL    HW1 5294   0.191   0.491   3.833
 1465SOL    HW2 5295   0.048   0.441   3.773
 1466SOL     OW 5296   6.346   5.566   2.544
 1466SOL    HW1 5297   6.389   5.480   2.571
 1466SOL    HW2 5298   6.247   5.554   2.543
 1467SOL     OW 5299   1.796   1.139   3.098
 1467SOL    HW1 5300   1.699   1.115   3.107
 1467SOL    HW2 5301   1.819   1.146   3.001
 1468SOL     OW 5302   5.701   5.334   3.565
 1468SOL    HW1 5303   5.714   5.355   3.468
 1468SOL    HW2 5304   5.615   5.285   3.578
 1469SOL     OW 5305   0.261   0.212   2.725
 1469SOL    HW1 5306   0.256   0.308   2.753
 1469SOL    HW2 5307   0.168   0.180   2.704
 1470SOL     OW 5308   1.389   1.034   2.833
 1470SOL    HW1 5309   1.423   0.986   2.753
 1470SOL    HW2 5310   1.385   1.132   2.813
 1471SOL     OW 5311   6.920   0.319   0.121
 1471SOL    HW1 5312   6.946   0.333   0.217
 1471SOL    HW2 5313   6.978   0.249   0.081
 1472SOL     OW 5314   4.587   0.233   5.045
 1472SOL    HW1 5315   4.565   0.318   4.996
 1472SOL    HW2 5316   4.686   0.229   5.062
 1473SOL     OW 5317   6.199   5.565   2.965
 1473SOL    HW1 5318   6.175   5.550   3.061
 1473SOL    HW2 5319   6.298   5.561   2.954
 1474SOL     OW 5320   6.223   5.406   4.074
 1474SOL    HW1 5321   6.312   5.394   4.117
 1474SOL    HW2 5322   6.224   5.366   3.982
 1475SOL     OW 5323   0.047   0.264   2.484
 1475SOL    HW1 5324   7.006   0.221   2.542
 1475SOL    HW2 5325   0.087   0.194   2.424
 1476SOL     OW 5326   1.653   0.996   1.981
 1476SOL    HW1 5327   1.648   0.903   1.943
 1476SOL    HW2 5328   1.593   1.002   2.061
 1477SOL     OW 5329   3.313   0.299   5.787
 1477SOL    HW1 5330   3.329   0.213   5.738
 1477SOL    HW2 5331   3.216   0.321   5.785
 1478SOL     OW 5332   6.318   5.292   0.716
 1478SOL    HW1 5333   6.338   5.253   0.627
 1478SOL    HW2 5334   6.402   5.299   0.769
 1479SOL     OW 5335   1.843   4.867   0.386
 1479SOL    HW1 5336   1.937   4.840   0.406
 1479SOL    HW2 5337   1.819   4.840   0.293
 1480SOL     OW 5338   2.231   1.324   6.337
 1480SOL    HW1 5339   2.285   1.392   6.288
 1480SOL    HW2 5340   2.285   1.241   6.348
 1481SOL     OW 5341   6.045   2.081   5.840
 1481SOL    HW1 5342   6.138   2.113   5.816
 1481SOL    HW2 5343   5.982   2.159   5.837
 1482SOL     OW 5344   5.367   0.965   0.901
 1482SOL    HW1 5345   5.451   0.940   0.950
 1482SOL    HW2 5346   5.296   0.896   0.918
 1483SOL     OW 5347   6.521   2.513   0.235
 1483SOL    HW1 5348   6.504   2.415   0.239
 1483SOL    HW2 5349   6.453   2.561   0.291
 1484SOL     OW 5350   6.363   4.713   2.528
 1484SOL    HW1 5351   6.460   4.687   2.523
 1484SOL    HW2 5352   6.306   4.632   2.513
 1485SOL     OW 5353   5.495   2.665   2.778
 1485SOL    HW1 5354   5.416   2.719   2.808
 1485SOL    HW2 5355   5.472   2.568   2.780
 1486SOL     OW 5356   4.318   2.309   2.930
 1486SOL    HW1 5357   4.371   2.224   2.938
 1486SOL    HW2 5358   4.222   2.291   2.951
 1487SOL     OW 5359   6.059   1.330   6.241
 1487SOL    HW1 5360   6.000   1.305   6.164
 1487SOL    HW2 5361   6.020   1.408   6.289
 1488SOL     OW 5362   4.830   1.327   3.419
 1488SOL    HW1 5363   4.890   1.248   3.414
 1488SOL    HW2 5364   4.738   1.298   3.447
 1489SOL     OW 5365   3.674   4.965   4.762
 1489SOL    HW1 5366   3.768   4.938   4.742
 1489SOL    HW2 5367   3.616   4.945   4.683
 1490SOL     OW 5368   1.289   1.426   0.148
 1490SOL    HW1 5369   1.312   1.328   0.154
 1490SOL    HW2 5370   1.352   1.471   0.084
 1491SOL     OW 5371   6.891   3.509   3.100
 1491SOL    HW1 5372   6.978   3.459   3.099
 1491SOL    HW2 5373   6.876   3.548   3.191
 1492SOL     OW 5374   5.021   2.094   1.374
 1492SOL    HW1 5375   4.973   2.151   1.441
 1492SOL    HW2 5376   4.957   2.064   1.303
 1493SOL     OW 5377   4.499   0.410   4.764
 1493SOL    HW1 5378   4.469   0.432   4.671
 1493SOL    HW2 5379   4.421   0.380   4.818
 1494SOL     OW 5380   3.854   2.466   5.971
 1494SOL    HW1 5381   3.805   2.452   5.885
 1494SOL    HW2 5382   3.801   2.428   6.047
 1495SOL     OW 5383   0.482   3.584   3.034
 1495SOL    HW1 5384   0.431   3.600   3.118
 1495SOL    HW2 5385   0.574   3.623   3.042
 1496SOL     OW 5386   6.535   0.120   2.048
 1496SOL    HW1 5387   6.537   0.146   2.145
 1496SOL    HW2 5388   6.548   0.201   1.992
 1497SOL     OW 5389   0.052   5.238   4.146
 1497SOL    HW1 5390   0.073   5.193   4.233
 1497SOL    HW2 5391   0.101   5.324   4.139
 1498SOL     OW 5392   2.693   4.476   5.987
 1498SOL    HW1 5393   2.646   4.535   5.922
 1498SOL    HW2 5394   2.706   4.524   6.074
 1499SOL     OW 5395   1.189   3.600   5.262
 1499SOL    HW1 5396   1.233   3.655   5.333
 1499SOL    HW2 5397   1.259   3.549   5.211
 1500SOL     OW 5398   5.451   6.843   0.453
 1500SOL    HW1 5399   5.538   6.843   0.403
 1500SOL    HW2 5400   5.463   6.890   0.540
 1501SOL     OW 5401   4.192   0.347   6.592
 1501SOL    HW1 5402   4.166   0.250   6.592
 1501SOL    HW2 5403   4.292   0.354   6.601
 1502SOL     OW 5404   6.619   6.373   7.021
 1502SOL    HW1 5405   6.644   6.395   0.087
 1502SOL    HW2 5406   6.674   6.427   6.957
 1503SOL     OW 5407   2.099   2.634   0.188
 1503SOL    HW1 5408   2.176   2.689   0.157
 1503SOL    HW2 5409   2.106   2.542   0.150
 1504SOL     OW 5410   3.105   0.111   4.554
 1504SOL    HW1 5411   3.097   0.149   4.462
 1504SOL    HW2 5412   3.016   0.115   4.599
 1505SOL     OW 5413   5.748   0.321   5.040
 1505SOL    HW1 5414   5.753   0.421   5.032
 1505SOL    HW2 5415   5.736   0.296   5.136
 1506SOL     OW 5416   1.036   5.179   3.400
 1506SOL    HW1 5417   0.957   5.151   3.455
 1506SOL    HW2 5418   1.066   5.270   3.429
 1507SOL     OW 5419   1.760   2.221   4.679
 1507SOL    HW1 5420   1.769   2.209   4.580
 1507SOL    HW2 5421   1.831   2.169   4.726
 1508SOL     OW 5422   4.400   0.279   0.826
 1508SOL    HW1 5423   4.482   0.257   0.774
 1508SOL    HW2 5424   4.361   0.365   0.793
 1509SOL     OW 5425   4.601   3.179   6.111
 1509SOL    HW1 5426   4.676   3.139   6.059
 1509SOL    HW2 5427   4.514   3.137   6.083
 1510SOL     OW 5428   6.744   2.145   4.671
 1510SOL    HW1 5429   6.658   2.180   4.710
 1510SOL    HW2 5430   6.804   2.222   4.649
 1511SOL     OW 5431   2.731   1.719   6.649
 1511SOL    HW1 5432   2.755   1.782   6.575
 1511SOL    HW2 5433   2.808   1.710   6.712
 1512SOL     OW 5434   0.367   0.428   1.562
 1512SOL    HW1 5435   0.272   0.453   1.542
 1512SOL    HW2 5436   0.424   0.511   1.562
 1513SOL     OW 5437   3.738   0.040   4.094
 1513SOL    HW1 5438   3.768   6.981   4.134
 1513SOL    HW2 5439   3.817   0.090   4.059
 1514SOL     OW 5440   5.684   1.805   5.346
 1514SOL    HW1 5441   5.751   1.871   5.381
 1514SOL    HW2 5442   5.732   1.723   5.314
 1515SOL     OW 5443   0.235   4.208   5.460
 1515SOL    HW1 5444   0.278   4.293   5.488
 1515SOL    HW2 5445   0.300   4.154   5.406
 1516SOL     OW 5446   0.568   1.294   0.814
 1516SOL    HW1 5447   0.582   1.278   0.912
 1516SOL    HW2 5448   0.623   1.371   0.784
 1517SOL     OW 5449   4.507   5.233   3.620
 1517SOL    HW1 5450   4.479   5.247   3.526
 1517SOL    HW2 5451   4.494   5.318   3.672
 1518SOL     OW 5452   6.573   4.292   0.166
 1518SOL    HW1 5453   6.525   4.236   0.098
 1518SOL    HW2 5454   6.642   4.237   0.212
 1519SOL     OW 5455   6.941   4.786   1.118
 1519SOL    HW1 5456   0.004   4.826   1.131
 1519SOL    HW2 5457   6.910   4.746   1.204
 1520SOL     OW 5458   2.041   3.540   2.213
 1520SOL    HW1 5459   2.119   3.529   2.151
 1520SOL    HW2 5460   2.053   3.480   2.292
 1521SOL     OW 5461   1.653   3.267   0.217
 1521SOL    HW1 5462   1.621   3.342   0.276
 1521SOL    HW2 5463   1.666   3.185   0.272
 1522SOL     OW 5464   6.897   1.980   6.288
 1522SOL    HW1 5465   6.974   1.936   6.241
 1522SOL    HW2 5466   6.902   2.079   6.275
 1523SOL     OW 5467   6.207   3.132   0.203
 1523SOL    HW1 5468   6.123   3.127   0.148
 1523SOL    HW2 5469   6.282   3.089   0.153
 1524SOL     OW 5470   0.479   1.639   1.598
 1524SOL    HW1 5471   0.485   1.558   1.655
 1524SOL    HW2 5472   0.535   1.712   1.637
 1525SOL     OW 5473   4.205   1.404   5.806
 1525SOL    HW1 5474   4.180   1.316   5.845
 1525SOL    HW2 5475   4.282   1.443   5.858
 1526SOL     OW 5476   6.979   1.821   1.247
 1526SOL    HW1 5477   0.008   1.904   1.246
 1526SOL    HW2 5478   7.010   1.760   1.319
 1527SOL     OW 5479   3.313   1.729   4.977
 1527SOL    HW1 5480   3.311   1.761   4.882
 1527SOL    HW2 5481   3.338   1.805   5.037
 1528SOL     OW 5482   4.762   6.382   2.703
 1528SOL    HW1 5483   4.851   6.423   2.682
 1528SOL    HW2 5484   4.771   6.325   2.785
 1529SOL     OW 5485   4.301   0.926   5.919
 1529SOL    HW1 5486   4.390   0.890   5.894
 1529SOL    HW2 5487   4.230   0.878   5.867
 1530SOL     OW 5488   2.777   6.447   1.885
 1530SOL    HW1 5489   2.866   6.465   1.843
 1530SOL    HW2 5490   2.720   6.395   1.821
 1531SOL     OW 5491   6.008   0.647   4.525
 1531SOL    HW1 5492   5.938   0.577   4.509
 1531SOL    HW2 5493   6.053   0.670   4.439
 1532SOL     OW 5494   3.211   2.456   5.372
 1532SOL    HW1 5495   3.226   2.419   5.280
 1532SOL    HW2 5496   3.183   2.381   5.433
 1533SOL     OW 5497   6.656   3.442   6.786
 1533SOL    HW1 5498   6.575   3.495   6.761
 1533SOL    HW2 5499   6.737   3.500   6.780
 1534SOL     OW 5500   1.793   5.634   0.383
 1534SOL    HW1 5501   1.821   5.548   0.425
 1534SOL    HW2 5502   1.748   5.692   0.451
 1535SOL     OW 5503   5.285   5.258   4.385
 1535SOL    HW1 5504   5.252   5.350   4.406
 1535SOL    HW2 5505   5.356   5.263   4.315
 1536SOL     OW 5506   2.421   5.458   4.298
 1536SOL    HW1 5507   2.417   5.402   4.381
 1536SOL    HW2 5508   2.513   5.497   4.288
 1537SOL     OW 5509   2.960   5.459   3.518
 1537SOL    HW1 5510   2.990   5.497   3.605
 1537SOL    HW2 5511   2.963   5.531   3.448
 1538SOL     OW 5512   2.716   4.144   6.707
 1538SOL    HW1 5513   2.671   4.192   6.632
 1538SOL    HW2 5514   2.697   4.046   6.701
 1539SOL     OW 5515   3.810   4.561   1.651
 1539SOL    HW1 5516   3.854   4.471   1.653
 1539SOL    HW2 5517   3.717   4.554   1.688
 1540SOL     OW 5518   0.826   0.446   4.230
 1540SOL    HW1 5519   0.737   0.483   4.254
 1540SOL    HW2 5520   0.895   0.477   4.296
 1541SOL     OW 5521   3.611   3.022   1.323
 1541SOL    HW1 5522   3.565   2.952   1.267
 1541SOL    HW2 5523   3.549   3.099   1.336
 1542SOL     OW 5524   0.436   6.035   1.555
 1542SOL    HW1 5525   0.507   6.085   1.505
 1542SOL    HW2 5526   0.363   6.010   1.491
 1543SOL     OW 5527   3.169   3.497   3.888
 1543SOL    HW1 5528   3.171   3.521   3.791
 1543SOL    HW2 5529   3.236   3.425   3.906
 1544SOL     OW 5530   2.984   3.898   2.438
 1544SOL    HW1 5531   2.930   3.815   2.425
 1544SOL    HW2 5532   2.977   3.955   2.356
 1545SOL     OW 5533   6.148   0.947   5.180
 1545SOL    HW1 5534   6.177   1.017   5.246
 1545SOL    HW2 5535   6.148   0.987   5.088
 1546SOL     OW 5536   6.175   0.149   6.340
 1546SOL    HW1 5537   6.160   0.231   6.284
 1546SOL    HW2 5538   6.259   0.103   6.311
 1547SOL     OW 5539   2.652   4.693   2.674
 1547SOL    HW1 5540   2.721   4.734   2.735
 1547SOL    HW2 5541   2.644   4.748   2.591
 1548SOL     OW 5542   3.892   4.638   5.318
 1548SOL    HW1 5543   3.866   4.675   5.407
 1548SOL    HW2 5544   3.895   4.538   5.322
 1549SOL     OW 5545   6.324   1.838   1.698
 1549SOL    HW1 5546   6.393   1.810   1.764
 1549SOL    HW2 5547   6.358   1.916   1.645
 1550SOL     OW 5548   2.586   6.477   5.164
 1550SOL    HW1 5549   2.595   6.540   5.087
 1550SOL    HW2 5550   2.628   6.517   5.245
 1551SOL     OW 5551   1.734   2.812   1.240
 1551SOL    HW1 5552   1.816   2.867   1.225
 1551SOL    HW2 5553   1.761   2.720   1.270
 1552SOL     OW 5554   1.449   6.887   1.208
 1552SOL    HW1 5555   1.466   6.865   1.112
 1552SOL    HW2 5556   1.408   6.977   1.215
 1553SOL     OW 5557   6.131   1.531   6.945
 1553SOL    HW1 5558   6.175   1.516   6.857
 1553SOL    HW2 5559   6.198   1.520   7.018
 1554SOL     OW 5560   4.292   2.212   2.604
 1554SOL    HW1 5561   4.357   2.136   2.605
 1554SOL    HW2 5562   4.341   2.298   2.621
 1555SOL     OW 5563   4.986   1.915   5.040
 1555SOL    HW1 5564   4.961   1.903   5.136
 1555SOL    HW2 5565   4.908   1.952   4.990
 1556SOL     OW 5566   3.979   0.395   0.612
 1556SOL    HW1 5567   3.945   0.477   0.567
 1556SOL    HW2 5568   3.927   0.380   0.697
 1557SOL     OW 5569   2.040   2.375   1.253
 1557SOL    HW1 5570   1.966   2.362   1.187
 1557SOL    HW2 5571   2.002   2.378   1.345
 1558SOL     OW 5572   6.727   2.722   5.308
 1558SOL    HW1 5573   6.660   2.745   5.237
 1558SOL    HW2 5574   6.721   2.624   5.329
 1559SOL     OW 5575   0.953   3.980   2.225
 1559SOL    HW1 5576   0.960   3.881   2.211
 1559SOL    HW2 5577   0.938   4.025   2.137
 1560SOL     OW 5578   3.883   1.627   0.225
 1560SOL    HW1 5579   3.852   1.631   0.320
 1560SOL    HW2 5580   3.817   1.575   0.171
 1561SOL     OW 5581   5.920   6.209   2.215
 1561SOL    HW1 5582   5.992   6.190   2.282
 1561SOL    HW2 5583   5.842   6.251   2.261
 1562SOL     OW 5584   3.044   6.810   2.530
 1562SOL    HW1 5585   3.096   6.832   2.613
 1562SOL    HW2 5586   2.990   6.727   2.545
 1563SOL     OW 5587   3.132   2.210   4.659
 1563SOL    HW1 5588   3.200   2.283   4.650
 1563SOL    HW2 5589   3.092   2.213   4.750
 1564SOL     OW 5590   1.552   1.765   2.356
 1564SOL    HW1 5591   1.516   1.851   2.319
 1564SOL    HW2 5592   1.476   1.704   2.378
 1565SOL     OW 5593   4.184   6.287   3.869
 1565SOL    HW1 5594   4.191   6.337   3.955
 1565SOL    HW2 5595   4.139   6.345   3.801
 1566SOL     OW 5596   5.183   4.693   3.864
 1566SOL    HW1 5597   5.149   4.754   3.792
 1566SOL    HW2 5598   5.283   4.690   3.860
 1567SOL     OW 5599   5.919   5.439   6.565
 1567SOL    HW1 5600   5.891   5.381   6.489
 1567SOL    HW2 5601   5.883   5.531   6.552
 1568SOL     OW 5602   2.038   6.786   3.699
 1568SOL    HW1 5603   2.131   6.786   3.736
 1568SOL    HW2 5604   2.040   6.814   3.603
 1569SOL     OW 5605   3.260   0.375   3.003
 1569SOL    HW1 5606   3.358   0.369   2.988
 1569SOL    HW2 5607   3.216   0.419   2.924
 1570SOL     OW 5608   3.060   6.666   0.054
 1570SOL    HW1 5609   3.103   6.748   0.015
 1570SOL    HW2 5610   3.011   6.691   0.137
 1571SOL     OW 5611   1.219   2.260   3.720
 1571SOL    HW1 5612   1.214   2.339   3.782
 1571SOL    HW2 5613   1.290   2.276   3.652
 1572SOL     OW 5614   1.841   5.293   1.545
 1572SOL    HW1 5615   1.784   5.249   1.614
 1572SOL    HW2 5616   1.835   5.243   1.459
 1573SOL     OW 5617   4.905   5.225   1.650
 1573SOL    HW1 5618   4.986   5.282   1.663
 1573SOL    HW2 5619   4.827   5.282   1.625
 1574SOL     OW 5620   6.375   3.523   2.104
 1574SOL    HW1 5621   6.448   3.586   2.079
 1574SOL    HW2 5622   6.346   3.540   2.198
 1575SOL     OW 5623   1.365   0.585   1.524
 1575SOL    HW1 5624   1.344   0.656   1.457
 1575SOL    HW2 5625   1.352   0.495   1.481
 1576SOL     OW 5626   0.359   6.209   2.828
 1576SOL    HW1 5627   0.311   6.126   2.799
 1576SOL    HW2 5628   0.455   6.203   2.801
 1577SOL     OW 5629   3.187   0.312   6.500
 1577SOL    HW1 5630   3.223   0.337   6.590
 1577SOL    HW2 5631   3.131   0.386   6.465
 1578SOL     OW 5632   3.987   0.810   0.383
 1578SOL    HW1 5633   4.029   0.901   0.392
 1578SOL    HW2 5634   3.972   0.790   0.286
 1579SOL     OW 5635   0.948   2.618   1.658
 1579SOL    HW1 5636   0.931   2.708   1.619
 1579SOL    HW2 5637   0.986   2.557   1.588
 1580SOL     OW 5638   3.444   3.649   3.455
 1580SOL    HW1 5639   3.470   3.564   3.411
 1580SOL    HW2 5640   3.443   3.723   3.387
 1581SOL     OW 5641   0.416   4.806   5.900
 1581SOL    HW1 5642   0.395   4.902   5.919
 1581SOL    HW2 5643   0.375   4.748   5.970
 1582SOL     OW 5644   4.535   6.001   5.523
 1582SOL    HW1 5645   4.462   6.013   5.455
 1582SOL    HW2 5646   4.507   5.932   5.589
 1583SOL     OW 5647   1.004   6.371   4.950
 1583SOL    HW1 5648   0.905   6.360   4.963
 1583SOL    HW2 5649   1.025   6.370   4.852
 1584SOL     OW 5650   1.322   5.321   6.566
 1584SOL    HW1 5651   1.266   5.295   6.487
 1584SOL    HW2 5652   1.284   5.405   6.606
 1585SOL     OW 5653   3.893   1.077   3.768
 1585SOL    HW1 5654   3.946   0.993   3.781
 1585SOL    HW2 5655   3.948   1.155   3.797
 1586SOL     OW 5656   3.119   5.312   3.058
 1586SOL    HW1 5657   3.167   5.375   3.119
 1586SOL    HW2 5658   3.043   5.360   3.014
 1587SOL     OW 5659   2.187   5.733   5.987
 1587SOL    HW1 5660   2.149   5.702   6.074
 1587SOL    HW2 5661   2.231   5.657   5.940
 1588SOL     OW 5662   4.503   0.269   2.612
 1588SOL    HW1 5663   4.446   0.351   2.610
 1588SOL    HW2 5664   4.564   0.270   2.533
 1589SOL     OW 5665   6.416   3.773   2.683
 1589SOL    HW1 5666   6.431   3.832   2.762
 1589SOL    HW2 5667   6.445   3.680   2.705
 1590SOL     OW 5668   5.301   1.987   3.485
 1590SOL    HW1 5669   5.300   1.976   3.386
 1590SOL    HW2 5670   5.387   2.030   3.513
 1591SOL     OW 5671   6.821   5.708   1.427
 1591SOL    HW1 5672   6.888   5.738   1.358
 1591SOL    HW2 5673   6.865   5.642   1.488
 1592SOL     OW 5674   1.479   4.544   6.575
 1592SOL    HW1 5675   1.541   4.473   6.541
 1592SOL    HW2 5676   1.526   4.632   6.578
 1593SOL     OW 5677   1.100   0.107   6.337
 1593SOL    HW1 5678   1.154   0.046   6.279
 1593SOL    HW2 5679   1.133   0.103   6.431
 1594SOL     OW 5680   0.098   0.194   1.891
 1594SOL    HW1 5681   0.027   0.255   1.856
 1594SOL    HW2 5682   0.188   0.235   1.878
 1595SOL     OW 5683   1.944   3.810   6.834
 1595SOL    HW1 5684   2.012   3.737   6.831
 1595SOL    HW2 5685   1.853   3.771   6.844
 1596SOL     OW 5686   5.975   3.778   3.550
 1596SOL    HW1 5687   5.934   3.695   3.512
 1596SOL    HW2 5688   5.952   3.856   3.492
 1597SOL     OW 5689   2.693   5.554   0.662
 1597SOL    HW1 5690   2.726   5.564   0.568
 1597SOL    HW2 5691   2.756   5.600   0.725
 1598SOL     OW 5692   1.590   5.624   6.693
 1598SOL    HW1 5693   1.554   5.664   6.609
 1598SOL    HW2 5694   1.539   5.659   6.772
 1599SOL     OW 5695   3.937   5.222   4.458
 1599SOL    HW1 5696   4.006   5.225   4.529
 1599SOL    HW2 5697   3.982   5.215   4.368
 1600SOL     OW 5698   3.421   0.921   2.664
 1600SOL    HW1 5699   3.493   0.979   2.702
 1600SOL    HW2 5700   3.337   0.934   2.717
 1601SOL     OW 5701   6.659   6.375   3.646
 1601SOL    HW1 5702   6.701   6.283   3.644
 1601SOL    HW2 5703   6.570   6.372   3.601
 1602SOL     OW 5704   4.704   5.316   3.982
 1602SOL    HW1 5705   4.749   5.234   4.018
 1602SOL    HW2 5706   4.767   5.393   3.986
 1603SOL     OW 5707   2.868   5.564   4.145
 1603SOL    HW1 5708   2.906   5.586   4.234
 1603SOL    HW2 5709   2.840   5.648   4.099
 1604SOL     OW 5710   4.111   4.886   2.235
 1604SOL    HW1 5711   4.201   4.924   2.252
 1604SOL    HW2 5712   4.088   4.896   2.138
 1605SOL     OW 5713   5.761   5.699   1.645
 1605SOL    HW1 5714   5.792   5.635   1.575
 1605SOL    HW2 5715   5.836   5.758   1.673
 1606SOL     OW 5716   3.961   5.542   4.940
 1606SOL    HW1 5717   4.010   5.530   5.026
 1606SOL    HW2 5718   3.868   5.574   4.959
 1607SOL     OW 5719   4.071   0.280   2.109
 1607SOL    HW1 5720   3.991   0.247   2.059
 1607SOL    HW2 5721   4.100   0.212   2.176
 1608SOL     OW 5722   0.101   1.018   3.309
 1608SOL    HW1 5723   0.079   0.937   3.255
 1608SOL    HW2 5724   0.118   1.095   3.247
 1609SOL     OW 5725   3.305   6.022   0.456
 1609SOL    HW1 5726   3.262   5.957   0.394
 1609SOL    HW2 5727   3.304   6.113   0.415
 1610SOL     OW 5728   4.969   6.068   0.699
 1610SOL    HW1 5729   4.899   6.134   0.672
 1610SOL    HW2 5730   5.059   6.103   0.673
 1611SOL     OW 5731   1.394   3.901   0.836
 1611SOL    HW1 5732   1.338   3.876   0.915
 1611SOL    HW2 5733   1.372   3.841   0.759
 1612SOL     OW 5734   3.141   5.905   1.127
 1612SOL    HW1 5735   3.069   5.961   1.086
 1612SOL    HW2 5736   3.229   5.952   1.117
 1613SOL     OW 5737   0.630   5.660   2.387
 1613SOL    HW1 5738   0.632   5.581   2.449
 1613SOL    HW2 5739   0.672   5.738   2.431
 1614SOL     OW 5740   5.456   2.282   6.508
 1614SOL    HW1 5741   5.507   2.348   6.454
 1614SOL    HW2 5742   5.378   2.328   6.552
 1615SOL     OW 5743   0.124   5.098   6.490
 1615SOL    HW1 5744   0.110   5.129   6.584
 1615SOL    HW2 5745   0.161   5.174   6.435
 1616SOL     OW 5746   3.804   0.768   5.179
 1616SOL    HW1 5747   3.768   0.861   5.182
 1616SOL    HW2 5748   3.898   0.767   5.213
 1617SOL     OW 5749   4.984   0.317   3.304
 1617SOL    HW1 5750   5.053   0.333   3.375
 1617SOL    HW2 5751   4.964   0.403   3.257
 1618SOL     OW 5752   1.491   5.871   2.444
 1618SOL    HW1 5753   1.408   5.840   2.491
 1618SOL    HW2 5754   1.567   5.875   2.509
 1619SOL     OW 5755   1.338   5.362   0.173
 1619SOL    HW1 5756   1.305   5.323   0.087
 1619SOL    HW2 5757   1.331   5.294   0.246
 1620SOL     OW 5758   2.761   5.144   1.060
 1620SOL    HW1 5759   2.802   5.205   0.992
 1620SOL    HW2 5760   2.820   5.064   1.073
 1621SOL     OW 5761   6.205   6.438   1.693
 1621SOL    HW1 5762   6.110   6.457   1.715
 1621SOL    HW2 5763   6.232   6.489   1.612
 1622SOL     OW 5764   0.566   4.222   6.074
 1622SOL    HW1 5765   0.533   4.317   6.081
 1622SOL    HW2 5766   0.664   4.222   6.057
 1623SOL     OW 5767   0.409   2.441   4.348
 1623SOL    HW1 5768   0.352   2.466   4.425
 1623SOL    HW2 5769   0.396   2.507   4.274
 1624SOL     OW 5770   3.641   1.219   0.397
 1624SOL    HW1 5771   3.633   1.301   0.341
 1624SOL    HW2 5772   3.696   1.151   0.348
 1625SOL     OW 5773   1.644   5.232   0.091
 1625SOL    HW1 5774   1.669   5.317   0.139
 1625SOL    HW2 5775   1.563   5.193   0.134
 1626SOL     OW 5776   2.783   2.000   2.732
 1626SOL    HW1 5777   2.775   1.904   2.708
 1626SOL    HW2 5778   2.723   2.054   2.672
 1627SOL     OW 5779   5.235   2.820   4.054
 1627SOL    HW1 5780   5.198   2.848   3.966
 1627SOL    HW2 5781   5.317   2.873   4.075
 1628SOL     OW 5782   5.205   5.829   6.546
 1628SOL    HW1 5783   5.285   5.835   6.486
 1628SOL    HW2 5784   5.235   5.813   6.640
 1629SOL     OW 5785   2.830   1.908   3.191
 1629SOL    HW1 5786   2.859   1.968   3.266
 1629SOL    HW2 5787   2.790   1.964   3.118
 1630SOL     OW 5788   0.162   4.098   6.568
 1630SOL    HW1 5789   0.224   4.176   6.562
 1630SOL    HW2 5790   0.091   4.117   6.636
 1631SOL     OW 5791   6.548   3.289   1.395
 1631SOL    HW1 5792   6.497   3.370   1.424
 1631SOL    HW2 5793   6.536   3.216   1.462
 1632SOL     OW 5794   5.073   4.368   2.882
 1632SOL    HW1 5795   5.173   4.370   2.893
 1632SOL    HW2 5796   5.048   4.419   2.800
 1633SOL     OW 5797   4.687   4.202   4.071
 1633SOL    HW1 5798   4.662   4.250   4.155
 1633SOL    HW2 5799   4.723   4.112   4.093
 1634SOL     OW 5800   4.069   0.468   4.382
 1634SOL    HW1 5801   4.049   0.515   4.468
 1634SOL    HW2 5802   4.055   0.370   4.393
 1635SOL     OW 5803   2.627   4.957   6.481
 1635SOL    HW1 5804   2.529   4.938   6.482
 1635SOL    HW2 5805   2.642   5.054   6.460
 1636SOL     OW 5806   3.829   6.200   0.878
 1636SOL    HW1 5807   3.871   6.288   0.858
 1636SOL    HW2 5808   3.877   6.128   0.829
 1637SOL     OW 5809   6.787   6.751   3.469
 1637SOL    HW1 5810   6.757   6.757   3.373
 1637SOL    HW2 5811   6.805   6.656   3.492
 1638SOL     OW 5812   0.343   2.833   1.290
 1638SOL    HW1 5813   0.323   2.928   1.267
 1638SOL    HW2 5814   0.340   2.777   1.208
 1639SOL     OW 5815   6.493   4.135   1.921
 1639SOL    HW1 5816   6.491   4.128   1.821
 1639SOL    HW2 5817   6.399   4.146   1.955
 1640SOL     OW 5818   6.452   6.874   1.075
 1640SOL    HW1 5819   6.452   6.970   1.047
 1640SOL    HW2 5820   6.545   6.838   1.071
 1641SOL     OW 5821   6.916   1.917   3.591
 1641SOL    HW1 5822   6.902   1.845   3.659
 1641SOL    HW2 5823   6.838   1.980   3.592
 1642SOL     OW 5824   6.747   2.497   6.768
 1642SOL    HW1 5825   6.738   2.410   6.817
 1642SOL    HW2 5826   6.728   2.482   6.670
 1643SOL     OW 5827   3.410   4.924   3.048
 1643SOL    HW1 5828   3.414   4.865   2.967
 1643SOL    HW2 5829   3.502   4.940   3.082
 1644SOL     OW 5830   5.884   2.731   0.320
 1644SOL    HW1 5831   5.852   2.667   0.250
 1644SOL    HW2 5832   5.829   2.814   0.317
 1645SOL     OW 5833   3.005   0.149   6.301
 1645SOL    HW1 5834   2.941   0.094   6.355
 1645SOL    HW2 5835   3.035   0.228   6.355
 1646SOL     OW 5836   1.905   6.422   6.598
 1646SOL    HW1 5837   1.892   6.520   6.589
 1646SOL    HW2 5838   1.878   6.376   6.514
 1647SOL     OW 5839   5.535   2.638   4.145
 1647SOL    HW1 5840   5.443   2.604   4.167
 1647SOL    HW2 5841   5.597   2.560   4.134
 1648SOL     OW 5842   5.664   6.458   6.875
 1648SOL    HW1 5843   5.719   6.400   6.936
 1648SOL    HW2 5844   5.590   6.403   6.835
 1649SOL     OW 5845   3.244   0.784   3.673
 1649SOL    HW1 5846   3.274   0.783   3.577
 1649SOL    HW2 5847   3.301   0.722   3.727
 1650SOL     OW 5848   1.513   5.322   6.152
 1650SOL    HW1 5849   1.543   5.324   6.247
 1650SOL    HW2 5850   1.469   5.234   6.132
 1651SOL     OW 5851   6.906   2.525   2.979
 1651SOL    HW1 5852   6.863   2.443   3.015
 1651SOL    HW2 5853   6.997   2.535   3.018
 1652SOL     OW 5854   0.908   3.092   1.479
 1652SOL    HW1 5855   1.000   3.053   1.481
 1652SOL    HW2 5856   0.877   3.101   1.384
 1653SOL     OW 5857   0.039   5.684   2.341
 1653SOL    HW1 5858   0.031   5.612   2.272
 1653SOL    HW2 5859   0.111   5.748   2.314
 1654SOL     OW 5860   0.503   3.269   1.328
 1654SOL    HW1 5861   0.438   3.202   1.363
 1654SOL    HW2 5862   0.595   3.247   1.361
 1655SOL     OW 5863   0.213   0.825   4.311
 1655SOL    HW1 5864   0.213   0.925   4.322
 1655SOL    HW2 5865   0.218   0.782   4.401
 1656SOL     OW 5866   2.718   5.555   3.760
 1656SOL    HW1 5867   2.629   5.511   3.773
 1656SOL    HW2 5868   2.787   5.508   3.814
 1657SOL     OW 5869   6.516   1.189   4.773
 1657SOL    HW1 5870   6.589   1.245   4.733
 1657SOL    HW2 5871   6.430   1.241   4.773
 1658SOL     OW 5872   6.748   0.142   0.356
 1658SOL    HW1 5873   6.754   0.056   0.305
 1658SOL    HW2 5874   6.784   0.129   0.448
 1659SOL     OW 5875   4.220   7.001   0.142
 1659SOL    HW1 5876   4.220   6.990   0.043
 1659SOL    HW2 5877   4.139   6.956   0.181
 1660SOL     OW 5878   1.727   6.938   2.231
 1660SOL    HW1 5879   1.794   7.003   2.197
 1660SOL    HW2 5880   1.637   6.981   2.235
 1661SOL     OW 5881   2.636   5.195   1.929
 1661SOL    HW1 5882   2.642   5.236   2.020
 1661SOL    HW2 5883   2.703   5.121   1.921
 1662SOL     OW 5884   6.805   1.028   5.535
 1662SOL    HW1 5885   6.792   1.100   5.467
 1662SOL    HW2 5886   6.716   0.992   5.562
 1663SOL     OW 5887   5.001   5.388   2.711
 1663SOL    HW1 5888   5.097   5.362   2.705
 1663SOL    HW2 5889   4.944   5.306   2.708
 1664SOL     OW 5890   1.464   0.605   5.160
 1664SOL    HW1 5891   1.484   0.683   5.220
 1664SOL    HW2 5892   1.434   0.528   5.215
 1665SOL     OW 5893   1.214   3.452   1.537
 1665SOL    HW1 5894   1.121   3.420   1.558
 1665SOL    HW2 5895   1.277   3.420   1.608
 1666SOL     OW 5896   5.733   6.672   6.752
 1666SOL    HW1 5897   5.702   6.594   6.805
 1666SOL    HW2 5898   5.809   6.645   6.693
 1667SOL     OW 5899   6.870   6.620   1.269
 1667SOL    HW1 5900   6.956   6.628   1.320
 1667SOL    HW2 5901   6.793   6.627   1.333
 1668SOL     OW 5902   5.019   4.939   3.746
 1668SOL    HW1 5903   5.072   5.009   3.698
 1668SOL    HW2 5904   4.922   4.954   3.730
 1669SOL     OW 5905   7.018   4.334   5.755
 1669SOL    HW1 5906   0.065   4.278   5.722
 1669SOL    HW2 5907   0.024   4.401   5.820
 1670SOL     OW 5908   1.252   4.793   5.816
 1670SOL    HW1 5909   1.221   4.704   5.782
 1670SOL    HW2 5910   1.345   4.810   5.785
 1671SOL     OW 5911   5.321   1.797   3.058
 1671SOL    HW1 5912   5.319   1.706   3.018
 1671SOL    HW2 5913   5.243   1.851   3.025
 1672SOL     OW 5914   1.087   4.000   6.809
 1672SOL    HW1 5915   1.112   3.994   6.906
 1672SOL    HW2 5916   1.002   3.951   6.794
 1673SOL     OW 5917   2.260   1.798   4.916
 1673SOL    HW1 5918   2.205   1.787   4.999
 1673SOL    HW2 5919   2.259   1.712   4.865
 1674SOL     OW 5920   6.014   2.652   2.436
 1674SOL    HW1 5921   5.993   2.748   2.454
 1674SOL    HW2 5922   5.930   2.598   2.439
 1675SOL     OW 5923   4.966   0.162   0.952
 1675SOL    HW1 5924   4.901   0.187   1.024
 1675SOL    HW2 5925   4.942   0.071   0.917
 1676SOL     OW 5926   1.945   2.384   2.425
 1676SOL    HW1 5927   1.923   2.478   2.449
 1676SOL    HW2 5928   2.021   2.351   2.481
 1677SOL     OW 5929   3.781   3.951   3.106
 1677SOL    HW1 5930   3.751   3.871   3.052
 1677SOL    HW2 5931   3.850   4.001   3.054
 1678SOL     OW 5932   0.666   6.030   1.363
 1678SOL    HW1 5933   0.734   6.103   1.370
 1678SOL    HW2 5934   0.639   6.019   1.268
 1679SOL     OW 5935   1.212   1.274   4.976
 1679SOL    HW1 5936   1.119   1.303   4.998
 1679SOL    HW2 5937   1.212   1.176   4.956
 1680SOL     OW 5938   5.533   3.255   4.998
 1680SOL    HW1 5939   5.451   3.201   5.021
 1680SOL    HW2 5940   5.615   3.202   5.019
 1681SOL     OW 5941   1.897   5.566   4.815
 1681SOL    HW1 5942   1.872   5.523   4.728
 1681SOL    HW2 5943   1.900   5.665   4.803
 1682SOL     OW 5944   2.393   0.436   5.974
 1682SOL    HW1 5945   2.425   0.449   6.068
 1682SOL    HW2 5946   2.364   0.341   5.962
 1683SOL     OW 5947   5.278   6.113   3.156
 1683SOL    HW1 5948   5.335   6.166   3.219
 1683SOL    HW2 5949   5.251   6.027   3.199
 1684SOL     OW 5950   0.950   4.631   1.588
 1684SOL    HW1 5951   0.978   4.577   1.668
 1684SOL    HW2 5952   0.885   4.579   1.534
 1685SOL     OW 5953   1.611   2.279   5.551
 1685SOL    HW1 5954   1.600   2.347   5.479
 1685SOL    HW2 5955   1.686   2.307   5.612
 1686SOL     OW 5956   3.817   5.613   3.630
 1686SOL    HW1 5957   3.787   5.532   3.680
 1686SOL    HW2 5958   3.899   5.591   3.577
 1687SOL     OW 5959   0.323   4.041   1.348
 1687SOL    HW1 5960   0.391   4.027   1.421
 1687SOL    HW2 5961   0.318   4.138   1.326
 1688SOL     OW 5962   1.716   2.592   3.732
 1688SOL    HW1 5963   1.624   2.593   3.694
 1688SOL    HW2 5964   1.759   2.681   3.718
 1689SOL     OW 5965   6.752   0.884   2.244
 1689SOL    HW1 5966   6.759   0.968   2.297
 1689SOL    HW2 5967   6.663   0.881   2.198
 1690SOL     OW 5968   1.202   3.132   4.194
 1690SOL    HW1 5969   1.269   3.202   4.217
 1690SOL    HW2 5970   1.215   3.103   4.099
 1691SOL     OW 5971   4.943   3.476   4.405
 1691SOL    HW1 5972   4.876   3.533   4.359
 1691SOL    HW2 5973   4.938   3.492   4.504
 1692SOL     OW 5974   5.824   5.296   1.331
 1692SOL    HW1 5975   5.784   5.361   1.397
 1692SOL    HW2 5976   5.913   5.331   1.300
 1693SOL     OW 5977   6.997   1.669   4.702
 1693SOL    HW1 5978   7.001   1.768   4.695
 1693SOL    HW2 5979   0.060   1.630   4.685
 1694SOL     OW 5980   6.184   1.087   4.579
 1694SOL    HW1 5981   6.149   1.157   4.641
 1694SOL    HW2 5982   6.186   0.999   4.626
 1695SOL     OW 5983   3.562   0.689   6.870
 1695SOL    HW1 5984   3.494   0.761   6.854
 1695SOL    HW2 5985   3.639   0.701   6.807
 1696SOL     OW 5986   4.117   5.666   0.845
 1696SOL    HW1 5987   4.039   5.603   0.840
 1696SOL    HW2 5988   4.100   5.733   0.917
 1697SOL     OW 5989   5.688   2.313   0.799
 1697SOL    HW1 5990   5.753   2.366   0.746
 1697SOL    HW2 5991   5.692   2.341   0.895
 1698SOL     OW 5992   3.608   0.547   1.614
 1698SOL    HW1 5993   3.650   0.538   1.704
 1698SOL    HW2 5994   3.571   0.640   1.604
 1699SOL     OW 5995   2.518   1.884   6.087
 1699SOL    HW1 5996   2.509   1.980   6.063
 1699SOL    HW2 5997   2.565   1.875   6.175
 1700SOL     OW 5998   5.734   3.274   3.707
 1700SOL    HW1 5999   5.829   3.305   3.695
 1700SOL    HW2 6000   5.707   3.219   3.628
 1701SOL     OW 6001   6.132   5.113   4.860
 1701SOL    HW1 6002   6.032   5.111   4.868
 1701SOL    HW2 6003   6.167   5.197   4.900
 1702SOL     OW 6004   1.585   0.999   6.233
 1702SOL    HW1 6005   1.593   0.904   6.202
 1702SOL    HW2 6006   1.631   1.009   6.321
 1703SOL     OW 6007   3.978   1.530   5.913
 1703SOL    HW1 6008   4.053   1.496   5.857
 1703SOL    HW2 6009   3.894   1.482   5.889
 1704SOL     OW 6010   1.118   1.811   6.818
 1704SOL    HW1 6011   1.173   1.731   6.841
 1704SOL    HW2 6012   1.158   1.857   6.739
 1705SOL     OW 6013   3.916   1.772   2.086
 1705SOL    HW1 6014   3.880   1.864   2.105
 1705SOL    HW2 6015   3.857   1.705   2.130
 1706SOL     OW 6016   4.059   1.777   0.930
 1706SOL    HW1 6017   4.028   1.817   1.017
 1706SOL    HW2 6018   4.159   1.778   0.927
 1707SOL     OW 6019   4.797   1.900   2.930
 1707SOL    HW1 6020   4.879   1.911   2.873
 1707SOL    HW2 6021   4.730   1.845   2.881
 1708SOL     OW 6022   3.916   5.557   1.956
 1708SOL    HW1 6023   3.851   5.551   2.032
 1708SOL    HW2 6024   3.890   5.632   1.896
 1709SOL     OW 6025   4.676   6.631   0.806
 1709SOL    HW1 6026   4.751   6.666   0.750
 1709SOL    HW2 6027   4.591   6.679   0.782
 1710SOL     OW 6028   4.288   4.903   3.341
 1710SOL    HW1 6029   4.365   4.962   3.367
 1710SOL    HW2 6030   4.203   4.944   3.371
 1711SOL     OW 6031   2.687   4.851   5.647
 1711SOL    HW1 6032   2.774   4.807   5.668
 1711SOL    HW2 6033   2.690   4.947   5.676
 1712SOL     OW 6034   0.352   2.611   4.896
 1712SOL    HW1 6035   0.296   2.544   4.847
 1712SOL    HW2 6036   0.448   2.582   4.895
 1713SOL     OW 6037   3.764   1.088   2.121
 1713SOL    HW1 6038   3.748   1.125   2.212
 1713SOL    HW2 6039   3.684   1.107   2.063
 1714SOL     OW 6040   2.744   1.999   7.019
 1714SOL    HW1 6041   2.688   1.921   6.992
 1714SOL    HW2 6042   2.834   1.991   6.976
 1715SOL     OW 6043   1.906   5.673   2.134
 1715SOL    HW1 6044   2.004   5.657   2.146
 1715SOL    HW2 6045   1.891   5.749   2.071
 1716SOL     OW 6046   4.872   0.033   4.066
 1716SOL    HW1 6047   4.895   0.016   4.161
 1716SOL    HW2 6048   4.907   0.123   4.039
 1717SOL     OW 6049   4.066   5.536   5.190
 1717SOL    HW1 6050   4.160   5.525   5.158
 1717SOL    HW2 6051   4.054   5.628   5.226
 1718SOL     OW 6052   2.616   2.110   2.538
 1718SOL    HW1 6053   2.630   2.206   2.514
 1718SOL    HW2 6054   2.617   2.055   2.454
 1719SOL     OW 6055   1.370   4.973   1.132
 1719SOL    HW1 6056   1.392   5.059   1.179
 1719SOL    HW2 6057   1.296   4.927   1.182
 1720SOL     OW 6058   0.251   3.159   5.879
 1720SOL    HW1 6059   0.350   3.172   5.870
 1720SOL    HW2 6060   0.218   3.208   5.959
 1721SOL     OW 6061   1.293   0.191   2.191
 1721SOL    HW1 6062   1.252   0.133   2.120
 1721SOL    HW2 6063   1.222   0.246   2.234
 1722SOL     OW 6064   3.109   1.795   3.049
 1722SOL    HW1 6065   3.095   1.858   2.973
 1722SOL    HW2 6066   3.037   1.809   3.117
 1723SOL     OW 6067   4.931   1.978   6.991
 1723SOL    HW1 6068   4.952   1.881   6.998
 1723SOL    HW2 6069   5.012   2.032   7.016
 1724SOL     OW 6070   6.179   2.162   1.622
 1724SOL    HW1 6071   6.119   2.087   1.650
 1724SOL    HW2 6072   6.174   2.236   1.688
 1725SOL     OW 6073   2.125   4.412   6.719
 1725SOL    HW1 6074   2.149   4.479   6.789
 1725SOL    HW2 6075   2.135   4.320   6.756
 1726SOL     OW 6076   5.644   3.970   3.851
 1726SOL    HW1 6077   5.623   3.873   3.834
 1726SOL    HW2 6078   5.740   3.987   3.828
 1727SOL     OW 6079   3.487   3.405   3.270
 1727SOL    HW1 6080   3.444   3.314   3.268
 1727SOL    HW2 6081   3.586   3.395   3.283
 1728SOL     OW 6082   4.486   4.270   5.632
 1728SOL    HW1 6083   4.471   4.292   5.536
 1728SOL    HW2 6084   4.402   4.231   5.671
 1729SOL     OW 6085   1.196   3.855   2.353
 1729SOL    HW1 6086   1.257   3.903   2.416
 1729SOL    HW2 6087   1.159   3.920   2.287
 1730SOL     OW 6088   2.921   6.359   5.295
 1730SOL    HW1 6089   2.996   6.334   5.356
 1730SOL    HW2 6090   2.836   6.367   5.348
 1731SOL     OW 6091   5.417   4.892   3.753
 1731SOL    HW1 6092   5.495   4.916   3.696
 1731SOL    HW2 6093   5.449   4.839   3.832
 1732SOL     OW 6094   2.131   4.385   6.234
 1732SOL    HW1 6095   2.223   4.347   6.220
 1732SOL    HW2 6096   2.094   4.350   6.320
 1733SOL     OW 6097   2.525   4.277   0.357
 1733SOL    HW1 6098   2.463   4.326   0.295
 1733SOL    HW2 6099   2.571   4.343   0.417
 1734SOL     OW 6100   6.235   3.005   1.309
 1734SOL    HW1 6101   6.177   3.064   1.365
 1734SOL    HW2 6102   6.180   2.957   1.242
 1735SOL     OW 6103   4.831   5.304   6.628
 1735SOL    HW1 6104   4.846   5.231   6.562
 1735SOL    HW2 6105   4.752   5.359   6.599
 1736SOL     OW 6106   4.330   3.781   1.474
 1736SOL    HW1 6107   4.392   3.775   1.396
 1736SOL    HW2 6108   4.383   3.788   1.558
 1737SOL     OW 6109   5.553   0.818   4.046
 1737SOL    HW1 6110   5.475   0.795   4.104
 1737SOL    HW2 6111   5.563   0.749   3.974
 1738SOL     OW 6112   2.144   3.633   4.456
 1738SOL    HW1 6113   2.049   3.602   4.453
 1738SOL    HW2 6114   2.196   3.574   4.518
 1739SOL     OW 6115   5.945   0.336   4.283
 1739SOL    HW1 6116   5.939   0.421   4.233
 1739SOL    HW2 6117   5.853   0.304   4.307
 1740SOL     OW 6118   0.131   1.858   4.861
 1740SOL    HW1 6119   0.158   1.942   4.909
 1740SOL    HW2 6120   0.081   1.882   4.778
 1741SOL     OW 6121   1.622   1.758   3.546
 1741SOL    HW1 6122   1.553   1.689   3.566
 1741SOL    HW2 6123   1.690   1.720   3.483
 1742SOL     OW 6124   5.856   0.520   6.250
 1742SOL    HW1 6125   5.877   0.615   6.225
 1742SOL    HW2 6126   5.937   0.463   6.237
 1743SOL     OW 6127   1.210   2.016   3.049
 1743SOL    HW1 6128   1.110   2.019   3.047
 1743SOL    HW2 6129   1.246   2.019   2.956
 1744SOL     OW 6130   4.963   2.308   3.498
 1744SOL    HW1 6131   4.901   2.352   3.432
 1744SOL    HW2 6132   4.960   2.209   3.485
 1745SOL     OW 6133   6.359   6.195   1.051
 1745SOL    HW1 6134   6.261   6.215   1.047
 1745SOL    HW2 6135   6.374   6.096   1.044
 1746SOL     OW 6136   2.134   3.774   3.778
 1746SOL    HW1 6137   2.084   3.688   3.773
 1746SOL    HW2 6138   2.139   3.815   3.687
 1747SOL     OW 6139   3.680   1.721   2.404
 1747SOL    HW1 6140   3.614   1.741   2.332
 1747SOL    HW2 6141   3.667   1.627   2.436
 1748SOL     OW 6142   6.585   1.637   4.270
 1748SOL    HW1 6143   6.616   1.682   4.186
 1748SOL    HW2 6144   6.662   1.588   4.311
 1749SOL     OW 6145   3.086   6.135   0.695
 1749SOL    HW1 6146   3.148   6.148   0.618
 1749SOL    HW2 6147   3.005   6.084   0.665
 1750SOL     OW 6148   3.904   0.762   4.915
 1750SOL    HW1 6149   3.879   0.748   5.011
 1750SOL    HW2 6150   3.979   0.828   4.909
 1751SOL     OW 6151   5.927   2.567   4.844
 1751SOL    HW1 6152   5.903   2.552   4.940
 1751SOL    HW2 6153   5.924   2.480   4.795
 1752SOL     OW 6154   6.494   1.205   1.174
 1752SOL    HW1 6155   6.587   1.171   1.159
 1752SOL    HW2 6156   6.498   1.295   1.218
 1753SOL     OW 6157   7.011   1.652   1.705
 1753SOL    HW1 6158   0.020   1.624   1.794
 1753SOL    HW2 6159   6.946   1.727   1.719
 1754SOL     OW 6160   3.012   6.030   5.981
 1754SOL    HW1 6161   3.103   5.995   6.002
 1754SOL    HW2 6162   2.964   6.050   6.066
 1755SOL     OW 6163   6.380   6.771   4.982
 1755SOL    HW1 6164   6.431   6.702   4.931
 1755SOL    HW2 6165   6.319   6.726   5.047
 1756SOL     OW 6166   5.025   0.152   6.196
 1756SOL    HW1 6167   5.009   0.250   6.203
 1756SOL    HW2 6168   4.941   0.106   6.167
 1757SOL     OW 6169   2.178   5.246   3.995
 1757SOL    HW1 6170   2.177   5.278   3.900
 1757SOL    HW2 6171   2.273   5.228   4.023
 1758SOL     OW 6172   1.945   6.617   5.141
 1758SOL    HW1 6173   1.931   6.551   5.067
 1758SOL    HW2 6174   2.042   6.643   5.145
 1759SOL     OW 6175   1.631   6.100   6.244
 1759SOL    HW1 6176   1.626   6.041   6.163
 1759SOL    HW2 6177   1.577   6.059   6.317
 1760SOL     OW 6178   6.066   0.962   4.909
 1760SOL    HW1 6179   6.013   0.910   4.842
 1760SOL    HW2 6180   6.011   1.039   4.942
 1761SOL     OW 6181   6.671   1.491   0.858
 1761SOL    HW1 6182   6.599   1.560   0.857
 1761SOL    HW2 6183   6.760   1.536   0.849
 1762SOL     OW 6184   0.646   1.256   4.995
 1762SOL    HW1 6185   0.626   1.168   5.040
 1762SOL    HW2 6186   0.590   1.328   5.036
 1763SOL     OW 6187   1.236   4.320   4.967
 1763SOL    HW1 6188   1.176   4.240   4.979
 1763SOL    HW2 6189   1.252   4.335   4.870
 1764SOL     OW 6190   1.311   3.905   2.005
 1764SOL    HW1 6191   1.345   3.840   1.937
 1764SOL    HW2 6192   1.218   3.931   1.983
 1765SOL     OW 6193   4.883   2.763   1.459
 1765SOL    HW1 6194   4.949   2.694   1.429
 1765SOL    HW2 6195   4.899   2.784   1.556
 1766SOL     OW 6196   4.512   4.449   3.902
 1766SOL    HW1 6197   4.485   4.508   3.826
 1766SOL    HW2 6198   4.547   4.362   3.866
 1767SOL     OW 6199   0.310   5.281   2.662
 1767SOL    HW1 6200   0.318   5.182   2.667
 1767SOL    HW2 6201   0.296   5.318   2.754
 1768SOL     OW 6202   4.379   6.359   1.319
 1768SOL    HW1 6203   4.309   6.361   1.390
 1768SOL    HW2 6204   4.453   6.422   1.343
 1769SOL     OW 6205   6.160   0.611   6.585
 1769SOL    HW1 6206   6.222   0.647   6.514
 1769SOL    HW2 6207   6.211   0.548   6.644
 1770SOL     OW 6208   1.299   4.651   5.443
 1770SOL    HW1 6209   1.280   4.731   5.385
 1770SOL    HW2 6210   1.230   4.581   5.427
 1771SOL     OW 6211   1.000   4.367   6.644
 1771SOL    HW1 6212   0.986   4.464   6.663
 1771SOL    HW2 6213   1.096   4.351   6.620
 1772SOL     OW 6214   3.717   5.441   3.867
 1772SOL    HW1 6215   3.639   5.497   3.837
 1772SOL    HW2 6216   3.769   5.490   3.936
 1773SOL     OW 6217   0.905   0.766   5.087
 1773SOL    HW1 6218   0.815   0.774   5.045
 1773SOL    HW2 6219   0.946   0.857   5.095
 1774SOL     OW 6220   5.869   6.675   2.037
 1774SOL    HW1 6221   5.774   6.705   2.043
 1774SOL    HW2 6222   5.930   6.752   2.057
 1775SOL     OW 6223   2.158   5.239   6.295
 1775SOL    HW1 6224   2.227   5.175   6.260
 1775SOL    HW2 6225   2.071   5.192   6.304
 1776SOL     OW 6226   5.220   1.102   5.695
 1776SOL    HW1 6227   5.221   1.160   5.613
 1776SOL    HW2 6228   5.309   1.107   5.741
 1777SOL     OW 6229   4.623   6.639   6.294
 1777SOL    HW1 6230   4.658   6.650   6.387
 1777SOL    HW2 6231   4.572   6.721   6.267
 1778SOL     OW 6232   5.488   1.421   4.147
 1778SOL    HW1 6233   5.454   1.514   4.132
 1778SOL    HW2 6234   5.540   1.391   4.067
 1779SOL     OW 6235   4.853   0.240   5.101
 1779SOL    HW1 6236   4.946   0.206   5.115
 1779SOL    HW2 6237   4.850   0.297   5.019
 1780SOL     OW 6238   1.446   5.470   4.723
 1780SOL    HW1 6239   1.546   5.476   4.719
 1780SOL    HW2 6240   1.418   5.423   4.806
 1781SOL     OW 6241   4.615   0.266   4.320
 1781SOL    HW1 6242   4.605   0.361   4.350
 1781SOL    HW2 6243   4.631   0.208   4.400
 1782SOL     OW 6244   1.619   1.667   2.874
 1782SOL    HW1 6245   1.618   1.734   2.948
 1782SOL    HW2 6246   1.610   1.575   2.913
 1783SOL     OW 6247   2.075   3.577   5.946
 1783SOL    HW1 6248   2.058   3.639   6.023
 1783SOL    HW2 6249   2.090   3.630   5.863
 1784SOL     OW 6250   2.502   0.714   1.281
 1784SOL    HW1 6251   2.500   0.627   1.330
 1784SOL    HW2 6252   2.474   0.700   1.186
 1785SOL     OW 6253   0.312   6.282   4.355
 1785SOL    HW1 6254   0.322   6.356   4.420
 1785SOL    HW2 6255   0.372   6.297   4.276
 1786SOL     OW 6256   1.831   5.562   0.786
 1786SOL    HW1 6257   1.836   5.489   0.855
 1786SOL    HW2 6258   1.776   5.637   0.822
 1787SOL     OW 6259   1.491   2.477   5.381
 1787SOL    HW1 6260   1.580   2.522   5.372
 1787SOL    HW2 6261   1.426   2.540   5.422
 1788SOL     OW 6262   4.317   3.863   0.498
 1788SOL    HW1 6263   4.361   3.940   0.545
 1788SOL    HW2 6264   4.315   3.881   0.400
 1789SOL     OW 6265   6.495   3.489   1.826
 1789SOL    HW1 6266   6.444   3.463   1.908
 1789SOL    HW2 6267   6.442   3.466   1.745
 1790SOL     OW 6268   2.922   1.774   4.480
 1790SOL    HW1 6269   2.997   1.743   4.539
 1790SOL    HW2 6270   2.868   1.842   4.529
 1791SOL     OW 6271   6.388   1.165   3.709
 1791SOL    HW1 6272   6.481   1.183   3.743
 1791SOL    HW2 6273   6.341   1.251   3.692
 1792SOL     OW 6274   0.143   2.300   5.387
 1792SOL    HW1 6275   0.196   2.279   5.304
 1792SOL    HW2 6276   0.070   2.364   5.365
 1793SOL     OW 6277   0.102   1.223   5.169
 1793SOL    HW1 6278   0.153   1.193   5.088
 1793SOL    HW2 6279   0.051   1.147   5.207
 1794SOL     OW 6280   6.566   0.326   6.333
 1794SOL    HW1 6281   6.627   0.308   6.410
 1794SOL    HW2 6282   6.511   0.408   6.353
 1795SOL     OW 6283   5.898   4.785   0.309
 1795SOL    HW1 6284   5.802   4.759   0.297
 1795SOL    HW2 6285   5.907   4.838   0.393
 1796SOL     OW 6286   1.640   0.141   5.418
 1796SOL    HW1 6287   1.717   0.082   5.394
 1796SOL    HW2 6288   1.672   0.235   5.429
 1797SOL     OW 6289   1.945   6.434   4.939
 1797SOL    HW1 6290   1.935   6.498   4.863
 1797SOL    HW2 6291   1.871   6.367   4.936
 1798SOL     OW 6292   3.733   3.240   4.511
 1798SOL    HW1 6293   3.701   3.146   4.497
 1798SOL    HW2 6294   3.683   3.281   4.587
 1799SOL     OW 6295   3.530   0.386   6.652
 1799SOL    HW1 6296   3.473   0.451   6.600
 1799SOL    HW2 6297   3.612   0.433   6.685
 1800SOL     OW 6298   5.301   4.284   4.102
 1800SOL    HW1 6299   5.205   4.263   4.083
 1800SOL    HW2 6300   5.316   4.382   4.094
 1801SOL     OW 6301   1.289   1.325   1.791
 1801SOL    HW1 6302   1.263   1.290   1.880
 1801SOL    HW2 6303   1.388   1.321   1.781
 1802SOL     OW 6304   6.402   4.402   3.732
 1802SOL    HW1 6305   6.370   4.350   3.812
 1802SOL    HW2 6306   6.499   4.425   3.745
 1803SOL     OW 6307   6.589   6.442   2.343
 1803SOL    HW1 6308   6.589   6.419   2.246
 1803SOL    HW2 6309   6.622   6.364   2.396
 1804SOL     OW 6310   3.186   3.694   6.253
 1804SOL    HW1 6311   3.256   3.731   6.192
 1804SOL    HW2 6312   3.137   3.620   6.207
 1805SOL     OW 6313   0.986   6.814   6.251
 1805SOL    HW1 6314   0.948   6.728   6.217
 1805SOL    HW2 6315   1.083   6.818   6.230
 1806SOL     OW 6316   6.515   2.413   2.327
 1806SOL    HW1 6317   6.499   2.428   2.425
 1806SOL    HW2 6318   6.459   2.477   2.274
 1807SOL     OW 6319   6.510   3.820   0.967
 1807SOL    HW1 6320   6.519   3.721   0.976
 1807SOL    HW2 6321   6.421   3.849   1.003
 1808SOL     OW 6322   4.917   2.702   5.456
 1808SOL    HW1 6323   5.004   2.734   5.492
 1808SOL    HW2 6324   4.866   2.779   5.416
 1809SOL     OW 6325   3.845   2.351   5.344
 1809SOL    HW1 6326   3.792   2.328   5.262
 1809SOL    HW2 6327   3.890   2.269   5.378
 1810SOL     OW 6328   0.228   0.172   3.880
 1810SOL    HW1 6329   0.298   0.193   3.812
 1810SOL    HW2 6330   0.171   0.253   3.896
 1811SOL     OW 6331   3.965   5.154   2.254
 1811SOL    HW1 6332   4.038   5.112   2.307
 1811SOL    HW2 6333   4.000   5.233   2.205
 1812SOL     OW 6334   4.106   0.044   6.171
 1812SOL    HW1 6335   4.084   0.137   6.199
 1812SOL    HW2 6336   4.191   0.045   6.117
 1813SOL     OW 6337   4.928   4.944   2.636
 1813SOL    HW1 6338   4.943   4.960   2.539
 1813SOL    HW2 6339   4.941   5.029   2.687
 1814SOL     OW 6340   0.363   6.879   0.599
 1814SOL    HW1 6341   0.279   6.905   0.550
 1814SOL    HW2 6342   0.436   6.944   0.577
 1815SOL     OW 6343   5.649   5.737   2.461
 1815SOL    HW1 6344   5.575   5.676   2.432
 1815SOL    HW2 6345   5.661   5.809   2.392
 1816SOL     OW 6346   4.281   5.987   5.748
 1816SOL    HW1 6347   4.373   5.985   5.787
 1816SOL    HW2 6348   4.241   6.078   5.760
 1817SOL     OW 6349   3.010   1.490   2.989
 1817SOL    HW1 6350   3.048   1.550   2.919
 1817SOL    HW2 6351   2.987   1.544   3.070
 1818SOL     OW 6352   1.827   6.533   6.977
 1818SOL    HW1 6353   1.843   6.436   6.959
 1818SOL    HW2 6354   1.874   6.588   6.908
 1819SOL     OW 6355   0.767   4.539   2.692
 1819SOL    HW1 6356   0.716   4.557   2.608
 1819SOL    HW2 6357   0.706   4.497   2.759
 1820SOL     OW 6358   3.760   0.134   3.402
 1820SOL    HW1 6359   3.724   0.212   3.453
 1820SOL    HW2 6360   3.826   0.084   3.458
 1821SOL     OW 6361   3.603   1.164   1.911
 1821SOL    HW1 6362   3.568   1.070   1.919
 1821SOL    HW2 6363   3.529   1.226   1.885
 1822SOL     OW 6364   0.838   3.172   2.121
 1822SOL    HW1 6365   0.793   3.084   2.104
 1822SOL    HW2 6366   0.821   3.201   2.215
 1823SOL     OW 6367   3.931   6.391   2.440
 1823SOL    HW1 6368   4.025   6.382   2.407
 1823SOL    HW2 6369   3.886   6.466   2.391
 1824SOL     OW 6370   4.032   4.449   1.406
 1824SOL    HW1 6371   3.975   4.394   1.467
 1824SOL    HW2 6372   4.066   4.391   1.332
 1825SOL     OW 6373   1.750   2.517   4.819
 1825SOL    HW1 6374   1.791   2.437   4.774
 1825SOL    HW2 6375   1.735   2.589   4.752
 1826SOL     OW 6376   3.518   2.031   1.600
 1826SOL    HW1 6377   3.591   2.080   1.648
 1826SOL    HW2 6378   3.434   2.085   1.604
 1827SOL     OW 6379   5.366   4.835   0.696
 1827SOL    HW1 6380   5.375   4.907   0.765
 1827SOL    HW2 6381   5.458   4.804   0.669
 1828SOL     OW 6382   1.388   3.527   5.997
 1828SOL    HW1 6383   1.308   3.524   6.056
 1828SOL    HW2 6384   1.382   3.608   5.938
 1829SOL     OW 6385   4.101   0.394   4.106
 1829SOL    HW1 6386   4.159   0.476   4.100
 1829SOL    HW2 6387   4.046   0.398   4.190
 1830SOL     OW 6388   6.129   6.983   4.602
 1830SOL    HW1 6389   6.201   0.014   4.566
 1830SOL    HW2 6390   6.057   0.013   4.643
 1831SOL     OW 6391   5.123   5.432   2.997
 1831SOL    HW1 6392   5.140   5.334   3.009
 1831SOL    HW2 6393   5.025   5.448   2.988
 1832SOL     OW 6394   2.156   3.975   0.590
 1832SOL    HW1 6395   2.238   4.023   0.558
 1832SOL    HW2 6396   2.083   4.041   0.608
 1833SOL     OW 6397   5.038   6.995   2.052
 1833SOL    HW1 6398   5.081   6.915   2.095
 1833SOL    HW2 6399   5.082   0.050   2.084
 1834SOL     OW 6400   2.848   2.287   0.099
 1834SOL    HW1 6401   2.749   2.283   0.087
 1834SOL    HW2 6402   2.871   2.269   0.194
 1835SOL     OW 6403   0.363   4.939   1.464
 1835SOL    HW1 6404   0.319   4.961   1.377
 1835SOL    HW2 6405   0.342   4.844   1.489
 1836SOL     OW 6406   5.598   1.678   2.247
 1836SOL    HW1 6407   5.616   1.703   2.151
 1836SOL    HW2 6408   5.679   1.634   2.285
 1837SOL     OW 6409   2.579   0.837   6.111
 1837SOL    HW1 6410   2.600   0.782   6.191
 1837SOL    HW2 6411   2.480   0.837   6.095
 1838SOL     OW 6412   6.069   0.740   0.519
 1838SOL    HW1 6413   6.063   0.645   0.551
 1838SOL    HW2 6414   6.156   0.754   0.471
 1839SOL     OW 6415   5.949   1.623   0.418
 1839SOL    HW1 6416   5.966   1.709   0.370
 1839SOL    HW2 6417   5.946   1.639   0.517
 1840SOL     OW 6418   3.694   0.448   3.222
 1840SOL    HW1 6419   3.792   0.446   3.240
 1840SOL    HW2 6420   3.647   0.390   3.288
 1841SOL     OW 6421   2.212   0.189   2.265
 1841SOL    HW1 6422   2.207   0.259   2.336
 1841SOL    HW2 6423   2.276   0.117   2.293
 1842SOL     OW 6424   1.776   4.661   0.560
 1842SOL    HW1 6425   1.790   4.741   0.500
 1842SOL    HW2 6426   1.717   4.687   0.637
 1843SOL     OW 6427   3.565   1.324   4.677
 1843SOL    HW1 6428   3.479   1.367   4.653
 1843SOL    HW2 6429   3.617   1.383   4.738
 1844SOL     OW 6430   5.147   1.181   6.224
 1844SOL    HW1 6431   5.144   1.175   6.324
 1844SOL    HW2 6432   5.064   1.141   6.185
 1845SOL     OW 6433   2.474   0.860   3.380
 1845SOL    HW1 6434   2.533   0.931   3.417
 1845SOL    HW2 6435   2.421   0.897   3.304
 1846SOL     OW 6436   4.443   1.034   3.202
 1846SOL    HW1 6437   4.449   1.008   3.298
 1846SOL    HW2 6438   4.534   1.062   3.170
 1847SOL     OW 6439   2.191   0.766   4.444
 1847SOL    HW1 6440   2.268   0.817   4.483
 1847SOL    HW2 6441   2.158   0.813   4.362
 1848SOL     OW 6442   1.980   5.875   4.394
 1848SOL    HW1 6443   2.029   5.956   4.364
 1848SOL    HW2 6444   2.025   5.835   4.473
 1849SOL     OW 6445   4.786   2.487   2.355
 1849SOL    HW1 6446   4.812   2.563   2.296
 1849SOL    HW2 6447   4.722   2.519   2.425
 1850SOL     OW 6448   5.199   2.255   2.327
 1850SOL    HW1 6449   5.132   2.311   2.376
 1850SOL    HW2 6450   5.178   2.255   2.229
 1851SOL     OW 6451   0.182   2.781   6.320
 1851SOL    HW1 6452   0.212   2.742   6.233
 1851SOL    HW2 6453   0.260   2.787   6.382
 1852SOL     OW 6454   1.445   4.100   2.164
 1852SOL    HW1 6455   1.411   4.194   2.167
 1852SOL    HW2 6456   1.375   4.040   2.125
 1853SOL     OW 6457   0.243   3.383   4.734
 1853SOL    HW1 6458   0.289   3.296   4.747
 1853SOL    HW2 6459   0.144   3.368   4.735
 1854SOL     OW 6460   0.771   5.845   3.152
 1854SOL    HW1 6461   0.674   5.822   3.139
 1854SOL    HW2 6462   0.826   5.762   3.149
 1855SOL     OW 6463   5.103   3.273   4.605
 1855SOL    HW1 6464   5.195   3.291   4.569
 1855SOL    HW2 6465   5.053   3.360   4.610
 1856SOL     OW 6466   3.769   3.546   0.234
 1856SOL    HW1 6467   3.782   3.454   0.270
 1856SOL    HW2 6468   3.749   3.609   0.310
 1857SOL     OW 6469   4.945   0.851   0.226
 1857SOL    HW1 6470   4.920   0.892   0.139
 1857SOL    HW2 6471   5.005   0.913   0.277
 1858SOL     OW 6472   4.443   2.064   4.242
 1858SOL    HW1 6473   4.369   2.001   4.266
 1858SOL    HW2 6474   4.528   2.012   4.231
 1859SOL     OW 6475   5.731   1.930   5.076
 1859SOL    HW1 6476   5.720   1.913   5.174
 1859SOL    HW2 6477   5.777   2.018   5.062
 1860SOL     OW 6478   0.843   1.851   4.882
 1860SOL    HW1 6479   0.799   1.934   4.916
 1860SOL    HW2 6480   0.810   1.772   4.934
 1861SOL     OW 6481   6.402   0.676   2.448
 1861SOL    HW1 6482   6.420   0.747   2.516
 1861SOL    HW2 6483   6.327   0.618   2.479
 1862SOL     OW 6484   2.159   6.533   6.937
 1862SOL    HW1 6485   2.114   6.461   6.990
 1862SOL    HW2 6486   2.093   6.604   6.915
 1863SOL     OW 6487   0.337   3.100   1.189
 1863SOL    HW1 6488   0.404   3.150   1.134
 1863SOL    HW2 6489   0.259   3.075   1.131
 1864SOL     OW 6490   2.796   5.822   4.058
 1864SOL    HW1 6491   2.770   5.815   3.962
 1864SOL    HW2 6492   2.882   5.873   4.066
 1865SOL     OW 6493   5.003   0.973   6.842
 1865SOL    HW1 6494   5.017   1.041   6.914
 1865SOL    HW2 6495   4.926   0.914   6.866
 1866SOL     OW 6496   0.809   4.235   4.122
 1866SOL    HW1 6497   0.874   4.177   4.172
 1866SOL    HW2 6498   0.811   4.327   4.162
 1867SOL     OW 6499   2.559   2.152   1.383
 1867SOL    HW1 6500   2.528   2.065   1.344
 1867SOL    HW2 6501   2.496   2.181   1.454
 1868SOL     OW 6502   5.564   4.327   5.430
 1868SOL    HW1 6503   5.491   4.328   5.498
 1868SOL    HW2 6504   5.533   4.279   5.348
 1869SOL     OW 6505   4.631   2.129   3.958
 1869SOL    HW1 6506   4.602   2.216   3.998
 1869SOL    HW2 6507   4.640   2.138   3.859
 1870SOL     OW 6508   1.286   4.594   4.292
 1870SOL    HW1 6509   1.261   4.690   4.295
 1870SOL    HW2 6510   1.369   4.579   4.345
 1871SOL     OW 6511   0.737   6.824   0.275
 1871SOL    HW1 6512   0.793   6.770   0.337
 1871SOL    HW2 6513   0.786   6.837   0.188
 1872SOL     OW 6514   3.310   1.760   0.404
 1872SOL    HW1 6515   3.218   1.796   0.418
 1872SOL    HW2 6516   3.320   1.674   0.453
 1873SOL     OW 6517   6.488   0.459   6.638
 1873SOL    HW1 6518   6.435   0.425   6.716
 1873SOL    HW2 6519   6.580   0.420   6.641
 1874SOL     OW 6520   1.016   6.456   6.450
 1874SOL    HW1 6521   1.027   6.359   6.469
 1874SOL    HW2 6522   0.963   6.469   6.366
 1875SOL     OW 6523   6.618   5.428   6.902
 1875SOL    HW1 6524   6.536   5.385   6.939
 1875SOL    HW2 6525   6.667   5.474   6.976
 1876SOL     OW 6526   5.479   6.381   6.112
 1876SOL    HW1 6527   5.415   6.430   6.053
 1876SOL    HW2 6528   5.471   6.415   6.205
 1877SOL     OW 6529   0.471   1.309   2.346
 1877SOL    HW1 6530   0.491   1.390   2.401
 1877SOL    HW2 6531   0.450   1.336   2.253
 1878SOL     OW 6532   0.546   4.059   3.417
 1878SOL    HW1 6533   0.634   4.106   3.425
 1878SOL    HW2 6534   0.497   4.067   3.504
 1879SOL     OW 6535   2.953   5.088   5.035
 1879SOL    HW1 6536   3.048   5.080   5.064
 1879SOL    HW2 6537   2.931   5.015   4.970
 1880SOL     OW 6538   0.052   2.521   3.199
 1880SOL    HW1 6539   0.050   2.421   3.206
 1880SOL    HW2 6540   0.086   2.560   3.285
 1881SOL     OW 6541   0.633   2.300   3.952
 1881SOL    HW1 6542   0.667   2.207   3.966
 1881SOL    HW2 6543   0.668   2.359   4.024
 1882SOL     OW 6544   1.043   5.911   0.328
 1882SOL    HW1 6545   1.022   5.967   0.408
 1882SOL    HW2 6546   0.960   5.864   0.297
 1883SOL     OW 6547   1.147   3.927   2.702
 1883SOL    HW1 6548   1.077   3.997   2.695
 1883SOL    HW2 6549   1.143   3.884   2.792
 1884SOL     OW 6550   3.297   1.005   0.319
 1884SOL    HW1 6551   3.351   0.971   0.396
 1884SOL    HW2 6552   3.224   0.940   0.299
 1885SOL     OW 6553   6.960   2.456   0.660
 1885SOL    HW1 6554   6.990   2.383   0.721
 1885SOL    HW2 6555   6.917   2.417   0.579
 1886SOL     OW 6556   1.985   1.772   6.481
 1886SOL    HW1 6557   2.085   1.776   6.482
 1886SOL    HW2 6558   1.955   1.682   6.512
 1887SOL     OW 6559   0.857   5.551   5.795
 1887SOL    HW1 6560   0.797   5.562   5.716
 1887SOL    HW2 6561   0.854   5.633   5.851
 1888SOL     OW 6562   1.916   1.724   5.695
 1888SOL    HW1 6563   1.872   1.813   5.686
 1888SOL    HW2 6564   2.010   1.737   5.726
 1889SOL     OW 6565   4.219   3.143   0.635
 1889SOL    HW1 6566   4.290   3.139   0.565
 1889SOL    HW2 6567   4.221   3.059   0.689
 1890SOL     OW 6568   1.201   5.783   6.148
 1890SOL    HW1 6569   1.155   5.831   6.074
 1890SOL    HW2 6570   1.300   5.787   6.134
 1891SOL     OW 6571   5.621   3.325   5.787
 1891SOL    HW1 6572   5.640   3.334   5.690
 1891SOL    HW2 6573   5.695   3.275   5.831
 1892SOL     OW 6574   3.793   5.735   1.051
 1892SOL    HW1 6575   3.885   5.758   1.083
 1892SOL    HW2 6576   3.758   5.657   1.103
 1893SOL     OW 6577   3.776   2.117   3.886
 1893SOL    HW1 6578   3.785   2.108   3.787
 1893SOL    HW2 6579   3.802   2.031   3.930
 1894SOL     OW 6580   4.466   3.991   1.658
 1894SOL    HW1 6581   4.375   3.959   1.631
 1894SOL    HW2 6582   4.456   4.067   1.723
 1895SOL     OW 6583   6.577   1.155   2.192
 1895SOL    HW1 6584   6.612   1.248   2.207
 1895SOL    HW2 6585   6.504   1.136   2.258
 1896SOL     OW 6586   6.115   1.751   4.494
 1896SOL    HW1 6587   6.208   1.714   4.499
 1896SOL    HW2 6588   6.051   1.677   4.472
 1897SOL     OW 6589   6.110   5.068   3.296
 1897SOL    HW1 6590   6.130   5.147   3.355
 1897SOL    HW2 6591   6.164   5.076   3.211
 1898SOL     OW 6592   5.721   5.871   1.034
 1898SOL    HW1 6593   5.780   5.809   1.086
 1898SOL    HW2 6594   5.626   5.841   1.043
 1899SOL     OW 6595   0.023   3.009   3.224
 1899SOL    HW1 6596   6.981   3.058   3.276
 1899SOL    HW2 6597   7.014   2.983   3.134
 1900SOL     OW 6598   1.630   6.380   6.232
 1900SOL    HW1 6599   1.559   6.383   6.302
 1900SOL    HW2 6600   1.657   6.285   6.215
 1901SOL     OW 6601   1.647   0.766   0.013
 1901SOL    HW1 6602   1.668   0.777   6.944
 1901SOL    HW2 6603   1.549   0.755   0.024
 1902SOL     OW 6604   0.788   3.395   4.152
 1902SOL    HW1 6605   0.825   3.304   4.175
 1902SOL    HW2 6606   0.734   3.389   4.068
 1903SOL     OW 6607   6.301   4.285   3.485
 1903SOL    HW1 6608   6.348   4.285   3.397
 1903SOL    HW2 6609   6.356   4.336   3.552
 1904SOL     OW 6610   0.460   6.947   4.333
 1904SOL    HW1 6611   0.377   6.961   4.280
 1904SOL    HW2 6612   0.506   0.007   4.347
 1905SOL     OW 6613   7.016   2.479   4.423
 1905SOL    HW1 6614   6.978   2.472   4.515
 1905SOL    HW2 6615   0.019   2.389   4.392
 1906SOL     OW 6616   2.334   0.141   5.917
 1906SOL    HW1 6617   2.307   0.186   5.831
 1906SOL    HW2 6618   2.427   0.107   5.908
 1907SOL     OW 6619   3.129   6.976   3.473
 1907SOL    HW1 6620   3.125   6.881   3.504
 1907SOL    HW2 6621   3.169   0.005   3.545
 1908SOL     OW 6622   4.538   0.763   5.913
 1908SOL    HW1 6623   4.636   0.743   5.919
 1908SOL    HW2 6624   4.499   0.769   6.005
 1909SOL     OW 6625   2.613   4.649   4.619
 1909SOL    HW1 6626   2.706   4.657   4.654
 1909SOL    HW2 6627   2.605   4.567   4.561
 1910SOL     OW 6628   5.282   2.348   6.928
 1910SOL    HW1 6629   5.222   2.428   6.926
 1910SOL    HW2 6630   5.339   2.352   7.011
 1911SOL     OW 6631   6.688   2.464   5.330
 1911SOL    HW1 6632   6.611   2.473   5.394
 1911SOL    HW2 6633   6.670   2.389   5.267
 1912SOL     OW 6634   3.258   6.413   2.223
 1912SOL    HW1 6635   3.218   6.501   2.247
 1912SOL    HW2 6636   3.337   6.395   2.282
 1913SOL     OW 6637   2.050   6.091   4.968
 1913SOL    HW1 6638   2.110   6.163   5.003
 1913SOL    HW2 6639   1.961   6.097   5.013
 1914SOL     OW 6640   2.537   2.522   6.141
 1914SOL    HW1 6641   2.442   2.539   6.168
 1914SOL    HW2 6642   2.582   2.465   6.210
 1915SOL     OW 6643   3.871   0.815   6.103
 1915SOL    HW1 6644   3.792   0.759   6.127
 1915SOL    HW2 6645   3.942   0.756   6.063
 1916SOL     OW 6646   4.043   5.820   1.125
 1916SOL    HW1 6647   4.058   5.916   1.101
 1916SOL    HW2 6648   4.120   5.788   1.181
 1917SOL     OW 6649   3.520   4.064   4.639
 1917SOL    HW1 6650   3.587   3.991   4.645
 1917SOL    HW2 6651   3.458   4.060   4.718
 1918SOL     OW 6652   5.903   6.416   5.802
 1918SOL    HW1 6653   5.850   6.420   5.887
 1918SOL    HW2 6654   5.997   6.392   5.823
 1919SOL     OW 6655   0.767   5.840   2.522
 1919SOL    HW1 6656   0.782   5.939   2.527
 1919SOL    HW2 6657   0.770   5.801   2.614
 1920SOL     OW 6658   0.581   4.797   3.849
 1920SOL    HW1 6659   0.574   4.884   3.898
 1920SOL    HW2 6660   0.490   4.756   3.841
 1921SOL     OW 6661   1.319   5.976   6.997
 1921SOL    HW1 6662   1.349   6.052   6.940
 1921SOL    HW2 6663   1.223   5.986   7.020
 1922SOL     OW 6664   4.209   3.317   1.394
 1922SOL    HW1 6665   4.185   3.413   1.381
 1922SOL    HW2 6666   4.133   3.259   1.365
 1923SOL     OW 6667   2.457   1.180   0.624
 1923SOL    HW1 6668   2.395   1.257   0.609
 1923SOL    HW2 6669   2.521   1.202   0.697
 1924SOL     OW 6670   6.444   4.631   2.157
 1924SOL    HW1 6671   6.442   4.721   2.200
 1924SOL    HW2 6672   6.444   4.560   2.228
 1925SOL     OW 6673   3.297   3.800   1.961
 1925SOL    HW1 6674   3.205   3.760   1.956
 1925SOL    HW2 6675   3.299   3.869   2.033
 1926SOL     OW 6676   1.529   0.640   4.735
 1926SOL    HW1 6677   1.515   0.556   4.682
 1926SOL    HW2 6678   1.444   0.663   4.783
 1927SOL     OW 6679   4.430   3.360   6.769
 1927SOL    HW1 6680   4.353   3.417   6.741
 1927SOL    HW2 6681   4.406   3.311   6.854
 1928SOL     OW 6682   6.701   3.701   5.993
 1928SOL    HW1 6683   6.651   3.786   5.975
 1928SOL    HW2 6684   6.797   3.723   6.013
 1929SOL     OW 6685   1.587   6.301   1.908
 1929SOL    HW1 6686   1.653   6.376   1.905
 1929SOL    HW2 6687   1.499   6.332   1.873
 1930SOL     OW 6688   6.651   4.279   6.450
 1930SOL    HW1 6689   6.714   4.353   6.426
 1930SOL    HW2 6690   6.558   4.305   6.422
 1931SOL     OW 6691   0.212   3.722   2.979
 1931SOL    HW1 6692   0.292   3.742   2.922
 1931SOL    HW2 6693   0.217   3.627   3.010
 1932SOL     OW 6694   4.839   3.792   2.327
 1932SOL    HW1 6695   4.863   3.879   2.284
 1932SOL    HW2 6696   4.801   3.730   2.258
 1933SOL     OW 6697   3.056   4.471   0.555
 1933SOL    HW1 6698   2.978   4.470   0.492
 1933SOL    HW2 6699   3.074   4.565   0.584
 1934SOL     OW 6700   1.215   0.153   5.816
 1934SOL    HW1 6701   1.159   0.136   5.896
 1934SOL    HW2 6702   1.173   0.111   5.735
 1935SOL     OW 6703   2.518   0.162   4.536
 1935SOL    HW1 6704   2.615   0.170   4.511
 1935SOL    HW2 6705   2.505   0.196   4.629
 1936SOL     OW 6706   5.428   5.683   4.339
 1936SOL    HW1 6707   5.393   5.663   4.431
 1936SOL    HW2 6708   5.453   5.598   4.293
 1937SOL     OW 6709   3.655   6.763   1.531
 1937SOL    HW1 6710   3.658   6.710   1.446
 1937SOL    HW2 6711   3.681   6.705   1.608
 1938SOL     OW 6712   3.692   1.371   3.606
 1938SOL    HW1 6713   3.634   1.322   3.542
 1938SOL    HW2 6714   3.640   1.446   3.648
 1939SOL     OW 6715   1.115   1.181   3.579
 1939SOL    HW1 6716   1.164   1.232   3.507
 1939SOL    HW2 6717   1.108   1.239   3.660
 1940SOL     OW 6718   5.426   5.444   6.973
 1940SOL    HW1 6719   5.394   5.355   6.941
 1940SOL    HW2 6720   5.519   5.460   6.939
 1941SOL     OW 6721   6.517   4.056   3.393
 1941SOL    HW1 6722   6.479   4.149   3.392
 1941SOL    HW2 6723   6.454   3.995   3.441
 1942SOL     OW 6724   5.964   5.613   2.100
 1942SOL    HW1 6725   5.886   5.637   2.043
 1942SOL    HW2 6726   6.023   5.548   2.051
 1943SOL     OW 6727   2.835   5.383   2.950
 1943SOL    HW1 6728   2.758   5.331   2.988
 1943SOL    HW2 6729   2.842   5.365   2.852
 1944SOL     OW 6730   5.558   1.775   6.320
 1944SOL    HW1 6731   5.490   1.786   6.393
 1944SOL    HW2 6732   5.525   1.821   6.237
 1945SOL     OW 6733   4.861   5.549   2.863
 1945SOL    HW1 6734   4.910   5.482   2.808
 1945SOL    HW2 6735   4.880   5.641   2.828
 1946SOL     OW 6736   1.511   0.274   1.014
 1946SOL    HW1 6737   1.571   0.291   0.936
 1946SOL    HW2 6738   1.471   0.360   1.045
 1947SOL     OW 6739   5.412   6.534   4.987
 1947SOL    HW1 6740   5.364   6.541   4.900
 1947SOL    HW2 6741   5.379   6.604   5.050
 1948SOL     OW 6742   0.207   5.237   4.635
 1948SOL    HW1 6743   0.108   5.251   4.629
 1948SOL    HW2 6744   0.227   5.173   4.710
 1949SOL     OW 6745   4.080   4.021   6.139
 1949SOL    HW1 6746   4.167   4.027   6.089
 1949SOL    HW2 6747   4.013   4.083   6.098
 1950SOL     OW 6748   3.763   3.509   6.862
 1950SOL    HW1 6749   3.839   3.505   6.798
 1950SOL    HW2 6750   3.794   3.549   6.949
 1951SOL     OW 6751   5.890   2.407   0.410
 1951SOL    HW1 6752   5.860   2.324   0.362
 1951SOL    HW2 6753   5.981   2.433   0.378
 1952SOL     OW 6754   3.230   2.251   0.668
 1952SOL    HW1 6755   3.235   2.256   0.768
 1952SOL    HW2 6756   3.307   2.301   0.628
 1953SOL     OW 6757   6.802   2.246   6.855
 1953SOL    HW1 6758   6.881   2.211   6.803
 1953SOL    HW2 6759   6.827   2.255   6.951
 1954SOL     OW 6760   5.472   1.690   4.032
 1954SOL    HW1 6761   5.543   1.710   4.100
 1954SOL    HW2 6762   5.506   1.715   3.941
 1955SOL     OW 6763   1.441   0.188   1.864
 1955SOL    HW1 6764   1.520   0.234   1.904
 1955SOL    HW2 6765   1.456   0.174   1.766
 1956SOL     OW 6766   5.253   6.306   2.750
 1956SOL    HW1 6767   5.252   6.232   2.818
 1956SOL    HW2 6768   5.163   6.347   2.744
 1957SOL     OW 6769   6.829   5.803   5.309
 1957SOL    HW1 6770   6.798   5.709   5.324
 1957SOL    HW2 6771   6.900   5.804   5.238
 1958SOL     OW 6772   5.730   3.638   4.463
 1958SOL    HW1 6773   5.661   3.654   4.393
 1958SOL    HW2 6774   5.760   3.543   4.458
 1959SOL     OW 6775   0.593   2.603   5.537
 1959SOL    HW1 6776   0.510   2.547   5.529
 1959SOL    HW2 6777   0.649   2.592   5.455
 1960SOL     OW 6778   6.729   4.712   0.959
 1960SOL    HW1 6779   6.639   4.713   1.002
 1960SOL    HW2 6780   6.798   4.745   1.024
 1961SOL     OW 6781   5.603   4.781   4.535
 1961SOL    HW1 6782   5.503   4.779   4.545
 1961SOL    HW2 6783   5.644   4.716   4.598
 1962SOL     OW 6784   1.456   6.202   3.989
 1962SOL    HW1 6785   1.383   6.245   4.042
 1962SOL    HW2 6786   1.458   6.104   4.010
 1963SOL     OW 6787   0.783   0.726   1.703
 1963SOL    HW1 6788   0.789   0.641   1.650
 1963SOL    HW2 6789   0.865   0.781   1.687
 1964SOL     OW 6790   4.652   2.633   1.393
 1964SOL    HW1 6791   4.572   2.622   1.452
 1964SOL    HW2 6792   4.708   2.709   1.426
 1965SOL     OW 6793   0.515   2.798   2.774
 1965SOL    HW1 6794   0.484   2.703   2.774
 1965SOL    HW2 6795   0.584   2.811   2.845
 1966SOL     OW 6796   0.649   5.154   4.792
 1966SOL    HW1 6797   0.652   5.253   4.776
 1966SOL    HW2 6798   0.565   5.117   4.752
 1967SOL     OW 6799   4.569   2.322   5.813
 1967SOL    HW1 6800   4.485   2.365   5.846
 1967SOL    HW2 6801   4.600   2.254   5.880
 1968SOL     OW 6802   2.984   6.062   6.726
 1968SOL    HW1 6803   3.006   6.055   6.823
 1968SOL    HW2 6804   2.921   6.138   6.712
 1969SOL     OW 6805   6.424   2.030   1.541
 1969SOL    HW1 6806   6.430   2.048   1.443
 1969SOL    HW2 6807   6.337   2.065   1.576
 1970SOL     OW 6808   2.353   0.666   5.816
 1970SOL    HW1 6809   2.338   0.576   5.858
 1970SOL    HW2 6810   2.331   0.737   5.882
 1971SOL     OW 6811   0.180   6.807   6.571
 1971SOL    HW1 6812   0.175   6.907   6.564
 1971SOL    HW2 6813   0.257   6.782   6.629
 1972SOL     OW 6814   0.442   3.332   2.924
 1972SOL    HW1 6815   0.387   3.259   2.966
 1972SOL    HW2 6816   0.424   3.418   2.972
 1973SOL     OW 6817   3.573   2.776   1.880
 1973SOL    HW1 6818   3.484   2.793   1.921
 1973SOL    HW2 6819   3.645   2.811   1.940
 1974SOL     OW 6820   6.280   6.090   3.796
 1974SOL    HW1 6821   6.270   6.175   3.848
 1974SOL    HW2 6822   6.336   6.025   3.847
 1975SOL     OW 6823   2.361   0.807   3.711
 1975SOL    HW1 6824   2.300   0.729   3.725
 1975SOL    HW2 6825   2.315   0.876   3.656
 1976SOL     OW 6826   0.429   6.056   0.385
 1976SOL    HW1 6827   0.453   5.992   0.459
 1976SOL    HW2 6828   0.370   6.128   0.422
 1977SOL     OW 6829   0.917   3.115   3.618
 1977SOL    HW1 6830   0.926   3.064   3.703
 1977SOL    HW2 6831   0.823   3.110   3.586
 1978SOL     OW 6832   1.355   1.658   4.263
 1978SOL    HW1 6833   1.282   1.644   4.330
 1978SOL    HW2 6834   1.432   1.599   4.286
 1979SOL     OW 6835   0.068   4.546   5.045
 1979SOL    HW1 6836   0.072   4.476   5.117
 1979SOL    HW2 6837   7.005   4.544   5.003
 1980SOL     OW 6838   3.413   7.012   0.481
 1980SOL    HW1 6839   3.379   6.928   0.523
 1980SOL    HW2 6840   3.496   6.992   0.429
 1981SOL     OW 6841   5.481   2.276   2.265
 1981SOL    HW1 6842   5.536   2.193   2.251
 1981SOL    HW2 6843   5.394   2.251   2.307
 1982SOL     OW 6844   6.200   4.930   5.216
 1982SOL    HW1 6845   6.192   5.020   5.174
 1982SOL    HW2 6846   6.296   4.900   5.213
 1983SOL     OW 6847   0.876   2.735   3.181
 1983SOL    HW1 6848   0.849   2.672   3.253
 1983SOL    HW2 6849   0.958   2.786   3.210
 1984SOL     OW 6850   4.797   1.758   6.089
 1984SOL    HW1 6851   4.845   1.802   6.013
 1984SOL    HW2 6852   4.843   1.672   6.112
 1985SOL     OW 6853   1.148   1.261   2.282
 1985SOL    HW1 6854   1.077   1.284   2.215
 1985SOL    HW2 6855   1.144   1.326   2.358
 1986SOL     OW 6856   1.475   1.535   6.999
 1986SOL    HW1 6857   1.563   1.488   7.002
 1986SOL    HW2 6858   1.480   1.620   0.024
 1987SOL     OW 6859   2.946   2.834   1.645
 1987SOL    HW1 6860   2.982   2.742   1.664
 1987SOL    HW2 6861   2.952   2.889   1.729
 1988SOL     OW 6862   4.872   4.428   0.431
 1988SOL    HW1 6863   4.910   4.445   0.340
 1988SOL    HW2 6864   4.922   4.482   0.499
 1989SOL     OW 6865   2.145   0.634   4.758
 1989SOL    HW1 6866   2.093   0.716   4.734
 1989SOL    HW2 6867   2.239   0.644   4.724
 1990SOL     OW 6868   3.152   0.596   1.926
 1990SOL    HW1 6869   3.237   0.596   1.875
 1990SOL    HW2 6870   3.164   0.548   2.013
 1991SOL     OW 6871   3.435   5.452   5.469
 1991SOL    HW1 6872   3.433   5.519   5.543
 1991SOL    HW2 6873   3.356   5.467   5.409
 1992SOL     OW 6874   3.072   0.023   5.857
 1992SOL    HW1 6875   3.170   0.016   5.842
 1992SOL    HW2 6876   3.048   7.014   5.947
 1993SOL     OW 6877   3.766   3.580   5.661
 1993SOL    HW1 6878   3.704   3.502   5.659
 1993SOL    HW2 6879   3.756   3.633   5.577
 1994SOL     OW 6880   0.887   2.228   2.163
 1994SOL    HW1 6881   0.927   2.246   2.252
 1994SOL    HW2 6882   0.926   2.144   2.124
 1995SOL     OW 6883   6.546   2.133   2.374
 1995SOL    HW1 6884   6.604   2.117   2.295
 1995SOL    HW2 6885   6.544   2.231   2.395
 1996SOL     OW 6886   3.120   2.801   1.147
 1996SOL    HW1 6887   3.121   2.893   1.185
 1996SOL    HW2 6888   3.145   2.735   1.219
 1997SOL     OW 6889   5.245   0.825   5.577
 1997SOL    HW1 6890   5.254   0.925   5.574
 1997SOL    HW2 6891   5.311   0.789   5.644
 1998SOL     OW 6892   3.048   3.948   6.226
 1998SOL    HW1 6893   3.101   3.875   6.269
 1998SOL    HW2 6894   2.974   3.909   6.172
 1999SOL     OW 6895   2.524   0.377   1.930
 1999SOL    HW1 6896   2.475   0.311   1.873
 1999SOL    HW2 6897   2.561   0.450   1.871
 2000SOL     OW 6898   4.042   1.844   4.949
 2000SOL    HW1 6899   4.085   1.761   4.983
 2000SOL    HW2 6900   3.947   1.825   4.925
 2001SOL     OW 6901   3.406   2.308   1.766
 2001SOL    HW1 6902   3.499   2.327   1.796
 2001SOL    HW2 6903   3.385   2.363   1.685
 2002SOL     OW 6904   1.440   6.006   6.425
 2002SOL    HW1 6905   1.342   6.000   6.445
 2002SOL    HW2 6906   1.487   5.927   6.464
 2003SOL     OW 6907   4.512   0.220   3.822
 2003SOL    HW1 6908   4.575   0.169   3.881
 2003SOL    HW2 6909   4.492   0.167   3.740
 2004SOL     OW 6910   5.070   1.015   4.776
 2004SOL    HW1 6911   5.074   0.916   4.792
 2004SOL    HW2 6912   5.157   1.057   4.804
 2005SOL     OW 6913   1.726   5.875   6.909
 2005SOL    HW1 6914   1.739   5.897   7.005
 2005SOL    HW2 6915   1.801   5.815   6.878
 2006SOL     OW 6916   5.147   4.444   3.790
 2006SOL    HW1 6917   5.050   4.420   3.800
 2006SOL    HW2 6918   5.164   4.532   3.835
 2007SOL     OW 6919   4.724   5.736   0.538
 2007SOL    HW1 6920   4.810   5.696   0.569
 2007SOL    HW2 6921   4.687   5.795   0.610
 2008SOL     OW 6922   0.349   5.808   3.865
 2008SOL    HW1 6923   0.322   5.736   3.929
 2008SOL    HW2 6924   0.295   5.801   3.782
 2009SOL     OW 6925   6.376   0.336   1.749
 2009SOL    HW1 6926   6.383   0.320   1.651
 2009SOL    HW2 6927   6.423   0.421   1.773
 2010SOL     OW 6928   1.863   1.146   0.922
 2010SOL    HW1 6929   1.909   1.058   0.909
 2010SOL    HW2 6930   1.766   1.130   0.938
 2011SOL     OW 6931   6.590   2.437   4.995
 2011SOL    HW1 6932   6.629   2.526   5.019
 2011SOL    HW2 6933   6.641   2.365   5.042
 2012SOL     OW 6934   0.369   3.471   1.190
 2012SOL    HW1 6935   0.406   3.479   1.098
 2012SOL    HW2 6936   0.400   3.386   1.232
 2013SOL     OW 6937   5.511   1.358   3.127
 2013SOL    HW1 6938   5.427   1.386   3.080
 2013SOL    HW2 6939   5.589   1.407   3.089
 2014SOL     OW 6940   1.176   5.400   3.483
 2014SOL    HW1 6941   1.196   5.354   3.570
 2014SOL    HW2 6942   1.257   5.450   3.452
 2015SOL     OW 6943   3.224   1.350   6.787
 2015SOL    HW1 6944   3.210   1.260   6.745
 2015SOL    HW2 6945   3.141   1.405   6.774
 2016SOL     OW 6946   0.192   5.703   4.751
 2016SOL    HW1 6947   0.097   5.685   4.775
 2016SOL    HW2 6948   0.251   5.676   4.828
 2017SOL     OW 6949   3.591   6.880   3.447
 2017SOL    HW1 6950   3.637   6.847   3.365
 2017SOL    HW2 6951   3.652   6.942   3.497
 2018SOL     OW 6952   6.835   5.840   5.696
 2018SOL    HW1 6953   6.881   5.899   5.630
 2018SOL    HW2 6954   6.796   5.761   5.649
 2019SOL     OW 6955   5.153   2.868   1.848
 2019SOL    HW1 6956   5.079   2.930   1.876
 2019SOL    HW2 6957   5.178   2.810   1.925
 2020SOL     OW 6958   1.321   5.374   4.952
 2020SOL    HW1 6959   1.392   5.362   5.022
 2020SOL    HW2 6960   1.270   5.289   4.942
 2021SOL     OW 6961   2.181   0.022   2.952
 2021SOL    HW1 6962   2.231   7.011   2.875
 2021SOL    HW2 6963   2.213   0.116   2.968
 2022SOL     OW 6964   1.793   3.687   1.872
 2022SOL    HW1 6965   1.891   3.709   1.873
 2022SOL    HW2 6966   1.750   3.733   1.795
 2023SOL     OW 6967   0.254   1.903   0.080
 2023SOL    HW1 6968   0.220   1.991   0.112
 2023SOL    HW2 6969   0.288   1.913   7.014
 2024SOL     OW 6970   6.987   0.828   2.664
 2024SOL    HW1 6971   6.898   0.814   2.708
 2024SOL    HW2 6972   6.974   0.834   2.565
 2025SOL     OW 6973   1.683   2.442   1.930
 2025SOL    HW1 6974   1.692   2.458   2.028
 2025SOL    HW2 6975   1.737   2.363   1.904
 2026SOL     OW 6976   1.750   2.192   6.119
 2026SOL    HW1 6977   1.828   2.134   6.142
 2026SOL    HW2 6978   1.665   2.140   6.128
 2027SOL     OW 6979   0.976   1.164   1.100
 2027SOL    HW1 6980   1.021   1.220   1.031
 2027SOL    HW2 6981   1.020   1.074   1.104
 2028SOL     OW 6982   3.532   1.505   0.291
 2028SOL    HW1 6983   3.556   1.552   0.376
 2028SOL    HW2 6984   3.576   1.550   0.214
 2029SOL     OW 6985   0.688   0.395   6.845
 2029SOL    HW1 6986   0.709   0.316   6.903
 2029SOL    HW2 6987   0.610   0.373   6.787
 2030SOL     OW 6988   1.816   2.291   3.425
 2030SOL    HW1 6989   1.792   2.204   3.467
 2030SOL    HW2 6990   1.915   2.305   3.430
 2031SOL     OW 6991   5.549   6.228   2.202
 2031SOL    HW1 6992   5.569   6.297   2.132
 2031SOL    HW2 6993   5.620   6.232   2.273
 2032SOL     OW 6994   5.653   6.220   1.261
 2032SOL    HW1 6995   5.587   6.166   1.209
 2032SOL    HW2 6996   5.607   6.299   1.301
 2033SOL     OW 6997   4.123   4.303   6.705
 2033SOL    HW1 6998   4.175   4.388   6.692
 2033SOL    HW2 6999   4.032   4.314   6.667
 2034SOL     OW 7000   1.817   6.586   3.685
 2034SOL    HW1 7001   1.900   6.582   3.741
 2034SOL    HW2 7002   1.841   6.573   3.588
 2035SOL     OW 7003   6.808   1.766   2.732
 2035SOL    HW1 7004   6.795   1.673   2.767
 2035SOL    HW2 7005   6.826   1.763   2.634
 2036SOL     OW 7006   0.230   6.022   1.882
 2036SOL    HW1 7007   0.255   6.070   1.798
 2036SOL    HW2 7008   0.214   6.088   1.956
 2037SOL     OW 7009   6.516   2.263   5.804
 2037SOL    HW1 7010   6.546   2.278   5.710
 2037SOL    HW2 7011   6.555   2.333   5.864
 2038SOL     OW 7012   0.450   2.062   6.897
 2038SOL    HW1 7013   0.547   2.050   6.874
 2038SOL    HW2 7014   0.397   1.990   6.852
 2039SOL     OW 7015   0.326   5.808   3.321
 2039SOL    HW1 7016   0.284   5.773   3.237
 2039SOL    HW2 7017   0.397   5.745   3.352
 2040SOL     OW 7018   3.402   2.832   5.113
 2040SOL    HW1 7019   3.320   2.850   5.166
 2040SOL    HW2 7020   3.392   2.747   5.062
 2041SOL     OW 7021   6.390   5.678   6.397
 2041SOL    HW1 7022   6.430   5.587   6.393
 2041SOL    HW2 7023   6.459   5.744   6.427
 2042SOL     OW 7024   5.712   5.171   6.741
 2042SOL    HW1 7025   5.714   5.267   6.769
 2042SOL    HW2 7026   5.617   5.140   6.732
 2043SOL     OW 7027   6.472   5.331   2.215
 2043SOL    HW1 7028   6.488   5.259   2.282
 2043SOL    HW2 7029   6.384   5.376   2.235
 2044SOL     OW 7030   4.911   0.328   2.175
 2044SOL    HW1 7031   4.840   0.380   2.221
 2044SOL    HW2 7032   4.920   0.358   2.080
 2045SOL     OW 7033   1.703   4.620   4.962
 2045SOL    HW1 7034   1.630   4.552   4.968
 2045SOL    HW2 7035   1.761   4.600   4.883
 2046SOL     OW 7036   0.085   0.733   4.106
 2046SOL    HW1 7037   0.052   0.639   4.120
 2046SOL    HW2 7038   0.147   0.758   4.180
 2047SOL     OW 7039   4.292   1.901   0.485
 2047SOL    HW1 7040   4.307   1.932   0.579
 2047SOL    HW2 7041   4.280   1.980   0.425
 2048SOL     OW 7042   3.971   6.160   6.918
 2048SOL    HW1 7043   4.001   6.182   6.825
 2048SOL    HW2 7044   3.877   6.190   6.931
 2049SOL     OW 7045   4.591   1.978   6.605
 2049SOL    HW1 7046   4.523   2.001   6.536
 2049SOL    HW2 7047   4.639   2.061   6.634
 2050SOL     OW 7048   5.905   2.806   3.783
 2050SOL    HW1 7049   5.913   2.891   3.835
 2050SOL    HW2 7050   5.993   2.782   3.742
 2051SOL     OW 7051   6.694   4.925   6.741
 2051SOL    HW1 7052   6.647   4.861   6.681
 2051SOL    HW2 7053   6.792   4.922   6.722
 2052SOL     OW 7054   0.261   3.256   6.924
 2052SOL    HW1 7055   0.163   3.234   6.917
 2052SOL    HW2 7056   0.286   3.266   7.020
 2053SOL     OW 7057   6.092   0.693   0.916
 2053SOL    HW1 7058   6.157   0.730   0.849
 2053SOL    HW2 7059   6.116   0.727   1.007
 2054SOL     OW 7060   5.514   2.883   1.578
 2054SOL    HW1 7061   5.445   2.955   1.568
 2054SOL    HW2 7062   5.495   2.809   1.513
 2055SOL     OW 7063   5.819   3.371   2.803
 2055SOL    HW1 7064   5.764   3.306   2.856
 2055SOL    HW2 7065   5.916   3.346   2.811
 2056SOL     OW 7066   2.058   1.570   2.350
 2056SOL    HW1 7067   2.134   1.631   2.329
 2056SOL    HW2 7068   1.972   1.614   2.324
 2057SOL     OW 7069   5.556   2.349   4.024
 2057SOL    HW1 7070   5.505   2.375   3.942
 2057SOL    HW2 7071   5.616   2.271   4.002
 2058SOL     OW 7072   0.914   1.838   3.179
 2058SOL    HW1 7073   0.953   1.748   3.160
 2058SOL    HW2 7074   0.824   1.845   3.135
 2059SOL     OW 7075   2.401   6.373   6.304
 2059SOL    HW1 7076   2.326   6.372   6.238
 2059SOL    HW2 7077   2.456   6.456   6.291
 2060SOL     OW 7078   6.740   4.435   1.051
 2060SOL    HW1 7079   6.718   4.387   1.136
 2060SOL    HW2 7080   6.693   4.524   1.051
 2061SOL     OW 7081   0.705   1.956   2.810
 2061SOL    HW1 7082   0.750   1.869   2.828
 2061SOL    HW2 7083   0.668   1.993   2.896
 2062SOL     OW 7084   5.200   0.539   3.053
 2062SOL    HW1 7085   5.296   0.555   3.031
 2062SOL    HW2 7086   5.143   0.562   2.974
 2063SOL     OW 7087   0.776   1.085   6.619
 2063SOL    HW1 7088   0.765   1.064   6.521
 2063SOL    HW2 7089   0.873   1.095   6.640
 2064SOL     OW 7090   0.661   1.849   5.383
 2064SOL    HW1 7091   0.626   1.775   5.441
 2064SOL    HW2 7092   0.737   1.815   5.328
 2065SOL     OW 7093   6.087   3.881   2.206
 2065SOL    HW1 7094   6.054   3.805   2.263
 2065SOL    HW2 7095   6.134   3.947   2.264
 2066SOL     OW 7096   0.906   6.109   4.400
 2066SOL    HW1 7097   0.964   6.075   4.475
 2066SOL    HW2 7098   0.916   6.048   4.321
 2067SOL     OW 7099   0.344   6.705   1.045
 2067SOL    HW1 7100   0.274   6.655   0.994
 2067SOL    HW2 7101   0.414   6.738   0.981
 2068SOL     OW 7102   1.234   1.289   5.576
 2068SOL    HW1 7103   1.321   1.275   5.623
 2068SOL    HW2 7104   1.243   1.365   5.511
 2069SOL     OW 7105   0.681   2.741   3.498
 2069SOL    HW1 7106   0.716   2.659   3.544
 2069SOL    HW2 7107   0.581   2.740   3.499
 2070SOL     OW 7108   1.793   6.735   2.416
 2070SOL    HW1 7109   1.879   6.685   2.416
 2070SOL    HW2 7110   1.792   6.800   2.341
 2071SOL     OW 7111   6.981   6.324   4.709
 2071SOL    HW1 7112   0.017   6.399   4.696
 2071SOL    HW2 7113   6.919   6.346   4.785
 2072SOL     OW 7114   4.346   6.354   1.741
 2072SOL    HW1 7115   4.371   6.443   1.778
 2072SOL    HW2 7116   4.428   6.301   1.721
 2073SOL     OW 7117   3.688   6.780   4.644
 2073SOL    HW1 7118   3.597   6.756   4.611
 2073SOL    HW2 7119   3.686   6.872   4.683
 2074SOL     OW 7120   0.739   2.711   6.627
 2074SOL    HW1 7121   0.759   2.671   6.537
 2074SOL    HW2 7122   0.814   2.772   6.653
 2075SOL     OW 7123   4.955   2.451   1.128
 2075SOL    HW1 7124   4.921   2.416   1.215
 2075SOL    HW2 7125   4.924   2.545   1.115
 2076SOL     OW 7126   5.172   6.040   6.814
 2076SOL    HW1 7127   5.271   6.041   6.833
 2076SOL    HW2 7128   5.142   6.132   6.788
 2077SOL     OW 7129   4.751   2.727   1.947
 2077SOL    HW1 7130   4.684   2.660   1.980
 2077SOL    HW2 7131   4.721   2.819   1.973
 2078SOL     OW 7132   2.580   5.965   6.553
 2078SOL    HW1 7133   2.634   5.889   6.516
 2078SOL    HW2 7134   2.560   6.030   6.480
 2079SOL     OW 7135   6.241   1.374   3.655
 2079SOL    HW1 7136   6.209   1.346   3.745
 2079SOL    HW2 7137   6.222   1.471   3.641
 2080SOL     OW 7138   1.814   1.654   4.953
 2080SOL    HW1 7139   1.826   1.741   5.000
 2080SOL    HW2 7140   1.825   1.579   5.018
 2081SOL     OW 7141   1.855   5.850   4.864
 2081SOL    HW1 7142   1.939   5.903   4.855
 2081SOL    HW2 7143   1.808   5.875   4.949
 2082SOL     OW 7144   6.311   7.020   2.384
 2082SOL    HW1 7145   6.316   0.091   2.396
 2082SOL    HW2 7146   6.336   6.996   2.290
 2083SOL     OW 7147   4.041   3.964   6.419
 2083SOL    HW1 7148   4.023   3.866   6.421
 2083SOL    HW2 7149   4.021   4.000   6.328
 2084SOL     OW 7150   0.065   4.176   3.908
 2084SOL    HW1 7151   7.021   4.120   3.866
 2084SOL    HW2 7152   0.139   4.117   3.940
 2085SOL     OW 7153   5.366   1.033   7.021
 2085SOL    HW1 7154   5.283   1.081   0.020
 2085SOL    HW2 7155   5.446   1.085   0.023
 2086SOL     OW 7156   3.193   5.820   5.991
 2086SOL    HW1 7157   3.289   5.801   5.973
 2086SOL    HW2 7158   3.136   5.765   5.931
 2087SOL     OW 7159   4.619   6.834   1.763
 2087SOL    HW1 7160   4.572   6.749   1.788
 2087SOL    HW2 7161   4.561   6.912   1.784
 2088SOL     OW 7162   2.540   5.321   0.693
 2088SOL    HW1 7163   2.583   5.410   0.677
 2088SOL    HW2 7164   2.595   5.269   0.758
 2089SOL     OW 7165   3.906   1.319   6.863
 2089SOL    HW1 7166   3.823   1.267   6.877
 2089SOL    HW2 7167   3.935   1.360   6.950
 2090SOL     OW 7168   4.155   3.465   4.725
 2090SOL    HW1 7169   4.168   3.520   4.643
 2090SOL    HW2 7170   4.167   3.522   4.806
 2091SOL     OW 7171   6.983   5.939   7.020
 2091SOL    HW1 7172   6.906   5.997   6.994
 2091SOL    HW2 7173   6.954   5.873   0.061
 2092SOL     OW 7174   5.196   5.690   0.476
 2092SOL    HW1 7175   5.283   5.692   0.524
 2092SOL    HW2 7176   5.205   5.739   0.389
 2093SOL     OW 7177   1.700   2.030   1.738
 2093SOL    HW1 7178   1.745   2.020   1.649
 2093SOL    HW2 7179   1.760   2.079   1.801
 2094SOL     OW 7180   5.685   1.803   1.481
 2094SOL    HW1 7181   5.634   1.756   1.409
 2094SOL    HW2 7182   5.698   1.899   1.456
 2095SOL     OW 7183   5.514   0.300   4.193
 2095SOL    HW1 7184   5.557   0.215   4.161
 2095SOL    HW2 7185   5.484   0.354   4.114
 2096SOL     OW 7186   4.934   3.744   2.651
 2096SOL    HW1 7187   4.963   3.689   2.573
 2096SOL    HW2 7188   4.884   3.824   2.619
 2097SOL     OW 7189   1.284   2.982   0.069
 2097SOL    HW1 7190   1.258   2.932   7.015
 2097SOL    HW2 7191   1.375   3.022   0.057
 2098SOL     OW 7192   4.075   5.515   3.391
 2098SOL    HW1 7193   4.167   5.505   3.428
 2098SOL    HW2 7194   4.042   5.426   3.360
 2099SOL     OW 7195   2.389   2.516   5.095
 2099SOL    HW1 7196   2.451   2.529   5.173
 2099SOL    HW2 7197   2.349   2.425   5.099
 2100SOL     OW 7198   3.803   3.183   6.037
 2100SOL    HW1 7199   3.887   3.175   6.091
 2100SOL    HW2 7200   3.739   3.244   6.084
 2101SOL     OW 7201   1.674   6.573   2.644
 2101SOL    HW1 7202   1.667   6.612   2.552
 2101SOL    HW2 7203   1.612   6.495   2.652
 2102SOL     OW 7204   0.674   5.625   2.003
 2102SOL    HW1 7205   0.687   5.722   2.022
 2102SOL    HW2 7206   0.580   5.610   1.971
 2103SOL     OW 7207   2.886   3.796   6.458
 2103SOL    HW1 7208   2.869   3.798   6.359
 2103SOL    HW2 7209   2.815   3.743   6.504
 2104SOL     OW 7210   0.929   3.702   6.750
 2104SOL    HW1 7211   1.020   3.661   6.752
 2104SOL    HW2 7212   0.902   3.716   6.655
 2105SOL     OW 7213   5.176   5.215   4.093
 2105SOL    HW1 7214   5.272   5.232   4.117
 2105SOL    HW2 7215   5.167   5.123   4.054
 2106SOL     OW 7216   4.274   4.761   0.445
 2106SOL    HW1 7217   4.326   4.677   0.427
 2106SOL    HW2 7218   4.177   4.744   0.431
 2107SOL     OW 7219   4.471   2.680   5.651
 2107SOL    HW1 7220   4.531   2.602   5.632
 2107SOL    HW2 7221   4.434   2.716   5.566
 2108SOL     OW 7222   0.190   6.389   5.787
 2108SOL    HW1 7223   0.193   6.300   5.833
 2108SOL    HW2 7224   0.170   6.374   5.690
 2109SOL     OW 7225   4.806   6.846   3.624
 2109SOL    HW1 7226   4.868   6.915   3.661
 2109SOL    HW2 7227   4.716   6.857   3.666
 2110SOL     OW 7228   3.114   3.185   5.725
 2110SOL    HW1 7229   3.089   3.151   5.816
 2110SOL    HW2 7230   3.032   3.209   5.674
 2111SOL     OW 7231   0.807   1.989   6.356
 2111SOL    HW1 7232   0.788   2.051   6.431
 2111SOL    HW2 7233   0.817   1.896   6.391
 2112SOL     OW 7234   3.993   2.134   1.251
 2112SOL    HW1 7235   3.964   2.192   1.327
 2112SOL    HW2 7236   3.985   2.186   1.165
 2113SOL     OW 7237   1.387   0.563   4.321
 2113SOL    HW1 7238   1.349   0.576   4.229
 2113SOL    HW2 7239   1.374   0.647   4.374
 2114SOL     OW 7240   1.605   2.763   0.242
 2114SOL    HW1 7241   1.647   2.739   0.329
 2114SOL    HW2 7242   1.524   2.707   0.227
 2115SOL     OW 7243   2.139   4.258   2.452
 2115SOL    HW1 7244   2.146   4.340   2.395
 2115SOL    HW2 7245   2.067   4.270   2.520
 2116SOL     OW 7246   6.974   4.920   3.506
 2116SOL    HW1 7247   6.915   4.993   3.473
 2116SOL    HW2 7248   6.920   4.837   3.521
 2117SOL     OW 7249   0.264   4.679   1.022
 2117SOL    HW1 7250   0.305   4.705   0.935
 2117SOL    HW2 7251   0.228   4.586   1.016
 2118SOL     OW 7252   0.102   3.879   2.250
 2118SOL    HW1 7253   0.031   3.913   2.187
 2118SOL    HW2 7254   0.067   3.801   2.301
 2119SOL     OW 7255   2.238   5.701   0.979
 2119SOL    HW1 7256   2.308   5.754   1.026
 2119SOL    HW2 7257   2.157   5.693   1.038
 2120SOL     OW 7258   0.021   5.150   3.892
 2120SOL    HW1 7259   0.082   5.072   3.875
 2120SOL    HW2 7260   0.049   5.196   3.976
 2121SOL     OW 7261   1.017   4.522   6.003
 2121SOL    HW1 7262   1.069   4.439   5.987
 2121SOL    HW2 7263   1.068   4.583   6.063
 2122SOL     OW 7264   6.159   4.198   5.533
 2122SOL    HW1 7265   6.132   4.191   5.437
 2122SOL    HW2 7266   6.108   4.271   5.578
 2123SOL     OW 7267   0.128   4.747   2.146
 2123SOL    HW1 7268   0.030   4.730   2.156
 2123SOL    HW2 7269   0.152   4.742   2.049
 2124SOL     OW 7270   2.455   1.438   1.699
 2124SOL    HW1 7271   2.553   1.447   1.715
 2124SOL    HW2 7272   2.434   1.468   1.606
 2125SOL     OW 7273   1.630   0.235   0.299
 2125SOL    HW1 7274   1.702   0.166   0.289
 2125SOL    HW2 7275   1.648   0.291   0.380
 2126SOL     OW 7276   2.716   0.826   1.161
 2126SOL    HW1 7277   2.808   0.792   1.179
 2126SOL    HW2 7278   2.649   0.763   1.201
 2127SOL     OW 7279   6.255   3.374   4.372
 2127SOL    HW1 7280   6.204   3.367   4.286
 2127SOL    HW2 7281   6.306   3.460   4.374
 2128SOL     OW 7282   6.588   4.017   4.607
 2128SOL    HW1 7283   6.534   3.936   4.629
 2128SOL    HW2 7284   6.622   4.010   4.513
 2129SOL     OW 7285   4.671   3.018   5.496
 2129SOL    HW1 7286   4.582   3.062   5.506
 2129SOL    HW2 7287   4.717   3.014   5.584
 2130SOL     OW 7288   4.292   0.150   2.740
 2130SOL    HW1 7289   4.365   0.178   2.678
 2130SOL    HW2 7290   4.249   0.231   2.780
 2131SOL     OW 7291   6.734   1.099   1.170
 2131SOL    HW1 7292   6.777   1.070   1.084
 2131SOL    HW2 7293   6.805   1.123   1.236
 2132SOL     OW 7294   4.197   2.287   1.406
 2132SOL    HW1 7295   4.193   2.365   1.468
 2132SOL    HW2 7296   4.267   2.303   1.337
 2133SOL     OW 7297   2.365   2.844   5.989
 2133SOL    HW1 7298   2.377   2.937   5.953
 2133SOL    HW2 7299   2.285   2.802   5.947
 2134SOL     OW 7300   0.753   2.438   0.680
 2134SOL    HW1 7301   0.822   2.463   0.612
 2134SOL    HW2 7302   0.698   2.518   0.702
 2135SOL     OW 7303   0.919   3.957   4.793
 2135SOL    HW1 7304   0.983   3.881   4.783
 2135SOL    HW2 7305   0.934   4.023   4.719
 2136SOL     OW 7306   2.367   4.760   2.737
 2136SOL    HW1 7307   2.461   4.739   2.762
 2136SOL    HW2 7308   2.309   4.756   2.818
 2137SOL     OW 7309   2.914   5.088   5.411
 2137SOL    HW1 7310   2.885   5.154   5.342
 2137SOL    HW2 7311   2.854   5.008   5.409
 2138SOL     OW 7312   6.366   6.984   2.805
 2138SOL    HW1 7313   6.416   6.970   2.719
 2138SOL    HW2 7314   6.291   6.918   2.811
 2139SOL     OW 7315   4.351   0.599   4.298
 2139SOL    HW1 7316   4.318   0.533   4.365
 2139SOL    HW2 7317   4.306   0.582   4.210
 2140SOL     OW 7318   2.811   6.526   4.217
 2140SOL    HW1 7319   2.890   6.468   4.200
 2140SOL    HW2 7320   2.771   6.556   4.130
 2141SOL     OW 7321   6.561   2.948   2.388
 2141SOL    HW1 7322   6.569   3.047   2.375
 2141SOL    HW2 7323   6.464   2.922   2.384
 2142SOL     OW 7324   0.560   1.645   3.442
 2142SOL    HW1 7325   0.653   1.610   3.450
 2142SOL    HW2 7326   0.560   1.744   3.455
 2143SOL     OW 7327   2.488   4.968   1.216
 2143SOL    HW1 7328   2.519   4.873   1.209
 2143SOL    HW2 7329   2.487   4.995   1.313
 2144SOL     OW 7330   0.626   5.412   4.704
 2144SOL    HW1 7331   0.722   5.413   4.679
 2144SOL    HW2 7332   0.580   5.492   4.664
 2145SOL     OW 7333   3.986   6.508   4.478
 2145SOL    HW1 7334   3.975   6.445   4.401
 2145SOL    HW2 7335   3.911   6.495   4.543
 2146SOL     OW 7336   2.305   2.511   1.101
 2146SOL    HW1 7337   2.279   2.424   1.145
 2146SOL    HW2 7338   2.345   2.572   1.169
 2147SOL     OW 7339   6.142   1.331   6.724
 2147SOL    HW1 7340   6.133   1.294   6.632
 2147SOL    HW2 7341   6.222   1.291   6.768
 2148SOL     OW 7342   6.330   3.340   6.386
 2148SOL    HW1 7343   6.342   3.242   6.404
 2148SOL    HW2 7344   6.251   3.354   6.328
 2149SOL     OW 7345   1.834   1.452   1.282
 2149SOL    HW1 7346   1.891   1.532   1.265
 2149SOL    HW2 7347   1.871   1.374   1.232
 2150SOL     OW 7348   2.286   2.349   1.865
 2150SOL    HW1 7349   2.205   2.364   1.922
 2150SOL    HW2 7350   2.346   2.429   1.870
 2151SOL     OW 7351   1.201   6.081   6.601
 2151SOL    HW1 7352   1.117   6.083   6.655
 2151SOL    HW2 7353   1.185   6.120   6.511
 2152SOL     OW 7354   4.456   4.510   2.645
 2152SOL    HW1 7355   4.443   4.411   2.644
 2152SOL    HW2 7356   4.453   4.544   2.739
 2153SOL     OW 7357   4.815   1.990   1.976
 2153SOL    HW1 7358   4.896   1.961   2.026
 2153SOL    HW2 7359   4.824   2.085   1.948
 2154SOL     OW 7360   3.506   0.133   4.162
 2154SOL    HW1 7361   3.521   0.225   4.126
 2154SOL    HW2 7362   3.592   0.082   4.162
 2155SOL     OW 7363   4.099   0.031   1.108
 2155SOL    HW1 7364   4.157   0.004   1.185
 2155SOL    HW2 7365   4.038   6.983   1.085
 2156SOL     OW 7366   0.021   7.012   4.734
 2156SOL    HW1 7367   6.987   7.014   4.655
 2156SOL    HW2 7368   0.115   7.012   4.701
 2157SOL     OW 7369   5.387   6.111   3.733
 2157SOL    HW1 7370   5.351   6.200   3.708
 2157SOL    HW2 7371   5.487   6.112   3.726
 2158SOL     OW 7372   4.172   5.735   0.199
 2158SOL    HW1 7373   4.202   5.830   0.190
 2158SOL    HW2 7374   4.073   5.732   0.213
 2159SOL     OW 7375   1.434   0.339   5.274
 2159SOL    HW1 7376   1.425   0.258   5.217
 2159SOL    HW2 7377   1.523   0.338   5.319
 2160SOL     OW 7378   5.168   4.757   6.797
 2160SOL    HW1 7379   5.205   4.668   6.770
 2160SOL    HW2 7380   5.096   4.744   6.865
 2161SOL     OW 7381   6.542   4.520   1.913
 2161SOL    HW1 7382   6.506   4.574   1.989
 2161SOL    HW2 7383   6.584   4.437   1.948
 2162SOL     OW 7384   2.788   0.077   2.721
 2162SOL    HW1 7385   2.824   0.043   2.633
 2162SOL    HW2 7386   2.765   7.027   2.779
 2163SOL     OW 7387   1.311   4.569   0.707
 2163SOL    HW1 7388   1.346   4.632   0.777
 2163SOL    HW2 7389   1.378   4.496   0.693
 2164SOL     OW 7390   2.445   2.039   6.751
 2164SOL    HW1 7391   2.516   2.065   6.686
 2164SOL    HW2 7392   2.484   2.036   6.843
 2165SOL     OW 7393   0.416   2.461   3.950
 2165SOL    HW1 7394   0.501   2.409   3.958
 2165SOL    HW2 7395   0.339   2.404   3.977
 2166SOL     OW 7396   0.508   3.668   4.177
 2166SOL    HW1 7397   0.576   3.707   4.238
 2166SOL    HW2 7398   0.495   3.571   4.198
 2167SOL     OW 7399   0.457   3.519   3.939
 2167SOL    HW1 7400   0.360   3.507   3.961
 2167SOL    HW2 7401   0.496   3.590   3.998
 2168SOL     OW 7402   0.965   1.573   3.100
 2168SOL    HW1 7403   0.949   1.475   3.109
 2168SOL    HW2 7404   1.029   1.589   3.025
 2169SOL     OW 7405   6.588   0.614   1.342
 2169SOL    HW1 7406   6.577   0.533   1.400
 2169SOL    HW2 7407   6.676   0.658   1.363
 2170SOL     OW 7408   6.934   4.134   5.228
 2170SOL    HW1 7409   6.845   4.116   5.268
 2170SOL    HW2 7410   6.979   4.047   5.205
 2171SOL     OW 7411   1.137   5.338   1.450
 2171SOL    HW1 7412   1.165   5.245   1.472
 2171SOL    HW2 7413   1.114   5.387   1.535
 2172SOL     OW 7414   2.356   2.413   5.746
 2172SOL    HW1 7415   2.324   2.501   5.710
 2172SOL    HW2 7416   2.371   2.350   5.670
 2173SOL     OW 7417   4.557   0.334   5.510
 2173SOL    HW1 7418   4.607   0.418   5.490
 2173SOL    HW2 7419   4.496   0.312   5.433
 2174SOL     OW 7420   6.716   6.230   4.996
 2174SOL    HW1 7421   6.711   6.219   4.897
 2174SOL    HW2 7422   6.715   6.140   5.040
 2175SOL     OW 7423   1.582   3.579   4.522
 2175SOL    HW1 7424   1.620   3.628   4.444
 2175SOL    HW2 7425   1.634   3.495   4.538
 2176SOL     OW 7426   5.282   1.717   1.562
 2176SOL    HW1 7427   5.287   1.761   1.472
 2176SOL    HW2 7428   5.334   1.772   1.628
 2177SOL     OW 7429   6.928   0.177   2.119
 2177SOL    HW1 7430   6.877   0.101   2.078
 2177SOL    HW2 7431   6.990   0.215   2.052
 2178SOL     OW 7432   1.747   1.202   1.812
 2178SOL    HW1 7433   1.696   1.143   1.875
 2178SOL    HW2 7434   1.838   1.220   1.851
 2179SOL     OW 7435   2.052   3.825   6.086
 2179SOL    HW1 7436   2.111   3.904   6.067
 2179SOL    HW2 7437   2.084   3.779   6.168
 2180SOL     OW 7438   1.359   2.876   2.285
 2180SOL    HW1 7439   1.290   2.941   2.253
 2180SOL    HW2 7440   1.318   2.814   2.352
 2181SOL     OW 7441   4.341   5.191   3.832
 2181SOL    HW1 7442   4.353   5.265   3.898
 2181SOL    HW2 7443   4.386   5.216   3.746
 2182SOL     OW 7444   1.074   5.043   3.872
 2182SOL    HW1 7445   1.115   5.032   3.781
 2182SOL    HW2 7446   1.043   4.954   3.905
 2183SOL     OW 7447   2.346   4.097   0.427
 2183SOL    HW1 7448   2.263   4.108   0.373
 2183SOL    HW2 7449   2.416   4.160   0.394
 2184SOL     OW 7450   4.330   6.513   6.372
 2184SOL    HW1 7451   4.344   6.559   6.284
 2184SOL    HW2 7452   4.327   6.581   6.445
 2185SOL     OW 7453   0.818   1.282   6.865
 2185SOL    HW1 7454   0.784   1.360   6.918
 2185SOL    HW2 7455   0.748   1.255   6.798
 2186SOL     OW 7456   6.522   5.662   6.760
 2186SOL    HW1 7457   6.449   5.616   6.711
 2186SOL    HW2 7458   6.587   5.595   6.795
 2187SOL     OW 7459   0.353   6.104   2.319
 2187SOL    HW1 7460   0.312   6.171   2.257
 2187SOL    HW2 7461   0.453   6.114   2.317
 2188SOL     OW 7462   1.779   5.639   5.539
 2188SOL    HW1 7463   1.794   5.666   5.444
 2188SOL    HW2 7464   1.731   5.551   5.542
 2189SOL     OW 7465   1.207   6.758   1.648
 2189SOL    HW1 7466   1.252   6.748   1.559
 2189SOL    HW2 7467   1.241   6.841   1.693
 2190SOL     OW 7468   6.381   3.101   1.971
 2190SOL    HW1 7469   6.393   3.038   1.895
 2190SOL    HW2 7470   6.467   3.110   2.021
 2191SOL     OW 7471   2.216   1.874   5.336
 2191SOL    HW1 7472   2.233   1.802   5.404
 2191SOL    HW2 7473   2.166   1.950   5.380
 2192SOL     OW 7474   5.093   0.567   2.814
 2192SOL    HW1 7475   5.120   0.632   2.743
 2192SOL    HW2 7476   5.000   0.587   2.844
 2193SOL     OW 7477   6.781   0.322   6.135
 2193SOL    HW1 7478   6.725   0.392   6.179
 2193SOL    HW2 7479   6.820   0.359   6.051
 2194SOL     OW 7480   2.085   3.952   6.677
 2194SOL    HW1 7481   2.021   3.897   6.730
 2194SOL    HW2 7482   2.120   4.027   6.734
 2195SOL     OW 7483   0.023   6.815   5.485
 2195SOL    HW1 7484   6.959   6.819   5.524
 2195SOL    HW2 7485   0.054   6.908   5.462
 2196SOL     OW 7486   2.864   6.776   4.295
 2196SOL    HW1 7487   2.784   6.835   4.282
 2196SOL    HW2 7488   2.836   6.680   4.289
 2197SOL     OW 7489   3.161   3.466   6.101
 2197SOL    HW1 7490   3.150   3.508   6.011
 2197SOL    HW2 7491   3.100   3.387   6.109
 2198SOL     OW 7492   6.077   0.492   1.569
 2198SOL    HW1 7493   6.146   0.565   1.570
 2198SOL    HW2 7494   6.060   0.461   1.662
 2199SOL     OW 7495   5.102   6.737   4.250
 2199SOL    HW1 7496   5.123   6.677   4.327
 2199SOL    HW2 7497   5.053   6.818   4.283
 2200SOL     OW 7498   2.288   1.652   4.249
 2200SOL    HW1 7499   2.355   1.726   4.239
 2200SOL    HW2 7500   2.309   1.600   4.332
 2201SOL     OW 7501   6.046   2.620   2.948
 2201SOL    HW1 7502   6.082   2.537   2.904
 2201SOL    HW2 7503   5.949   2.608   2.968
 2202SOL     OW 7504   3.870   5.792   1.754
 2202SOL    HW1 7505   3.870   5.822   1.658
 2202SOL    HW2 7506   3.777   5.771   1.782
 2203SOL     OW 7507   2.746   3.331   1.253
 2203SOL    HW1 7508   2.704   3.250   1.212
 2203SOL    HW2 7509   2.796   3.305   1.336
 2204SOL     OW 7510   4.204   2.726   1.100
 2204SOL    HW1 7511   4.165   2.658   1.162
 2204SOL    HW2 7512   4.190   2.696   1.005
 2205SOL     OW 7513   1.694   0.071   7.000
 2205SOL    HW1 7514   1.707   0.011   0.051
 2205SOL    HW2 7515   1.709   0.166   7.027
 2206SOL     OW 7516   2.966   4.381   5.775
 2206SOL    HW1 7517   2.991   4.369   5.679
 2206SOL    HW2 7518   2.880   4.430   5.782
 2207SOL     OW 7519   3.470   4.171   6.890
 2207SOL    HW1 7520   3.413   4.251   6.868
 2207SOL    HW2 7521   3.412   4.091   6.900
 2208SOL     OW 7522   1.014   5.096   3.061
 2208SOL    HW1 7523   1.055   5.050   3.140
 2208SOL    HW2 7524   0.986   5.189   3.086
 2209SOL     OW 7525   2.582   6.829   5.157
 2209SOL    HW1 7526   2.629   6.883   5.227
 2209SOL    HW2 7527   2.649   6.796   5.091
 2210SOL     OW 7528   0.228   4.908   3.523
 2210SOL    HW1 7529   0.134   4.942   3.516
 2210SOL    HW2 7530   0.243   4.838   3.453
 2211SOL     OW 7531   6.628   0.695   0.762
 2211SOL    HW1 7532   6.671   0.772   0.810
 2211SOL    HW2 7533   6.639   0.707   0.663
 2212SOL     OW 7534   2.033   5.747   0.398
 2212SOL    HW1 7535   2.093   5.691   0.341
 2212SOL    HW2 7536   1.943   5.704   0.405
 2213SOL     OW 7537   3.696   2.136   5.568
 2213SOL    HW1 7538   3.723   2.231   5.550
 2213SOL    HW2 7539   3.670   2.092   5.482
 2214SOL     OW 7540   2.899   3.714   4.981
 2214SOL    HW1 7541   2.943   3.634   5.020
 2214SOL    HW2 7542   2.880   3.698   4.884
 2215SOL     OW 7543   5.951   0.696   6.838
 2215SOL    HW1 7544   5.951   0.608   6.885
 2215SOL    HW2 7545   5.937   0.681   6.740
 2216SOL     OW 7546   0.854   0.607   5.848
 2216SOL    HW1 7547   0.922   0.607   5.774
 2216SOL    HW2 7548   0.813   0.697   5.856
 2217SOL     OW 7549   4.288   0.461   2.579
 2217SOL    HW1 7550   4.262   0.469   2.675
 2217SOL    HW2 7551   4.218   0.504   2.522
 2218SOL     OW 7552   0.157   5.223   0.054
 2218SOL    HW1 7553   0.230   5.200   0.119
 2218SOL    HW2 7554   0.160   5.159   7.005
 2219SOL     OW 7555   5.992   1.611   0.689
 2219SOL    HW1 7556   5.893   1.618   0.689
 2219SOL    HW2 7557   6.030   1.676   0.755
 2220SOL     OW 7558   2.425   6.048   5.646
 2220SOL    HW1 7559   2.341   6.005   5.679
 2220SOL    HW2 7560   2.417   6.068   5.549
 2221SOL     OW 7561   6.225   1.459   5.291
 2221SOL    HW1 7562   6.169   1.500   5.364
 2221SOL    HW2 7563   6.301   1.409   5.332
 2222SOL     OW 7564   5.843   0.644   1.194
 2222SOL    HW1 7565   5.889   0.727   1.224
 2222SOL    HW2 7566   5.794   0.662   1.108
 2223SOL     OW 7567   6.100   0.605   6.045
 2223SOL    HW1 7568   6.054   0.651   6.121
 2223SOL    HW2 7569   6.193   0.641   6.036
 2224SOL     OW 7570   6.212   3.684   0.944
 2224SOL    HW1 7571   6.288   3.622   0.928
 2224SOL    HW2 7572   6.195   3.738   0.861
 2225SOL     OW 7573   5.892   6.856   4.127
 2225SOL    HW1 7574   5.859   6.807   4.207
 2225SOL    HW2 7575   5.988   6.881   4.140
 2226SOL     OW 7576   3.858   5.040   1.112
 2226SOL    HW1 7577   3.817   5.083   1.032
 2226SOL    HW2 7578   3.901   4.954   1.084
 2227SOL     OW 7579   5.449   2.611   0.817
 2227SOL    HW1 7580   5.365   2.598   0.765
 2227SOL    HW2 7581   5.528   2.609   0.755
 2228SOL     OW 7582   4.085   5.203   0.659
 2228SOL    HW1 7583   4.068   5.240   0.567
 2228SOL    HW2 7584   4.131   5.272   0.714
 2229SOL     OW 7585   3.768   3.044   5.459
 2229SOL    HW1 7586   3.684   3.072   5.414
 2229SOL    HW2 7587   3.747   3.008   5.550
 2230SOL     OW 7588   6.018   6.466   1.121
 2230SOL    HW1 7589   6.001   6.506   1.211
 2230SOL    HW2 7590   5.965   6.516   1.052
 2231SOL     OW 7591   6.788   0.766   1.057
 2231SOL    HW1 7592   6.721   0.692   1.062
 2231SOL    HW2 7593   6.762   0.829   0.984
 2232SOL     OW 7594   1.116   1.499   4.756
 2232SOL    HW1 7595   1.197   1.440   4.747
 2232SOL    HW2 7596   1.136   1.590   4.719
 2233SOL     OW 7597   2.453   2.739   0.703
 2233SOL    HW1 7598   2.388   2.701   0.769
 2233SOL    HW2 7599   2.527   2.786   0.752
 2234SOL     OW 7600   3.606   1.423   1.208
 2234SOL    HW1 7601   3.702   1.410   1.182
 2234SOL    HW2 7602   3.595   1.514   1.249
 2235SOL     OW 7603   2.683   0.254   2.098
 2235SOL    HW1 7604   2.703   0.165   2.057
 2235SOL    HW2 7605   2.614   0.302   2.044
 2236SOL     OW 7606   2.006   3.790   5.746
 2236SOL    HW1 7607   1.983   3.700   5.708
 2236SOL    HW2 7608   1.961   3.861   5.692
 2237SOL     OW 7609   5.337   4.785   4.551
 2237SOL    HW1 7610   5.307   4.878   4.573
 2237SOL    HW2 7611   5.291   4.720   4.611
 2238SOL     OW 7612   4.623   5.359   2.090
 2238SOL    HW1 7613   4.717   5.393   2.094
 2238SOL    HW2 7614   4.593   5.355   1.995
 2239SOL     OW 7615   3.890   5.568   4.073
 2239SOL    HW1 7616   3.803   5.609   4.102
 2239SOL    HW2 7617   3.928   5.514   4.148
 2240SOL     OW 7618   3.723   5.388   2.306
 2240SOL    HW1 7619   3.647   5.423   2.361
 2240SOL    HW2 7620   3.693   5.306   2.256
 2241SOL     OW 7621   6.988   5.993   2.623
 2241SOL    HW1 7622   6.963   5.975   2.527
 2241SOL    HW2 7623   6.907   6.023   2.673
 2242SOL     OW 7624   5.055   3.058   2.369
 2242SOL    HW1 7625   4.968   3.017   2.340
 2242SOL    HW2 7626   5.038   3.151   2.402
 2243SOL     OW 7627   1.449   0.004   6.602
 2243SOL    HW1 7628   1.352   7.006   6.599
 2243SOL    HW2 7629   1.493   7.008   6.516
 2244SOL     OW 7630   3.180   6.613   1.525
 2244SOL    HW1 7631   3.181   6.686   1.456
 2244SOL    HW2 7632   3.274   6.588   1.548
 2245SOL     OW 7633   0.762   1.554   1.334
 2245SOL    HW1 7634   0.731   1.476   1.389
 2245SOL    HW2 7635   0.843   1.527   1.282
 2246SOL     OW 7636   2.104   0.993   4.293
 2246SOL    HW1 7637   2.108   1.065   4.224
 2246SOL    HW2 7638   2.057   1.028   4.374
 2247SOL     OW 7639   3.227   2.924   2.872
 2247SOL    HW1 7640   3.194   2.887   2.959
 2247SOL    HW2 7641   3.193   3.017   2.860
 2248SOL     OW 7642   6.609   3.818   5.294
 2248SOL    HW1 7643   6.684   3.756   5.319
 2248SOL    HW2 7644   6.585   3.803   5.198
 2249SOL     OW 7645   5.586   0.005   3.769
 2249SOL    HW1 7646   5.633   0.092   3.783
 2249SOL    HW2 7647   5.649   6.958   3.787
 2250SOL     OW 7648   3.424   4.103   5.085
 2250SOL    HW1 7649   3.369   4.149   5.154
 2250SOL    HW2 7650   3.470   4.024   5.126
 2251SOL     OW 7651   5.448   6.689   6.578
 2251SOL    HW1 7652   5.536   6.728   6.549
 2251SOL    HW2 7653   5.443   6.593   6.550
 2252SOL     OW 7654   4.854   1.623   3.370
 2252SOL    HW1 7655   4.760   1.651   3.387
 2252SOL    HW2 7656   4.863   1.525   3.382
 2253SOL     OW 7657   6.707   2.971   0.048
 2253SOL    HW1 7658   6.743   2.959   0.140
 2253SOL    HW2 7659   6.637   2.902   0.030
 2254SOL     OW 7660   3.356   3.229   4.386
 2254SOL    HW1 7661   3.409   3.293   4.331
 2254SOL    HW2 7662   3.411   3.148   4.405
 2255SOL     OW 7663   4.007   3.173   6.200
 2255SOL    HW1 7664   4.058   3.110   6.141
 2255SOL    HW2 7665   4.065   3.250   6.224
 2256SOL     OW 7666   4.914   6.276   2.114
 2256SOL    HW1 7667   4.940   6.370   2.091
 2256SOL    HW2 7668   4.898   6.224   2.030
 2257SOL     OW 7669   0.953   2.021   4.674
 2257SOL    HW1 7670   0.927   1.934   4.715
 2257SOL    HW2 7671   1.049   2.041   4.693
 2258SOL     OW 7672   1.551   5.253   4.500
 2258SOL    HW1 7673   1.523   5.332   4.554
 2258SOL    HW2 7674   1.492   5.176   4.521
 2259SOL     OW 7675   5.471   2.891   5.979
 2259SOL    HW1 7676   5.530   2.943   5.918
 2259SOL    HW2 7677   5.425   2.819   5.928
 2260SOL     OW 7678   0.039   4.506   1.469
 2260SOL    HW1 7679   0.125   4.541   1.506
 2260SOL    HW2 7680   0.053   4.476   1.375
 2261SOL     OW 7681   6.310   5.264   0.375
 2261SOL    HW1 7682   6.244   5.226   0.309
 2261SOL    HW2 7683   6.271   5.345   0.418
 2262SOL     OW 7684   5.947   0.467   3.127
 2262SOL    HW1 7685   6.043   0.491   3.139
 2262SOL    HW2 7686   5.893   0.551   3.113
 2263SOL     OW 7687   3.338   5.495   0.437
 2263SOL    HW1 7688   3.427   5.491   0.482
 2263SOL    HW2 7689   3.322   5.411   0.385
 2264SOL     OW 7690   3.128   5.395   6.745
 2264SOL    HW1 7691   3.076   5.310   6.736
 2264SOL    HW2 7692   3.064   5.472   6.753
 2265SOL     OW 7693   2.117   1.168   4.096
 2265SOL    HW1 7694   2.204   1.215   4.081
 2265SOL    HW2 7695   2.094   1.115   4.015
 2266SOL     OW 7696   5.076   1.112   0.076
 2266SOL    HW1 7697   5.095   1.118   0.174
 2266SOL    HW2 7698   5.011   1.183   0.050
 2267SOL     OW 7699   4.922   3.361   4.960
 2267SOL    HW1 7700   4.891   3.455   4.975
 2267SOL    HW2 7701   4.845   3.298   4.968
 2268SOL     OW 7702   5.670   4.093   6.134
 2268SOL    HW1 7703   5.686   4.181   6.090
 2268SOL    HW2 7704   5.724   4.087   6.218
 2269SOL     OW 7705   0.581   4.286   5.538
 2269SOL    HW1 7706   0.554   4.260   5.445
 2269SOL    HW2 7707   0.524   4.363   5.568
 2270SOL     OW 7708   3.786   2.431   6.434
 2270SOL    HW1 7709   3.830   2.354   6.386
 2270SOL    HW2 7710   3.837   2.515   6.417
 2271SOL     OW 7711   5.974   4.286   0.144
 2271SOL    HW1 7712   6.068   4.261   0.166
 2271SOL    HW2 7713   5.968   4.313   0.048
 2272SOL     OW 7714   5.666   1.637   6.929
 2272SOL    HW1 7715   5.741   1.570   6.931
 2272SOL    HW2 7716   5.601   1.612   6.857
 2273SOL     OW 7717   1.284   1.237   2.057
 2273SOL    HW1 7718   1.363   1.185   2.088
 2273SOL    HW2 7719   1.217   1.243   2.132
 2274SOL     OW 7720   1.023   1.166   6.109
 2274SOL    HW1 7721   0.964   1.247   6.100
 2274SOL    HW2 7722   0.970   1.090   6.146
 2275SOL     OW 7723   6.242   6.725   3.984
 2275SOL    HW1 7724   6.303   6.728   3.905
 2275SOL    HW2 7725   6.181   6.646   3.976
 2276SOL     OW 7726   2.385   5.460   2.313
 2276SOL    HW1 7727   2.451   5.478   2.240
 2276SOL    HW2 7728   2.385   5.363   2.336
 2277SOL     OW 7729   3.761   4.122   3.793
 2277SOL    HW1 7730   3.762   4.090   3.887
 2277SOL    HW2 7731   3.843   4.090   3.745
 2278SOL     OW 7732   6.125   3.912   4.345
 2278SOL    HW1 7733   6.075   3.875   4.423
 2278SOL    HW2 7734   6.106   4.010   4.336
 2279SOL     OW 7735   6.296   0.222   5.581
 2279SOL    HW1 7736   6.226   0.292   5.596
 2279SOL    HW2 7737   6.273   0.140   5.634
 2280SOL     OW 7738   6.889   0.072   4.524
 2280SOL    HW1 7739   6.964   0.104   4.466
 2280SOL    HW2 7740   6.848   0.150   4.571
 2281SOL     OW 7741   3.473   0.697   2.220
 2281SOL    HW1 7742   3.551   0.741   2.176
 2281SOL    HW2 7743   3.425   0.763   2.278
 2282SOL     OW 7744   5.705   0.013   5.154
 2282SOL    HW1 7745   5.735   6.961   5.103
 2282SOL    HW2 7746   5.723   0.096   5.100
 2283SOL     OW 7747   1.427   6.648   1.907
 2283SOL    HW1 7748   1.438   6.710   1.830
 2283SOL    HW2 7749   1.513   6.643   1.958
 2284SOL     OW 7750   1.454   2.963   6.767
 2284SOL    HW1 7751   1.426   3.039   6.709
 2284SOL    HW2 7752   1.540   2.924   6.733
 2285SOL     OW 7753   1.488   2.714   1.058
 2285SOL    HW1 7754   1.547   2.722   0.978
 2285SOL    HW2 7755   1.468   2.806   1.093
 2286SOL     OW 7756   5.760   6.844   3.876
 2286SOL    HW1 7757   5.847   6.853   3.827
 2286SOL    HW2 7758   5.776   6.848   3.975
 2287SOL     OW 7759   2.167   0.220   3.850
 2287SOL    HW1 7760   2.263   0.207   3.878
 2287SOL    HW2 7761   2.136   0.311   3.878
 2288SOL     OW 7762   5.866   4.974   3.655
 2288SOL    HW1 7763   5.912   5.063   3.654
 2288SOL    HW2 7764   5.923   4.906   3.610
 2289SOL     OW 7765   0.327   4.992   0.758
 2289SOL    HW1 7766   0.409   4.942   0.786
 2289SOL    HW2 7767   0.290   4.951   0.674
 2290SOL     OW 7768   0.263   3.458   0.617
 2290SOL    HW1 7769   0.328   3.393   0.577
 2290SOL    HW2 7770   0.215   3.505   0.543
 2291SOL     OW 7771   1.842   2.410   5.149
 2291SOL    HW1 7772   1.777   2.484   5.163
 2291SOL    HW2 7773   1.824   2.337   5.215
 2292SOL     OW 7774   1.085   1.802   4.347
 2292SOL    HW1 7775   1.089   1.901   4.333
 2292SOL    HW2 7776   0.990   1.774   4.358
 2293SOL     OW 7777   5.473   6.447   1.262
 2293SOL    HW1 7778   5.389   6.396   1.244
 2293SOL    HW2 7779   5.452   6.544   1.270
 2294SOL     OW 7780   3.190   0.398   6.795
 2294SOL    HW1 7781   3.115   0.337   6.822
 2294SOL    HW2 7782   3.269   0.380   6.854
 2295SOL     OW 7783   0.876   2.008   2.419
 2295SOL    HW1 7784   0.826   2.074   2.475
 2295SOL    HW2 7785   0.822   1.987   2.337
 2296SOL     OW 7786   4.321   4.982   0.125
 2296SOL    HW1 7787   4.400   4.931   0.160
 2296SOL    HW2 7788   4.279   5.034   0.199
 2297SOL     OW 7789   4.005   3.979   5.139
 2297SOL    HW1 7790   4.034   3.984   5.044
 2297SOL    HW2 7791   3.974   3.886   5.160
 2298SOL     OW 7792   4.073   3.140   1.845
 2298SOL    HW1 7793   4.010   3.141   1.768
 2298SOL    HW2 7794   4.163   3.106   1.815
 2299SOL     OW 7795   4.805   6.128   5.588
 2299SOL    HW1 7796   4.714   6.119   5.548
 2299SOL    HW2 7797   4.836   6.038   5.619
 2300SOL     OW 7798   2.615   5.233   2.202
 2300SOL    HW1 7799   2.702   5.188   2.223
 2300SOL    HW2 7800   2.585   5.286   2.282
 2301SOL     OW 7801   3.109   3.159   2.847
 2301SOL    HW1 7802   3.049   3.194   2.775
 2301SOL    HW2 7803   3.068   3.176   2.936
 2302SOL     OW 7804   3.920   6.857   1.006
 2302SOL    HW1 7805   3.953   6.865   0.912
 2302SOL    HW2 7806   3.820   6.861   1.007
 2303SOL     OW 7807   2.079   3.266   6.215
 2303SOL    HW1 7808   2.061   3.178   6.171
 2303SOL    HW2 7809   2.153   3.313   6.167
 2304SOL     OW 7810   4.018   0.154   4.014
 2304SOL    HW1 7811   4.093   0.108   3.966
 2304SOL    HW2 7812   4.052   0.236   4.059
 2305SOL     OW 7813   2.464   6.601   2.860
 2305SOL    HW1 7814   2.421   6.652   2.935
 2305SOL    HW2 7815   2.395   6.582   2.790
 2306SOL     OW 7816   2.835   4.994   1.927
 2306SOL    HW1 7817   2.876   4.937   1.999
 2306SOL    HW2 7818   2.807   4.936   1.851
 2307SOL     OW 7819   0.589   4.097   3.011
 2307SOL    HW1 7820   0.596   4.169   2.941
 2307SOL    HW2 7821   0.680   4.071   3.041
 2308SOL     OW 7822   1.701   6.529   0.178
 2308SOL    HW1 7823   1.768   6.548   0.106
 2308SOL    HW2 7824   1.731   6.450   0.231
 2309SOL     OW 7825   2.992   6.359   6.528
 2309SOL    HW1 7826   2.935   6.438   6.507
 2309SOL    HW2 7827   2.987   6.339   6.625
 2310SOL     OW 7828   5.776   6.631   1.256
 2310SOL    HW1 7829   5.843   6.684   1.308
 2310SOL    HW2 7830   5.713   6.693   1.209
 2311SOL     OW 7831   2.242   5.848   2.121
 2311SOL    HW1 7832   2.316   5.820   2.060
 2311SOL    HW2 7833   2.227   5.947   2.112
 2312SOL     OW 7834   3.620   6.314   3.795
 2312SOL    HW1 7835   3.525   6.332   3.822
 2312SOL    HW2 7836   3.623   6.234   3.735
 2313SOL     OW 7837   5.384   5.700   1.353
 2313SOL    HW1 7838   5.438   5.735   1.429
 2313SOL    HW2 7839   5.367   5.602   1.367
 2314SOL     OW 7840   5.795   0.641   4.951
 2314SOL    HW1 7841   5.785   0.699   4.870
 2314SOL    HW2 7842   5.892   0.624   4.969
 2315SOL     OW 7843   5.137   3.653   5.414
 2315SOL    HW1 7844   5.082   3.729   5.448
 2315SOL    HW2 7845   5.118   3.639   5.317
 2316SOL     OW 7846   3.093   0.843   4.434
 2316SOL    HW1 7847   3.192   0.850   4.447
 2316SOL    HW2 7848   3.066   0.747   4.435
 2317SOL     OW 7849   6.418   6.112   3.053
 2317SOL    HW1 7850   6.395   6.143   3.145
 2317SOL    HW2 7851   6.405   6.013   3.047
 2318SOL     OW 7852   1.958   2.898   4.321
 2318SOL    HW1 7853   2.053   2.869   4.335
 2318SOL    HW2 7854   1.897   2.844   4.378
 2319SOL     OW 7855   3.022   5.458   4.590
 2319SOL    HW1 7856   3.002   5.391   4.661
 2319SOL    HW2 7857   3.099   5.515   4.619
 2320SOL     OW 7858   0.926   3.166   4.210
 2320SOL    HW1 7859   0.892   3.101   4.278
 2320SOL    HW2 7860   1.025   3.163   4.207
 2321SOL     OW 7861   2.154   5.566   0.180
 2321SOL    HW1 7862   2.106   5.483   0.209
 2321SOL    HW2 7863   2.155   5.571   0.081
 2322SOL     OW 7864   1.617   4.286   2.978
 2322SOL    HW1 7865   1.537   4.255   3.029
 2322SOL    HW2 7866   1.602   4.380   2.947
 2323SOL     OW 7867   3.345   4.503   1.659
 2323SOL    HW1 7868   3.426   4.540   1.706
 2323SOL    HW2 7869   3.366   4.413   1.621
 2324SOL     OW 7870   6.553   5.796   0.514
 2324SOL    HW1 7871   6.476   5.845   0.472
 2324SOL    HW2 7872   6.635   5.853   0.510
 2325SOL     OW 7873   1.356   4.369   1.216
 2325SOL    HW1 7874   1.407   4.286   1.194
 2325SOL    HW2 7875   1.272   4.371   1.163
 2326SOL     OW 7876   3.220   6.030   6.554
 2326SOL    HW1 7877   3.149   6.045   6.622
 2326SOL    HW2 7878   3.181   6.037   6.462
 2327SOL     OW 7879   6.583   1.703   4.018
 2327SOL    HW1 7880   6.600   1.795   3.984
 2327SOL    HW2 7881   6.530   1.652   3.950
 2328SOL     OW 7882   1.106   1.665   2.648
 2328SOL    HW1 7883   1.048   1.744   2.629
 2328SOL    HW2 7884   1.200   1.684   2.617
 2329SOL     OW 7885   2.027   4.790   4.622
 2329SOL    HW1 7886   2.018   4.765   4.719
 2329SOL    HW2 7887   2.079   4.719   4.575
 2330SOL     OW 7888   6.910   3.286   1.312
 2330SOL    HW1 7889   6.843   3.360   1.306
 2330SOL    HW2 7890   6.989   3.317   1.365
 2331SOL     OW 7891   4.135   5.323   6.644
 2331SOL    HW1 7892   4.154   5.225   6.643
 2331SOL    HW2 7893   4.054   5.340   6.700
 2332SOL     OW 7894   5.896   0.944   5.482
 2332SOL    HW1 7895   5.875   0.906   5.391
 2332SOL    HW2 7896   5.989   0.979   5.483
 2333SOL     OW 7897   0.119   4.526   2.507
 2333SOL    HW1 7898   0.076   4.604   2.462
 2333SOL    HW2 7899   0.051   4.455   2.523
 2334SOL     OW 7900   2.202   0.538   6.793
 2334SOL    HW1 7901   2.274   0.582   6.738
 2334SOL    HW2 7902   2.150   0.608   6.841
 2335SOL     OW 7903   6.646   1.200   3.871
 2335SOL    HW1 7904   6.615   1.284   3.826
 2335SOL    HW2 7905   6.728   1.220   3.925
 2336SOL     OW 7906   3.891   2.046   4.677
 2336SOL    HW1 7907   3.798   2.033   4.642
 2336SOL    HW2 7908   3.887   2.062   4.775
 2337SOL     OW 7909   4.182   0.826   1.553
 2337SOL    HW1 7910   4.233   0.900   1.597
 2337SOL    HW2 7911   4.092   0.818   1.595
 2338SOL     OW 7912   0.699   3.305   5.278
 2338SOL    HW1 7913   0.735   3.255   5.356
 2338SOL    HW2 7914   0.764   3.301   5.202
 2339SOL     OW 7915   3.011   3.273   3.816
 2339SOL    HW1 7916   2.973   3.286   3.725
 2339SOL    HW2 7917   3.066   3.353   3.841
 2340SOL     OW 7918   6.353   4.646   6.887
 2340SOL    HW1 7919   6.374   4.720   6.950
 2340SOL    HW2 7920   6.337   4.683   6.795
 2341SOL     OW 7921   3.841   4.835   2.084
 2341SOL    HW1 7922   3.823   4.885   2.169
 2341SOL    HW2 7923   3.755   4.804   2.045
 2342SOL     OW 7924   0.888   6.096   5.594
 2342SOL    HW1 7925   0.817   6.085   5.664
 2342SOL    HW2 7926   0.950   6.018   5.597
 2343SOL     OW 7927   1.903   5.861   3.267
 2343SOL    HW1 7928   1.879   5.956   3.244
 2343SOL    HW2 7929   1.821   5.813   3.296
 2344SOL     OW 7930   1.948   5.679   7.015
 2344SOL    HW1 7931   2.046   5.698   7.013
 2344SOL    HW2 7932   1.932   5.583   6.992
 2345SOL     OW 7933   3.122   5.529   4.954
 2345SOL    HW1 7934   3.040   5.580   4.981
 2345SOL    HW2 7935   3.173   5.502   5.035
 2346SOL     OW 7936   4.134   3.042   5.468
 2346SOL    HW1 7937   4.073   2.965   5.486
 2346SOL    HW2 7938   4.115   3.079   5.377
 2347SOL     OW 7939   2.996   2.178   1.371
 2347SOL    HW1 7940   2.927   2.123   1.418
 2347SOL    HW2 7941   2.977   2.275   1.385
 2348SOL     OW 7942   2.748   6.872   3.663
 2348SOL    HW1 7943   2.760   6.882   3.762
 2348SOL    HW2 7944   2.816   6.928   3.616
 2349SOL     OW 7945   1.216   4.562   6.278
 2349SOL    HW1 7946   1.282   4.526   6.212
 2349SOL    HW2 7947   1.188   4.654   6.252
 2350SOL     OW 7948   5.140   0.089   6.587
 2350SOL    HW1 7949   5.067   0.142   6.631
 2350SOL    HW2 7950   5.221   0.147   6.576
 2351SOL     OW 7951   3.062   4.921   4.309
 2351SOL    HW1 7952   2.986   4.857   4.305
 2351SOL    HW2 7953   3.035   5.002   4.361
 2352SOL     OW 7954   0.533   4.302   2.261
 2352SOL    HW1 7955   0.632   4.301   2.245
 2352SOL    HW2 7956   0.516   4.321   2.358
 2353SOL     OW 7957   2.960   4.829   5.681
 2353SOL    HW1 7958   3.007   4.757   5.631
 2353SOL    HW2 7959   3.013   4.914   5.677
 2354SOL     OW 7960   3.358   1.590   5.591
 2354SOL    HW1 7961   3.392   1.679   5.623
 2354SOL    HW2 7962   3.354   1.526   5.667
 2355SOL     OW 7963   2.349   5.668   0.366
 2355SOL    HW1 7964   2.365   5.603   0.440
 2355SOL    HW2 7965   2.281   5.631   0.303
 2356SOL     OW 7966   1.659   3.400   6.361
 2356SOL    HW1 7967   1.706   3.324   6.315
 2356SOL    HW2 7968   1.613   3.457   6.293
 2357SOL     OW 7969   4.179   6.919   2.707
 2357SOL    HW1 7970   4.079   6.920   2.709
 2357SOL    HW2 7971   4.213   7.013   2.716
 2358SOL     OW 7972   4.001   4.963   4.979
 2358SOL    HW1 7973   4.034   4.890   5.039
 2358SOL    HW2 7974   3.979   5.043   5.035
 2359SOL     OW 7975   6.224   0.680   5.734
 2359SOL    HW1 7976   6.143   0.693   5.676
 2359SOL    HW2 7977   6.221   0.589   5.775
 2360SOL     OW 7978   5.283   4.505   6.754
 2360SOL    HW1 7979   5.289   4.510   6.655
 2360SOL    HW2 7980   5.372   4.527   6.794
 2361SOL     OW 7981   2.512   1.156   5.001
 2361SOL    HW1 7982   2.576   1.231   4.987
 2361SOL    HW2 7983   2.558   1.081   5.050
 2362SOL     OW 7984   2.033   6.837   4.589
 2362SOL    HW1 7985   1.998   6.906   4.525
 2362SOL    HW2 7986   2.004   6.746   4.558
 2363SOL     OW 7987   4.543   2.592   4.977
 2363SOL    HW1 7988   4.632   2.628   4.950
 2363SOL    HW2 7989   4.494   2.561   4.896
 2364SOL     OW 7990   1.389   2.235   3.105
 2364SOL    HW1 7991   1.456   2.213   3.034
 2364SOL    HW2 7992   1.319   2.164   3.107
 2365SOL     OW 7993   6.525   2.878   6.581
 2365SOL    HW1 7994   6.577   2.889   6.496
 2365SOL    HW2 7995   6.585   2.896   6.659
 2366SOL     OW 7996   2.172   5.252   6.698
 2366SOL    HW1 7997   2.157   5.321   6.628
 2366SOL    HW2 7998   2.262   5.210   6.685
 2367SOL     OW 7999   2.439   4.601   0.589
 2367SOL    HW1 8000   2.484   4.551   0.662
 2367SOL    HW2 8001   2.507   4.655   0.539
 2368SOL     OW 8002   4.427   0.482   3.887
 2368SOL    HW1 8003   4.342   0.495   3.835
 2368SOL    HW2 8004   4.462   0.390   3.870
 2369SOL     OW 8005   1.277   2.400   5.584
 2369SOL    HW1 8006   1.188   2.358   5.571
 2369SOL    HW2 8007   1.330   2.392   5.499
 2370SOL     OW 8008   5.095   3.781   0.375
 2370SOL    HW1 8009   5.096   3.862   0.316
 2370SOL    HW2 8010   5.140   3.705   0.327
 2371SOL     OW 8011   0.676   0.053   2.781
 2371SOL    HW1 8012   0.744   0.126   2.770
 2371SOL    HW2 8013   0.697   7.028   2.863
 2372SOL     OW 8014   0.169   2.981   2.382
 2372SOL    HW1 8015   0.187   3.058   2.443
 2372SOL    HW2 8016   0.178   3.012   2.287
 2373SOL     OW 8017   0.459   2.256   0.071
 2373SOL    HW1 8018   0.404   2.219   7.024
 2373SOL    HW2 8019   0.430   2.214   0.157
 2374SOL     OW 8020   5.976   0.889   3.417
 2374SOL    HW1 8021   6.030   0.871   3.499
 2374SOL    HW2 8022   6.021   0.849   3.338
 2375SOL     OW 8023   3.217   6.713   4.791
 2375SOL    HW1 8024   3.188   6.807   4.811
 2375SOL    HW2 8025   3.149   6.669   4.732
 2376SOL     OW 8026   6.899   2.391   4.674
 2376SOL    HW1 8027   6.836   2.468   4.670
 2376SOL    HW2 8028   6.959   2.401   4.754
 2377SOL     OW 8029   3.197   4.052   3.287
 2377SOL    HW1 8030   3.134   3.992   3.240
 2377SOL    HW2 8031   3.171   4.060   3.383
 2378SOL     OW 8032   4.876   1.612   0.486
 2378SOL    HW1 8033   4.854   1.674   0.410
 2378SOL    HW2 8034   4.976   1.603   0.494
 2379SOL     OW 8035   5.794   2.031   6.670
 2379SOL    HW1 8036   5.745   2.033   6.757
 2379SOL    HW2 8037   5.727   2.025   6.595
 2380SOL     OW 8038   0.613   1.074   0.045
 2380SOL    HW1 8039   0.648   1.157   0.088
 2380SOL    HW2 8040   0.584   1.095   6.980
 2381SOL     OW 8041   2.219   3.899   4.490
 2381SOL    HW1 8042   2.208   3.800   4.479
 2381SOL    HW2 8043   2.186   3.926   4.580
 2382SOL     OW 8044   2.283   4.325   3.209
 2382SOL    HW1 8045   2.279   4.246   3.269
 2382SOL    HW2 8046   2.319   4.298   3.120
 2383SOL     OW 8047   5.342   6.762   1.767
 2383SOL    HW1 8048   5.329   6.741   1.670
 2383SOL    HW2 8049   5.366   6.678   1.816
 2384SOL     OW 8050   5.710   0.630   2.851
 2384SOL    HW1 8051   5.610   0.632   2.853
 2384SOL    HW2 8052   5.746   0.670   2.935
 2385SOL     OW 8053   0.948   6.483   1.374
 2385SOL    HW1 8054   0.927   6.565   1.426
 2385SOL    HW2 8055   0.866   6.426   1.364
 2386SOL     OW 8056   5.769   5.501   4.297
 2386SOL    HW1 8057   5.817   5.432   4.243
 2386SOL    HW2 8058   5.813   5.590   4.285
 2387SOL     OW 8059   1.279   1.690   3.506
 2387SOL    HW1 8060   1.315   1.643   3.425
 2387SOL    HW2 8061   1.274   1.788   3.489
 2388SOL     OW 8062   0.693   2.478   4.205
 2388SOL    HW1 8063   0.780   2.460   4.250
 2388SOL    HW2 8064   0.695   2.569   4.163
 2389SOL     OW 8065   4.867   3.725   2.932
 2389SOL    HW1 8066   4.873   3.805   2.992
 2389SOL    HW2 8067   4.881   3.753   2.837
 2390SOL     OW 8068   4.080   3.636   2.659
 2390SOL    HW1 8069   4.156   3.697   2.637
 2390SOL    HW2 8070   4.115   3.555   2.706
 2391SOL     OW 8071   4.657   4.449   5.764
 2391SOL    HW1 8072   4.605   4.521   5.810
 2391SOL    HW2 8073   4.594   4.383   5.723
 2392SOL     OW 8074   3.925   6.609   5.079
 2392SOL    HW1 8075   3.840   6.587   5.128
 2392SOL    HW2 8076   3.903   6.658   4.995
 2393SOL     OW 8077   5.333   3.727   6.223
 2393SOL    HW1 8078   5.361   3.816   6.259
 2393SOL    HW2 8079   5.280   3.678   6.292
 2394SOL     OW 8080   1.311   3.580   4.507
 2394SOL    HW1 8081   1.286   3.487   4.535
 2394SOL    HW2 8082   1.410   3.589   4.507
 2395SOL     OW 8083   5.885   2.363   6.938
 2395SOL    HW1 8084   5.961   2.377   7.002
 2395SOL    HW2 8085   5.912   2.295   6.870
 2396SOL     OW 8086   3.321   5.116   1.750
 2396SOL    HW1 8087   3.315   5.135   1.652
 2396SOL    HW2 8088   3.400   5.058   1.769
 2397SOL     OW 8089   0.043   4.152   6.876
 2397SOL    HW1 8090   0.128   4.180   6.920
 2397SOL    HW2 8091   0.009   4.227   6.819
 2398SOL     OW 8092   2.134   3.418   6.615
 2398SOL    HW1 8093   2.151   3.336   6.670
 2398SOL    HW2 8094   2.064   3.398   6.547
 2399SOL     OW 8095   4.284   1.832   1.779
 2399SOL    HW1 8096   4.311   1.898   1.709
 2399SOL    HW2 8097   4.234   1.880   1.852
 2400SOL     OW 8098   3.304   4.347   0.284
 2400SOL    HW1 8099   3.248   4.344   0.367
 2400SOL    HW2 8100   3.345   4.257   0.269
 2401SOL     OW 8101   3.980   5.955   6.175
 2401SOL    HW1 8102   4.073   5.919   6.169
 2401SOL    HW2 8103   3.916   5.889   6.138
 2402SOL     OW 8104   6.860   1.270   3.540
 2402SOL    HW1 8105   6.908   1.215   3.471
 2402SOL    HW2 8106   6.781   1.314   3.498
 2403SOL     OW 8107   2.202   2.816   6.992
 2403SOL    HW1 8108   2.107   2.794   6.969
 2403SOL    HW2 8109   2.261   2.741   6.962
 2404SOL     OW 8110   4.002   1.097   0.863
 2404SOL    HW1 8111   3.966   1.189   0.879
 2404SOL    HW2 8112   3.929   1.038   0.827
 2405SOL     OW 8113   3.826   3.380   2.751
 2405SOL    HW1 8114   3.835   3.454   2.685
 2405SOL    HW2 8115   3.740   3.331   2.736
 2406SOL     OW 8116   2.937   6.517   2.897
 2406SOL    HW1 8117   2.857   6.481   2.850
 2406SOL    HW2 8118   2.997   6.564   2.831
 2407SOL     OW 8119   5.100   2.249   2.050
 2407SOL    HW1 8120   5.157   2.269   1.970
 2407SOL    HW2 8121   5.005   2.240   2.021
 2408SOL     OW 8122   3.842   5.374   2.971
 2408SOL    HW1 8123   3.781   5.446   2.937
 2408SOL    HW2 8124   3.873   5.319   2.893
 2409SOL     OW 8125   1.664   4.016   2.047
 2409SOL    HW1 8126   1.581   4.050   2.091
 2409SOL    HW2 8127   1.694   3.932   2.091
 2410SOL     OW 8128   4.262   2.528   6.135
 2410SOL    HW1 8129   4.351   2.566   6.162
 2410SOL    HW2 8130   4.201   2.603   6.109
 2411SOL     OW 8131   4.332   5.198   4.960
 2411SOL    HW1 8132   4.326   5.243   4.871
 2411SOL    HW2 8133   4.340   5.099   4.946
 2412SOL     OW 8134   4.746   5.442   1.590
 2412SOL    HW1 8135   4.695   5.403   1.513
 2412SOL    HW2 8136   4.687   5.501   1.644
 2413SOL     OW 8137   6.313   2.036   0.876
 2413SOL    HW1 8138   6.365   1.996   0.951
 2413SOL    HW2 8139   6.296   2.132   0.894
 2414SOL     OW 8140   4.774   4.287   2.431
 2414SOL    HW1 8141   4.736   4.307   2.341
 2414SOL    HW2 8142   4.870   4.260   2.421
 2415SOL     OW 8143   0.075   0.057   2.290
 2415SOL    HW1 8144   0.020   0.124   2.239
 2415SOL    HW2 8145   0.029   6.996   2.287
 2416SOL     OW 8146   4.305   2.419   5.347
 2416SOL    HW1 8147   4.252   2.486   5.295
 2416SOL    HW2 8148   4.256   2.332   5.349
 2417SOL     OW 8149   4.072   3.006   5.970
 2417SOL    HW1 8150   4.086   2.911   5.941
 2417SOL    HW2 8151   4.080   3.066   5.890
 2418SOL     OW 8152   2.879   3.657   4.336
 2418SOL    HW1 8153   2.793   3.656   4.286
 2418SOL    HW2 8154   2.941   3.724   4.295
 2419SOL     OW 8155   0.883   6.667   4.745
 2419SOL    HW1 8156   0.895   6.586   4.688
 2419SOL    HW2 8157   0.858   6.745   4.688
 2420SOL     OW 8158   2.955   1.492   2.209
 2420SOL    HW1 8159   2.899   1.412   2.188
 2420SOL    HW2 8160   2.987   1.487   2.304
 2421SOL     OW 8161   2.821   1.955   4.873
 2421SOL    HW1 8162   2.886   2.010   4.924
 2421SOL    HW2 8163   2.826   1.860   4.903
 2422SOL     OW 8164   5.452   1.189   0.757
 2422SOL    HW1 8165   5.521   1.227   0.818
 2422SOL    HW2 8166   5.419   1.101   0.794
 2423SOL     OW 8167   0.964   6.239   2.996
 2423SOL    HW1 8168   0.916   6.154   2.976
 2423SOL    HW2 8169   0.936   6.310   2.932
 2424SOL     OW 8170   6.097   6.697   5.800
 2424SOL    HW1 8171   6.008   6.735   5.774
 2424SOL    HW2 8172   6.128   6.634   5.729
 2425SOL     OW 8173   5.656   0.571   3.880
 2425SOL    HW1 8174   5.672   0.553   3.783
 2425SOL    HW2 8175   5.684   0.491   3.934
 2426SOL     OW 8176   0.760   6.107   5.036
 2426SOL    HW1 8177   0.826   6.071   4.970
 2426SOL    HW2 8178   0.675   6.130   4.989
 2427SOL     OW 8179   5.771   5.838   5.369
 2427SOL    HW1 8180   5.674   5.837   5.343
 2427SOL    HW2 8181   5.784   5.780   5.450
 2428SOL     OW 8182   6.267   0.328   2.697
 2428SOL    HW1 8183   6.231   0.415   2.730
 2428SOL    HW2 8184   6.265   0.261   2.771
 2429SOL     OW 8185   5.451   5.194   3.605
 2429SOL    HW1 8186   5.394   5.210   3.525
 2429SOL    HW2 8187   5.394   5.193   3.687
 2430SOL     OW 8188   5.985   1.640   1.092
 2430SOL    HW1 8189   6.010   1.686   1.007
 2430SOL    HW2 8190   5.952   1.707   1.158
 2431SOL     OW 8191   4.304   1.155   2.720
 2431SOL    HW1 8192   4.309   1.060   2.751
 2431SOL    HW2 8193   4.385   1.204   2.752
 2432SOL     OW 8194   2.940   6.721   3.075
 2432SOL    HW1 8195   3.017   6.784   3.070
 2432SOL    HW2 8196   2.957   6.641   3.017
 2433SOL     OW 8197   3.639   0.520   1.178
 2433SOL    HW1 8198   3.683   0.480   1.259
 2433SOL    HW2 8199   3.590   0.603   1.205
 2434SOL     OW 8200   4.182   0.998   5.194
 2434SOL    HW1 8201   4.195   0.977   5.291
 2434SOL    HW2 8202   4.181   1.097   5.181
 2435SOL     OW 8203   4.807   4.490   6.869
 2435SOL    HW1 8204   4.830   4.494   6.772
 2435SOL    HW2 8205   4.831   4.400   6.905
 2436SOL     OW 8206   1.483   5.798   1.069
 2436SOL    HW1 8207   1.429   5.798   1.153
 2436SOL    HW2 8208   1.553   5.869   1.074
 2437SOL     OW 8209   5.042   6.557   6.442
 2437SOL    HW1 8210   5.089   6.627   6.388
 2437SOL    HW2 8211   5.047   6.580   6.539
 2438SOL     OW 8212   3.371   0.983   6.634
 2438SOL    HW1 8213   3.378   0.928   6.717
 2438SOL    HW2 8214   3.291   1.042   6.640
 2439SOL     OW 8215   1.414   4.438   6.092
 2439SOL    HW1 8216   1.510   4.450   6.116
 2439SOL    HW2 8217   1.403   4.448   5.993
 2440SOL     OW 8218   4.639   5.762   5.654
 2440SOL    HW1 8219   4.738   5.752   5.666
 2440SOL    HW2 8220   4.614   5.736   5.561
 2441SOL     OW 8221   0.895   0.911   0.566
 2441SOL    HW1 8222   0.900   0.815   0.592
 2441SOL    HW2 8223   0.818   0.954   0.612
 2442SOL     OW 8224   1.004   3.950   5.902
 2442SOL    HW1 8225   0.982   3.853   5.909
 2442SOL    HW2 8226   0.986   3.995   5.990
 2443SOL     OW 8227   4.087   5.209   6.008
 2443SOL    HW1 8228   4.133   5.295   6.032
 2443SOL    HW2 8229   4.155   5.136   6.004
 2444SOL     OW 8230   3.351   3.814   6.079
 2444SOL    HW1 8231   3.433   3.850   6.124
 2444SOL    HW2 8232   3.310   3.886   6.023
 2445SOL     OW 8233   0.011   0.899   1.068
 2445SOL    HW1 8234   0.001   0.992   1.031
 2445SOL    HW2 8235   6.953   0.849   1.055
 2446SOL     OW 8236   6.605   4.966   4.282
 2446SOL    HW1 8237   6.678   4.909   4.244
 2446SOL    HW2 8238   6.553   4.914   4.349
 2447SOL     OW 8239   1.954   2.678   0.647
 2447SOL    HW1 8240   2.004   2.741   0.706
 2447SOL    HW2 8241   1.989   2.684   0.553
 2448SOL     OW 8242   0.222   0.980   4.683
 2448SOL    HW1 8243   0.307   1.026   4.707
 2448SOL    HW2 8244   0.243   0.895   4.635
 2449SOL     OW 8245   6.932   4.450   0.867
 2449SOL    HW1 8246   6.893   4.453   0.775
 2449SOL    HW2 8247   6.861   4.469   0.934
 2450SOL     OW 8248   2.717   4.659   3.445
 2450SOL    HW1 8249   2.713   4.623   3.539
 2450SOL    HW2 8250   2.808   4.698   3.429
 2451SOL     OW 8251   0.723   1.265   3.471
 2451SOL    HW1 8252   0.625   1.266   3.450
 2451SOL    HW2 8253   0.764   1.352   3.445
 2452SOL     OW 8254   1.535   3.801   2.768
 2452SOL    HW1 8255   1.626   3.817   2.731
 2452SOL    HW2 8256   1.468   3.854   2.716
 2453SOL     OW 8257   6.258   4.809   1.193
 2453SOL    HW1 8258   6.294   4.853   1.276
 2453SOL    HW2 8259   6.247   4.711   1.211
 2454SOL     OW 8260   2.973   0.608   1.352
 2454SOL    HW1 8261   2.908   0.586   1.424
 2454SOL    HW2 8262   2.990   0.706   1.350
 2455SOL     OW 8263   5.626   6.004   0.378
 2455SOL    HW1 8264   5.599   6.003   0.282
 2455SOL    HW2 8265   5.622   5.911   0.415
 2456SOL     OW 8266   5.034   6.427   1.814
 2456SOL    HW1 8267   5.070   6.513   1.852
 2456SOL    HW2 8268   5.076   6.411   1.725
 2457SOL     OW 8269   5.999   6.454   0.647
 2457SOL    HW1 8270   6.075   6.406   0.604
 2457SOL    HW2 8271   5.980   6.539   0.598
 2458SOL     OW 8272   2.149   5.733   3.340
 2458SOL    HW1 8273   2.059   5.771   3.358
 2458SOL    HW2 8274   2.160   5.715   3.242
 2459SOL     OW 8275   2.288   6.762   0.532
 2459SOL    HW1 8276   2.201   6.806   0.512
 2459SOL    HW2 8277   2.353   6.830   0.567
 2460SOL     OW 8278   2.134   0.915   1.203
 2460SOL    HW1 8279   2.107   0.972   1.280
 2460SOL    HW2 8280   2.158   0.824   1.236
 2461SOL     OW 8281   5.707   0.937   2.664
 2461SOL    HW1 8282   5.688   0.941   2.762
 2461SOL    HW2 8283   5.754   0.852   2.642
 2462SOL     OW 8284   2.784   5.578   0.414
 2462SOL    HW1 8285   2.840   5.658   0.391
 2462SOL    HW2 8286   2.761   5.528   0.331
 2463SOL     OW 8287   5.854   2.682   4.245
 2463SOL    HW1 8288   5.838   2.598   4.298
 2463SOL    HW2 8289   5.808   2.675   4.157
 2464SOL     OW 8290   0.646   4.685   0.764
 2464SOL    HW1 8291   0.632   4.743   0.844
 2464SOL    HW2 8292   0.560   4.675   0.714
 2465SOL     OW 8293   0.269   5.446   1.441
 2465SOL    HW1 8294   0.223   5.534   1.430
 2465SOL    HW2 8295   0.203   5.376   1.467
 2466SOL     OW 8296   3.713   1.179   2.377
 2466SOL    HW1 8297   3.692   1.107   2.443
 2466SOL    HW2 8298   3.719   1.267   2.424
 2467SOL     OW 8299   6.129   1.110   5.705
 2467SOL    HW1 8300   6.093   1.108   5.612
 2467SOL    HW2 8301   6.059   1.147   5.767
 2468SOL     OW 8302   0.195   6.356   1.860
 2468SOL    HW1 8303   0.165   6.339   1.766
 2468SOL    HW2 8304   0.116   6.381   1.916
 2469SOL     OW 8305   3.435   3.983   5.660
 2469SOL    HW1 8306   3.499   3.907   5.671
 2469SOL    HW2 8307   3.446   4.047   5.735
 2470SOL     OW 8308   2.923   4.191   6.326
 2470SOL    HW1 8309   2.882   4.230   6.243
 2470SOL    HW2 8310   2.962   4.101   6.306
 2471SOL     OW 8311   0.842   6.843   1.356
 2471SOL    HW1 8312   0.778   6.912   1.391
 2471SOL    HW2 8313   0.884   6.795   1.433
 2472SOL     OW 8314   5.613   1.557   5.085
 2472SOL    HW1 8315   5.688   1.558   5.150
 2472SOL    HW2 8316   5.636   1.614   5.006
 2473SOL     OW 8317   1.503   5.091   4.832
 2473SOL    HW1 8318   1.495   5.191   4.827
 2473SOL    HW2 8319   1.486   5.061   4.925
 2474SOL     OW 8320   6.963   4.875   6.713
 2474SOL    HW1 8321   6.984   4.871   6.615
 2474SOL    HW2 8322   6.992   4.790   6.757
 2475SOL     OW 8323   4.335   2.505   0.707
 2475SOL    HW1 8324   4.293   2.480   0.619
 2475SOL    HW2 8325   4.398   2.432   0.735
 2476SOL     OW 8326   1.246   2.497   3.855
 2476SOL    HW1 8327   1.264   2.439   3.935
 2476SOL    HW2 8328   1.228   2.590   3.885
 2477SOL     OW 8329   6.589   6.389   1.750
 2477SOL    HW1 8330   6.673   6.341   1.775
 2477SOL    HW2 8331   6.528   6.326   1.700
 2478SOL     OW 8332   6.163   6.030   2.676
 2478SOL    HW1 8333   6.214   6.083   2.744
 2478SOL    HW2 8334   6.227   5.986   2.613
 2479SOL     OW 8335   6.738   3.735   1.528
 2479SOL    HW1 8336   6.786   3.660   1.572
 2479SOL    HW2 8337   6.800   3.783   1.466
 2480SOL     OW 8338   6.793   2.375   0.901
 2480SOL    HW1 8339   6.828   2.411   0.987
 2480SOL    HW2 8340   6.787   2.450   0.834
 2481SOL     OW 8341   3.912   5.935   0.562
 2481SOL    HW1 8342   3.830   5.987   0.585
 2481SOL    HW2 8343   3.896   5.882   0.478
 2482SOL     OW 8344   4.296   3.466   5.832
 2482SOL    HW1 8345   4.326   3.479   5.738
 2482SOL    HW2 8346   4.364   3.412   5.882
 2483SOL     OW 8347   2.086   0.996   0.686
 2483SOL    HW1 8348   2.117   0.923   0.746
 2483SOL    HW2 8349   2.154   1.010   0.614
 2484SOL     OW 8350   2.015   0.651   0.592
 2484SOL    HW1 8351   2.006   0.725   0.525
 2484SOL    HW2 8352   2.109   0.647   0.625
 2485SOL     OW 8353   5.673   4.965   1.898
 2485SOL    HW1 8354   5.726   5.029   1.842
 2485SOL    HW2 8355   5.710   4.963   1.990
 2486SOL     OW 8356   1.709   6.093   3.861
 2486SOL    HW1 8357   1.664   6.176   3.828
 2486SOL    HW2 8358   1.735   6.035   3.783
 2487SOL     OW 8359   4.288   6.195   6.957
 2487SOL    HW1 8360   4.230   6.114   6.961
 2487SOL    HW2 8361   4.252   6.259   6.890
 2488SOL     OW 8362   2.882   4.290   1.423
 2488SOL    HW1 8363   2.841   4.244   1.344
 2488SOL    HW2 8364   2.872   4.389   1.412
 2489SOL     OW 8365   2.413   6.037   4.852
 2489SOL    HW1 8366   2.431   6.035   4.950
 2489SOL    HW2 8367   2.321   6.005   4.834
 2490SOL     OW 8368   6.960   5.052   0.717
 2490SOL    HW1 8369   6.973   4.969   0.771
 2490SOL    HW2 8370   0.008   5.115   0.733
 2491SOL     OW 8371   2.372   5.698   2.742
 2491SOL    HW1 8372   2.400   5.653   2.827
 2491SOL    HW2 8373   2.401   5.641   2.665
 2492SOL     OW 8374   4.786   3.355   6.488
 2492SOL    HW1 8375   4.776   3.260   6.517
 2492SOL    HW2 8376   4.803   3.359   6.390
 2493SOL     OW 8377   5.433   0.677   2.883
 2493SOL    HW1 8378   5.411   0.675   2.786
 2493SOL    HW2 8379   5.410   0.767   2.921
 2494SOL     OW 8380   4.569   2.622   2.798
 2494SOL    HW1 8381   4.535   2.613   2.891
 2494SOL    HW2 8382   4.586   2.719   2.778
 2495SOL     OW 8383   5.130   1.322   5.486
 2495SOL    HW1 8384   5.106   1.232   5.450
 2495SOL    HW2 8385   5.148   1.385   5.411
 2496SOL     OW 8386   1.235   5.416   0.425
 2496SOL    HW1 8387   1.333   5.404   0.441
 2496SOL    HW2 8388   1.186   5.395   0.510
 2497SOL     OW 8389   6.722   1.085   0.363
 2497SOL    HW1 8390   6.717   1.038   0.275
 2497SOL    HW2 8391   6.730   1.183   0.348
 2498SOL     OW 8392   1.889   3.418   3.284
 2498SOL    HW1 8393   1.963   3.431   3.349
 2498SOL    HW2 8394   1.807   3.386   3.331
 2499SOL     OW 8395   5.461   0.840   4.885
 2499SOL    HW1 8396   5.469   0.935   4.858
 2499SOL    HW2 8397   5.471   0.781   4.805
 2500SOL     OW 8398   5.136   3.333   6.324
 2500SOL    HW1 8399   5.172   3.330   6.417
 2500SOL    HW2 8400   5.037   3.346   6.327
 2501SOL     OW 8401   5.800   3.861   6.720
 2501SOL    HW1 8402   5.758   3.871   6.810
 2501SOL    HW2 8403   5.732   3.829   6.654
 2502SOL     OW 8404   2.361   6.390   3.492
 2502SOL    HW1 8405   2.373   6.454   3.415
 2502SOL    HW2 8406   2.269   6.401   3.530
 2503SOL     OW 8407   3.920   5.910   5.701
 2503SOL    HW1 8408   3.943   5.972   5.776
 2503SOL    HW2 8409   4.002   5.889   5.648
 2504SOL     OW 8410   2.353   4.788   4.884
 2504SOL    HW1 8411   2.340   4.689   4.883
 2504SOL    HW2 8412   2.442   4.809   4.925
 2505SOL     OW 8413   3.984   5.613   4.503
 2505SOL    HW1 8414   4.025   5.562   4.427
 2505SOL    HW2 8415   3.885   5.603   4.500
 2506SOL     OW 8416   6.433   3.228   6.109
 2506SOL    HW1 8417   6.353   3.168   6.103
 2506SOL    HW2 8418   6.403   3.324   6.102
 2507SOL     OW 8419   6.449   5.179   0.057
 2507SOL    HW1 8420   6.469   5.162   0.153
 2507SOL    HW2 8421   6.407   5.269   0.047
 2508SOL     OW 8422   2.803   1.948   2.102
 2508SOL    HW1 8423   2.834   1.964   2.009
 2508SOL    HW2 8424   2.809   2.034   2.154
 2509SOL     OW 8425   5.880   2.395   2.390
 2509SOL    HW1 8426   5.861   2.313   2.444
 2509SOL    HW2 8427   5.888   2.370   2.294
 2510SOL     OW 8428   3.371   4.997   0.811
 2510SOL    HW1 8429   3.440   4.935   0.849
 2510SOL    HW2 8430   3.341   5.060   0.882
 2511SOL     OW 8431   1.485   1.086   5.083
 2511SOL    HW1 8432   1.389   1.109   5.063
 2511SOL    HW2 8433   1.516   1.015   5.019
 2512SOL     OW 8434   5.168   3.778   4.593
 2512SOL    HW1 8435   5.190   3.872   4.567
 2512SOL    HW2 8436   5.250   3.722   4.588
 2513SOL     OW 8437   1.143   2.214   6.465
 2513SOL    HW1 8438   1.069   2.270   6.502
 2513SOL    HW2 8439   1.209   2.273   6.419
 2514SOL     OW 8440   0.814   1.685   4.346
 2514SOL    HW1 8441   0.830   1.643   4.435
 2514SOL    HW2 8442   0.732   1.743   4.350
 2515SOL     OW 8443   1.327   6.589   0.357
 2515SOL    HW1 8444   1.302   6.563   0.450
 2515SOL    HW2 8445   1.251   6.570   0.295
 2516SOL     OW 8446   6.071   5.933   3.672
 2516SOL    HW1 8447   6.060   5.966   3.579
 2516SOL    HW2 8448   6.129   5.996   3.723
 2517SOL     OW 8449   2.777   4.203   6.067
 2517SOL    HW1 8450   2.748   4.298   6.051
 2517SOL    HW2 8451   2.815   4.165   5.983
 2518SOL     OW 8452   2.548   2.853   6.755
 2518SOL    HW1 8453   2.512   2.946   6.750
 2518SOL    HW2 8454   2.474   2.790   6.779
 2519SOL     OW 8455   5.078   5.251   4.809
 2519SOL    HW1 8456   5.037   5.248   4.718
 2519SOL    HW2 8457   5.159   5.192   4.811
 2520SOL     OW 8458   2.454   3.395   0.939
 2520SOL    HW1 8459   2.389   3.436   0.875
 2520SOL    HW2 8460   2.461   3.297   0.920
 2521SOL     OW 8461   0.634   0.477   5.684
 2521SOL    HW1 8462   0.658   0.574   5.690
 2521SOL    HW2 8463   0.687   0.425   5.750
 2522SOL     OW 8464   1.350   3.139   4.693
 2522SOL    HW1 8465   1.377   3.043   4.705
 2522SOL    HW2 8466   1.355   3.187   4.781
 2523SOL     OW 8467   6.595   3.225   0.631
 2523SOL    HW1 8468   6.512   3.277   0.652
 2523SOL    HW2 8469   6.648   3.274   0.562
 2524SOL     OW 8470   1.010   6.915   4.009
 2524SOL    HW1 8471   1.025   6.871   3.920
 2524SOL    HW2 8472   1.077   6.988   4.022
 2525SOL     OW 8473   1.085   4.141   4.583
 2525SOL    HW1 8474   1.114   4.170   4.492
 2525SOL    HW2 8475   1.129   4.054   4.606
 2526SOL     OW 8476   0.533   2.201   4.303
 2526SOL    HW1 8477   0.474   2.279   4.325
 2526SOL    HW2 8478   0.620   2.234   4.269
 2527SOL     OW 8479   5.870   6.547   4.847
 2527SOL    HW1 8480   5.824   6.578   4.930
 2527SOL    HW2 8481   5.823   6.467   4.810
 2528SOL     OW 8482   6.076   5.052   0.105
 2528SOL    HW1 8483   6.089   4.955   0.127
 2528SOL    HW2 8484   5.978   5.072   0.101
 2529SOL     OW 8485   4.598   5.526   5.186
 2529SOL    HW1 8486   4.571   5.597   5.120
 2529SOL    HW2 8487   4.684   5.485   5.156
 2530SOL     OW 8488   1.205   6.203   3.831
 2530SOL    HW1 8489   1.213   6.144   3.911
 2530SOL    HW2 8490   1.168   6.292   3.859
 2531SOL     OW 8491   4.856   0.388   4.879
 2531SOL    HW1 8492   4.897   0.367   4.790
 2531SOL    HW2 8493   4.818   0.480   4.877
 2532SOL     OW 8494   1.221   5.726   0.477
 2532SOL    HW1 8495   1.244   5.753   0.571
 2532SOL    HW2 8496   1.153   5.789   0.440
 2533SOL     OW 8497   5.342   0.255   5.216
 2533SOL    HW1 8498   5.362   0.327   5.150
 2533SOL    HW2 8499   5.395   0.272   5.300
 2534SOL     OW 8500   2.138   0.630   3.570
 2534SOL    HW1 8501   2.173   0.542   3.540
 2534SOL    HW2 8502   2.138   0.634   3.670
 2535SOL     OW 8503   1.516   1.892   4.241
 2535SOL    HW1 8504   1.463   1.809   4.228
 2535SOL    HW2 8505   1.524   1.940   4.154
 2536SOL     OW 8506   6.172   1.200   4.332
 2536SOL    HW1 8507   6.254   1.173   4.282
 2536SOL    HW2 8508   6.165   1.147   4.416
 2537SOL     OW 8509   4.769   6.102   1.217
 2537SOL    HW1 8510   4.695   6.037   1.202
 2537SOL    HW2 8511   4.856   6.060   1.192
 2538SOL     OW 8512   1.724   4.914   4.833
 2538SOL    HW1 8513   1.659   4.989   4.820
 2538SOL    HW2 8514   1.799   4.944   4.891
 2539SOL     OW 8515   4.364   6.846   5.479
 2539SOL    HW1 8516   4.380   6.788   5.559
 2539SOL    HW2 8517   4.293   6.805   5.422
 2540SOL     OW 8518   4.892   0.958   2.105
 2540SOL    HW1 8519   4.902   0.985   2.201
 2540SOL    HW2 8520   4.869   0.861   2.100
 2541SOL     OW 8521   1.426   6.869   4.966
 2541SOL    HW1 8522   1.468   6.866   4.875
 2541SOL    HW2 8523   1.339   6.919   4.960
 2542SOL     OW 8524   4.009   1.638   4.074
 2542SOL    HW1 8525   4.007   1.540   4.054
 2542SOL    HW2 8526   4.009   1.652   4.173
 2543SOL     OW 8527   1.015   0.645   3.219
 2543SOL    HW1 8528   1.053   0.552   3.218
 2543SOL    HW2 8529   0.941   0.651   3.152
 2544SOL     OW 8530   0.081   5.249   1.450
 2544SOL    HW1 8531   7.011   5.272   1.443
 2544SOL    HW2 8532   0.098   5.198   1.534
 2545SOL     OW 8533   1.828   1.747   1.158
 2545SOL    HW1 8534   1.891   1.792   1.094
 2545SOL    HW2 8535   1.866   1.751   1.250
 2546SOL     OW 8536   6.127   3.880   1.676
 2546SOL    HW1 8537   6.155   3.825   1.755
 2546SOL    HW2 8538   6.130   3.977   1.700
 2547SOL     OW 8539   5.888   4.903   0.580
 2547SOL    HW1 8540   5.952   4.977   0.594
 2547SOL    HW2 8541   5.923   4.819   0.622
 2548SOL     OW 8542   1.340   0.226   4.619
 2548SOL    HW1 8543   1.255   0.249   4.572
 2548SOL    HW2 8544   1.360   0.128   4.606
 2549SOL     OW 8545   1.883   2.704   2.218
 2549SOL    HW1 8546   1.902   2.776   2.284
 2549SOL    HW2 8547   1.949   2.709   2.143
 2550SOL     OW 8548   5.638   6.882   0.108
 2550SOL    HW1 8549   5.555   6.880   0.053
 2550SOL    HW2 8550   5.707   6.823   0.065
 2551SOL     OW 8551   3.463   4.773   6.947
 2551SOL    HW1 8552   3.495   4.707   7.016
 2551SOL    HW2 8553   3.480   4.866   6.980
 2552SOL     OW 8554   1.949   4.774   6.787
 2552SOL    HW1 8555   1.998   4.689   6.767
 2552SOL    HW2 8556   1.998   4.824   6.859
 2553SOL     OW 8557   3.508   1.871   6.155
 2553SOL    HW1 8558   3.481   1.836   6.245
 2553SOL    HW2 8559   3.518   1.970   6.159
 2554SOL     OW 8560   1.811   5.823   0.166
 2554SOL    HW1 8561   1.782   5.767   0.244
 2554SOL    HW2 8562   1.864   5.766   0.103
 2555SOL     OW 8563   6.460   6.002   6.237
 2555SOL    HW1 8564   6.449   6.032   6.331
 2555SOL    HW2 8565   6.495   6.077   6.182
 2556SOL     OW 8566   3.501   6.844   1.243
 2556SOL    HW1 8567   3.557   6.852   1.162
 2556SOL    HW2 8568   3.421   6.787   1.223
 2557SOL     OW 8569   3.295   0.195   0.376
 2557SOL    HW1 8570   3.346   0.118   0.416
 2557SOL    HW2 8571   3.211   0.209   0.428
 2558SOL     OW 8572   5.495   4.337   6.195
 2558SOL    HW1 8573   5.398   4.327   6.219
 2558SOL    HW2 8574   5.552   4.300   6.267
 2559SOL     OW 8575   0.195   3.445   3.089
 2559SOL    HW1 8576   0.171   3.441   2.992
 2559SOL    HW2 8577   0.232   3.356   3.117
 2560SOL     OW 8578   5.365   3.412   3.582
 2560SOL    HW1 8579   5.387   3.398   3.486
 2560SOL    HW2 8580   5.265   3.406   3.595
 2561SOL     OW 8581   3.435   0.973   4.250
 2561SOL    HW1 8582   3.393   0.992   4.161
 2561SOL    HW2 8583   3.516   1.030   4.261
 2562SOL     OW 8584   3.543   6.252   3.037
 2562SOL    HW1 8585   3.561   6.198   2.955
 2562SOL    HW2 8586   3.445   6.274   3.042
 2563SOL     OW 8587   2.801   1.313   6.512
 2563SOL    HW1 8588   2.873   1.312   6.581
 2563SOL    HW2 8589   2.712   1.318   6.557
 2564SOL     OW 8590   2.288   0.650   0.164
 2564SOL    HW1 8591   2.331   0.591   0.096
 2564SOL    HW2 8592   2.261   0.736   0.122
 2565SOL     OW 8593   0.353   1.490   6.498
 2565SOL    HW1 8594   0.375   1.464   6.592
 2565SOL    HW2 8595   0.392   1.424   6.434
 2566SOL     OW 8596   2.960   0.388   1.840
 2566SOL    HW1 8597   2.958   0.304   1.894
 2566SOL    HW2 8598   3.033   0.448   1.873
 2567SOL     OW 8599   1.355   1.175   0.166
 2567SOL    HW1 8600   1.429   1.126   0.120
 2567SOL    HW2 8601   1.273   1.119   0.166
 2568SOL     OW 8602   2.944   6.535   1.273
 2568SOL    HW1 8603   2.846   6.515   1.282
 2568SOL    HW2 8604   2.961   6.630   1.296
 2569SOL     OW 8605   2.015   1.220   1.165
 2569SOL    HW1 8606   1.951   1.195   1.093
 2569SOL    HW2 8607   2.024   1.144   1.230
 2570SOL     OW 8608   5.273   5.710   6.789
 2570SOL    HW1 8609   5.262   5.626   6.735
 2570SOL    HW2 8610   5.194   5.721   6.849
 2571SOL     OW 8611   3.531   2.885   4.375
 2571SOL    HW1 8612   3.615   2.913   4.421
 2571SOL    HW2 8613   3.456   2.883   4.441
 2572SOL     OW 8614   2.657   5.561   1.520
 2572SOL    HW1 8615   2.658   5.516   1.609
 2572SOL    HW2 8616   2.567   5.551   1.478
 2573SOL     OW 8617   6.618   2.300   3.968
 2573SOL    HW1 8618   6.713   2.270   3.976
 2573SOL    HW2 8619   6.564   2.262   4.043
 2574SOL     OW 8620   6.517   2.726   0.964
 2574SOL    HW1 8621   6.552   2.820   0.972
 2574SOL    HW2 8622   6.524   2.681   1.053
 2575SOL     OW 8623   4.893   3.890   0.570
 2575SOL    HW1 8624   4.807   3.839   0.575
 2575SOL    HW2 8625   4.960   3.837   0.519
 2576SOL     OW 8626   2.727   0.137   3.951
 2576SOL    HW1 8627   2.727   0.037   3.943
 2576SOL    HW2 8628   2.806   0.174   3.902
 2577SOL     OW 8629   3.504   0.618   3.510
 2577SOL    HW1 8630   3.497   0.658   3.418
 2577SOL    HW2 8631   3.595   0.639   3.547
 2578SOL     OW 8632   4.738   2.691   4.474
 2578SOL    HW1 8633   4.724   2.711   4.377
 2578SOL    HW2 8634   4.667   2.628   4.505
 2579SOL     OW 8635   0.366   1.675   6.002
 2579SOL    HW1 8636   0.277   1.718   5.989
 2579SOL    HW2 8637   0.436   1.746   6.012
 2580SOL     OW 8638   1.466   2.703   5.769
 2580SOL    HW1 8639   1.552   2.730   5.812
 2580SOL    HW2 8640   1.425   2.628   5.821
 2581SOL     OW 8641   5.413   5.590   2.048
 2581SOL    HW1 8642   5.478   5.655   2.087
 2581SOL    HW2 8643   5.403   5.608   1.950
 2582SOL     OW 8644   1.660   5.331   2.923
 2582SOL    HW1 8645   1.573   5.350   2.969
 2582SOL    HW2 8646   1.736   5.361   2.979
 2583SOL     OW 8647   0.911   0.839   0.976
 2583SOL    HW1 8648   0.996   0.855   0.927
 2583SOL    HW2 8649   0.887   0.742   0.970
 2584SOL     OW 8650   3.381   6.421   1.018
 2584SOL    HW1 8651   3.373   6.496   0.953
 2584SOL    HW2 8652   3.292   6.377   1.030
 2585SOL     OW 8653   2.889   6.835   1.361
 2585SOL    HW1 8654   2.815   6.901   1.345
 2585SOL    HW2 8655   2.974   6.869   1.321
 2586SOL     OW 8656   6.056   1.272   4.728
 2586SOL    HW1 8657   5.991   1.255   4.802
 2586SOL    HW2 8658   6.119   1.345   4.756
 2587SOL     OW 8659   6.657   0.218   4.657
 2587SOL    HW1 8660   6.658   0.167   4.743
 2587SOL    HW2 8661   6.637   0.156   4.581
 2588SOL     OW 8662   5.222   0.022   1.246
 2588SOL    HW1 8663   5.307   0.031   1.298
 2588SOL    HW2 8664   5.154   0.085   1.282
 2589SOL     OW 8665   6.705   0.660   5.549
 2589SOL    HW1 8666   6.701   0.629   5.455
 2589SOL    HW2 8667   6.687   0.584   5.611
 2590SOL     OW 8668   3.282   0.006   2.957
 2590SOL    HW1 8669   3.367   0.050   2.930
 2590SOL    HW2 8670   3.289   7.002   3.051
 2591SOL     OW 8671   5.120   6.174   0.984
 2591SOL    HW1 8672   5.055   6.229   0.931
 2591SOL    HW2 8673   5.139   6.220   1.071
 2592SOL     OW 8674   3.046   5.858   1.376
 2592SOL    HW1 8675   3.081   5.875   1.284
 2592SOL    HW2 8676   3.019   5.945   1.417
 2593SOL     OW 8677   3.150   0.172   2.789
 2593SOL    HW1 8678   3.181   0.128   2.873
 2593SOL    HW2 8679   3.218   0.158   2.717
 2594SOL     OW 8680   0.488   0.361   6.602
 2594SOL    HW1 8681   0.567   0.352   6.542
 2594SOL    HW2 8682   0.412   0.401   6.552
 2595SOL     OW 8683   6.672   3.008   5.391
 2595SOL    HW1 8684   6.706   3.068   5.319
 2595SOL    HW2 8685   6.699   2.914   5.371
 2596SOL     OW 8686   3.934   2.357   1.713
 2596SOL    HW1 8687   3.853   2.355   1.772
 2596SOL    HW2 8688   4.016   2.346   1.769
 2597SOL     OW 8689   2.562   2.933   0.864
 2597SOL    HW1 8690   2.498   3.007   0.881
 2597SOL    HW2 8691   2.654   2.970   0.851
 2598SOL     OW 8692   6.792   2.913   4.632
 2598SOL    HW1 8693   6.716   2.970   4.602
 2598SOL    HW2 8694   6.878   2.956   4.605
 2599SOL     OW 8695   3.384   5.869   5.619
 2599SOL    HW1 8696   3.382   5.770   5.631
 2599SOL    HW2 8697   3.411   5.890   5.524
 2600SOL     OW 8698   4.889   3.846   3.595
 2600SOL    HW1 8699   4.874   3.795   3.680
 2600SOL    HW2 8700   4.895   3.783   3.518
 2601SOL     OW 8701   2.936   2.200   6.311
 2601SOL    HW1 8702   2.948   2.129   6.381
 2601SOL    HW2 8703   2.976   2.286   6.343
 2602SOL     OW 8704   0.073   4.855   4.678
 2602SOL    HW1 8705   0.031   4.779   4.628
 2602SOL    HW2 8706   0.156   4.884   4.631
 2603SOL     OW 8707   2.288   2.760   1.921
 2603SOL    HW1 8708   2.334   2.675   1.948
 2603SOL    HW2 8709   2.339   2.803   1.847
 2604SOL     OW 8710   5.275   0.204   0.997
 2604SOL    HW1 8711   5.195   0.152   1.025
 2604SOL    HW2 8712   5.314   0.250   1.076
 2605SOL     OW 8713   4.456   4.496   3.341
 2605SOL    HW1 8714   4.375   4.536   3.299
 2605SOL    HW2 8715   4.440   4.478   3.438
 2606SOL     OW 8716   6.880   3.926   0.399
 2606SOL    HW1 8717   6.835   3.854   0.346
 2606SOL    HW2 8718   6.969   3.946   0.359
 2607SOL     OW 8719   1.613   1.846   4.705
 2607SOL    HW1 8720   1.591   1.750   4.725
 2607SOL    HW2 8721   1.561   1.906   4.766
 2608SOL     OW 8722   4.869   0.490   2.556
 2608SOL    HW1 8723   4.967   0.471   2.563
 2608SOL    HW2 8724   4.838   0.468   2.463
 2609SOL     OW 8725   0.722   2.060   1.974
 2609SOL    HW1 8726   0.710   2.014   2.061
 2609SOL    HW2 8727   0.812   2.039   1.937
 2610SOL     OW 8728   6.713   5.811   4.352
 2610SOL    HW1 8729   6.614   5.806   4.337
 2610SOL    HW2 8730   6.731   5.843   4.445
 2611SOL     OW 8731   6.008   6.465   1.448
 2611SOL    HW1 8732   6.107   6.460   1.439
 2611SOL    HW2 8733   5.981   6.561   1.460
 2612SOL     OW 8734   5.773   6.060   4.771
 2612SOL    HW1 8735   5.814   6.021   4.854
 2612SOL    HW2 8736   5.680   6.025   4.760
 2613SOL     OW 8737   3.266   6.468   1.955
 2613SOL    HW1 8738   3.263   6.439   2.051
 2613SOL    HW2 8739   3.305   6.394   1.900
 2614SOL     OW 8740   6.293   6.836   5.391
 2614SOL    HW1 8741   6.223   6.764   5.392
 2614SOL    HW2 8742   6.278   6.898   5.467
 2615SOL     OW 8743   5.558   5.511   3.686
 2615SOL    HW1 8744   5.560   5.589   3.623
 2615SOL    HW2 8745   5.614   5.437   3.649
 2616SOL     OW 8746   4.180   3.487   4.276
 2616SOL    HW1 8747   4.272   3.450   4.290
 2616SOL    HW2 8748   4.162   3.496   4.178
 2617SOL     OW 8749   3.267   5.165   1.004
 2617SOL    HW1 8750   3.194   5.203   0.947
 2617SOL    HW2 8751   3.229   5.138   1.093
 2618SOL     OW 8752   6.858   6.584   3.051
 2618SOL    HW1 8753   6.902   6.652   2.993
 2618SOL    HW2 8754   6.782   6.626   3.101
 2619SOL     OW 8755   4.435   1.661   2.024
 2619SOL    HW1 8756   4.403   1.632   1.933
 2619SOL    HW2 8757   4.428   1.760   2.032
 2620SOL     OW 8758   1.836   5.599   3.510
 2620SOL    HW1 8759   1.801   5.600   3.604
 2620SOL    HW2 8760   1.929   5.562   3.509
 2621SOL     OW 8761   0.932   5.509   3.421
 2621SOL    HW1 8762   0.916   5.605   3.445
 2621SOL    HW2 8763   1.027   5.485   3.441
 2622SOL     OW 8764   1.952   3.029   6.074
 2622SOL    HW1 8765   1.892   2.967   6.024
 2622SOL    HW2 8766   2.029   3.056   6.016
 2623SOL     OW 8767   4.117   1.040   4.430
 2623SOL    HW1 8768   4.202   0.988   4.441
 2623SOL    HW2 8769   4.123   1.095   4.346
 2624SOL     OW 8770   6.515   2.930   3.724
 2624SOL    HW1 8771   6.440   2.934   3.658
 2624SOL    HW2 8772   6.505   2.847   3.780
 2625SOL     OW 8773   1.780   2.947   5.289
 2625SOL    HW1 8774   1.855   2.989   5.341
 2625SOL    HW2 8775   1.800   2.954   5.191
 2626SOL     OW 8776   0.593   6.265   3.878
 2626SOL    HW1 8777   0.557   6.336   3.939
 2626SOL    HW2 8778   0.607   6.180   3.930
 2627SOL     OW 8779   0.129   0.794   4.865
 2627SOL    HW1 8780   0.151   0.701   4.837
 2627SOL    HW2 8781   0.179   0.859   4.806
 2628SOL     OW 8782   3.752   6.116   6.498
 2628SOL    HW1 8783   3.778   6.040   6.558
 2628SOL    HW2 8784   3.693   6.083   6.425
 2629SOL     OW 8785   3.732   3.711   1.918
 2629SOL    HW1 8786   3.796   3.636   1.904
 2629SOL    HW2 8787   3.782   3.790   1.953
 2630SOL     OW 8788   3.470   2.094   2.190
 2630SOL    HW1 8789   3.507   2.002   2.203
 2630SOL    HW2 8790   3.527   2.145   2.126
 2631SOL     OW 8791   4.441   6.813   4.190
 2631SOL    HW1 8792   4.532   6.781   4.164
 2631SOL    HW2 8793   4.373   6.773   4.128
 2632SOL     OW 8794   3.647   2.057   6.722
 2632SOL    HW1 8795   3.639   2.142   6.773
 2632SOL    HW2 8796   3.691   1.988   6.780
 2633SOL     OW 8797   6.191   2.715   6.779
 2633SOL    HW1 8798   6.250   2.654   6.833
 2633SOL    HW2 8799   6.099   2.676   6.774
 2634SOL     OW 8800   1.835   3.949   2.371
 2634SOL    HW1 8801   1.757   3.918   2.425
 2634SOL    HW2 8802   1.862   3.878   2.307
 2635SOL     OW 8803   5.258   6.172   4.582
 2635SOL    HW1 8804   5.296   6.211   4.499
 2635SOL    HW2 8805   5.215   6.084   4.561
 2636SOL     OW 8806   6.315   0.380   6.937
 2636SOL    HW1 8807   6.276   0.438   7.009
 2636SOL    HW2 8808   6.248   0.369   6.864
 2637SOL     OW 8809   6.359   0.980   3.524
 2637SOL    HW1 8810   6.271   0.976   3.477
 2637SOL    HW2 8811   6.348   1.031   3.609
 2638SOL     OW 8812   5.529   0.269   1.810
 2638SOL    HW1 8813   5.582   0.208   1.869
 2638SOL    HW2 8814   5.578   0.356   1.800
 2639SOL     OW 8815   6.089   6.679   2.380
 2639SOL    HW1 8816   6.161   6.677   2.311
 2639SOL    HW2 8817   6.002   6.652   2.339
 2640SOL     OW 8818   6.984   6.451   5.389
 2640SOL    HW1 8819   6.928   6.391   5.332
 2640SOL    HW2 8820   6.980   6.544   5.352
 2641SOL     OW 8821   5.803   3.341   0.937
 2641SOL    HW1 8822   5.870   3.413   0.953
 2641SOL    HW2 8823   5.753   3.359   0.853
 2642SOL     OW 8824   5.770   0.955   4.458
 2642SOL    HW1 8825   5.671   0.952   4.443
 2642SOL    HW2 8826   5.817   0.911   4.381
 2643SOL     OW 8827   0.190   5.445   3.374
 2643SOL    HW1 8828   0.261   5.377   3.355
 2643SOL    HW2 8829   0.194   5.471   3.471
 2644SOL     OW 8830   0.848   4.471   5.672
 2644SOL    HW1 8831   0.887   4.403   5.734
 2644SOL    HW2 8832   0.793   4.425   5.602
 2645SOL     OW 8833   4.478   6.609   5.075
 2645SOL    HW1 8834   4.445   6.517   5.091
 2645SOL    HW2 8835   4.571   6.605   5.039
 2646SOL     OW 8836   5.948   7.016   5.945
 2646SOL    HW1 8837   5.930   6.938   5.884
 2646SOL    HW2 8838   6.042   7.011   5.978
 2647SOL     OW 8839   5.008   0.434   0.833
 2647SOL    HW1 8840   4.994   0.336   0.845
 2647SOL    HW2 8841   5.033   0.475   0.921
 2648SOL     OW 8842   6.201   0.262   3.296
 2648SOL    HW1 8843   6.190   0.340   3.357
 2648SOL    HW2 8844   6.263   0.286   3.221
 2649SOL     OW 8845   4.517   1.441   5.907
 2649SOL    HW1 8846   4.572   1.524   5.897
 2649SOL    HW2 8847   4.502   1.423   6.004
 2650SOL     OW 8848   0.680   5.324   3.815
 2650SOL    HW1 8849   0.772   5.313   3.853
 2650SOL    HW2 8850   0.632   5.396   3.865
 2651SOL     OW 8851   1.050   1.349   0.909
 2651SOL    HW1 8852   1.042   1.444   0.879
 2651SOL    HW2 8853   0.996   1.290   0.849
 2652SOL     OW 8854   3.188   3.048   3.823
 2652SOL    HW1 8855   3.204   3.021   3.728
 2652SOL    HW2 8856   3.122   3.122   3.826
 2653SOL     OW 8857   5.158   6.971   5.492
 2653SOL    HW1 8858   5.073   6.987   5.441
 2653SOL    HW2 8859   5.137   6.959   5.589
 2654SOL     OW 8860   5.147   3.284   6.864
 2654SOL    HW1 8861   5.194   3.364   6.827
 2654SOL    HW2 8862   5.168   3.275   6.962
 2655SOL     OW 8863   3.813   4.998   4.223
 2655SOL    HW1 8864   3.723   4.996   4.178
 2655SOL    HW2 8865   3.809   4.945   4.308
 2656SOL     OW 8866   5.086   4.934   4.005
 2656SOL    HW1 8867   5.073   4.836   4.021
 2656SOL    HW2 8868   5.059   4.957   3.911
 2657SOL     OW 8869   2.572   4.154   6.313
 2657SOL    HW1 8870   2.590   4.220   6.387
 2657SOL    HW2 8871   2.642   4.165   6.242
 2658SOL     OW 8872   6.318   4.647   6.587
 2658SOL    HW1 8873   6.288   4.713   6.518
 2658SOL    HW2 8874   6.246   4.579   6.601
 2659SOL     OW 8875   6.733   1.906   4.424
 2659SOL    HW1 8876   6.757   1.992   4.469
 2659SOL    HW2 8877   6.635   1.888   4.434
 2660SOL     OW 8878   0.373   2.110   1.095
 2660SOL    HW1 8879   0.412   2.106   1.187
 2660SOL    HW2 8880   0.379   2.019   1.053
 2661SOL     OW 8881   2.596   6.806   1.885
 2661SOL    HW1 8882   2.606   6.731   1.819
 2661SOL    HW2 8883   2.634   6.890   1.845
 2662SOL     OW 8884   4.454   6.684   4.812
 2662SOL    HW1 8885   4.511   6.604   4.793
 2662SOL    HW2 8886   4.427   6.684   4.909
 2663SOL     OW 8887   2.243   4.522   1.388
 2663SOL    HW1 8888   2.156   4.472   1.391
 2663SOL    HW2 8889   2.240   4.598   1.452
 2664SOL     OW 8890   3.565   4.090   3.640
 2664SOL    HW1 8891   3.485   4.095   3.700
 2664SOL    HW2 8892   3.647   4.119   3.691
 2665SOL     OW 8893   3.676   2.232   5.161
 2665SOL    HW1 8894   3.581   2.242   5.190
 2665SOL    HW2 8895   3.692   2.138   5.131
 2666SOL     OW 8896   4.608   4.263   1.174
 2666SOL    HW1 8897   4.684   4.279   1.110
 2666SOL    HW2 8898   4.536   4.211   1.128
 2667SOL     OW 8899   1.518   6.099   4.821
 2667SOL    HW1 8900   1.469   6.018   4.790
 2667SOL    HW2 8901   1.535   6.160   4.743
 2668SOL     OW 8902   6.420   3.510   4.125
 2668SOL    HW1 8903   6.510   3.536   4.159
 2668SOL    HW2 8904   6.427   3.483   4.029
 2669SOL     OW 8905   3.301   4.818   5.604
 2669SOL    HW1 8906   3.319   4.811   5.506
 2669SOL    HW2 8907   3.307   4.914   5.632
 2670SOL     OW 8908   6.382   1.420   6.587
 2670SOL    HW1 8909   6.405   1.508   6.545
 2670SOL    HW2 8910   6.321   1.368   6.527
 2671SOL     OW 8911   2.710   3.766   0.227
 2671SOL    HW1 8912   2.718   3.864   0.208
 2671SOL    HW2 8913   2.639   3.750   0.295
 2672SOL     OW 8914   1.481   5.511   0.001
 2672SOL    HW1 8915   1.495   5.439   6.961
 2672SOL    HW2 8916   1.437   5.473   0.082
 2673SOL     OW 8917   5.516   2.592   3.811
 2673SOL    HW1 8918   5.551   2.611   3.903
 2673SOL    HW2 8919   5.492   2.678   3.766
 2674SOL     OW 8920   1.982   4.429   4.216
 2674SOL    HW1 8921   2.071   4.424   4.172
 2674SOL    HW2 8922   1.910   4.430   4.146
 2675SOL     OW 8923   1.560   4.672   5.504
 2675SOL    HW1 8924   1.467   4.673   5.469
 2675SOL    HW2 8925   1.585   4.578   5.529
 2676SOL     OW 8926   4.505   1.287   2.847
 2676SOL    HW1 8927   4.532   1.235   2.928
 2676SOL    HW2 8928   4.584   1.334   2.809
 2677SOL     OW 8929   2.881   5.005   1.436
 2677SOL    HW1 8930   2.955   4.992   1.502
 2677SOL    HW2 8931   2.877   5.101   1.410
 2678SOL     OW 8932   0.685   4.867   0.301
 2678SOL    HW1 8933   0.723   4.840   0.390
 2678SOL    HW2 8934   0.664   4.785   0.248
 2679SOL     OW 8935   3.836   5.275   1.242
 2679SOL    HW1 8936   3.849   5.190   1.192
 2679SOL    HW2 8937   3.875   5.266   1.334
 2680SOL     OW 8938   1.667   1.972   0.284
 2680SOL    HW1 8939   1.660   1.874   0.268
 2680SOL    HW2 8940   1.715   1.989   0.370
 2681SOL     OW 8941   1.880   3.532   4.008
 2681SOL    HW1 8942   1.879   3.488   4.098
 2681SOL    HW2 8943   1.958   3.498   3.956
 2682SOL     OW 8944   5.852   3.225   2.382
 2682SOL    HW1 8945   5.785   3.204   2.311
 2682SOL    HW2 8946   5.852   3.153   2.450
 2683SOL     OW 8947   1.230   4.413   1.476
 2683SOL    HW1 8948   1.297   4.434   1.404
 2683SOL    HW2 8949   1.143   4.388   1.433
 2684SOL     OW 8950   3.848   5.626   2.230
 2684SOL    HW1 8951   3.930   5.630   2.286
 2684SOL    HW2 8952   3.791   5.549   2.258
 2685SOL     OW 8953   6.037   6.718   4.607
 2685SOL    HW1 8954   6.104   6.695   4.677
 2685SOL    HW2 8955   6.040   6.816   4.587
 2686SOL     OW 8956   1.340   2.519   4.202
 2686SOL    HW1 8957   1.354   2.444   4.137
 2686SOL    HW2 8958   1.429   2.555   4.231
 2687SOL     OW 8959   4.191   4.827   2.944
 2687SOL    HW1 8960   4.164   4.857   2.852
 2687SOL    HW2 8961   4.287   4.852   2.960
 2688SOL     OW 8962   4.280   5.734   5.926
 2688SOL    HW1 8963   4.264   5.819   5.875
 2688SOL    HW2 8964   4.312   5.663   5.863
 2689SOL     OW 8965   1.975   1.792   3.968
 2689SOL    HW1 8966   1.923   1.851   3.906
 2689SOL    HW2 8967   2.040   1.848   4.020
 2690SOL     OW 8968   3.777   2.907   3.737
 2690SOL    HW1 8969   3.693   2.861   3.767
 2690SOL    HW2 8970   3.834   2.927   3.817
 2691SOL     OW 8971   1.836   5.434   1.981
 2691SOL    HW1 8972   1.862   5.484   2.064
 2691SOL    HW2 8973   1.828   5.336   2.003
 2692SOL     OW 8974   6.018   6.066   4.226
 2692SOL    HW1 8975   5.970   6.009   4.292
 2692SOL    HW2 8976   5.974   6.155   4.221
 2693SOL     OW 8977   2.404   4.858   3.072
 2693SOL    HW1 8978   2.440   4.839   3.163
 2693SOL    HW2 8979   2.345   4.783   3.043
 2694SOL     OW 8980   2.937   1.126   2.841
 2694SOL    HW1 8981   2.863   1.181   2.802
 2694SOL    HW2 8982   2.989   1.182   2.906
 2695SOL     OW 8983   5.114   1.948   2.623
 2695SOL    HW1 8984   5.016   1.932   2.635
 2695SOL    HW2 8985   5.146   2.016   2.689
 2696SOL     OW 8986   3.709   2.558   5.613
 2696SOL    HW1 8987   3.756   2.527   5.530
 2696SOL    HW2 8988   3.659   2.643   5.592
 2697SOL     OW 8989   4.267   2.270   3.763
 2697SOL    HW1 8990   4.310   2.236   3.847
 2697SOL    HW2 8991   4.322   2.343   3.724
 2698SOL     OW 8992   1.826   5.075   0.567
 2698SOL    HW1 8993   1.813   4.997   0.506
 2698SOL    HW2 8994   1.913   5.119   0.547
 2699SOL     OW 8995   3.862   5.558   6.726
 2699SOL    HW1 8996   3.769   5.529   6.748
 2699SOL    HW2 8997   3.880   5.542   6.628
 2700SOL     OW 8998   1.935   3.790   2.163
 2700SOL    HW1 8999   1.838   3.785   2.144
 2700SOL    HW2 9000   1.967   3.703   2.200
 2701SOL     OW 9001   3.754   6.905   6.516
 2701SOL    HW1 9002   3.827   6.906   6.447
 2701SOL    HW2 9003   3.678   6.962   6.486
 2702SOL     OW 9004   6.799   2.022   3.131
 2702SOL    HW1 9005   6.714   1.972   3.114
 2702SOL    HW2 9006   6.860   1.966   3.187
 2703SOL     OW 9007   2.671   0.858   3.167
 2703SOL    HW1 9008   2.675   0.826   3.072
 2703SOL    HW2 9009   2.637   0.784   3.225
 2704SOL     OW 9010   1.447   5.467   1.568
 2704SOL    HW1 9011   1.413   5.374   1.586
 2704SOL    HW2 9012   1.487   5.504   1.652
 2705SOL     OW 9013   0.352   5.408   4.514
 2705SOL    HW1 9014   0.336   5.345   4.591
 2705SOL    HW2 9015   0.402   5.488   4.546
 2706SOL     OW 9016   0.106   0.901   1.680
 2706SOL    HW1 9017   0.096   0.944   1.590
 2706SOL    HW2 9018   0.111   0.801   1.668
 2707SOL     OW 9019   2.024   0.521   5.929
 2707SOL    HW1 9020   2.114   0.507   5.970
 2707SOL    HW2 9021   2.024   0.483   5.836
 2708SOL     OW 9022   2.422   2.637   1.678
 2708SOL    HW1 9023   2.465   2.546   1.678
 2708SOL    HW2 9024   2.478   2.700   1.732
 2709SOL     OW 9025   5.080   6.660   1.004
 2709SOL    HW1 9026   5.119   6.744   1.042
 2709SOL    HW2 9027   5.041   6.604   1.078
 2710SOL     OW 9028   6.665   4.220   2.746
 2710SOL    HW1 9029   6.578   4.270   2.732
 2710SOL    HW2 9030   6.734   4.256   2.683
 2711SOL     OW 9031   2.308   0.360   2.729
 2711SOL    HW1 9032   2.263   0.367   2.818
 2711SOL    HW2 9033   2.374   0.434   2.719
 2712SOL     OW 9034   3.580   5.054   7.010
 2712SOL    HW1 9035   3.535   5.142   7.019
 2712SOL    HW2 9036   3.583   5.027   6.913
 2713SOL     OW 9037   2.098   2.587   4.523
 2713SOL    HW1 9038   2.127   2.659   4.461
 2713SOL    HW2 9039   2.136   2.604   4.614
 2714SOL     OW 9040   5.266   1.339   6.809
 2714SOL    HW1 9041   5.267   1.241   6.791
 2714SOL    HW2 9042   5.227   1.387   6.730
 2715SOL     OW 9043   6.363   0.486   0.492
 2715SOL    HW1 9044   6.415   0.564   0.460
 2715SOL    HW2 9045   6.401   0.453   0.578
 2716SOL     OW 9046   6.892   5.532   1.676
 2716SOL    HW1 9047   6.943   5.611   1.642
 2716SOL    HW2 9048   6.816   5.564   1.733
 2717SOL     OW 9049   0.939   5.647   2.081
 2717SOL    HW1 9050   0.990   5.733   2.076
 2717SOL    HW2 9051   0.856   5.655   2.025
 2718SOL     OW 9052   2.283   4.392   4.239
 2718SOL    HW1 9053   2.317   4.314   4.186
 2718SOL    HW2 9054   2.358   4.455   4.257
 2719SOL     OW 9055   4.374   4.929   2.228
 2719SOL    HW1 9056   4.433   4.937   2.308
 2719SOL    HW2 9057   4.363   4.833   2.204
 2720SOL     OW 9058   1.838   6.129   3.507
 2720SOL    HW1 9059   1.761   6.183   3.539
 2720SOL    HW2 9060   1.831   6.116   3.408
 2721SOL     OW 9061   2.823   0.451   5.118
 2721SOL    HW1 9062   2.903   0.401   5.083
 2721SOL    HW2 9063   2.854   0.526   5.176
 2722SOL     OW 9064   6.473   5.455   2.992
 2722SOL    HW1 9065   6.503   5.360   2.981
 2722SOL    HW2 9066   6.553   5.514   3.000
 2723SOL     OW 9067   1.829   1.242   5.821
 2723SOL    HW1 9068   1.806   1.173   5.753
 2723SOL    HW2 9069   1.817   1.203   5.913
 2724SOL     OW 9070   2.900   6.002   5.179
 2724SOL    HW1 9071   2.850   5.963   5.101
 2724SOL    HW2 9072   2.846   5.991   5.262
 2725SOL     OW 9073   6.187   4.648   3.374
 2725SOL    HW1 9074   6.105   4.704   3.390
 2725SOL    HW2 9075   6.160   4.553   3.361
 2726SOL     OW 9076   4.693   4.852   1.633
 2726SOL    HW1 9077   4.633   4.816   1.704
 2726SOL    HW2 9078   4.685   4.796   1.551
 2727SOL     OW 9079   0.680   4.551   3.063
 2727SOL    HW1 9080   0.763   4.498   3.080
 2727SOL    HW2 9081   0.610   4.491   3.025
 2728SOL     OW 9082   2.995   0.553   4.490
 2728SOL    HW1 9083   2.949   0.573   4.576
 2728SOL    HW2 9084   2.929   0.518   4.424
 2729SOL     OW 9085   6.831   6.080   2.163
 2729SOL    HW1 9086   6.853   6.021   2.240
 2729SOL    HW2 9087   6.896   6.064   2.089
 2730SOL     OW 9088   2.133   6.824   1.026
 2730SOL    HW1 9089   2.157   6.752   0.961
 2730SOL    HW2 9090   2.033   6.831   1.033
 2731SOL     OW 9091   2.792   3.661   1.475
 2731SOL    HW1 9092   2.694   3.639   1.479
 2731SOL    HW2 9093   2.831   3.655   1.567
 2732SOL     OW 9094   6.117   3.089   2.468
 2732SOL    HW1 9095   6.031   3.110   2.421
 2732SOL    HW2 9096   6.194   3.102   2.404
 2733SOL     OW 9097   0.811   6.586   5.463
 2733SOL    HW1 9098   0.788   6.503   5.515
 2733SOL    HW2 9099   0.770   6.665   5.507
 2734SOL     OW 9100   1.784   5.381   3.243
 2734SOL    HW1 9101   1.794   5.472   3.283
 2734SOL    HW2 9102   1.688   5.353   3.249
 2735SOL     OW 9103   0.239   3.245   2.449
 2735SOL    HW1 9104   0.335   3.226   2.468
 2735SOL    HW2 9105   0.231   3.333   2.403
 2736SOL     OW 9106   4.691   0.603   4.814
 2736SOL    HW1 9107   4.675   0.640   4.906
 2736SOL    HW2 9108   4.623   0.532   4.795
 2737SOL     OW 9109   3.136   3.069   6.385
 2737SOL    HW1 9110   3.113   2.993   6.445
 2737SOL    HW2 9111   3.101   3.155   6.423
 2738SOL     OW 9112   4.910   5.638   4.552
 2738SOL    HW1 9113   4.875   5.699   4.481
 2738SOL    HW2 9114   4.956   5.692   4.623
 2739SOL     OW 9115   6.042   4.357   0.822
 2739SOL    HW1 9116   6.116   4.363   0.755
 2739SOL    HW2 9117   6.081   4.345   0.913
 2740SOL     OW 9118   5.621   1.965   2.389
 2740SOL    HW1 9119   5.522   1.979   2.391
 2740SOL    HW2 9120   5.640   1.871   2.365
 2741SOL     OW 9121   6.994   1.896   5.825
 2741SOL    HW1 9122   6.910   1.944   5.802
 2741SOL    HW2 9123   6.976   1.829   5.897
 2742SOL     OW 9124   1.809   6.199   6.430
 2742SOL    HW1 9125   1.796   6.143   6.512
 2742SOL    HW2 9126   1.733   6.185   6.367
 2743SOL     OW 9127   6.119   6.055   1.561
 2743SOL    HW1 9128   6.153   5.977   1.509
 2743SOL    HW2 9129   6.126   6.138   1.505
 2744SOL     OW 9130   4.200   1.932   0.055
 2744SOL    HW1 9131   4.236   1.848   0.014
 2744SOL    HW2 9132   4.271   2.001   0.059
 2745SOL     OW 9133   2.283   6.415   0.295
 2745SOL    HW1 9134   2.324   6.387   0.208
 2745SOL    HW2 9135   2.203   6.358   0.314
 2746SOL     OW 9136   1.813   3.325   4.812
 2746SOL    HW1 9137   1.799   3.407   4.867
 2746SOL    HW2 9138   1.910   3.316   4.789
 2747SOL     OW 9139   5.173   4.448   5.415
 2747SOL    HW1 9140   5.194   4.440   5.318
 2747SOL    HW2 9141   5.179   4.544   5.442
 2748SOL     OW 9142   3.320   1.688   2.836
 2748SOL    HW1 9143   3.340   1.776   2.793
 2748SOL    HW2 9144   3.338   1.694   2.934
 2749SOL     OW 9145   5.001   5.087   4.333
 2749SOL    HW1 9146   5.069   5.104   4.262
 2749SOL    HW2 9147   4.969   4.993   4.327
 2750SOL     OW 9148   1.038   5.036   1.555
 2750SOL    HW1 9149   0.957   5.071   1.507
 2750SOL    HW2 9150   1.013   5.009   1.648
 2751SOL     OW 9151   1.807   0.043   0.259
 2751SOL    HW1 9152   1.858   0.098   0.194
 2751SOL    HW2 9153   1.788   6.981   0.220
 2752SOL     OW 9154   4.952   5.665   5.202
 2752SOL    HW1 9155   4.924   5.626   5.290
 2752SOL    HW2 9156   4.881   5.728   5.169
 2753SOL     OW 9157   3.082   5.815   6.308
 2753SOL    HW1 9158   3.105   5.718   6.319
 2753SOL    HW2 9159   3.021   5.843   6.382
 2754SOL     OW 9160   6.842   0.283   4.061
 2754SOL    HW1 9161   6.840   0.196   4.012
 2754SOL    HW2 9162   6.775   0.281   4.136
 2755SOL     OW 9163   2.908   6.652   3.392
 2755SOL    HW1 9164   3.007   6.659   3.396
 2755SOL    HW2 9165   2.868   6.744   3.388
 2756SOL     OW 9166   6.095   4.597   4.207
 2756SOL    HW1 9167   6.154   4.574   4.285
 2756SOL    HW2 9168   6.151   4.636   4.134
 2757SOL     OW 9169   3.455   1.411   6.385
 2757SOL    HW1 9170   3.521   1.442   6.455
 2757SOL    HW2 9171   3.492   1.432   6.294
 2758SOL     OW 9172   5.212   5.912   3.604
 2758SOL    HW1 9173   5.304   5.950   3.617
 2758SOL    HW2 9174   5.209   5.819   3.640
 2759SOL     OW 9175   3.466   4.599   5.701
 2759SOL    HW1 9176   3.424   4.510   5.686
 2759SOL    HW2 9177   3.415   4.669   5.651
 2760SOL     OW 9178   6.327   5.831   2.524
 2760SOL    HW1 9179   6.341   5.734   2.503
 2760SOL    HW2 9180   6.383   5.887   2.463
 2761SOL     OW 9181   1.403   4.203   3.193
 2761SOL    HW1 9182   1.349   4.288   3.195
 2761SOL    HW2 9183   1.361   4.139   3.129
 2762SOL     OW 9184   0.963   2.346   6.589
 2762SOL    HW1 9185   0.864   2.361   6.587
 2762SOL    HW2 9186   1.010   2.435   6.597
 2763SOL     OW 9187   5.142   1.831   6.024
 2763SOL    HW1 9188   5.069   1.891   6.056
 2763SOL    HW2 9189   5.124   1.738   6.056
 2764SOL     OW 9190   0.535   4.234   2.758
 2764SOL    HW1 9191   0.455   4.192   2.715
 2764SOL    HW2 9192   0.618   4.188   2.727
 2765SOL     OW 9193   6.712   7.002   0.843
 2765SOL    HW1 9194   6.652   6.923   0.835
 2765SOL    HW2 9195   6.684   0.029   0.922
 2766SOL     OW 9196   4.146   0.908   6.715
 2766SOL    HW1 9197   4.187   0.940   6.629
 2766SOL    HW2 9198   4.154   0.979   6.785
 2767SOL     OW 9199   5.836   5.691   6.459
 2767SOL    HW1 9200   5.878   5.765   6.511
 2767SOL    HW2 9201   5.823   5.721   6.364
 2768SOL     OW 9202   3.635   0.205   0.710
 2768SOL    HW1 9203   3.594   0.276   0.652
 2768SOL    HW2 9204   3.710   0.245   0.762
 2769SOL     OW 9205   1.571   4.218   6.019
 2769SOL    HW1 9206   1.563   4.177   6.109
 2769SOL    HW2 9207   1.659   4.192   5.979
 2770SOL     OW 9208   3.882   6.339   5.929
 2770SOL    HW1 9209   3.978   6.363   5.918
 2770SOL    HW2 9210   3.861   6.329   6.027
 2771SOL     OW 9211   5.589   6.393   4.150
 2771SOL    HW1 9212   5.546   6.472   4.195
 2771SOL    HW2 9213   5.659   6.425   4.086
 2772SOL     OW 9214   3.933   0.855   2.226
 2772SOL    HW1 9215   4.026   0.846   2.190
 2772SOL    HW2 9216   3.893   0.941   2.193
 2773SOL     OW 9217   0.091   3.178   3.984
 2773SOL    HW1 9218   0.151   3.218   4.053
 2773SOL    HW2 9219   0.016   3.129   4.030
 2774SOL     OW 9220   5.280   2.172   2.989
 2774SOL    HW1 9221   5.245   2.179   2.896
 2774SOL    HW2 9222   5.331   2.255   3.012
 2775SOL     OW 9223   0.153   3.790   3.516
 2775SOL    HW1 9224   0.197   3.764   3.602
 2775SOL    HW2 9225   0.165   3.717   3.449
 2776SOL     OW 9226   5.528   5.603   0.269
 2776SOL    HW1 9227   5.503   5.506   0.272
 2776SOL    HW2 9228   5.455   5.655   0.225
 2777SOL     OW 9229   2.560   1.932   5.814
 2777SOL    HW1 9230   2.570   1.918   5.912
 2777SOL    HW2 9231   2.550   1.843   5.768
 2778SOL     OW 9232   2.721   5.777   6.401
 2778SOL    HW1 9233   2.728   5.678   6.393
 2778SOL    HW2 9234   2.812   5.817   6.398
 2779SOL     OW 9235   5.567   6.529   1.824
 2779SOL    HW1 9236   5.596   6.499   1.915
 2779SOL    HW2 9237   5.645   6.568   1.775
 2780SOL     OW 9238   0.335   0.468   6.417
 2780SOL    HW1 9239   0.373   0.444   6.328
 2780SOL    HW2 9240   0.357   0.564   6.438
 2781SOL     OW 9241   6.451   0.656   2.145
 2781SOL    HW1 9242   6.468   0.746   2.105
 2781SOL    HW2 9243   6.439   0.665   2.244
 2782SOL     OW 9244   4.553   0.823   5.658
 2782SOL    HW1 9245   4.554   0.788   5.752
 2782SOL    HW2 9246   4.484   0.895   5.650
 2783SOL     OW 9247   6.194   3.441   1.147
 2783SOL    HW1 9248   6.144   3.366   1.191
 2783SOL    HW2 9249   6.252   3.405   1.074
 2784SOL     OW 9250   3.041   1.652   2.000
 2784SOL    HW1 9251   3.119   1.711   2.022
 2784SOL    HW2 9252   3.029   1.584   2.072
 2785SOL     OW 9253   5.254   2.726   1.309
 2785SOL    HW1 9254   5.260   2.626   1.312
 2785SOL    HW2 9255   5.226   2.760   1.399
 2786SOL     OW 9256   6.629   6.002   1.161
 2786SOL    HW1 9257   6.617   5.906   1.136
 2786SOL    HW2 9258   6.595   6.017   1.254
 2787SOL     OW 9259   6.222   5.995   5.749
 2787SOL    HW1 9260   6.161   5.961   5.677
 2787SOL    HW2 9261   6.182   5.974   5.838
 2788SOL     OW 9262   3.631   6.369   6.164
 2788SOL    HW1 9263   3.707   6.317   6.203
 2788SOL    HW2 9264   3.560   6.383   6.233
 2789SOL     OW 9265   0.774   2.644   3.882
 2789SOL    HW1 9266   0.851   2.689   3.837
 2789SOL    HW2 9267   0.735   2.575   3.821
 2790SOL     OW 9268   2.836   5.255   0.375
 2790SOL    HW1 9269   2.883   5.305   0.448
 2790SOL    HW2 9270   2.890   5.259   0.291
 2791SOL     OW 9271   0.325   4.217   2.115
 2791SOL    HW1 9272   0.258   4.216   2.189
 2791SOL    HW2 9273   0.416   4.234   2.153
 2792SOL     OW 9274   3.013   0.541   4.823
 2792SOL    HW1 9275   2.932   0.553   4.766
 2792SOL    HW2 9276   3.071   0.469   4.784
 2793SOL     OW 9277   4.311   4.159   1.391
 2793SOL    HW1 9278   4.409   4.162   1.412
 2793SOL    HW2 9279   4.259   4.159   1.476
 2794SOL     OW 9280   6.696   1.085   6.617
 2794SOL    HW1 9281   6.737   1.175   6.605
 2794SOL    HW2 9282   6.608   1.095   6.664
 2795SOL     OW 9283   0.650   4.871   0.975
 2795SOL    HW1 9284   0.702   4.949   0.941
 2795SOL    HW2 9285   0.691   4.839   1.061
 2796SOL     OW 9286   0.954   5.631   5.269
 2796SOL    HW1 9287   1.018   5.562   5.237
 2796SOL    HW2 9288   0.899   5.664   5.191
 2797SOL     OW 9289   5.762   5.653   5.142
 2797SOL    HW1 9290   5.789   5.575   5.198
 2797SOL    HW2 9291   5.792   5.738   5.185
 2798SOL     OW 9292   6.674   6.233   2.471
 2798SOL    HW1 9293   6.711   6.141   2.485
 2798SOL    HW2 9294   6.605   6.253   2.540
 2799SOL     OW 9295   4.944   5.407   5.591
 2799SOL    HW1 9296   4.944   5.439   5.686
 2799SOL    HW2 9297   4.906   5.479   5.532
 2800SOL     OW 9298   5.645   0.604   0.010
 2800SOL    HW1 9299   5.593   0.578   0.090
 2800SOL    HW2 9300   5.736   0.561   0.013
 2801SOL     OW 9301   0.607   5.381   5.850
 2801SOL    HW1 9302   0.535   5.354   5.786
 2801SOL    HW2 9303   0.686   5.413   5.799
 2802SOL     OW 9304   6.105   6.607   5.390
 2802SOL    HW1 9305   6.014   6.605   5.431
 2802SOL    HW2 9306   6.146   6.515   5.394
 2803SOL     OW 9307   3.383   3.187   6.266
 2803SOL    HW1 9308   3.305   3.144   6.311
 2803SOL    HW2 9309   3.406   3.136   6.183
 2804SOL     OW 9310   0.231   2.768   3.904
 2804SOL    HW1 9311   0.148   2.786   3.958
 2804SOL    HW2 9312   0.303   2.733   3.964
 2805SOL     OW 9313   4.914   3.323   2.161
 2805SOL    HW1 9314   4.961   3.353   2.244
 2805SOL    HW2 9315   4.830   3.274   2.186
 2806SOL     OW 9316   2.404   3.778   6.088
 2806SOL    HW1 9317   2.353   3.803   6.005
 2806SOL    HW2 9318   2.352   3.807   6.168
 2807SOL     OW 9319   3.000   0.800   3.317
 2807SOL    HW1 9320   2.946   0.728   3.273
 2807SOL    HW2 9321   2.955   0.826   3.403
 2808SOL     OW 9322   6.586   5.745   0.834
 2808SOL    HW1 9323   6.553   5.823   0.781
 2808SOL    HW2 9324   6.595   5.771   0.930
 2809SOL     OW 9325   5.513   3.813   2.083
 2809SOL    HW1 9326   5.555   3.853   2.164
 2809SOL    HW2 9327   5.488   3.887   2.020
 2810SOL     OW 9328   2.382   6.082   3.328
 2810SOL    HW1 9329   2.284   6.086   3.350
 2810SOL    HW2 9330   2.435   6.095   3.412
 2811SOL     OW 9331   0.815   0.531   2.556
 2811SOL    HW1 9332   0.734   0.568   2.601
 2811SOL    HW2 9333   0.890   0.596   2.564
 2812SOL     OW 9334   0.432   3.065   0.256
 2812SOL    HW1 9335   0.352   3.041   0.201
 2812SOL    HW2 9336   0.515   3.033   0.210
 2813SOL     OW 9337   1.043   1.679   1.066
 2813SOL    HW1 9338   1.047   1.775   1.091
 2813SOL    HW2 9339   1.125   1.632   1.099
 2814SOL     OW 9340   2.885   3.906   6.872
 2814SOL    HW1 9341   2.919   3.947   6.787
 2814SOL    HW2 9342   2.892   3.806   6.865
 2815SOL     OW 9343   0.106   5.796   5.129
 2815SOL    HW1 9344   0.054   5.712   5.115
 2815SOL    HW2 9345   0.200   5.782   5.098
 2816SOL     OW 9346   6.697   5.968   5.090
 2816SOL    HW1 9347   6.669   5.931   5.178
 2816SOL    HW2 9348   6.779   5.921   5.058
 2817SOL     OW 9349   3.740   0.656   2.111
 2817SOL    HW1 9350   3.683   0.578   2.137
 2817SOL    HW2 9351   3.801   0.679   2.187
 2818SOL     OW 9352   1.404   0.538   1.065
 2818SOL    HW1 9353   1.448   0.585   0.990
 2818SOL    HW2 9354   1.313   0.577   1.080
 2819SOL     OW 9355   0.672   0.353   0.724
 2819SOL    HW1 9356   0.748   0.294   0.750
 2819SOL    HW2 9357   0.648   0.336   0.628
 2820SOL     OW 9358   0.930   2.492   2.411
 2820SOL    HW1 9359   0.885   2.574   2.445
 2820SOL    HW2 9360   0.948   2.430   2.487
 2821SOL     OW 9361   3.695   5.320   6.806
 2821SOL    HW1 9362   3.790   5.328   6.836
 2821SOL    HW2 9363   3.663   5.226   6.820
 2822SOL     OW 9364   3.532   3.369   1.132
 2822SOL    HW1 9365   3.509   3.454   1.179
 2822SOL    HW2 9366   3.623   3.376   1.091
 2823SOL     OW 9367   4.689   1.016   0.628
 2823SOL    HW1 9368   4.753   1.094   0.627
 2823SOL    HW2 9369   4.714   0.951   0.557
 2824SOL     OW 9370   1.433   3.859   6.091
 2824SOL    HW1 9371   1.438   3.873   5.992
 2824SOL    HW2 9372   1.344   3.820   6.115
 2825SOL     OW 9373   5.174   0.469   6.657
 2825SOL    HW1 9374   5.150   0.459   6.753
 2825SOL    HW2 9375   5.117   0.539   6.614
 2826SOL     OW 9376   1.782   3.206   6.201
 2826SOL    HW1 9377   1.751   3.266   6.127
 2826SOL    HW2 9378   1.829   3.127   6.162
 2827SOL     OW 9379   0.219   0.691   6.684
 2827SOL    HW1 9380   0.149   0.634   6.728
 2827SOL    HW2 9381   0.178   0.740   6.607
 2828SOL     OW 9382   1.451   3.699   1.323
 2828SOL    HW1 9383   1.403   3.741   1.400
 2828SOL    HW2 9384   1.435   3.601   1.323
 2829SOL     OW 9385   3.146   4.070   3.546
 2829SOL    HW1 9386   3.184   4.074   3.639
 2829SOL    HW2 9387   3.124   4.162   3.515
 2830SOL     OW 9388   4.070   4.793   5.163
 2830SOL    HW1 9389   4.153   4.785   5.219
 2830SOL    HW2 9390   3.996   4.741   5.207
 2831SOL     OW 9391   6.504   2.277   1.902
 2831SOL    HW1 9392   6.592   2.278   1.948
 2831SOL    HW2 9393   6.516   2.296   1.805
 2832SOL     OW 9394   0.753   3.149   1.170
 2832SOL    HW1 9395   0.670   3.174   1.121
 2832SOL    HW2 9396   0.804   3.233   1.193
 2833SOL     OW 9397   2.174   0.556   2.273
 2833SOL    HW1 9398   2.189   0.497   2.353
 2833SOL    HW2 9399   2.262   0.579   2.232
 2834SOL     OW 9400   4.543   6.161   5.146
 2834SOL    HW1 9401   4.461   6.203   5.108
 2834SOL    HW2 9402   4.624   6.198   5.099
 2835SOL     OW 9403   1.110   6.431   0.991
 2835SOL    HW1 9404   1.179   6.401   0.926
 2835SOL    HW2 9405   1.069   6.352   1.036
 2836SOL     OW 9406   3.617   6.521   3.307
 2836SOL    HW1 9407   3.522   6.524   3.278
 2836SOL    HW2 9408   3.622   6.506   3.406
 2837SOL     OW 9409   5.778   4.165   2.376
 2837SOL    HW1 9410   5.727   4.199   2.455
 2837SOL    HW2 9411   5.870   4.140   2.404
 2838SOL     OW 9412   4.726   3.962   6.632
 2838SOL    HW1 9413   4.695   4.050   6.597
 2838SOL    HW2 9414   4.723   3.894   6.558
 2839SOL     OW 9415   6.353   3.228   4.122
 2839SOL    HW1 9416   6.371   3.186   4.211
 2839SOL    HW2 9417   6.345   3.327   4.133
 2840SOL     OW 9418   0.816   5.552   2.804
 2840SOL    HW1 9419   0.736   5.495   2.789
 2840SOL    HW2 9420   0.895   5.512   2.756
 2841SOL     OW 9421   5.999   2.373   1.023
 2841SOL    HW1 9422   6.022   2.322   0.940
 2841SOL    HW2 9423   6.083   2.397   1.072
 2842SOL     OW 9424   1.338   6.203   4.273
 2842SOL    HW1 9425   1.392   6.241   4.347
 2842SOL    HW2 9426   1.273   6.272   4.240
 2843SOL     OW 9427   2.124   3.564   3.041
 2843SOL    HW1 9428   2.145   3.468   3.061
 2843SOL    HW2 9429   2.028   3.572   3.014
 2844SOL     OW 9430   4.953   4.624   0.884
 2844SOL    HW1 9431   4.922   4.529   0.886
 2844SOL    HW2 9432   5.052   4.627   0.889
 2845SOL     OW 9433   4.791   2.929   3.458
 2845SOL    HW1 9434   4.797   2.947   3.360
 2845SOL    HW2 9435   4.781   3.015   3.507
 2846SOL     OW 9436   4.765   0.323   0.168
 2846SOL    HW1 9437   4.788   0.418   0.186
 2846SOL    HW2 9438   4.686   0.319   0.107
 2847SOL     OW 9439   4.734   4.287   2.169
 2847SOL    HW1 9440   4.819   4.304   2.119
 2847SOL    HW2 9441   4.659   4.272   2.104
 2848SOL     OW 9442   0.588   3.251   4.969
 2848SOL    HW1 9443   0.547   3.202   5.045
 2848SOL    HW2 9444   0.688   3.245   4.976
 2849SOL     OW 9445   3.755   0.720   2.473
 2849SOL    HW1 9446   3.826   0.750   2.410
 2849SOL    HW2 9447   3.718   0.798   2.522
 2850SOL     OW 9448   2.520   6.771   3.433
 2850SOL    HW1 9449   2.579   6.744   3.510
 2850SOL    HW2 9450   2.466   6.851   3.458
 2851SOL     OW 9451   4.461   3.591   0.515
 2851SOL    HW1 9452   4.442   3.508   0.568
 2851SOL    HW2 9453   4.402   3.594   0.435
 2852SOL     OW 9454   6.387   4.212   6.295
 2852SOL    HW1 9455   6.374   4.115   6.278
 2852SOL    HW2 9456   6.315   4.245   6.357
 2853SOL     OW 9457   0.342   3.613   0.250
 2853SOL    HW1 9458   0.366   3.691   0.194
 2853SOL    HW2 9459   0.265   3.637   0.310
 2854SOL     OW 9460   2.696   1.066   6.636
 2854SOL    HW1 9461   2.740   0.985   6.597
 2854SOL    HW2 9462   2.615   1.090   6.582
 2855SOL     OW 9463   1.282   2.165   4.468
 2855SOL    HW1 9464   1.288   2.260   4.500
 2855SOL    HW2 9465   1.374   2.128   4.457
 2856SOL     OW 9466   1.496   3.913   3.008
 2856SOL    HW1 9467   1.498   3.857   2.926
 2856SOL    HW2 9468   1.587   3.948   3.027
 2857SOL     OW 9469   0.324   3.315   0.145
 2857SOL    HW1 9470   0.367   3.230   0.175
 2857SOL    HW2 9471   0.341   3.387   0.213
 2858SOL     OW 9472   5.225   5.859   3.264
 2858SOL    HW1 9473   5.166   5.842   3.344
 2858SOL    HW2 9474   5.234   5.775   3.211
 2859SOL     OW 9475   5.455   6.199   0.865
 2859SOL    HW1 9476   5.527   6.244   0.918
 2859SOL    HW2 9477   5.496   6.133   0.802
 2860SOL     OW 9478   1.425   5.842   1.789
 2860SOL    HW1 9479   1.498   5.814   1.851
 2860SOL    HW2 9480   1.428   5.941   1.775
 2861SOL     OW 9481   3.672   5.111   6.255
 2861SOL    HW1 9482   3.719   5.069   6.177
 2861SOL    HW2 9483   3.606   5.046   6.293
 2862SOL     OW 9484   4.418   3.248   1.226
 2862SOL    HW1 9485   4.344   3.265   1.291
 2862SOL    HW2 9486   4.382   3.247   1.133
 2863SOL     OW 9487   4.983   0.445   5.867
 2863SOL    HW1 9488   5.049   0.517   5.888
 2863SOL    HW2 9489   5.029   0.370   5.819
 2864SOL     OW 9490   3.987   3.418   1.654
 2864SOL    HW1 9491   3.935   3.332   1.653
 2864SOL    HW2 9492   4.083   3.400   1.633
 2865SOL     OW 9493   4.755   6.415   4.196
 2865SOL    HW1 9494   4.688   6.354   4.154
 2865SOL    HW2 9495   4.708   6.494   4.235
 2866SOL     OW 9496   5.342   4.543   6.491
 2866SOL    HW1 9497   5.349   4.638   6.461
 2866SOL    HW2 9498   5.297   4.488   6.420
 2867SOL     OW 9499   6.333   6.633   2.217
 2867SOL    HW1 9500   6.292   6.556   2.170
 2867SOL    HW2 9501   6.430   6.616   2.232
 2868SOL     OW 9502   1.692   1.565   6.012
 2868SOL    HW1 9503   1.614   1.540   6.069
 2868SOL    HW2 9504   1.694   1.509   5.929
 2869SOL     OW 9505   5.412   6.246   4.307
 2869SOL    HW1 9506   5.401   6.191   4.224
 2869SOL    HW2 9507   5.484   6.314   4.291
 2870SOL     OW 9508   1.346   1.377   1.004
 2870SOL    HW1 9509   1.263   1.338   0.965
 2870SOL    HW2 9510   1.370   1.461   0.954
 2871SOL     OW 9511   6.440   1.328   1.842
 2871SOL    HW1 9512   6.391   1.315   1.928
 2871SOL    HW2 9513   6.407   1.262   1.775
 2872SOL     OW 9514   2.320   1.772   2.845
 2872SOL    HW1 9515   2.384   1.703   2.812
 2872SOL    HW2 9516   2.228   1.750   2.815
 2873SOL     OW 9517   0.760   5.826   1.494
 2873SOL    HW1 9518   0.733   5.824   1.590
 2873SOL    HW2 9519   0.725   5.910   1.451
 2874SOL     OW 9520   2.856   0.358   3.150
 2874SOL    HW1 9521   2.877   0.389   3.243
 2874SOL    HW2 9522   2.878   0.261   3.142
 2875SOL     OW 9523   2.773   6.890   2.921
 2875SOL    HW1 9524   2.836   6.839   2.980
 2875SOL    HW2 9525   2.728   6.828   2.858
 2876SOL     OW 9526   1.691   6.138   2.241
 2876SOL    HW1 9527   1.729   6.162   2.152
 2876SOL    HW2 9528   1.594   6.116   2.231
 2877SOL     OW 9529   2.004   1.564   6.091
 2877SOL    HW1 9530   2.049   1.636   6.143
 2877SOL    HW2 9531   1.919   1.599   6.051
 2878SOL     OW 9532   3.684   2.872   5.054
 2878SOL    HW1 9533   3.584   2.870   5.056
 2878SOL    HW2 9534   3.720   2.810   5.124
 2879SOL     OW 9535   4.523   4.643   5.907
 2879SOL    HW1 9536   4.569   4.728   5.930
 2879SOL    HW2 9537   4.437   4.636   5.958
 2880SOL     OW 9538   0.830   2.114   4.244
 2880SOL    HW1 9539   0.804   2.095   4.149
 2880SOL    HW2 9540   0.930   2.119   4.250
 2881SOL     OW 9541   3.660   5.836   6.713
 2881SOL    HW1 9542   3.650   5.737   6.703
 2881SOL    HW2 9543   3.757   5.859   6.722
 2882SOL     OW 9544   5.818   6.186   0.425
 2882SOL    HW1 9545   5.747   6.116   0.420
 2882SOL    HW2 9546   5.832   6.212   0.520
 2883SOL     OW 9547   5.872   6.276   2.804
 2883SOL    HW1 9548   5.776   6.281   2.777
 2883SOL    HW2 9549   5.885   6.200   2.867
 2884SOL     OW 9550   0.074   5.256   3.028
 2884SOL    HW1 9551   0.166   5.268   2.989
 2884SOL    HW2 9552   0.075   5.177   3.090
 2885SOL     OW 9553   1.487   3.691   3.205
 2885SOL    HW1 9554   1.450   3.696   3.297
 2885SOL    HW2 9555   1.455   3.770   3.152
 2886SOL     OW 9556   2.643   4.356   6.550
 2886SOL    HW1 9557   2.724   4.400   6.589
 2886SOL    HW2 9558   2.592   4.423   6.495
 2887SOL     OW 9559   0.193   5.960   4.647
 2887SOL    HW1 9560   0.273   5.979   4.589
 2887SOL    HW2 9561   0.194   5.864   4.674
 2888SOL     OW 9562   0.073   5.970   0.391
 2888SOL    HW1 9563   0.066   5.947   0.294
 2888SOL    HW2 9564   0.020   5.903   0.445
 2889SOL     OW 9565   2.785   6.910   3.363
 2889SOL    HW1 9566   2.691   6.918   3.328
 2889SOL    HW2 9567   2.843   6.978   3.318
 2890SOL     OW 9568   2.096   5.988   1.225
 2890SOL    HW1 9569   2.134   5.905   1.265
 2890SOL    HW2 9570   2.047   6.039   1.295
 2891SOL     OW 9571   0.484   3.143   2.497
 2891SOL    HW1 9572   0.490   3.068   2.432
 2891SOL    HW2 9573   0.437   3.112   2.580
 2892SOL     OW 9574   6.335   4.146   0.930
 2892SOL    HW1 9575   6.412   4.202   0.900
 2892SOL    HW2 9576   6.260   4.205   0.961
 2893SOL     OW 9577   0.734   5.882   4.695
 2893SOL    HW1 9578   0.803   5.953   4.710
 2893SOL    HW2 9579   0.766   5.819   4.624
 2894SOL     OW 9580   1.282   4.502   1.769
 2894SOL    HW1 9581   1.305   4.512   1.672
 2894SOL    HW2 9582   1.364   4.477   1.820
 2895SOL     OW 9583   3.631   0.305   6.188
 2895SOL    HW1 9584   3.538   0.282   6.215
 2895SOL    HW2 9585   3.691   0.302   6.268
 2896SOL     OW 9586   5.750   0.016   5.432
 2896SOL    HW1 9587   5.755   0.037   5.335
 2896SOL    HW2 9588   5.708   6.954   5.445
 2897SOL     OW 9589   3.326   5.461   2.704
 2897SOL    HW1 9590   3.236   5.491   2.672
 2897SOL    HW2 9591   3.347   5.371   2.665
 2898SOL     OW 9592   6.277   3.796   3.242
 2898SOL    HW1 9593   6.376   3.783   3.237
 2898SOL    HW2 9594   6.233   3.741   3.171
 2899SOL     OW 9595   6.956   2.177   1.119
 2899SOL    HW1 9596   0.004   2.142   1.064
 2899SOL    HW2 9597   6.960   2.277   1.121
 2900SOL     OW 9598   3.100   3.516   7.003
 2900SOL    HW1 9599   3.188   3.561   6.990
 2900SOL    HW2 9600   3.098   3.474   0.066
 2901SOL     OW 9601   1.908   4.570   3.200
 2901SOL    HW1 9602   1.961   4.519   3.268
 2901SOL    HW2 9603   1.810   4.561   3.220
 2902SOL     OW 9604   0.247   6.024   4.012
 2902SOL    HW1 9605   0.229   5.966   4.092
 2902SOL    HW2 9606   0.282   5.968   3.937
 2903SOL     OW 9607   4.798   6.010   0.932
 2903SOL    HW1 9608   4.854   5.959   0.866
 2903SOL    HW2 9609   4.853   6.082   0.973
 2904SOL     OW 9610   2.637   4.750   4.940
 2904SOL    HW1 9611   2.729   4.730   4.974
 2904SOL    HW2 9612   2.615   4.686   4.866
 2905SOL     OW 9613   1.005   4.609   2.804
 2905SOL    HW1 9614   0.924   4.581   2.752
 2905SOL    HW2 9615   0.984   4.691   2.857
 2906SOL     OW 9616   5.246   6.026   2.901
 2906SOL    HW1 9617   5.253   5.927   2.891
 2906SOL    HW2 9618   5.245   6.051   2.998
 2907SOL     OW 9619   0.977   1.133   4.110
 2907SOL    HW1 9620   0.976   1.033   4.123
 2907SOL    HW2 9621   1.056   1.171   4.157
 2908SOL     OW 9622   5.107   0.622   3.368
 2908SOL    HW1 9623   5.158   0.610   3.283
 2908SOL    HW2 9624   5.129   0.548   3.432
 2909SOL     OW 9625   1.141   5.989   3.122
 2909SOL    HW1 9626   1.057   5.985   3.068
 2909SOL    HW2 9627   1.182   5.898   3.125
 2910SOL     OW 9628   6.749   0.917   3.944
 2910SOL    HW1 9629   6.684   0.854   3.986
 2910SOL    HW2 9630   6.712   0.951   3.857
 2911SOL     OW 9631   0.327   4.671   3.789
 2911SOL    HW1 9632   0.258   4.600   3.807
 2911SOL    HW2 9633   0.308   4.713   3.701
 2912SOL     OW 9634   0.169   6.440   0.598
 2912SOL    HW1 9635   0.234   6.497   0.549
 2912SOL    HW2 9636   0.097   6.498   0.637
 2913SOL     OW 9637   1.625   4.798   1.853
 2913SOL    HW1 9638   1.634   4.710   1.807
 2913SOL    HW2 9639   1.689   4.802   1.931
 2914SOL     OW 9640   5.635   4.722   0.316
 2914SOL    HW1 9641   5.598   4.663   0.245
 2914SOL    HW2 9642   5.605   4.816   0.301
 2915SOL     OW 9643   3.199   2.146   2.712
 2915SOL    HW1 9644   3.286   2.122   2.756
 2915SOL    HW2 9645   3.217   2.207   2.634
 2916SOL     OW 9646   2.635   5.119   0.099
 2916SOL    HW1 9647   2.616   5.024   0.075
 2916SOL    HW2 9648   2.702   5.122   0.173
 2917SOL     OW 9649   2.569   0.382   3.818
 2917SOL    HW1 9650   2.642   0.341   3.764
 2917SOL    HW2 9651   2.517   0.309   3.863
 2918SOL     OW 9652   5.992   4.020   1.133
 2918SOL    HW1 9653   5.943   3.996   1.217
 2918SOL    HW2 9654   5.936   3.994   1.054
 2919SOL     OW 9655   0.365   6.028   4.445
 2919SOL    HW1 9656   0.463   6.009   4.433
 2919SOL    HW2 9657   0.344   6.118   4.408
 2920SOL     OW 9658   1.984   0.494   2.108
 2920SOL    HW1 9659   2.051   0.529   2.172
 2920SOL    HW2 9660   1.998   0.396   2.095
 2921SOL     OW 9661   0.480   0.200   5.839
 2921SOL    HW1 9662   0.399   0.158   5.880
 2921SOL    HW2 9663   0.511   0.275   5.897
 2922SOL     OW 9664   4.491   0.312   3.004
 2922SOL    HW1 9665   4.560   0.250   3.042
 2922SOL    HW2 9666   4.471   0.285   2.910
 2923SOL     OW 9667   6.494   4.687   4.971
 2923SOL    HW1 9668   6.517   4.618   4.903
 2923SOL    HW2 9669   6.552   4.768   4.957
 2924SOL     OW 9670   0.067   2.001   5.250
 2924SOL    HW1 9671   0.014   1.926   5.210
 2924SOL    HW2 9672   0.065   1.994   5.349
 2925SOL     OW 9673   5.257   0.933   6.271
 2925SOL    HW1 9674   5.338   0.953   6.326
 2925SOL    HW2 9675   5.210   1.019   6.250
 2926SOL     OW 9676   0.174   2.118   4.985
 2926SOL    HW1 9677   0.271   2.140   4.984
 2926SOL    HW2 9678   0.150   2.079   5.074
 2927SOL     OW 9679   2.052   3.165   1.414
 2927SOL    HW1 9680   2.134   3.217   1.439
 2927SOL    HW2 9681   1.984   3.227   1.377
 2928SOL     OW 9682   6.505   1.983   6.849
 2928SOL    HW1 9683   6.484   2.074   6.885
 2928SOL    HW2 9684   6.461   1.914   6.907
 2929SOL     OW 9685   1.168   2.852   4.646
 2929SOL    HW1 9686   1.167   2.752   4.644
 2929SOL    HW2 9687   1.171   2.888   4.552
 2930SOL     OW 9688   6.341   5.614   5.315
 2930SOL    HW1 9689   6.296   5.542   5.368
 2930SOL    HW2 9690   6.301   5.618   5.223
 2931SOL     OW 9691   3.834   4.706   6.964
 2931SOL    HW1 9692   3.843   4.611   6.994
 2931SOL    HW2 9693   3.854   4.767   0.012
 2932SOL     OW 9694   6.870   6.326   1.530
 2932SOL    HW1 9695   6.956   6.344   1.484
 2932SOL    HW2 9696   6.883   6.253   1.597
 2933SOL     OW 9697   0.676   0.330   1.827
 2933SOL    HW1 9698   0.638   0.263   1.763
 2933SOL    HW2 9699   0.603   0.365   1.886
 2934SOL     OW 9700   3.771   3.114   1.120
 2934SOL    HW1 9701   3.813   3.191   1.167
 2934SOL    HW2 9702   3.712   3.064   1.184
 2935SOL     OW 9703   0.491   2.478   6.012
 2935SOL    HW1 9704   0.462   2.424   5.933
 2935SOL    HW2 9705   0.588   2.500   6.004
 2936SOL     OW 9706   4.489   0.397   0.494
 2936SOL    HW1 9707   4.507   0.428   0.587
 2936SOL    HW2 9708   4.533   0.308   0.480
 2937SOL     OW 9709   4.523   5.596   1.347
 2937SOL    HW1 9710   4.613   5.638   1.360
 2937SOL    HW2 9711   4.533   5.496   1.345
 2938SOL     OW 9712   6.095   5.948   6.602
 2938SOL    HW1 9713   6.153   6.029   6.601
 2938SOL    HW2 9714   6.126   5.884   6.532
 2939SOL     OW 9715   0.557   6.114   1.795
 2939SOL    HW1 9716   0.521   6.092   1.704
 2939SOL    HW2 9717   0.516   6.053   1.862
 2940SOL     OW 9718   5.863   5.870   4.342
 2940SOL    HW1 9719   5.770   5.898   4.367
 2940SOL    HW2 9720   5.861   5.826   4.252
 2941SOL     OW 9721   1.830   3.058   3.353
 2941SOL    HW1 9722   1.828   3.120   3.432
 2941SOL    HW2 9723   1.736   3.045   3.320
 2942SOL     OW 9724   2.198   1.962   6.654
 2942SOL    HW1 9725   2.291   1.980   6.685
 2942SOL    HW2 9726   2.135   1.968   6.731
 2943SOL     OW 9727   6.282   4.073   3.651
 2943SOL    HW1 9728   6.289   4.158   3.600
 2943SOL    HW2 9729   6.212   4.082   3.722
 2944SOL     OW 9730   2.407   6.375   3.794
 2944SOL    HW1 9731   2.330   6.314   3.777
 2944SOL    HW2 9732   2.469   6.374   3.715
 2945SOL     OW 9733   5.279   4.233   1.559
 2945SOL    HW1 9734   5.288   4.288   1.477
 2945SOL    HW2 9735   5.282   4.292   1.640
 2946SOL     OW 9736   3.117   3.782   5.789
 2946SOL    HW1 9737   3.098   3.793   5.692
 2946SOL    HW2 9738   3.117   3.684   5.812
 2947SOL     OW 9739   6.597   6.222   0.606
 2947SOL    HW1 9740   6.539   6.224   0.688
 2947SOL    HW2 9741   6.639   6.312   0.593
 2948SOL     OW 9742   5.851   4.955   3.045
 2948SOL    HW1 9743   5.875   4.937   3.140
 2948SOL    HW2 9744   5.926   4.926   2.986
 2949SOL     OW 9745   0.726   6.232   1.064
 2949SOL    HW1 9746   0.723   6.260   1.160
 2949SOL    HW2 9747   0.687   6.305   1.007
 2950SOL     OW 9748   4.924   4.683   2.364
 2950SOL    HW1 9749   4.919   4.691   2.264
 2950SOL    HW2 9750   4.838   4.648   2.399
 2951SOL     OW 9751   5.672   0.479   1.686
 2951SOL    HW1 9752   5.736   0.436   1.622
 2951SOL    HW2 9753   5.717   0.557   1.730
 2952SOL     OW 9754   6.196   0.825   4.317
 2952SOL    HW1 9755   6.145   0.907   4.292
 2952SOL    HW2 9756   6.240   0.787   4.236
 2953SOL     OW 9757   0.216   5.792   3.039
 2953SOL    HW1 9758   0.154   5.721   3.073
 2953SOL    HW2 9759   0.170   5.881   3.044
 2954SOL     OW 9760   0.830   4.670   6.296
 2954SOL    HW1 9761   0.816   4.685   6.198
 2954SOL    HW2 9762   0.873   4.751   6.336
 2955SOL     OW 9763   1.174   4.069   0.040
 2955SOL    HW1 9764   1.095   4.129   0.050
 2955SOL    HW2 9765   1.198   4.029   0.128
 2956SOL     OW 9766   6.842   4.703   4.357
 2956SOL    HW1 9767   6.863   4.779   4.295
 2956SOL    HW2 9768   6.917   4.638   4.357
 2957SOL     OW 9769   3.051   5.240   1.609
 2957SOL    HW1 9770   3.006   5.280   1.529
 2957SOL    HW2 9771   3.150   5.247   1.598
 2958SOL     OW 9772   1.661   5.048   2.821
 2958SOL    HW1 9773   1.727   5.014   2.754
 2958SOL    HW2 9774   1.692   5.136   2.857
 2959SOL     OW 9775   5.422   2.647   3.206
 2959SOL    HW1 9776   5.518   2.620   3.210
 2959SOL    HW2 9777   5.381   2.640   3.297
 2960SOL     OW 9778   3.834   0.795   0.109
 2960SOL    HW1 9779   3.896   0.797   0.030
 2960SOL    HW2 9780   3.793   0.704   0.116
 2961SOL     OW 9781   5.370   4.421   2.883
 2961SOL    HW1 9782   5.341   4.484   2.956
 2961SOL    HW2 9783   5.460   4.383   2.906
 2962SOL     OW 9784   5.680   6.646   2.962
 2962SOL    HW1 9785   5.720   6.688   2.881
 2962SOL    HW2 9786   5.592   6.604   2.937
 2963SOL     OW 9787   1.108   0.908   5.865
 2963SOL    HW1 9788   1.133   0.990   5.917
 2963SOL    HW2 9789   1.187   0.846   5.860
 2964SOL     OW 9790   0.552   2.806   0.070
 2964SOL    HW1 9791   0.463   2.831   0.031
 2964SOL    HW2 9792   0.547   2.713   0.106
 2965SOL     OW 9793   0.368   0.342   4.555
 2965SOL    HW1 9794   0.424   0.268   4.518
 2965SOL    HW2 9795   0.382   0.347   4.654
 2966SOL     OW 9796   4.674   5.560   3.585
 2966SOL    HW1 9797   4.621   5.519   3.659
 2966SOL    HW2 9798   4.613   5.608   3.522
 2967SOL     OW 9799   0.049   1.041   5.592
 2967SOL    HW1 9800   0.093   1.010   5.508
 2967SOL    HW2 9801   6.978   1.044   5.579
 2968SOL     OW 9802   2.080   2.836   0.833
 2968SOL    HW1 9803   2.038   2.852   0.923
 2968SOL    HW2 9804   2.150   2.765   0.842
 2969SOL     OW 9805   4.932   3.900   4.493
 2969SOL    HW1 9806   4.846   3.900   4.544
 2969SOL    HW2 9807   5.002   3.851   4.545
 2970SOL     OW 9808   2.623   2.644   5.620
 2970SOL    HW1 9809   2.682   2.697   5.558
 2970SOL    HW2 9810   2.673   2.624   5.704
 2971SOL     OW 9811   5.716   3.841   0.272
 2971SOL    HW1 9812   5.762   3.904   0.210
 2971SOL    HW2 9813   5.617   3.848   0.261
 2972SOL     OW 9814   6.051   4.894   6.696
 2972SOL    HW1 9815   6.141   4.931   6.720
 2972SOL    HW2 9816   5.998   4.965   6.650
 2973SOL     OW 9817   4.647   6.753   2.254
 2973SOL    HW1 9818   4.644   6.665   2.206
 2973SOL    HW2 9819   4.706   6.745   2.334
 2974SOL     OW 9820   6.435   4.726   3.276
 2974SOL    HW1 9821   6.352   4.711   3.328
 2974SOL    HW2 9822   6.412   4.742   3.180
 2975SOL     OW 9823   4.396   4.802   4.015
 2975SOL    HW1 9824   4.352   4.718   3.984
 2975SOL    HW2 9825   4.453   4.839   3.941
 2976SOL     OW 9826   4.769   2.074   3.227
 2976SOL    HW1 9827   4.852   2.098   3.177
 2976SOL    HW2 9828   4.791   2.008   3.299
 2977SOL     OW 9829   0.836   0.356   2.134
 2977SOL    HW1 9830   0.804   0.426   2.197
 2977SOL    HW2 9831   0.863   0.399   2.048
 2978SOL     OW 9832   4.451   4.320   6.433
 2978SOL    HW1 9833   4.394   4.362   6.504
 2978SOL    HW2 9834   4.405   4.328   6.345
 2979SOL     OW 9835   3.464   1.619   4.601
 2979SOL    HW1 9836   3.438   1.695   4.542
 2979SOL    HW2 9837   3.560   1.595   4.585
 2980SOL     OW 9838   3.691   4.283   6.425
 2980SOL    HW1 9839   3.633   4.362   6.444
 2980SOL    HW2 9840   3.672   4.211   6.493
 2981SOL     OW 9841   2.062   1.440   0.434
 2981SOL    HW1 9842   2.079   1.367   0.501
 2981SOL    HW2 9843   1.966   1.441   0.409
 2982SOL     OW 9844   1.505   6.654   2.371
 2982SOL    HW1 9845   1.584   6.713   2.358
 2982SOL    HW2 9846   1.437   6.702   2.427
 2983SOL     OW 9847   6.740   2.530   6.470
 2983SOL    HW1 9848   6.839   2.543   6.465
 2983SOL    HW2 9849   6.707   2.488   6.386
 2984SOL     OW 9850   6.295   4.964   6.932
 2984SOL    HW1 9851   6.335   5.051   6.962
 2984SOL    HW2 9852   6.195   4.970   6.935
 2985SOL     OW 9853   0.634   0.197   4.569
 2985SOL    HW1 9854   0.726   0.188   4.606
 2985SOL    HW2 9855   0.638   0.202   4.470
 2986SOL     OW 9856   3.360   4.060   2.650
 2986SOL    HW1 9857   3.320   3.983   2.600
 2986SOL    HW2 9858   3.431   4.026   2.712
 2987SOL     OW 9859   0.954   2.432   4.312
 2987SOL    HW1 9860   0.982   2.339   4.286
 2987SOL    HW2 9861   1.035   2.484   4.340
 2988SOL     OW 9862   1.324   0.756   1.327
 2988SOL    HW1 9863   1.304   0.849   1.357
 2988SOL    HW2 9864   1.258   0.728   1.258
 2989SOL     OW 9865   5.329   3.464   5.222
 2989SOL    HW1 9866   5.302   3.560   5.230
 2989SOL    HW2 9867   5.418   3.450   5.265
 2990SOL     OW 9868   5.490   1.916   4.314
 2990SOL    HW1 9869   5.473   1.978   4.391
 2990SOL    HW2 9870   5.416   1.849   4.309
 2991SOL     OW 9871   5.780   3.728   0.936
 2991SOL    HW1 9872   5.798   3.728   1.035
 2991SOL    HW2 9873   5.864   3.707   0.887
 2992SOL     OW 9874   0.547   3.814   4.691
 2992SOL    HW1 9875   0.618   3.836   4.758
 2992SOL    HW2 9876   0.492   3.737   4.725
 2993SOL     OW 9877   0.534   4.521   6.994
 2993SOL    HW1 9878   0.588   4.509   6.910
 2993SOL    HW2 9879   0.439   4.538   6.970
 2994SOL     OW 9880   5.021   6.026   6.541
 2994SOL    HW1 9881   5.086   5.950   6.534
 2994SOL    HW2 9882   5.030   6.069   6.630
 2995SOL     OW 9883   4.571   0.503   0.769
 2995SOL    HW1 9884   4.539   0.595   0.749
 2995SOL    HW2 9885   4.561   0.485   0.867
 2996SOL     OW 9886   1.533   2.267   4.821
 2996SOL    HW1 9887   1.538   2.349   4.878
 2996SOL    HW2 9888   1.602   2.271   4.750
 2997SOL     OW 9889   4.627   0.762   3.635
 2997SOL    HW1 9890   4.670   0.683   3.592
 2997SOL    HW2 9891   4.596   0.738   3.727
 2998SOL     OW 9892   3.042   0.372   3.847
 2998SOL    HW1 9893   3.051   0.423   3.932
 2998SOL    HW2 9894   3.035   0.436   3.771
 2999SOL     OW 9895   3.133   4.475   0.091
 2999SOL    HW1 9896   3.209   4.420   0.127
 2999SOL    HW2 9897   3.056   4.415   0.070
 3000SOL     OW 9898   2.857   3.324   5.729
 3000SOL    HW1 9899   2.850   3.249   5.663
 3000SOL    HW2 9900   2.766   3.347   5.763
 3001SOL     OW 9901   5.682   0.828   6.734
 3001SOL    HW1 9902   5.687   0.760   6.661
 3001SOL    HW2 9903   5.602   0.809   6.791
 3002SOL     OW 9904   2.987   1.208   1.065
 3002SOL    HW1 9905   2.972   1.307   1.071
 3002SOL    HW2 9906   3.085   1.190   1.057
 3003SOL     OW 9907   1.114   6.041   0.868
 3003SOL    HW1 9908   1.020   6.076   0.869
 3003SOL    HW2 9909   1.154   6.052   0.959
 3004SOL     OW 9910   2.523   4.532   4.246
 3004SOL    HW1 9911   2.476   4.607   4.198
 3004SOL    HW2 9912   2.591   4.491   4.185
 3005SOL     OW 9913   1.116   3.087   5.580
 3005SOL    HW1 9914   1.066   3.025   5.519
 3005SOL    HW2 9915   1.143   3.169   5.529
 3006SOL     OW 9916   5.657   1.836   5.831
 3006SOL    HW1 9917   5.564   1.847   5.794
 3006SOL    HW2 9918   5.657   1.759   5.896
 3007SOL     OW 9919   5.128   5.440   0.182
 3007SOL    HW1 9920   5.067   5.402   0.112
 3007SOL    HW2 9921   5.160   5.530   0.154
 3008SOL     OW 9922   4.345   1.699   5.936
 3008SOL    HW1 9923   4.298   1.757   5.869
 3008SOL    HW2 9924   4.436   1.677   5.903
 3009SOL     OW 9925   6.739   2.718   3.126
 3009SOL    HW1 9926   6.751   2.737   3.224
 3009SOL    HW2 9927   6.791   2.636   3.102
 3010SOL     OW 9928   4.277   5.391   6.091
 3010SOL    HW1 9929   4.338   5.367   6.016
 3010SOL    HW2 9930   4.302   5.481   6.128
 3011SOL     OW 9931   6.180   6.938   1.799
 3011SOL    HW1 9932   6.222   7.008   1.857
 3011SOL    HW2 9933   6.117   6.982   1.735
 3012SOL     OW 9934   2.657   3.370   6.482
 3012SOL    HW1 9935   2.580   3.331   6.430
 3012SOL    HW2 9936   2.743   3.347   6.436
 3013SOL     OW 9937   6.937   6.042   3.319
 3013SOL    HW1 9938   6.928   6.136   3.285
 3013SOL    HW2 9939   6.916   5.978   3.245
 3014SOL     OW 9940   5.063   0.743   6.171
 3014SOL    HW1 9941   5.058   0.760   6.073
 3014SOL    HW2 9942   5.158   0.753   6.201
 3015SOL     OW 9943   1.953   1.149   0.188
 3015SOL    HW1 9944   2.023   1.139   0.259
 3015SOL    HW2 9945   1.871   1.191   0.228
 3016SOL     OW 9946   3.555   0.214   4.603
 3016SOL    HW1 9947   3.633   0.172   4.557
 3016SOL    HW2 9948   3.528   0.296   4.553
 3017SOL     OW 9949   6.476   5.747   1.737
 3017SOL    HW1 9950   6.450   5.842   1.756
 3017SOL    HW2 9951   6.394   5.690   1.737
 3018SOL     OW 9952   4.248   0.043   0.427
 3018SOL    HW1 9953   4.277   0.035   0.332
 3018SOL    HW2 9954   4.155   0.081   0.431
 3019SOL     OW 9955   1.610   6.708   6.947
 3019SOL    HW1 9956   1.516   6.678   6.966
 3019SOL    HW2 9957   1.672   6.630   6.955
 3020SOL     OW 9958   5.439   3.165   7.005
 3020SOL    HW1 9959   5.531   3.204   7.004
 3020SOL    HW2 9960   5.421   3.119   6.918
 3021SOL     OW 9961   3.321   6.243   4.405
 3021SOL    HW1 9962   3.257   6.312   4.438
 3021SOL    HW2 9963   3.372   6.279   4.327
 3022SOL     OW 9964   3.891   5.958   3.498
 3022SOL    HW1 9965   3.934   5.878   3.456
 3022SOL    HW2 9966   3.832   6.003   3.431
 3023SOL     OW 9967   3.723   6.634   2.636
 3023SOL    HW1 9968   3.767   6.609   2.550
 3023SOL    HW2 9969   3.696   6.551   2.685
 3024SOL     OW 9970   6.891   6.256   5.214
 3024SOL    HW1 9971   6.836   6.207   5.282
 3024SOL    HW2 9972   6.838   6.270   5.131
 3025SOL     OW 9973   4.410   5.668   0.313
 3025SOL    HW1 9974   4.447   5.756   0.342
 3025SOL    HW2 9975   4.322   5.682   0.268
 3026SOL     OW 9976   5.684   1.155   0.938
 3026SOL    HW1 9977   5.774   1.194   0.922
 3026SOL    HW2 9978   5.676   1.067   0.891
 3027SOL     OW 9979   4.612   1.835   1.748
 3027SOL    HW1 9980   4.554   1.873   1.819
 3027SOL    HW2 9981   4.704   1.819   1.784
 3028SOL     OW 9982   1.971   3.737   6.500
 3028SOL    HW1 9983   2.040   3.664   6.495
 3028SOL    HW2 9984   2.004   3.810   6.559
 3029SOL     OW 9985   0.640   2.768   4.112
 3029SOL    HW1 9986   0.637   2.783   4.013
 3029SOL    HW2 9987   0.546   2.753   4.145
 3030SOL     OW 9988   1.579   4.314   1.447
 3030SOL    HW1 9989   1.628   4.247   1.392
 3030SOL    HW2 9990   1.552   4.391   1.390
 3031SOL     OW 9991   1.506   5.223   1.206
 3031SOL    HW1 9992   1.527   5.217   1.304
 3031SOL    HW2 9993   1.446   5.301   1.190
 3032SOL     OW 9994   2.137   0.149   3.337
 3032SOL    HW1 9995   2.138   0.191   3.429
 3032SOL    HW2 9996   2.202   0.197   3.278
 3033SOL     OW 9997   6.258   2.814   4.030
 3033SOL    HW1 9998   6.338   2.811   4.090
 3033SOL    HW2 9999   6.182   2.857   4.079
 3034SOL     OW10000   0.779   6.197   3.694
 3034SOL    HW110001   0.839   6.125   3.728
 3034SOL    HW210002   0.711   6.219   3.764
 3035SOL     OW10003   1.421   2.451   6.075
 3035SOL    HW110004   1.427   2.359   6.035
 3035SOL    HW210005   1.335   2.494   6.047
 3036SOL     OW10006   1.356   2.135   5.977
 3036SOL    HW110007   1.383   2.144   5.881
 3036SOL    HW210008   1.278   2.072   5.984
 3037SOL     OW10009   0.705   4.913   5.775
 3037SOL    HW110010   0.606   4.897   5.777
 3037SOL    HW210011   0.751   4.835   5.733
 3038SOL     OW10012   4.831   5.066   5.896
 3038SOL    HW110013   4.836   5.152   5.947
 3038SOL    HW210014   4.922   5.040   5.864
 3039SOL     OW10015   6.095   3.387   0.675
 3039SOL    HW110016   6.134   3.295   0.668
 3039SOL    HW210017   5.995   3.382   0.663
 3040SOL     OW10018   3.584   4.049   6.019
 3040SOL    HW110019   3.605   4.004   6.106
 3040SOL    HW210020   3.640   4.010   5.946
 3041SOL     OW10021   1.476   3.877   4.767
 3041SOL    HW110022   1.487   3.976   4.755
 3041SOL    HW210023   1.537   3.845   4.839
 3042SOL     OW10024   0.438   4.698   2.825
 3042SOL    HW110025   0.489   4.763   2.881
 3042SOL    HW210026   0.383   4.748   2.759
 3043SOL     OW10027   2.544   3.227   0.652
 3043SOL    HW110028   2.521   3.306   0.595
 3043SOL    HW210029   2.639   3.201   0.635
 3044SOL     OW10030   3.309   3.516   5.290
 3044SOL    HW110031   3.264   3.599   5.258
 3044SOL    HW210032   3.372   3.539   5.364
 3045SOL     OW10033   5.046   1.319   3.639
 3045SOL    HW110034   5.028   1.391   3.572
 3045SOL    HW210035   4.963   1.267   3.656
 3046SOL     OW10036   5.438   5.676   0.608
 3046SOL    HW110037   5.442   5.577   0.620
 3046SOL    HW210038   5.408   5.719   0.693
 3047SOL     OW10039   6.020   6.734   0.495
 3047SOL    HW110040   5.990   6.767   0.405
 3047SOL    HW210041   6.115   6.703   0.489
 3048SOL     OW10042   4.118   3.243   1.038
 3048SOL    HW110043   4.211   3.259   1.005
 3048SOL    HW210044   4.060   3.210   0.963
 3049SOL     OW10045   1.025   0.980   4.752
 3049SOL    HW110046   0.954   0.910   4.762
 3049SOL    HW210047   0.983   1.067   4.727
 3050SOL     OW10048   2.143   2.624   1.607
 3050SOL    HW110049   2.235   2.604   1.640
 3050SOL    HW210050   2.097   2.686   1.671
 3051SOL     OW10051   3.687   6.797   6.039
 3051SOL    HW110052   3.759   6.864   6.021
 3051SOL    HW210053   3.616   6.839   6.095
 3052SOL     OW10054   5.603   6.281   2.708
 3052SOL    HW110055   5.558   6.362   2.746
 3052SOL    HW210056   5.542   6.202   2.719
 3053SOL     OW10057   1.864   4.478   0.284
 3053SOL    HW110058   1.845   4.555   0.223
 3053SOL    HW210059   1.961   4.453   0.277
 3054SOL     OW10060   5.548   0.845   3.543
 3054SOL    HW110061   5.482   0.913   3.574
 3054SOL    HW210062   5.513   0.753   3.560
 3055SOL     OW10063   6.479   6.278   6.408
 3055SOL    HW110064   6.431   6.356   6.368
 3055SOL    HW210065   6.575   6.279   6.379
 3056SOL     OW10066   5.460   1.906   6.102
 3056SOL    HW110067   5.388   1.890   6.034
 3056SOL    HW210068   5.541   1.942   6.057
 3057SOL     OW10069   5.559   6.024   3.453
 3057SOL    HW110070   5.489   6.095   3.457
 3057SOL    HW210071   5.600   6.022   3.362
 3058SOL     OW10072   6.130   4.364   0.555
 3058SOL    HW110073   6.109   4.390   0.461
 3058SOL    HW210074   6.190   4.284   0.554
 3059SOL     OW10075   2.320   2.483   4.075
 3059SOL    HW110076   2.327   2.564   4.017
 3059SOL    HW210077   2.405   2.430   4.068
 3060SOL     OW10078   2.983   4.631   6.301
 3060SOL    HW110079   3.076   4.665   6.294
 3060SOL    HW210080   2.984   4.535   6.328
 3061SOL     OW10081   5.605   4.714   5.869
 3061SOL    HW110082   5.570   4.681   5.957
 3061SOL    HW210083   5.596   4.642   5.800
 3062SOL     OW10084   4.269   4.581   1.408
 3062SOL    HW110085   4.193   4.522   1.434
 3062SOL    HW210086   4.320   4.539   1.332
 3063SOL     OW10087   0.620   4.116   0.626
 3063SOL    HW110088   0.577   4.038   0.671
 3063SOL    HW210089   0.602   4.199   0.679
 3064SOL     OW10090   4.423   2.843   0.313
 3064SOL    HW110091   4.512   2.884   0.332
 3064SOL    HW210092   4.394   2.869   0.221
 3065SOL     OW10093   1.040   1.164   6.730
 3065SOL    HW110094   1.128   1.169   6.777
 3065SOL    HW210095   0.968   1.197   6.791
 3066SOL     OW10096   5.162   5.228   5.612
 3066SOL    HW110097   5.225   5.263   5.543
 3066SOL    HW210098   5.082   5.288   5.618
 3067SOL     OW10099   2.599   1.464   6.670
 3067SOL    HW110100   2.579   1.431   6.763
 3067SOL    HW210101   2.630   1.559   6.675
 3068SOL     OW10102   0.740   1.306   1.777
 3068SOL    HW110103   0.725   1.212   1.808
 3068SOL    HW210104   0.820   1.309   1.717
 3069SOL     OW10105   5.739   0.244   3.701
 3069SOL    HW110106   5.828   0.214   3.666
 3069SOL    HW210107   5.687   0.286   3.627
 3070SOL     OW10108   2.914   1.364   6.774
 3070SOL    HW110109   2.932   1.462   6.764
 3070SOL    HW210110   2.858   1.348   6.855
 3071SOL     OW10111   6.916   4.124   3.619
 3071SOL    HW110112   6.851   4.055   3.587
 3071SOL    HW210113   7.006   4.103   3.582
 3072SOL     OW10114   2.156   6.004   6.977
 3072SOL    HW110115   2.084   6.000   0.018
 3072SOL    HW210116   2.116   6.017   6.886
 3073SOL     OW10117   6.505   4.714   0.475
 3073SOL    HW110118   6.557   4.707   0.391
 3073SOL    HW210119   6.558   4.676   0.551
 3074SOL     OW10120   1.006   3.690   0.908
 3074SOL    HW110121   0.971   3.601   0.938
 3074SOL    HW210122   0.931   3.742   0.867
 3075SOL     OW10123   2.711   5.213   3.827
 3075SOL    HW110124   2.792   5.268   3.843
 3075SOL    HW210125   2.697   5.150   3.904
 3076SOL     OW10126   0.280   1.171   4.956
 3076SOL    HW110127   0.199   1.151   4.901
 3076SOL    HW210128   0.361   1.132   4.912
 3077SOL     OW10129   5.888   3.783   1.585
 3077SOL    HW110130   5.814   3.784   1.653
 3077SOL    HW210131   5.974   3.810   1.629
 3078SOL     OW10132   6.172   3.291   1.988
 3078SOL    HW110133   6.222   3.205   1.996
 3078SOL    HW210134   6.226   3.365   2.029
 3079SOL     OW10135   2.226   2.675   4.961
 3079SOL    HW110136   2.293   2.650   5.031
 3079SOL    HW210137   2.163   2.598   4.946
 3080SOL     OW10138   4.517   4.889   1.288
 3080SOL    HW110139   4.420   4.898   1.313
 3080SOL    HW210140   4.564   4.832   1.355
 3081SOL     OW10141   0.858   4.032   0.480
 3081SOL    HW110142   0.833   4.026   0.383
 3081SOL    HW210143   0.785   4.077   0.531
 3082SOL     OW10144   3.474   5.203   4.543
 3082SOL    HW110145   3.497   5.115   4.586
 3082SOL    HW210146   3.553   5.264   4.548
 3083SOL     OW10147   2.629   5.284   2.614
 3083SOL    HW110148   2.719   5.325   2.610
 3083SOL    HW210149   2.560   5.356   2.624
 3084SOL     OW10150   0.493   3.676   2.769
 3084SOL    HW110151   0.482   3.621   2.686
 3084SOL    HW210152   0.492   3.615   2.849
 3085SOL     OW10153   4.795   4.994   0.782
 3085SOL    HW110154   4.814   5.023   0.876
 3085SOL    HW210155   4.715   5.043   0.748
 3086SOL     OW10156   5.647   0.987   0.023
 3086SOL    HW110157   5.734   0.955   7.014
 3086SOL    HW210158   5.640   0.960   0.120
 3087SOL     OW10159   2.490   6.278   2.369
 3087SOL    HW110160   2.477   6.179   2.358
 3087SOL    HW210161   2.423   6.326   2.312
 3088SOL     OW10162   0.443   3.095   5.526
 3088SOL    HW110163   0.407   3.009   5.490
 3088SOL    HW210164   0.535   3.080   5.561
 3089SOL     OW10165   4.779   1.035   4.733
 3089SOL    HW110166   4.878   1.027   4.720
 3089SOL    HW210167   4.754   1.132   4.740
 3090SOL     OW10168   1.092   1.543   1.652
 3090SOL    HW110169   1.084   1.479   1.575
 3090SOL    HW210170   1.187   1.545   1.683
 3091SOL     OW10171   1.064   1.506   0.531
 3091SOL    HW110172   1.003   1.534   0.456
 3091SOL    HW210173   1.019   1.524   0.619
 3092SOL     OW10174   5.308   7.000   2.478
 3092SOL    HW110175   5.222   6.970   2.436
 3092SOL    HW210176   5.354   6.922   2.520
 3093SOL     OW10177   5.649   5.480   6.250
 3093SOL    HW110178   5.736   5.432   6.266
 3093SOL    HW210179   5.574   5.427   6.290
 3094SOL     OW10180   2.370   0.855   4.873
 3094SOL    HW110181   2.402   0.864   4.967
 3094SOL    HW210182   2.394   0.938   4.822
 3095SOL     OW10183   2.727   3.048   5.313
 3095SOL    HW110184   2.781   3.098   5.246
 3095SOL    HW210185   2.631   3.048   5.284
 3096SOL     OW10186   0.546   3.540   5.316
 3096SOL    HW110187   0.509   3.560   5.406
 3096SOL    HW210188   0.611   3.464   5.322
 3097SOL     OW10189   6.317   2.721   6.532
 3097SOL    HW110190   6.270   2.723   6.620
 3097SOL    HW210191   6.398   2.780   6.536
 3098SOL     OW10192   2.009   1.983   2.451
 3098SOL    HW110193   2.074   1.925   2.500
 3098SOL    HW210194   1.976   1.936   2.370
 3099SOL     OW10195   0.551   6.440   3.605
 3099SOL    HW110196   0.580   6.510   3.670
 3099SOL    HW210197   0.569   6.349   3.644
 3100SOL     OW10198   6.107   6.419   2.882
 3100SOL    HW110199   6.142   6.456   2.796
 3100SOL    HW210200   6.023   6.368   2.864
 3101SOL     OW10201   5.068   6.656   6.094
 3101SOL    HW110202   5.083   6.737   6.037
 3101SOL    HW210203   5.113   6.669   6.182
 3102SOL     OW10204   0.591   5.642   0.435
 3102SOL    HW110205   0.514   5.635   0.372
 3102SOL    HW210206   0.647   5.559   0.429
 3103SOL     OW10207   3.862   0.333   0.841
 3103SOL    HW110208   3.815   0.326   0.928
 3103SOL    HW210209   3.951   0.287   0.847
 3104SOL     OW10210   4.768   0.055   6.157
 3104SOL    HW110211   4.720   0.111   6.225
 3104SOL    HW210212   4.769   0.103   6.070
 3105SOL     OW10213   5.394   3.334   0.794
 3105SOL    HW110214   5.305   3.337   0.839
 3105SOL    HW210215   5.427   3.240   0.789
 3106SOL     OW10216   5.812   0.903   5.182
 3106SOL    HW110217   5.828   0.811   5.146
 3106SOL    HW210218   5.745   0.950   5.124
 3107SOL     OW10219   4.549   1.996   4.516
 3107SOL    HW110220   4.621   2.007   4.447
 3107SOL    HW210221   4.539   2.082   4.567
 3108SOL     OW10222   2.471   4.441   4.493
 3108SOL    HW110223   2.470   4.484   4.403
 3108SOL    HW210224   2.479   4.342   4.483
 3109SOL     OW10225   6.357   0.108   4.610
 3109SOL    HW110226   6.385   0.154   4.694
 3109SOL    HW210227   6.436   0.096   4.550
 3110SOL     OW10228   2.577   4.875   3.743
 3110SOL    HW110229   2.498   4.922   3.703
 3110SOL    HW210230   2.661   4.922   3.714
 3111SOL     OW10231   6.724   4.863   4.899
 3111SOL    HW110232   6.773   4.778   4.919
 3111SOL    HW210233   6.732   4.885   4.802
 3112SOL     OW10234   3.927   2.900   0.429
 3112SOL    HW110235   3.870   2.872   0.352
 3112SOL    HW210236   4.014   2.850   0.427
 3113SOL     OW10237   2.736   5.613   2.556
 3113SOL    HW110238   2.732   5.641   2.652
 3113SOL    HW210239   2.811   5.661   2.511
 3114SOL     OW10240   3.670   1.265   6.977
 3114SOL    HW110241   3.602   1.305   6.915
 3114SOL    HW210242   3.645   1.170   6.997
 3115SOL     OW10243   4.071   4.002   5.552
 3115SOL    HW110244   4.100   4.020   5.458
 3115SOL    HW210245   4.122   4.061   5.614
 3116SOL     OW10246   0.923   2.049   0.657
 3116SOL    HW110247   0.941   2.141   0.623
 3116SOL    HW210248   0.846   2.051   0.721
 3117SOL     OW10249   4.920   2.333   5.685
 3117SOL    HW110250   4.900   2.287   5.772
 3117SOL    HW210251   4.909   2.432   5.697
 3118SOL     OW10252   1.424   0.411   3.025
 3118SOL    HW110253   1.383   0.502   3.016
 3118SOL    HW210254   1.456   0.398   3.118
 3119SOL     OW10255   3.529   2.766   5.413
 3119SOL    HW110256   3.546   2.823   5.494
 3119SOL    HW210257   3.610   2.767   5.355
 3120SOL     OW10258   3.044   0.348   5.035
 3120SOL    HW110259   3.111   0.386   5.099
 3120SOL    HW210260   3.060   0.387   4.944
 3121SOL     OW10261   4.909   1.992   4.564
 3121SOL    HW110262   4.840   2.065   4.559
 3121SOL    HW210263   4.891   1.925   4.492
 3122SOL     OW10264   4.470   4.705   4.294
 3122SOL    HW110265   4.516   4.660   4.217
 3122SOL    HW210266   4.520   4.789   4.317
 3123SOL     OW10267   2.039   1.058   3.814
 3123SOL    HW110268   2.138   1.047   3.805
 3123SOL    HW210269   1.997   1.052   3.724
 3124SOL     OW10270   5.079   6.455   4.659
 3124SOL    HW110271   5.063   6.391   4.734
 3124SOL    HW210272   5.073   6.408   4.572
 3125SOL     OW10273   0.873   3.305   5.035
 3125SOL    HW110274   0.933   3.383   5.047
 3125SOL    HW210275   0.928   3.221   5.027
 3126SOL     OW10276   5.768   5.569   4.728
 3126SOL    HW110277   5.685   5.620   4.749
 3126SOL    HW210278   5.755   5.516   4.644
 3127SOL     OW10279   1.087   2.614   4.580
 3127SOL    HW110280   1.137   2.588   4.497
 3127SOL    HW210281   1.030   2.537   4.610
 3128SOL     OW10282   3.518   0.387   0.328
 3128SOL    HW110283   3.482   0.436   0.249
 3128SOL    HW210284   3.451   0.319   0.358
 3129SOL     OW10285   5.108   3.451   1.330
 3129SOL    HW110286   5.127   3.523   1.263
 3129SOL    HW210287   5.195   3.417   1.368
 3130SOL     OW10288   1.694   4.252   1.188
 3130SOL    HW110289   1.717   4.328   1.127
 3130SOL    HW210290   1.773   4.192   1.199
 3131SOL     OW10291   6.955   3.971   2.048
 3131SOL    HW110292   7.019   4.018   1.987
 3131SOL    HW210293   6.871   4.024   2.055
 3132SOL     OW10294   4.026   4.467   0.591
 3132SOL    HW110295   3.999   4.544   0.533
 3132SOL    HW210296   3.988   4.480   0.683
 3133SOL     OW10297   3.465   0.675   3.239
 3133SOL    HW110298   3.495   0.736   3.165
 3133SOL    HW210299   3.506   0.585   3.226
 3134SOL     OW10300   3.249   4.826   1.910
 3134SOL    HW110301   3.335   4.784   1.940
 3134SOL    HW210302   3.222   4.787   1.822
 3135SOL     OW10303   5.528   6.740   5.969
 3135SOL    HW110304   5.480   6.659   5.934
 3135SOL    HW210305   5.535   6.808   5.896
 3136SOL     OW10306   6.061   1.064   2.379
 3136SOL    HW110307   5.987   1.015   2.333
 3136SOL    HW210308   6.029   1.155   2.407
 3137SOL     OW10309   6.340   0.484   0.963
 3137SOL    HW110310   6.390   0.446   0.885
 3137SOL    HW210311   6.242   0.483   0.943
 3138SOL     OW10312   5.557   5.540   4.117
 3138SOL    HW110313   5.605   5.537   4.029
 3138SOL    HW210314   5.624   5.529   4.191
 3139SOL     OW10315   2.723   4.778   1.378
 3139SOL    HW110316   2.720   4.723   1.462
 3139SOL    HW210317   2.769   4.865   1.398
 3140SOL     OW10318   5.928   6.357   5.524
 3140SOL    HW110319   5.989   6.277   5.528
 3140SOL    HW210320   5.894   6.376   5.616
 3141SOL     OW10321   0.576   2.562   0.171
 3141SOL    HW110322   0.662   2.515   0.151
 3141SOL    HW210323   0.518   2.503   0.227
 3142SOL     OW10324   4.437   0.884   2.791
 3142SOL    HW110325   4.534   0.903   2.774
 3142SOL    HW210326   4.422   0.785   2.787
 3143SOL     OW10327   5.749   1.903   0.190
 3143SOL    HW110328   5.819   1.840   0.225
 3143SOL    HW210329   5.693   1.855   0.122
 3144SOL     OW10330   4.344   3.921   6.871
 3144SOL    HW110331   4.393   4.005   6.896
 3144SOL    HW210332   4.335   3.916   6.772
 3145SOL     OW10333   2.746   6.681   2.062
 3145SOL    HW110334   2.683   6.741   2.012
 3145SOL    HW210335   2.760   6.597   2.011
 3146SOL     OW10336   0.656   0.503   5.127
 3146SOL    HW110337   0.684   0.414   5.092
 3146SOL    HW210338   0.705   0.575   5.076
 3147SOL     OW10339   3.615   5.331   6.523
 3147SOL    HW110340   3.625   5.264   6.449
 3147SOL    HW210341   3.646   5.290   6.609
 3148SOL     OW10342   0.557   6.736   3.031
 3148SOL    HW110343   0.647   6.756   3.070
 3148SOL    HW210344   0.486   6.763   3.096
 3149SOL     OW10345   3.229   1.458   0.208
 3149SOL    HW110346   3.322   1.494   0.201
 3149SOL    HW210347   3.167   1.533   0.231
 3150SOL     OW10348   6.603   5.565   5.275
 3150SOL    HW110349   6.511   5.587   5.307
 3150SOL    HW210350   6.601   5.555   5.175
 3151SOL     OW10351   6.922   1.674   6.039
 3151SOL    HW110352   6.841   1.657   6.095
 3151SOL    HW210353   7.004   1.671   6.096
 3152SOL     OW10354   1.732   4.310   6.416
 3152SOL    HW110355   1.781   4.322   6.502
 3152SOL    HW210356   1.700   4.215   6.409
 3153SOL     OW10357   6.361   5.025   0.527
 3153SOL    HW110358   6.346   5.108   0.475
 3153SOL    HW210359   6.415   4.960   0.472
 3154SOL     OW10360   5.819   1.265   1.764
 3154SOL    HW110361   5.913   1.300   1.774
 3154SOL    HW210362   5.754   1.338   1.785
 3155SOL     OW10363   6.591   4.609   0.701
 3155SOL    HW110364   6.639   4.646   0.781
 3155SOL    HW210365   6.493   4.613   0.717
 3156SOL     OW10366   3.617   4.139   2.279
 3156SOL    HW110367   3.689   4.089   2.328
 3156SOL    HW210368   3.638   4.237   2.278
 3157SOL     OW10369   0.838   2.321   5.233
 3157SOL    HW110370   0.870   2.231   5.262
 3157SOL    HW210371   0.821   2.321   5.134
 3158SOL     OW10372   2.744   2.077   5.696
 3158SOL    HW110373   2.680   2.020   5.748
 3158SOL    HW210374   2.786   2.145   5.757
 3159SOL     OW10375   4.895   6.700   0.668
 3159SOL    HW110376   4.973   6.656   0.623
 3159SOL    HW210377   4.854   6.766   0.605
 3160SOL     OW10378   1.785   6.735   5.308
 3160SOL    HW110379   1.874   6.735   5.263
 3160SOL    HW210380   1.797   6.739   5.407
 3161SOL     OW10381   1.890   2.624   2.525
 3161SOL    HW110382   1.934   2.683   2.592
 3161SOL    HW210383   1.826   2.678   2.470
 3162SOL     OW10384   2.226   5.659   6.943
 3162SOL    HW110385   2.290   5.590   6.907
 3162SOL    HW210386   2.278   5.732   6.988
 3163SOL     OW10387   4.322   3.630   0.271
 3163SOL    HW110388   4.357   3.633   0.177
 3163SOL    HW210389   4.288   3.721   0.296
 3164SOL     OW10390   3.221   5.785   2.426
 3164SOL    HW110391   3.127   5.753   2.411
 3164SOL    HW210392   3.261   5.812   2.339
 3165SOL     OW10393   0.728   5.405   0.382
 3165SOL    HW110394   0.769   5.357   0.460
 3165SOL    HW210395   0.711   5.339   0.308
 3166SOL     OW10396   4.111   1.253   4.665
 3166SOL    HW110397   4.197   1.207   4.641
 3166SOL    HW210398   4.131   1.345   4.699
 3167SOL     OW10399   5.483   4.520   0.144
 3167SOL    HW110400   5.532   4.433   0.148
 3167SOL    HW210401   5.423   4.527   0.224
 3168SOL     OW10402   5.169   2.946   1.168
 3168SOL    HW110403   5.203   2.866   1.218
 3168SOL    HW210404   5.191   2.937   1.071
 3169SOL     OW10405   1.762   4.708   2.277
 3169SOL    HW110406   1.797   4.623   2.316
 3169SOL    HW210407   1.686   4.742   2.333
 3170SOL     OW10408   4.000   6.120   2.315
 3170SOL    HW110409   3.952   6.035   2.295
 3170SOL    HW210410   3.947   6.176   2.378
 3171SOL     OW10411   5.477   2.452   2.020
 3171SOL    HW110412   5.492   2.400   2.104
 3171SOL    HW210413   5.387   2.429   1.982
 3172SOL     OW10414   0.269   5.236   6.713
 3172SOL    HW110415   0.187   5.189   6.746
 3172SOL    HW210416   0.334   5.169   6.677
 3173SOL     OW10417   2.714   2.379   6.574
 3173SOL    HW110418   2.615   2.362   6.576
 3173SOL    HW210419   2.731   2.474   6.548
 3174SOL     OW10420   2.110   2.761   5.811
 3174SOL    HW110421   2.187   2.731   5.755
 3174SOL    HW210422   2.070   2.843   5.771
 3175SOL     OW10423   6.029   1.180   2.899
 3175SOL    HW110424   6.025   1.130   2.985
 3175SOL    HW210425   6.034   1.114   2.823
 3176SOL     OW10426   6.904   3.865   4.761
 3176SOL    HW110427   6.834   3.881   4.831
 3176SOL    HW210428   6.940   3.773   4.771
 3177SOL     OW10429   5.462   4.204   3.496
 3177SOL    HW110430   5.559   4.219   3.482
 3177SOL    HW210431   5.446   4.110   3.527
 3178SOL     OW10432   5.741   1.881   6.914
 3178SOL    HW110433   5.696   1.794   6.892
 3178SOL    HW210434   5.829   1.862   6.958
 3179SOL     OW10435   1.304   1.811   1.982
 3179SOL    HW110436   1.397   1.845   1.990
 3179SOL    HW210437   1.292   1.731   2.041
 3180SOL     OW10438   6.081   6.381   6.849
 3180SOL    HW110439   6.169   6.390   6.897
 3180SOL    HW210440   6.026   6.311   6.894
 3181SOL     OW10441   0.298   1.399   4.116
 3181SOL    HW110442   0.284   1.415   4.214
 3181SOL    HW210443   0.233   1.329   4.085
 3182SOL     OW10444   3.186   0.602   0.153
 3182SOL    HW110445   3.099   0.595   0.104
 3182SOL    HW210446   3.182   0.546   0.236
 3183SOL     OW10447   4.553   4.931   2.445
 3183SOL    HW110448   4.624   4.996   2.416
 3183SOL    HW210449   4.595   4.842   2.463
 3184SOL     OW10450   0.388   2.053   3.513
 3184SOL    HW110451   0.373   2.127   3.447
 3184SOL    HW210452   0.483   2.022   3.508
 3185SOL     OW10453   6.507   6.736   5.514
 3185SOL    HW110454   6.565   6.686   5.450
 3185SOL    HW210455   6.440   6.789   5.462
 3186SOL     OW10456   1.811   0.906   0.181
 3186SOL    HW110457   1.860   0.988   0.151
 3186SOL    HW210458   1.757   0.869   0.105
 3187SOL     OW10459   2.877   5.085   2.223
 3187SOL    HW110460   2.974   5.106   2.233
 3187SOL    HW210461   2.838   5.059   2.312
 3188SOL     OW10462   2.161   5.290   4.760
 3188SOL    HW110463   2.119   5.201   4.744
 3188SOL    HW210464   2.125   5.355   4.693
 3189SOL     OW10465   2.187   1.199   0.382
 3189SOL    HW110466   2.172   1.236   0.473
 3189SOL    HW210467   2.220   1.271   0.321
 3190SOL     OW10468   6.406   5.282   6.121
 3190SOL    HW110469   6.496   5.243   6.140
 3190SOL    HW210470   6.417   5.370   6.075
 3191SOL     OW10471   4.489   5.585   2.230
 3191SOL    HW110472   4.524   5.508   2.177
 3191SOL    HW210473   4.528   5.670   2.195
 3192SOL     OW10474   6.893   2.774   0.885
 3192SOL    HW110475   6.942   2.769   0.798
 3192SOL    HW210476   6.811   2.830   0.874
 3193SOL     OW10477   3.912   1.200   5.047
 3193SOL    HW110478   3.861   1.286   5.056
 3193SOL    HW210479   4.009   1.218   5.056
 3194SOL     OW10480   0.819   1.539   5.805
 3194SOL    HW110481   0.842   1.470   5.736
 3194SOL    HW210482   0.837   1.503   5.896
 3195SOL     OW10483   0.784   1.379   2.270
 3195SOL    HW110484   0.711   1.436   2.231
 3195SOL    HW210485   0.865   1.383   2.211
 3196SOL     OW10486   0.022   0.840   6.546
 3196SOL    HW110487   6.968   0.828   6.490
 3196SOL    HW210488   7.024   0.884   6.632
 3197SOL     OW10489   2.481   6.490   5.810
 3197SOL    HW110490   2.433   6.573   5.841
 3197SOL    HW210491   2.569   6.516   5.770
 3198SOL     OW10492   6.293   2.425   4.205
 3198SOL    HW110493   6.338   2.355   4.261
 3198SOL    HW210494   6.363   2.482   4.161
 3199SOL     OW10495   5.533   4.823   3.085
 3199SOL    HW110496   5.601   4.878   3.036
 3199SOL    HW210497   5.457   4.881   3.114
 3200SOL     OW10498   6.437   3.237   2.931
 3200SOL    HW110499   6.526   3.240   2.977
 3200SOL    HW210500   6.445   3.185   2.846
 3201SOL     OW10501   5.937   4.867   3.307
 3201SOL    HW110502   5.920   4.870   3.405
 3201SOL    HW210503   6.004   4.938   3.283
 3202SOL     OW10504   1.198   5.215   1.106
 3202SOL    HW110505   1.173   5.309   1.081
 3202SOL    HW210506   1.120   5.154   1.090
 3203SOL     OW10507   4.874   0.582   1.396
 3203SOL    HW110508   4.918   0.590   1.306
 3203SOL    HW210509   4.892   0.666   1.449
 3204SOL     OW10510   3.101   1.685   3.402
 3204SOL    HW110511   3.177   1.621   3.415
 3204SOL    HW210512   3.034   1.646   3.340
 3205SOL     OW10513   4.910   2.710   6.058
 3205SOL    HW110514   4.823   2.663   6.042
 3205SOL    HW210515   4.894   2.788   6.118
 3206SOL     OW10516   2.926   3.239   1.463
 3206SOL    HW110517   2.915   3.140   1.469
 3206SOL    HW210518   3.017   3.261   1.428
 3207SOL     OW10519   1.351   0.782   5.866
 3207SOL    HW110520   1.381   0.788   5.962
 3207SOL    HW210521   1.391   0.700   5.824
 3208SOL     OW10522   5.957   5.589   6.227
 3208SOL    HW110523   5.911   5.677   6.223
 3208SOL    HW210524   5.969   5.563   6.323
 3209SOL     OW10525   3.708   5.666   4.912
 3209SOL    HW110526   3.695   5.760   4.944
 3209SOL    HW210527   3.668   5.656   4.821
 3210SOL     OW10528   0.595   5.408   1.697
 3210SOL    HW110529   0.528   5.472   1.734
 3210SOL    HW210530   0.585   5.403   1.597
 3211SOL     OW10531   1.440   4.900   0.693
 3211SOL    HW110532   1.366   4.835   0.710
 3211SOL    HW210533   1.435   4.975   0.759
 3212SOL     OW10534   3.186   0.004   2.422
 3212SOL    HW110535   3.118   0.073   2.398
 3212SOL    HW210536   3.141   6.955   2.467
 3213SOL     OW10537   1.665   0.341   6.211
 3213SOL    HW110538   1.744   0.401   6.203
 3213SOL    HW210539   1.693   0.252   6.248
 3214SOL     OW10540   4.571   0.072   3.190
 3214SOL    HW110541   4.521   0.041   3.109
 3214SOL    HW210542   4.669   0.069   3.172
 3215SOL     OW10543   1.082   3.711   0.258
 3215SOL    HW110544   0.995   3.720   0.306
 3215SOL    HW210545   1.069   3.661   0.172
 3216SOL     OW10546   5.821   5.034   1.278
 3216SOL    HW110547   5.910   4.998   1.250
 3216SOL    HW210548   5.831   5.131   1.301
 3217SOL     OW10549   0.414   5.466   2.445
 3217SOL    HW110550   0.414   5.566   2.447
 3217SOL    HW210551   0.339   5.431   2.501
 3218SOL     OW10552   5.797   2.446   3.644
 3218SOL    HW110553   5.803   2.347   3.634
 3218SOL    HW210554   5.715   2.470   3.697
 3219SOL     OW10555   6.832   1.093   5.082
 3219SOL    HW110556   6.836   1.142   4.995
 3219SOL    HW210557   6.871   1.001   5.070
 3220SOL     OW10558   0.910   5.871   6.872
 3220SOL    HW110559   0.890   5.947   6.810
 3220SOL    HW210560   0.987   5.895   6.930
 3221SOL     OW10561   3.635   0.268   2.504
 3221SOL    HW110562   3.624   0.244   2.407
 3221SOL    HW210563   3.698   0.345   2.512
 3222SOL     OW10564   2.733   1.060   2.520
 3222SOL    HW110565   2.764   1.132   2.458
 3222SOL    HW210566   2.643   1.082   2.555
 3223SOL     OW10567   2.451   6.609   0.397
 3223SOL    HW110568   2.402   6.666   0.462
 3223SOL    HW210569   2.393   6.534   0.367
 3224SOL     OW10570   5.183   2.226   5.220
 3224SOL    HW110571   5.244   2.173   5.279
 3224SOL    HW210572   5.130   2.290   5.275
 3225SOL     OW10573   4.169   1.265   5.091
 3225SOL    HW110574   4.262   1.247   5.060
 3225SOL    HW210575   4.161   1.362   5.115
 3226SOL     OW10576   1.739   0.326   1.674
 3226SOL    HW110577   1.804   0.250   1.675
 3226SOL    HW210578   1.783   0.407   1.635
 3227SOL     OW10579   3.392   2.361   6.688
 3227SOL    HW110580   3.484   2.337   6.720
 3227SOL    HW210581   3.324   2.327   6.753
 3228SOL     OW10582   7.027   4.082   0.168
 3228SOL    HW110583   6.972   4.024   0.108
 3228SOL    HW210584   0.039   4.156   0.114
 3229SOL     OW10585   3.362   0.765   5.508
 3229SOL    HW110586   3.353   0.826   5.430
 3229SOL    HW210587   3.422   0.688   5.485
 3230SOL     OW10588   1.933   5.541   5.954
 3230SOL    HW110589   2.006   5.503   6.011
 3230SOL    HW210590   1.948   5.514   5.859
 3231SOL     OW10591   2.586   1.090   2.789
 3231SOL    HW110592   2.653   1.022   2.822
 3231SOL    HW210593   2.635   1.170   2.754
 3232SOL     OW10594   4.043   5.679   3.884
 3232SOL    HW110595   3.988   5.640   3.958
 3232SOL    HW210596   3.984   5.736   3.826
 3233SOL     OW10597   6.731   2.957   0.679
 3233SOL    HW110598   6.717   3.052   0.707
 3233SOL    HW210599   6.812   2.951   0.621
 3234SOL     OW10600   1.788   2.525   7.022
 3234SOL    HW110601   1.709   2.585   0.006
 3234SOL    HW210602   1.807   2.478   0.081
 3235SOL     OW10603   6.281   6.037   2.054
 3235SOL    HW110604   6.201   5.996   2.099
 3235SOL    HW210605   6.357   6.040   2.118
 3236SOL     OW10606   1.602   4.067   0.757
 3236SOL    HW110607   1.535   4.002   0.793
 3236SOL    HW210608   1.693   4.026   0.763
 3237SOL     OW10609   6.260   2.098   4.004
 3237SOL    HW110610   6.249   2.168   3.933
 3237SOL    HW210611   6.249   2.140   4.094
 3238SOL     OW10612   5.941   5.121   6.593
 3238SOL    HW110613   5.875   5.148   6.663
 3238SOL    HW210614   6.015   5.189   6.589
 3239SOL     OW10615   6.956   0.486   3.377
 3239SOL    HW110616   6.964   0.446   3.286
 3239SOL    HW210617   6.906   0.573   3.371
 3240SOL     OW10618   6.871   0.486   5.901
 3240SOL    HW110619   6.906   0.529   5.984
 3240SOL    HW210620   6.948   0.452   5.847
 3241SOL     OW10621   4.911   1.082   6.112
 3241SOL    HW110622   4.851   1.140   6.057
 3241SOL    HW210623   4.857   1.012   6.158
 3242SOL     OW10624   4.867   3.639   6.072
 3242SOL    HW110625   4.821   3.697   6.004
 3242SOL    HW210626   4.961   3.622   6.043
 3243SOL     OW10627   4.669   5.291   0.379
 3243SOL    HW110628   4.650   5.287   0.477
 3243SOL    HW210629   4.684   5.385   0.351
 3244SOL     OW10630   5.828   6.234   6.662
 3244SOL    HW110631   5.903   6.283   6.706
 3244SOL    HW210632   5.782   6.295   6.597
 3245SOL     OW10633   4.630   2.369   4.120
 3245SOL    HW110634   4.703   2.436   4.123
 3245SOL    HW210635   4.623   2.322   4.208
 3246SOL     OW10636   6.503   0.277   2.974
 3246SOL    HW110637   6.413   0.260   2.934
 3246SOL    HW210638   6.571   0.219   2.929
 3247SOL     OW10639   6.542   4.924   2.185
 3247SOL    HW110640   6.470   4.933   2.116
 3247SOL    HW210641   6.627   4.895   2.141
 3248SOL     OW10642   5.962   2.448   2.032
 3248SOL    HW110643   5.935   2.372   1.973
 3248SOL    HW210644   6.040   2.420   2.088
 3249SOL     OW10645   4.082   3.555   4.040
 3249SOL    HW110646   4.066   3.651   4.019
 3249SOL    HW210647   3.996   3.504   4.032
 3250SOL     OW10648   5.202   6.810   3.622
 3250SOL    HW110649   5.199   6.738   3.691
 3250SOL    HW210650   5.111   6.849   3.610
 3251SOL     OW10651   2.469   1.070   4.747
 3251SOL    HW110652   2.524   1.135   4.694
 3251SOL    HW210653   2.492   1.079   4.844
 3252SOL     OW10654   3.224   0.939   2.854
 3252SOL    HW110655   3.183   0.975   2.937
 3252SOL    HW210656   3.174   0.858   2.824
 3253SOL     OW10657   4.450   3.530   1.363
 3253SOL    HW110658   4.378   3.542   1.295
 3253SOL    HW210659   4.531   3.490   1.320
 3254SOL     OW10660   5.323   6.568   5.986
 3254SOL    HW110661   5.288   6.640   6.046
 3254SOL    HW210662   5.253   6.542   5.920
 3255SOL     OW10663   5.738   6.459   1.473
 3255SOL    HW110664   5.820   6.402   1.468
 3255SOL    HW210665   5.736   6.523   1.396
 3256SOL     OW10666   4.056   2.063   1.680
 3256SOL    HW110667   4.055   2.137   1.613
 3256SOL    HW210668   4.091   1.979   1.637
 3257SOL     OW10669   2.906   2.100   1.893
 3257SOL    HW110670   3.000   2.069   1.889
 3257SOL    HW210671   2.900   2.181   1.952
 3258SOL     OW10672   3.645   4.942   3.206
 3258SOL    HW110673   3.598   4.912   3.289
 3258SOL    HW210674   3.724   4.882   3.188
 3259SOL     OW10675   5.097   5.469   4.107
 3259SOL    HW110676   5.103   5.480   4.206
 3259SOL    HW210677   5.126   5.376   4.082
 3260SOL     OW10678   1.660   3.736   2.195
 3260SOL    HW110679   1.656   3.643   2.233
 3260SOL    HW210680   1.597   3.795   2.245
 3261SOL     OW10681   4.673   0.685   2.564
 3261SOL    HW110682   4.733   0.611   2.593
 3261SOL    HW210683   4.664   0.683   2.464
 3262SOL     OW10684   4.105   2.183   2.360
 3262SOL    HW110685   4.019   2.157   2.403
 3262SOL    HW210686   4.179   2.179   2.428
 3263SOL     OW10687   3.315   1.341   3.739
 3263SOL    HW110688   3.375   1.420   3.751
 3263SOL    HW210689   3.353   1.263   3.787
 3264SOL     OW10690   2.139   5.068   0.911
 3264SOL    HW110691   2.047   5.064   0.874
 3264SOL    HW210692   2.157   4.987   0.968
 3265SOL     OW10693   6.069   6.073   5.984
 3265SOL    HW110694   6.102   6.167   5.989
 3265SOL    HW210695   5.975   6.072   5.950
 3266SOL     OW10696   2.722   4.172   6.980
 3266SOL    HW110697   2.749   4.128   6.894
 3266SOL    HW210698   2.644   4.231   6.965
 3267SOL     OW10699   3.419   0.297   1.934
 3267SOL    HW110700   3.343   0.284   1.870
 3267SOL    HW210701   3.470   0.212   1.942
 3268SOL     OW10702   1.159   4.647   1.077
 3268SOL    HW110703   1.103   4.574   1.039
 3268SOL    HW210704   1.143   4.654   1.175
 3269SOL     OW10705   0.467   5.371   2.196
 3269SOL    HW110706   0.434   5.411   2.282
 3269SOL    HW210707   0.562   5.396   2.182
 3270SOL     OW10708   1.856   2.887   6.298
 3270SOL    HW110709   1.858   2.789   6.279
 3270SOL    HW210710   1.927   2.933   6.246
 3271SOL     OW10711   6.685   3.709   1.809
 3271SOL    HW110712   6.685   3.754   1.719
 3271SOL    HW210713   6.611   3.641   1.812
 3272SOL     OW10714   3.196   4.733   0.005
 3272SOL    HW110715   3.289   4.740   6.996
 3272SOL    HW210716   3.173   4.637   0.019
 3273SOL     OW10717   5.772   4.614   6.183
 3273SOL    HW110718   5.675   4.629   6.161
 3273SOL    HW210719   5.781   4.529   6.234
 3274SOL     OW10720   5.909   0.203   0.852
 3274SOL    HW110721   5.871   0.169   0.766
 3274SOL    HW210722   5.930   0.300   0.843
 3275SOL     OW10723   4.728   1.078   0.324
 3275SOL    HW110724   4.756   1.163   0.368
 3275SOL    HW210725   4.751   1.001   0.384
 3276SOL     OW10726   4.760   6.139   0.051
 3276SOL    HW110727   4.710   6.106   6.998
 3276SOL    HW210728   4.778   6.237   0.041
 3277SOL     OW10729   3.268   1.366   0.995
 3277SOL    HW110730   3.264   1.454   1.041
 3277SOL    HW210731   3.265   1.379   0.896
 3278SOL     OW10732   0.342   0.481   5.702
 3278SOL    HW110733   0.439   0.464   5.684
 3278SOL    HW210734   0.323   0.579   5.693
 3279SOL     OW10735   5.006   6.911   1.212
 3279SOL    HW110736   5.094   6.945   1.245
 3279SOL    HW210737   4.969   6.845   1.278
 3280SOL     OW10738   4.629   4.510   4.138
 3280SOL    HW110739   4.637   4.438   4.207
 3280SOL    HW210740   4.582   4.474   4.057
 3281SOL     OW10741   0.407   4.301   1.289
 3281SOL    HW110742   0.400   4.401   1.287
 3281SOL    HW210743   0.487   4.273   1.236
 3282SOL     OW10744   6.735   4.034   4.946
 3282SOL    HW110745   6.704   4.108   4.887
 3282SOL    HW210746   6.693   4.042   5.036
 3283SOL     OW10747   3.880   1.410   1.168
 3283SOL    HW110748   3.939   1.415   1.087
 3283SOL    HW210749   3.911   1.337   1.228
 3284SOL     OW10750   1.130   5.604   5.028
 3284SOL    HW110751   1.154   5.686   5.081
 3284SOL    HW210752   1.213   5.553   5.007
 3285SOL     OW10753   6.031   1.929   4.672
 3285SOL    HW110754   5.932   1.923   4.684
 3285SOL    HW210755   6.059   1.870   4.597
 3286SOL     OW10756   3.326   2.579   1.576
 3286SOL    HW110757   3.369   2.669   1.570
 3286SOL    HW210758   3.275   2.561   1.491
 3287SOL     OW10759   0.698   0.758   0.328
 3287SOL    HW110760   0.795   0.743   0.348
 3287SOL    HW210761   0.688   0.789   0.233
 3288SOL     OW10762   1.689   6.931   0.477
 3288SOL    HW110763   1.734   6.955   0.563
 3288SOL    HW210764   1.715   6.996   0.406
 3289SOL     OW10765   2.632   1.843   6.328
 3289SOL    HW110766   2.717   1.829   6.276
 3289SOL    HW210767   2.605   1.757   6.371
 3290SOL     OW10768   0.234   5.567   0.806
 3290SOL    HW110769   0.146   5.521   0.799
 3290SOL    HW210770   0.292   5.539   0.730
 3291SOL     OW10771   2.840   0.863   6.010
 3291SOL    HW110772   2.879   0.799   6.076
 3291SOL    HW210773   2.740   0.857   6.014
 3292SOL     OW10774   7.024   1.188   0.921
 3292SOL    HW110775   0.093   1.202   0.944
 3292SOL    HW210776   6.971   1.266   0.954
 3293SOL     OW10777   6.852   5.067   1.636
 3293SOL    HW110778   6.850   5.134   1.562
 3293SOL    HW210779   6.936   5.012   1.630
 3294SOL     OW10780   5.371   1.829   5.837
 3294SOL    HW110781   5.364   1.806   5.740
 3294SOL    HW210782   5.330   1.756   5.891
 3295SOL     OW10783   1.779   3.556   0.956
 3295SOL    HW110784   1.684   3.555   0.926
 3295SOL    HW210785   1.809   3.463   0.974
 3296SOL     OW10786   6.990   0.270   4.355
 3296SOL    HW110787   6.906   0.315   4.324
 3296SOL    HW210788   0.039   0.333   4.346
 3297SOL     OW10789   3.388   1.941   5.164
 3297SOL    HW110790   3.388   1.926   5.263
 3297SOL    HW210791   3.399   2.039   5.145
 3298SOL     OW10792   6.479   2.616   5.677
 3298SOL    HW110793   6.488   2.708   5.640
 3298SOL    HW210794   6.459   2.552   5.603
 3299SOL     OW10795   4.108   6.085   2.731
 3299SOL    HW110796   4.113   6.149   2.807
 3299SOL    HW210797   4.144   6.129   2.648
 3300SOL     OW10798   1.446   0.437   6.046
 3300SOL    HW110799   1.456   0.407   5.951
 3300SOL    HW210800   1.501   0.378   6.105
 3301SOL     OW10801   1.501   3.856   3.449
 3301SOL    HW110802   1.521   3.876   3.545
 3301SOL    HW210803   1.574   3.891   3.391
 3302SOL     OW10804   1.473   4.641   0.026
 3302SOL    HW110805   1.430   4.550   0.028
 3302SOL    HW210806   1.450   4.686   6.968
 3303SOL     OW10807   3.312   3.191   0.442
 3303SOL    HW110808   3.311   3.276   0.390
 3303SOL    HW210809   3.292   3.211   0.538
 3304SOL     OW10810   2.179   5.263   5.844
 3304SOL    HW110811   2.218   5.333   5.903
 3304SOL    HW210812   2.105   5.217   5.893
 3305SOL     OW10813   2.997   0.841   1.717
 3305SOL    HW110814   2.949   0.810   1.799
 3305SOL    HW210815   3.059   0.770   1.685
 3306SOL     OW10816   1.449   6.035   5.643
 3306SOL    HW110817   1.529   6.092   5.663
 3306SOL    HW210818   1.479   5.942   5.620
 3307SOL     OW10819   1.106   0.012   5.593
 3307SOL    HW110820   1.174   6.967   5.597
 3307SOL    HW210821   1.016   7.001   5.574
 3308SOL     OW10822   3.408   5.481   0.844
 3308SOL    HW110823   3.501   5.444   0.843
 3308SOL    HW210824   3.407   5.569   0.797
 3309SOL     OW10825   6.189   4.665   3.716
 3309SOL    HW110826   6.149   4.574   3.720
 3309SOL    HW210827   6.289   4.658   3.714
 3310SOL     OW10828   0.456   4.296   4.458
 3310SOL    HW110829   0.512   4.373   4.427
 3310SOL    HW210830   0.434   4.307   4.555
 3311SOL     OW10831   3.088   3.233   0.823
 3311SOL    HW110832   3.037   3.309   0.783
 3311SOL    HW210833   3.048   3.208   0.911
 3312SOL     OW10834   4.202   2.765   5.783
 3312SOL    HW110835   4.133   2.763   5.710
 3312SOL    HW210836   4.293   2.754   5.744
 3313SOL     OW10837   0.585   0.504   3.300
 3313SOL    HW110838   0.610   0.464   3.212
 3313SOL    HW210839   0.598   0.603   3.298
 3314SOL     OW10840   3.084   0.506   2.517
 3314SOL    HW110841   3.101   0.600   2.487
 3314SOL    HW210842   3.166   0.451   2.502
 3315SOL     OW10843   0.980   4.731   5.406
 3315SOL    HW110844   1.002   4.770   5.316
 3315SOL    HW210845   1.014   4.637   5.411
 3316SOL     OW10846   3.723   1.041   5.178
 3316SOL    HW110847   3.667   1.116   5.213
 3316SOL    HW210848   3.804   1.078   5.132
 3317SOL     OW10849   5.399   1.714   2.423
 3317SOL    HW110850   5.454   1.674   2.350
 3317SOL    HW210851   5.315   1.753   2.385
 3318SOL     OW10852   1.693   0.903   6.753
 3318SOL    HW110853   1.680   0.824   6.693
 3318SOL    HW210854   1.643   0.981   6.715
 3319SOL     OW10855   6.223   0.462   3.496
 3319SOL    HW110856   6.262   0.443   3.586
 3319SOL    HW210857   6.287   0.520   3.444
 3320SOL     OW10858   6.648   0.331   0.189
 3320SOL    HW110859   6.664   0.292   0.280
 3320SOL    HW210860   6.735   0.337   0.140
 3321SOL     OW10861   6.033   1.301   0.858
 3321SOL    HW110862   6.122   1.282   0.899
 3321SOL    HW210863   5.977   1.355   0.920
 3322SOL     OW10864   0.148   2.962   1.071
 3322SOL    HW110865   0.060   3.008   1.076
 3322SOL    HW210866   0.135   2.863   1.070
 3323SOL     OW10867   2.304   1.739   1.125
 3323SOL    HW110868   2.286   1.785   1.038
 3323SOL    HW210869   2.366   1.662   1.111
 3324SOL     OW10870   4.514   5.362   5.579
 3324SOL    HW110871   4.469   5.443   5.618
 3324SOL    HW210872   4.485   5.351   5.484
 3325SOL     OW10873   0.427   2.799   6.432
 3325SOL    HW110874   0.478   2.790   6.518
 3325SOL    HW210875   0.491   2.808   6.356
 3326SOL     OW10876   4.930   1.362   1.610
 3326SOL    HW110877   4.945   1.266   1.636
 3326SOL    HW210878   4.960   1.376   1.516
 3327SOL     OW10879   2.255   5.569   1.586
 3327SOL    HW110880   2.318   5.547   1.660
 3327SOL    HW210881   2.194   5.491   1.570
 3328SOL     OW10882   3.670   1.818   1.182
 3328SOL    HW110883   3.667   1.739   1.243
 3328SOL    HW210884   3.667   1.902   1.237
 3329SOL     OW10885   6.555   0.216   5.641
 3329SOL    HW110886   6.609   0.241   5.561
 3329SOL    HW210887   6.458   0.214   5.617
 3330SOL     OW10888   6.199   3.740   1.918
 3330SOL    HW110889   6.116   3.700   1.958
 3330SOL    HW210890   6.251   3.787   1.989
 3331SOL     OW10891   2.410   2.718   1.293
 3331SOL    HW110892   2.455   2.743   1.207
 3331SOL    HW210893   2.420   2.793   1.359
 3332SOL     OW10894   5.766   5.665   0.118
 3332SOL    HW110895   5.677   5.638   0.157
 3332SOL    HW210896   5.825   5.698   0.192
 3333SOL     OW10897   4.355   5.521   6.444
 3333SOL    HW110898   4.309   5.458   6.382
 3333SOL    HW210899   4.287   5.581   6.487
 3334SOL     OW10900   3.180   3.322   1.373
 3334SOL    HW110901   3.147   3.342   1.281
 3334SOL    HW210902   3.196   3.407   1.423
 3335SOL     OW10903   4.553   5.655   5.412
 3335SOL    HW110904   4.571   5.623   5.319
 3335SOL    HW210905   4.458   5.637   5.436
 3336SOL     OW10906   3.242   5.261   5.318
 3336SOL    HW110907   3.315   5.206   5.360
 3336SOL    HW210908   3.194   5.206   5.250
 3337SOL     OW10909   3.070   2.428   1.463
 3337SOL    HW110910   3.094   2.355   1.526
 3337SOL    HW210911   2.995   2.482   1.501
 3338SOL     OW10912   6.299   3.456   1.635
 3338SOL    HW110913   6.210   3.502   1.643
 3338SOL    HW210914   6.346   3.489   1.553
 3339SOL     OW10915   0.144   6.635   6.988
 3339SOL    HW110916   0.143   6.581   0.045
 3339SOL    HW210917   0.161   6.575   6.910
 3340SOL     OW10918   3.804   0.166   1.752
 3340SOL    HW110919   3.720   0.137   1.706
 3340SOL    HW210920   3.878   0.102   1.731
 3341SOL     OW10921   1.496   0.061   4.068
 3341SOL    HW110922   1.548   7.004   4.077
 3341SOL    HW210923   1.538   0.133   4.123
 3342SOL     OW10924   2.196   6.967   3.904
 3342SOL    HW110925   2.157   0.031   3.899
 3342SOL    HW210926   2.291   6.969   3.873
 3343SOL     OW10927   4.754   2.922   0.446
 3343SOL    HW110928   4.812   2.848   0.413
 3343SOL    HW210929   4.764   3.002   0.387
 3344SOL     OW10930   5.576   4.302   5.003
 3344SOL    HW110931   5.554   4.218   5.054
 3344SOL    HW210932   5.598   4.279   4.908
 3345SOL     OW10933   2.685   3.853   5.965
 3345SOL    HW110934   2.588   3.838   5.985
 3345SOL    HW210935   2.723   3.772   5.920
 3346SOL     OW10936   1.266   0.954   1.741
 3346SOL    HW110937   1.278   0.875   1.802
 3346SOL    HW210938   1.284   1.038   1.792
 3347SOL     OW10939   0.523   5.179   3.656
 3347SOL    HW110940   0.431   5.181   3.695
 3347SOL    HW210941   0.581   5.244   3.704
 3348SOL     OW10942   3.197   3.151   3.545
 3348SOL    HW110943   3.264   3.222   3.568
 3348SOL    HW210944   3.105   3.189   3.549
 3349SOL     OW10945   0.420   4.382   4.752
 3349SOL    HW110946   0.449   4.324   4.828
 3349SOL    HW210947   0.332   4.423   4.775
 3350SOL     OW10948   1.115   1.967   6.556
 3350SOL    HW110949   1.028   1.918   6.548
 3350SOL    HW210950   1.116   2.043   6.491
 3351SOL     OW10951   5.168   0.202   2.194
 3351SOL    HW110952   5.249   0.260   2.196
 3351SOL    HW210953   5.086   0.259   2.191
 3352SOL     OW10954   6.982   3.686   0.222
 3352SOL    HW110955   7.015   3.608   0.170
 3352SOL    HW210956   6.898   3.721   0.180
 3353SOL     OW10957   1.264   6.988   1.759
 3353SOL    HW110958   1.181   0.009   1.786
 3353SOL    HW210959   1.342   7.023   1.812
 3354SOL     OW10960   6.626   2.728   4.145
 3354SOL    HW110961   6.693   2.654   4.149
 3354SOL    HW210962   6.578   2.735   4.232
 3355SOL     OW10963   0.802   1.507   7.021
 3355SOL    HW110964   0.768   1.597   0.018
 3355SOL    HW210965   0.897   1.498   0.024
 3356SOL     OW10966   2.499   2.684   0.161
 3356SOL    HW110967   2.597   2.681   0.179
 3356SOL    HW210968   2.453   2.732   0.237
 3357SOL     OW10969   2.518   4.769   1.640
 3357SOL    HW110970   2.517   4.676   1.603
 3357SOL    HW210971   2.605   4.785   1.687
 3358SOL     OW10972   4.558   6.181   1.700
 3358SOL    HW110973   4.513   6.109   1.646
 3358SOL    HW210974   4.598   6.141   1.782
 3359SOL     OW10975   0.067   0.755   3.654
 3359SOL    HW110976   0.000   0.718   3.719
 3359SOL    HW210977   0.089   0.685   3.587
 3360SOL     OW10978   0.289   1.181   0.962
 3360SOL    HW110979   0.359   1.251   0.955
 3360SOL    HW210980   0.315   1.102   0.906
 3361SOL     OW10981   6.897   4.883   2.602
 3361SOL    HW110982   6.961   4.951   2.566
 3361SOL    HW210983   6.808   4.926   2.616
 3362SOL     OW10984   3.571   1.050   4.687
 3362SOL    HW110985   3.668   1.071   4.676
 3362SOL    HW210986   3.518   1.134   4.692
 3363SOL     OW10987   0.117   0.343   6.280
 3363SOL    HW110988   0.178   0.345   6.359
 3363SOL    HW210989   0.170   0.359   6.196
 3364SOL     OW10990   1.228   5.249   5.226
 3364SOL    HW110991   1.188   5.193   5.299
 3364SOL    HW210992   1.166   5.252   5.148
 3365SOL     OW10993   0.457   2.800   4.618
 3365SOL    HW110994   0.434   2.894   4.595
 3365SOL    HW210995   0.518   2.799   4.697
 3366SOL     OW10996   6.182   0.842   4.684
 3366SOL    HW110997   6.266   0.853   4.738
 3366SOL    HW210998   6.205   0.803   4.595
 3367SOL     OW10999   2.157   3.041   1.912
 3367SOL    HW111000   2.096   2.964   1.894
 3367SOL    HW211001   2.240   3.031   1.856
 3368SOL     OW11002   0.397   5.848   6.781
 3368SOL    HW111003   0.349   5.830   6.866
 3368SOL    HW211004   0.472   5.782   6.770
 3369SOL     OW11005   3.501   2.130   6.497
 3369SOL    HW111006   3.488   2.223   6.533
 3369SOL    HW211007   3.578   2.087   6.543
 3370SOL     OW11008   6.632   6.647   5.286
 3370SOL    HW111009   6.590   6.576   5.229
 3370SOL    HW211010   6.662   6.723   5.229
 3371SOL     OW11011   0.921   4.060   2.495
 3371SOL    HW111012   0.980   4.140   2.504
 3371SOL    HW211013   0.940   4.014   2.409
 3372SOL     OW11014   1.137   1.404   2.501
 3372SOL    HW111015   1.152   1.333   2.570
 3372SOL    HW211016   1.119   1.491   2.547
 3373SOL     OW11017   6.893   1.302   3.942
 3373SOL    HW111018   6.879   1.370   3.870
 3373SOL    HW211019   6.984   1.261   3.931
 3374SOL     OW11020   2.993   5.607   4.370
 3374SOL    HW111021   3.059   5.678   4.394
 3374SOL    HW211022   3.001   5.532   4.436
 3375SOL     OW11023   3.992   4.881   4.707
 3375SOL    HW111024   3.983   4.781   4.702
 3375SOL    HW211025   4.009   4.908   4.801
 3376SOL     OW11026   4.101   3.414   2.842
 3376SOL    HW111027   4.089   3.442   2.937
 3376SOL    HW211028   4.016   3.373   2.809
 3377SOL     OW11029   0.417   6.448   4.555
 3377SOL    HW111030   0.462   6.365   4.588
 3377SOL    HW211031   0.429   6.521   4.622
 3378SOL     OW11032   6.519   0.563   1.830
 3378SOL    HW111033   6.564   0.510   1.902
 3378SOL    HW211034   6.589   0.614   1.779
 3379SOL     OW11035   0.028   4.841   5.848
 3379SOL    HW111036   0.099   4.879   5.788
 3379SOL    HW211037   7.022   4.912   5.910
 3380SOL     OW11038   6.462   5.846   5.799
 3380SOL    HW111039   6.419   5.912   5.737
 3380SOL    HW211040   6.402   5.832   5.878
 3381SOL     OW11041   1.586   2.195   0.155
 3381SOL    HW111042   1.603   2.110   0.206
 3381SOL    HW211043   1.529   2.175   0.075
 3382SOL     OW11044   0.693   1.453   0.548
 3382SOL    HW111045   0.745   1.375   0.513
 3382SOL    HW211046   0.635   1.490   0.475
 3383SOL     OW11047   5.468   4.954   2.123
 3383SOL    HW111048   5.528   4.874   2.128
 3383SOL    HW211049   5.523   5.037   2.129
 3384SOL     OW11050   2.920   3.497   5.130
 3384SOL    HW111051   2.915   3.400   5.107
 3384SOL    HW211052   2.893   3.511   5.225
 3385SOL     OW11053   0.542   3.914   3.731
 3385SOL    HW111054   0.503   3.822   3.730
 3385SOL    HW211055   0.592   3.928   3.817
 3386SOL     OW11056   6.105   3.292   5.665
 3386SOL    HW111057   6.106   3.274   5.764
 3386SOL    HW211058   6.198   3.284   5.629
 3387SOL     OW11059   1.962   0.886   2.963
 3387SOL    HW111060   1.965   0.946   3.044
 3387SOL    HW211061   2.051   0.843   2.951
 3388SOL     OW11062   5.844   3.726   1.207
 3388SOL    HW111063   5.942   3.720   1.191
 3388SOL    HW211064   5.824   3.806   1.264
 3389SOL     OW11065   4.284   5.065   4.527
 3389SOL    HW111066   4.208   5.081   4.591
 3389SOL    HW211067   4.266   4.982   4.475
 3390SOL     OW11068   4.902   3.848   5.701
 3390SOL    HW111069   4.957   3.770   5.733
 3390SOL    HW211070   4.962   3.917   5.660
 3391SOL     OW11071   5.441   2.272   4.639
 3391SOL    HW111072   5.391   2.347   4.595
 3391SOL    HW211073   5.539   2.284   4.624
 3392SOL     OW11074   3.097   1.071   3.684
 3392SOL    HW111075   3.083   1.158   3.732
 3392SOL    HW211076   3.182   1.029   3.717
 3393SOL     OW11077   6.989   6.569   0.734
 3393SOL    HW111078   6.984   6.649   0.794
 3393SOL    HW211079   6.907   6.513   0.745
 3394SOL     OW11080   5.794   3.447   1.322
 3394SOL    HW111081   5.883   3.416   1.358
 3394SOL    HW211082   5.803   3.541   1.289
 3395SOL     OW11083   6.950   3.420   3.967
 3395SOL    HW111084   6.882   3.417   3.895
 3395SOL    HW211085   6.994   3.330   3.976
 3396SOL     OW11086   0.396   2.969   3.582
 3396SOL    HW111087   0.363   3.034   3.651
 3396SOL    HW211088   0.349   2.882   3.594
 3397SOL     OW11089   2.846   1.113   5.418
 3397SOL    HW111090   2.852   1.174   5.497
 3397SOL    HW211091   2.829   1.019   5.450
 3398SOL     OW11092   1.252   6.968   4.387
 3398SOL    HW111093   1.304   6.889   4.354
 3398SOL    HW211094   1.248   0.010   4.315
 3399SOL     OW11095   5.032   4.193   4.073
 3399SOL    HW111096   4.954   4.194   4.136
 3399SOL    HW211097   5.005   4.150   3.987
 3400SOL     OW11098   4.252   1.540   5.291
 3400SOL    HW111099   4.225   1.631   5.323
 3400SOL    HW211100   4.258   1.478   5.368
 3401SOL     OW11101   6.934   3.741   0.633
 3401SOL    HW111102   6.867   3.756   0.561
 3401SOL    HW211103   7.021   3.785   0.608
 3402SOL     OW11104   5.007   5.807   0.684
 3402SOL    HW111105   4.971   5.899   0.669
 3402SOL    HW211106   5.075   5.787   0.613
 3403SOL     OW11107   3.593   0.683   4.537
 3403SOL    HW111108   3.632   0.775   4.530
 3403SOL    HW211109   3.603   0.649   4.630
 3404SOL     OW11110   3.801   1.603   0.494
 3404SOL    HW111111   3.853   1.634   0.573
 3404SOL    HW211112   3.709   1.643   0.496
 3405SOL     OW11113   6.571   3.351   4.634
 3405SOL    HW111114   6.601   3.436   4.592
 3405SOL    HW211115   6.484   3.365   4.680
 3406SOL     OW11116   1.500   4.424   1.925
 3406SOL    HW111117   1.571   4.415   1.995
 3406SOL    HW211118   1.519   4.361   1.851
 3407SOL     OW11119   1.860   5.074   0.869
 3407SOL    HW111120   1.845   5.046   0.774
 3407SOL    HW211121   1.792   5.032   0.928
 3408SOL     OW11122   4.703   4.280   4.677
 3408SOL    HW111123   4.606   4.283   4.650
 3408SOL    HW211124   4.720   4.345   4.750
 3409SOL     OW11125   3.546   6.586   5.725
 3409SOL    HW111126   3.543   6.581   5.824
 3409SOL    HW211127   3.637   6.558   5.693
 3410SOL     OW11128   6.139   5.718   6.837
 3410SOL    HW111129   6.189   5.742   6.921
 3410SOL    HW211130   6.101   5.802   6.797
 3411SOL     OW11131   6.992   2.869   1.784
 3411SOL    HW111132   6.905   2.852   1.738
 3411SOL    HW211133   0.007   2.951   1.744
 3412SOL     OW11134   4.647   2.677   6.905
 3412SOL    HW111135   4.548   2.690   6.911
 3412SOL    HW211136   4.693   2.756   6.946
 3413SOL     OW11137   4.882   0.995   2.432
 3413SOL    HW111138   4.898   0.896   2.427
 3413SOL    HW211139   4.963   1.044   2.399
 3414SOL     OW11140   2.029   1.063   5.234
 3414SOL    HW111141   2.031   1.159   5.203
 3414SOL    HW211142   2.084   1.007   5.173
 3415SOL     OW11143   2.036   4.149   4.474
 3415SOL    HW111144   2.134   4.133   4.465
 3415SOL    HW211145   1.986   4.078   4.423
 3416SOL     OW11146   6.579   4.764   6.578
 3416SOL    HW111147   6.603   4.750   6.482
 3416SOL    HW211148   6.489   4.725   6.596
 3417SOL     OW11149   6.305   5.859   3.066
 3417SOL    HW111150   6.316   5.854   3.166
 3417SOL    HW211151   6.373   5.799   3.023
 3418SOL     OW11152   4.057   0.123   4.952
 3418SOL    HW111153   4.050   0.035   4.906
 3418SOL    HW211154   4.050   0.197   4.884
 3419SOL     OW11155   3.048   5.675   5.805
 3419SOL    HW111156   3.022   5.728   5.725
 3419SOL    HW211157   2.982   5.600   5.819
 3420SOL     OW11158   5.409   2.368   3.526
 3420SOL    HW111159   5.351   2.334   3.453
 3420SOL    HW211160   5.410   2.301   3.601
 3421SOL     OW11161   6.441   0.116   6.239
 3421SOL    HW111162   6.477   0.032   6.280
 3421SOL    HW211163   6.497   0.194   6.268
 3422SOL     OW11164   2.440   6.559   1.145
 3422SOL    HW111165   2.470   6.601   1.059
 3422SOL    HW211166   2.378   6.623   1.192
 3423SOL     OW11167   2.612   0.272   0.744
 3423SOL    HW111168   2.621   0.312   0.836
 3423SOL    HW211169   2.538   0.318   0.695
 3424SOL     OW11170   3.194   0.475   2.138
 3424SOL    HW111171   3.097   0.455   2.150
 3424SOL    HW211172   3.242   0.459   2.224
 3425SOL     OW11173   4.635   4.658   2.452
 3425SOL    HW111174   4.622   4.594   2.528
 3425SOL    HW211175   4.572   4.636   2.378
 3426SOL     OW11176   3.614   3.047   7.020
 3426SOL    HW111177   3.612   3.110   6.942
 3426SOL    HW211178   3.613   2.953   6.986
 3427SOL     OW11179   6.798   6.511   6.856
 3427SOL    HW111180   6.809   6.601   6.815
 3427SOL    HW211181   6.796   6.441   6.784
 3428SOL     OW11182   3.578   5.018   1.527
 3428SOL    HW111183   3.619   4.940   1.574
 3428SOL    HW211184   3.593   5.010   1.429
 3429SOL     OW11185   0.431   1.671   6.839
 3429SOL    HW111186   0.355   1.735   6.823
 3429SOL    HW211187   0.514   1.706   6.796
 3430SOL     OW11188   0.507   7.016   6.214
 3430SOL    HW111189   0.488   6.934   6.161
 3430SOL    HW211190   0.606   7.024   6.228
 3431SOL     OW11191   2.187   0.046   1.074
 3431SOL    HW111192   2.191   6.976   1.055
 3431SOL    HW211193   2.139   0.092   0.999
 3432SOL     OW11194   2.885   2.242   5.878
 3432SOL    HW111195   2.910   2.319   5.819
 3432SOL    HW211196   2.903   2.265   5.973
 3433SOL     OW11197   1.523   6.910   6.367
 3433SOL    HW111198   1.561   6.948   6.282
 3433SOL    HW211199   1.547   6.813   6.373
 3434SOL     OW11200   3.467   2.837   1.213
 3434SOL    HW111201   3.429   2.762   1.267
 3434SOL    HW211202   3.410   2.853   1.133
 3435SOL     OW11203   0.487   1.947   1.845
 3435SOL    HW111204   0.537   1.883   1.786
 3435SOL    HW211205   0.543   1.968   1.925
 3436SOL     OW11206   3.777   6.833   5.366
 3436SOL    HW111207   3.720   6.755   5.340
 3436SOL    HW211208   3.764   6.852   5.463
 3437SOL     OW11209   4.501   0.546   6.557
 3437SOL    HW111210   4.457   0.597   6.483
 3437SOL    HW211211   4.441   0.544   6.637
 3438SOL     OW11212   1.060   2.591   6.633
 3438SOL    HW111213   1.032   2.664   6.695
 3438SOL    HW211214   1.157   2.572   6.645
 3439SOL     OW11215   2.385   0.452   5.623
 3439SOL    HW111216   2.481   0.427   5.635
 3439SOL    HW211217   2.364   0.532   5.679
 3440SOL     OW11218   4.756   3.635   1.631
 3440SOL    HW111219   4.661   3.615   1.610
 3440SOL    HW211220   4.797   3.556   1.677
 3441SOL     OW11221   5.171   0.387   3.517
 3441SOL    HW111222   5.239   0.318   3.497
 3441SOL    HW211223   5.183   0.419   3.611
 3442SOL     OW11224   2.829   4.787   2.854
 3442SOL    HW111225   2.791   4.762   2.943
 3442SOL    HW211226   2.918   4.831   2.867
 3443SOL     OW11227   5.874   0.781   2.520
 3443SOL    HW111228   5.831   0.720   2.454
 3443SOL    HW211229   5.974   0.771   2.515
 3444SOL     OW11230   5.262   4.857   0.029
 3444SOL    HW111231   5.207   4.802   0.093
 3444SOL    HW211232   5.239   4.830   6.964
 3445SOL     OW11233   5.815   4.674   3.906
 3445SOL    HW111234   5.843   4.603   3.970
 3445SOL    HW211235   5.887   4.743   3.899
 3446SOL     OW11236   6.280   1.071   3.202
 3446SOL    HW111237   6.356   1.125   3.238
 3446SOL    HW211238   6.194   1.121   3.215
 3447SOL     OW11239   5.062   4.245   0.683
 3447SOL    HW111240   4.972   4.202   0.674
 3447SOL    HW211241   5.104   4.216   0.769
 3448SOL     OW11242   3.174   0.114   0.654
 3448SOL    HW111243   3.251   0.050   0.645
 3448SOL    HW211244   3.195   0.183   0.723
 3449SOL     OW11245   5.469   6.459   3.542
 3449SOL    HW111246   5.511   6.420   3.460
 3449SOL    HW211247   5.401   6.395   3.578
 3450SOL     OW11248   0.946   2.585   0.554
 3450SOL    HW111249   0.972   2.615   0.646
 3450SOL    HW211250   0.994   2.500   0.532
 3451SOL     OW11251   0.265   5.340   3.696
 3451SOL    HW111252   0.218   5.423   3.726
 3451SOL    HW211253   0.200   5.279   3.652
 3452SOL     OW11254   5.644   1.243   6.939
 3452SOL    HW111255   5.732   1.292   6.935
 3452SOL    HW211256   5.660   1.151   6.976
 3453SOL     OW11257   6.291   5.825   5.486
 3453SOL    HW111258   6.293   5.779   5.398
 3453SOL    HW211259   6.318   5.761   5.558
 3454SOL     OW11260   2.123   0.772   5.688
 3454SOL    HW111261   2.122   0.755   5.589
 3454SOL    HW211262   2.167   0.695   5.735
 3455SOL     OW11263   1.621   3.088   4.450
 3455SOL    HW111264   1.569   3.003   4.460
 3455SOL    HW211265   1.709   3.068   4.408
 3456SOL     OW11266   5.364   6.467   2.145
 3456SOL    HW111267   5.383   6.408   2.066
 3456SOL    HW211268   5.266   6.462   2.167
 3457SOL     OW11269   2.347   5.589   4.040
 3457SOL    HW111270   2.360   5.531   4.120
 3457SOL    HW211271   2.394   5.676   4.053
 3458SOL     OW11272   5.209   6.570   0.146
 3458SOL    HW111273   5.176   6.662   0.164
 3458SOL    HW211274   5.257   6.569   0.058
 3459SOL     OW11275   6.803   4.266   3.111
 3459SOL    HW111276   6.875   4.232   3.050
 3459SOL    HW211277   6.803   4.366   3.110
 3460SOL     OW11278   2.776   3.507   0.351
 3460SOL    HW111279   2.848   3.519   0.420
 3460SOL    HW211280   2.758   3.595   0.307
 3461SOL     OW11281   4.306   5.591   4.184
 3461SOL    HW111282   4.376   5.558   4.246
 3461SOL    HW211283   4.329   5.683   4.153
 3462SOL     OW11284   6.414   3.787   2.346
 3462SOL    HW111285   6.363   3.702   2.360
 3462SOL    HW211286   6.501   3.781   2.393
 3463SOL     OW11287   1.107   2.968   2.477
 3463SOL    HW111288   1.119   2.870   2.496
 3463SOL    HW211289   1.110   2.982   2.378
 3464SOL     OW11290   6.235   2.480   6.952
 3464SOL    HW111291   6.235   2.389   6.910
 3464SOL    HW211292   6.317   2.491   7.008
 3465SOL     OW11293   1.240   3.129   1.705
 3465SOL    HW111294   1.152   3.173   1.726
 3465SOL    HW211295   1.314   3.195   1.722
 3466SOL     OW11296   6.687   5.241   6.126
 3466SOL    HW111297   6.724   5.315   6.071
 3466SOL    HW211298   6.761   5.196   6.176
 3467SOL     OW11299   1.767   1.551   0.511
 3467SOL    HW111300   1.806   1.622   0.570
 3467SOL    HW211301   1.757   1.466   0.564
 3468SOL     OW11302   5.759   1.726   3.323
 3468SOL    HW111303   5.670   1.710   3.282
 3468SOL    HW211304   5.825   1.661   3.285
 3469SOL     OW11305   4.607   0.138   4.552
 3469SOL    HW111306   4.572   0.055   4.511
 3469SOL    HW211307   4.551   0.163   4.631
 3470SOL     OW11308   0.159   2.584   1.492
 3470SOL    HW111309   0.201   2.549   1.575
 3470SOL    HW211310   0.201   2.671   1.467
 3471SOL     OW11311   4.415   4.587   3.657
 3471SOL    HW111312   4.375   4.670   3.618
 3471SOL    HW211313   4.489   4.554   3.598
 3472SOL     OW11314   3.159   1.277   1.678
 3472SOL    HW111315   3.157   1.371   1.713
 3472SOL    HW211316   3.071   1.233   1.695
 3473SOL     OW11317   6.060   3.225   2.742
 3473SOL    HW111318   6.088   3.149   2.683
 3473SOL    HW211319   6.049   3.308   2.687
 3474SOL     OW11320   6.854   4.281   2.529
 3474SOL    HW111321   6.911   4.214   2.577
 3474SOL    HW211322   6.907   4.322   2.454
 3475SOL     OW11323   1.075   4.547   5.071
 3475SOL    HW111324   1.136   4.622   5.095
 3475SOL    HW211325   1.073   4.481   5.147
 3476SOL     OW11326   2.246   2.337   2.509
 3476SOL    HW111327   2.293   2.259   2.468
 3476SOL    HW211328   2.298   2.420   2.491
 3477SOL     OW11329   1.360   4.740   0.921
 3477SOL    HW111330   1.375   4.832   0.957
 3477SOL    HW211331   1.295   4.691   0.979
 3478SOL     OW11332   3.167   6.426   6.968
 3478SOL    HW111333   3.141   6.520   6.988
 3478SOL    HW211334   3.148   6.368   0.020
 3479SOL     OW11335   0.295   0.885   2.640
 3479SOL    HW111336   0.309   0.850   2.733
 3479SOL    HW211337   0.283   0.808   2.578
 3480SOL     OW11338   0.449   6.179   5.279
 3480SOL    HW111339   0.362   6.157   5.323
 3480SOL    HW211340   0.512   6.216   5.348
 3481SOL     OW11341   5.031   0.567   0.413
 3481SOL    HW111342   5.045   0.663   0.437
 3481SOL    HW211343   4.933   0.545   0.417
 3482SOL     OW11344   5.969   1.302   2.158
 3482SOL    HW111345   6.063   1.299   2.123
 3482SOL    HW211346   5.916   1.227   2.118
 3483SOL     OW11347   5.564   1.756   2.646
 3483SOL    HW111348   5.627   1.678   2.650
 3483SOL    HW211349   5.492   1.738   2.579
 3484SOL     OW11350   1.325   3.096   0.328
 3484SOL    HW111351   1.417   3.122   0.358
 3484SOL    HW211352   1.332   3.025   0.258
 3485SOL     OW11353   1.554   2.061   4.048
 3485SOL    HW111354   1.531   1.981   3.993
 3485SOL    HW211355   1.625   2.114   4.001
 3486SOL     OW11356   1.756   0.168   3.278
 3486SOL    HW111357   1.788   0.089   3.330
 3486SOL    HW211358   1.831   0.232   3.265
 3487SOL     OW11359   6.625   1.659   0.418
 3487SOL    HW111360   6.641   1.616   0.329
 3487SOL    HW211361   6.555   1.607   0.468
 3488SOL     OW11362   5.540   1.245   5.388
 3488SOL    HW111363   5.496   1.335   5.392
 3488SOL    HW211364   5.470   1.174   5.383
 3489SOL     OW11365   3.630   0.217   2.224
 3489SOL    HW111366   3.597   0.308   2.201
 3489SOL    HW211367   3.721   0.204   2.186
 3490SOL     OW11368   3.722   4.568   1.279
 3490SOL    HW111369   3.672   4.481   1.277
 3490SOL    HW211370   3.816   4.552   1.307
 3491SOL     OW11371   4.197   2.064   5.992
 3491SOL    HW111372   4.136   2.123   5.939
 3491SOL    HW211373   4.218   2.108   6.079
 3492SOL     OW11374   6.327   4.590   0.733
 3492SOL    HW111375   6.262   4.630   0.797
 3492SOL    HW211376   6.278   4.549   0.657
 3493SOL     OW11377   5.361   3.828   4.152
 3493SOL    HW111378   5.277   3.869   4.188
 3493SOL    HW211379   5.412   3.898   4.101
 3494SOL     OW11380   2.498   1.092   1.851
 3494SOL    HW111381   2.535   1.177   1.812
 3494SOL    HW211382   2.572   1.038   1.891
 3495SOL     OW11383   6.831   4.682   2.149
 3495SOL    HW111384   6.844   4.767   2.098
 3495SOL    HW211385   6.753   4.632   2.111
 3496SOL     OW11386   6.014   5.359   0.737
 3496SOL    HW111387   6.111   5.382   0.735
 3496SOL    HW211388   5.964   5.420   0.675
 3497SOL     OW11389   2.550   1.473   3.819
 3497SOL    HW111390   2.535   1.554   3.762
 3497SOL    HW211391   2.498   1.481   3.903
 3498SOL     OW11392   2.922   1.125   1.756
 3498SOL    HW111393   2.865   1.207   1.759
 3498SOL    HW211394   2.870   1.051   1.713
 3499SOL     OW11395   5.841   4.505   4.143
 3499SOL    HW111396   5.934   4.512   4.179
 3499SOL    HW211397   5.782   4.570   4.190
 3500SOL     OW11398   1.621   3.266   2.932
 3500SOL    HW111399   1.619   3.344   2.870
 3500SOL    HW211400   1.602   3.297   3.025
 3501SOL     OW11401   3.531   6.561   5.996
 3501SOL    HW111402   3.586   6.642   6.016
 3501SOL    HW211403   3.563   6.484   6.052
 3502SOL     OW11404   0.053   2.168   1.545
 3502SOL    HW111405   0.113   2.244   1.573
 3502SOL    HW211406   0.035   2.109   1.623
 3503SOL     OW11407   5.966   6.279   5.067
 3503SOL    HW111408   5.918   6.317   4.988
 3503SOL    HW211409   5.911   6.291   5.149
 3504SOL     OW11410   2.415   0.566   2.094
 3504SOL    HW111411   2.499   0.587   2.144
 3504SOL    HW211412   2.437   0.514   2.011
 3505SOL     OW11413   5.096   4.048   5.674
 3505SOL    HW111414   5.112   4.090   5.763
 3505SOL    HW211415   5.067   4.118   5.609
 3506SOL     OW11416   5.290   4.396   4.903
 3506SOL    HW111417   5.357   4.369   4.972
 3506SOL    HW211418   5.244   4.314   4.868
 3507SOL     OW11419   2.717   0.832   0.845
 3507SOL    HW111420   2.774   0.755   0.871
 3507SOL    HW211421   2.696   0.887   0.927
 3508SOL     OW11422   2.245   1.176   5.979
 3508SOL    HW111423   2.300   1.164   5.896
 3508SOL    HW211424   2.197   1.263   5.974
 3509SOL     OW11425   5.959   0.248   6.902
 3509SOL    HW111426   5.871   0.216   6.867
 3509SOL    HW211427   6.018   0.275   6.826
 3510SOL     OW11428   1.430   0.878   2.353
 3510SOL    HW111429   1.345   0.891   2.303
 3510SOL    HW211430   1.466   0.787   2.335
 3511SOL     OW11431   2.083   4.111   1.602
 3511SOL    HW111432   2.026   4.032   1.579
 3511SOL    HW211433   2.053   4.149   1.690
 3512SOL     OW11434   0.320   4.297   0.326
 3512SOL    HW111435   0.296   4.301   0.423
 3512SOL    HW211436   0.307   4.387   0.285
 3513SOL     OW11437   5.667   2.116   0.603
 3513SOL    HW111438   5.673   2.208   0.641
 3513SOL    HW211439   5.748   2.064   0.630
 3514SOL     OW11440   0.236   0.835   1.952
 3514SOL    HW111441   0.205   0.848   1.858
 3514SOL    HW211442   0.186   0.758   1.992
 3515SOL     OW11443   4.381   6.128   3.012
 3515SOL    HW111444   4.331   6.186   2.948
 3515SOL    HW211445   4.355   6.150   3.105
 3516SOL     OW11446   4.544   6.394   0.862
 3516SOL    HW111447   4.448   6.417   0.874
 3516SOL    HW211448   4.597   6.478   0.850
 3517SOL     OW11449   6.784   0.963   1.537
 3517SOL    HW111450   6.838   0.893   1.491
 3517SOL    HW211451   6.814   1.054   1.508
 3518SOL     OW11452   5.267   2.957   5.406
 3518SOL    HW111453   5.270   3.042   5.459
 3518SOL    HW211454   5.355   2.944   5.360
 3519SOL     OW11455   1.449   6.715   5.513
 3519SOL    HW111456   1.359   6.714   5.556
 3519SOL    HW211457   1.497   6.630   5.535
 3520SOL     OW11458   3.349   6.118   6.923
 3520SOL    HW111459   3.285   6.045   6.898
 3520SOL    HW211460   3.428   6.115   6.862
 3521SOL     OW11461   4.790   2.902   0.040
 3521SOL    HW111462   4.863   2.966   0.065
 3521SOL    HW211463   4.769   2.843   0.118
 3522SOL     OW11464   0.368   5.580   0.316
 3522SOL    HW111465   0.359   5.557   0.219
 3522SOL    HW211466   0.278   5.594   0.355
 3523SOL     OW11467   1.408   4.724   5.054
 3523SOL    HW111468   1.408   4.625   5.063
 3523SOL    HW211469   1.501   4.759   5.069
 3524SOL     OW11470   4.821   1.632   1.857
 3524SOL    HW111471   4.878   1.691   1.915
 3524SOL    HW211472   4.871   1.606   1.775
 3525SOL     OW11473   6.712   3.697   3.905
 3525SOL    HW111474   6.737   3.648   3.988
 3525SOL    HW211475   6.681   3.789   3.928
 3526SOL     OW11476   1.870   6.873   3.959
 3526SOL    HW111477   1.939   6.861   3.888
 3526SOL    HW211478   1.897   6.948   4.019
 3527SOL     OW11479   5.888   3.323   6.440
 3527SOL    HW111480   5.938   3.238   6.456
 3527SOL    HW211481   5.933   3.374   6.366
 3528SOL     OW11482   1.708   6.418   5.253
 3528SOL    HW111483   1.698   6.398   5.351
 3528SOL    HW211484   1.776   6.489   5.240
 3529SOL     OW11485   4.090   0.167   0.856
 3529SOL    HW111486   4.183   0.189   0.827
 3529SOL    HW211487   4.093   0.098   0.928
 3530SOL     OW11488   6.716   6.098   0.918
 3530SOL    HW111489   6.694   6.062   1.008
 3530SOL    HW211490   6.675   6.189   0.908
 3531SOL     OW11491   4.760   2.510   0.822
 3531SOL    HW111492   4.700   2.479   0.896
 3531SOL    HW211493   4.856   2.499   0.849
 3532SOL     OW11494   2.432   0.042   2.119
 3532SOL    HW111495   2.417   0.085   2.029
 3532SOL    HW211496   2.490   0.102   2.174
 3533SOL     OW11497   0.605   1.567   2.574
 3533SOL    HW111498   0.702   1.546   2.575
 3533SOL    HW211499   0.553   1.489   2.609
 3534SOL     OW11500   0.732   1.545   0.811
 3534SOL    HW111501   0.732   1.503   0.721
 3534SOL    HW211502   0.663   1.618   0.814
 3535SOL     OW11503   1.896   5.171   6.265
 3535SOL    HW111504   1.850   5.083   6.252
 3535SOL    HW211505   1.892   5.224   6.180
 3536SOL     OW11506   3.610   1.804   3.108
 3536SOL    HW111507   3.658   1.833   3.025
 3536SOL    HW211508   3.512   1.797   3.089
 3537SOL     OW11509   2.142   5.473   2.740
 3537SOL    HW111510   2.112   5.529   2.662
 3537SOL    HW211511   2.226   5.512   2.778
 3538SOL     OW11512   2.237   6.649   5.443
 3538SOL    HW111513   2.308   6.579   5.443
 3538SOL    HW211514   2.217   6.678   5.350
 3539SOL     OW11515   3.540   3.050   5.297
 3539SOL    HW111516   3.457   3.104   5.282
 3539SOL    HW211517   3.530   2.961   5.251
 3540SOL     OW11518   2.005   2.917   4.803
 3540SOL    HW111519   2.091   2.901   4.755
 3540SOL    HW211520   1.962   2.829   4.824
 3541SOL     OW11521   2.276   2.531   6.245
 3541SOL    HW111522   2.213   2.557   6.172
 3541SOL    HW211523   2.269   2.597   6.320
 3542SOL     OW11524   1.504   5.473   3.651
 3542SOL    HW111525   1.452   5.400   3.695
 3542SOL    HW211526   1.550   5.437   3.570
 3543SOL     OW11527   0.631   2.569   4.874
 3543SOL    HW111528   0.681   2.516   4.806
 3543SOL    HW211529   0.617   2.662   4.840
 3544SOL     OW11530   1.892   4.009   5.574
 3544SOL    HW111531   1.796   4.018   5.600
 3544SOL    HW211532   1.901   4.013   5.475
 3545SOL     OW11533   4.250   5.619   6.686
 3545SOL    HW111534   4.349   5.633   6.685
 3545SOL    HW211535   4.230   5.521   6.685
 3546SOL     OW11536   1.782   4.696   3.777
 3546SOL    HW111537   1.712   4.679   3.846
 3546SOL    HW211538   1.869   4.716   3.823
 3547SOL     OW11539   6.429   4.506   4.049
 3547SOL    HW111540   6.524   4.533   4.062
 3547SOL    HW211541   6.423   4.406   4.044
 3548SOL     OW11542   5.918   1.889   6.021
 3548SOL    HW111543   5.982   1.964   5.999
 3548SOL    HW211544   5.825   1.924   6.021
 3549SOL     OW11545   6.426   4.767   5.616
 3549SOL    HW111546   6.482   4.684   5.616
 3549SOL    HW211547   6.476   4.841   5.661
 3550SOL     OW11548   5.375   2.405   2.772
 3550SOL    HW111549   5.419   2.344   2.706
 3550SOL    HW211550   5.278   2.416   2.747
 3551SOL     OW11551   3.868   6.816   2.779
 3551SOL    HW111552   3.806   6.894   2.792
 3551SOL    HW211553   3.835   6.760   2.703
 3552SOL     OW11554   5.232   6.194   1.523
 3552SOL    HW111555   5.228   6.291   1.498
 3552SOL    HW211556   5.216   6.185   1.621
 3553SOL     OW11557   5.433   4.014   1.624
 3553SOL    HW111558   5.396   3.926   1.596
 3553SOL    HW211559   5.362   4.085   1.617
 3554SOL     OW11560   3.645   2.660   1.076
 3554SOL    HW111561   3.681   2.683   0.986
 3554SOL    HW211562   3.618   2.744   1.124
 3555SOL     OW11563   1.226   4.050   3.380
 3555SOL    HW111564   1.160   3.987   3.338
 3555SOL    HW211565   1.280   4.093   3.308
 3556SOL     OW11566   4.552   0.777   4.339
 3556SOL    HW111567   4.474   0.723   4.308
 3556SOL    HW211568   4.624   0.774   4.270
 3557SOL     OW11569   0.988   0.347   3.783
 3557SOL    HW111570   1.033   0.413   3.723
 3557SOL    HW211571   0.891   0.340   3.760
 3558SOL     OW11572   1.326   5.688   0.826
 3558SOL    HW111573   1.392   5.630   0.777
 3558SOL    HW211574   1.339   5.678   0.924
 3559SOL     OW11575   0.868   6.862   4.553
 3559SOL    HW111576   0.860   6.953   4.594
 3559SOL    HW211577   0.860   6.870   4.453
 3560SOL     OW11578   1.442   5.738   1.542
 3560SOL    HW111579   1.438   5.775   1.635
 3560SOL    HW211580   1.442   5.638   1.546
 3561SOL     OW11581   3.834   5.026   5.485
 3561SOL    HW111582   3.889   4.943   5.493
 3561SOL    HW211583   3.894   5.106   5.494
 3562SOL     OW11584   5.499   0.960   4.421
 3562SOL    HW111585   5.476   0.863   4.424
 3562SOL    HW211586   5.445   1.009   4.489
 3563SOL     OW11587   5.469   0.721   1.327
 3563SOL    HW111588   5.537   0.655   1.360
 3563SOL    HW211589   5.382   0.705   1.373
 3564SOL     OW11590   1.662   4.533   4.011
 3564SOL    HW111591   1.574   4.500   3.979
 3564SOL    HW211592   1.657   4.555   4.108
 3565SOL     OW11593   3.699   6.492   5.239
 3565SOL    HW111594   3.629   6.488   5.167
 3565SOL    HW211595   3.656   6.518   5.325
 3566SOL     OW11596   6.691   3.368   6.507
 3566SOL    HW111597   6.663   3.395   6.600
 3566SOL    HW211598   6.729   3.447   6.460
 3567SOL     OW11599   1.027   3.134   0.089
 3567SOL    HW111600   1.118   3.099   0.064
 3567SOL    HW211601   0.968   3.057   0.114
 3568SOL     OW11602   4.922   6.232   3.857
 3568SOL    HW111603   4.920   6.277   3.768
 3568SOL    HW211604   4.924   6.301   3.930
 3569SOL     OW11605   3.070   2.501   6.360
 3569SOL    HW111606   3.063   2.542   6.452
 3569SOL    HW211607   3.161   2.462   6.348
 3570SOL     OW11608   5.487   0.689   4.612
 3570SOL    HW111609   5.523   0.677   4.520
 3570SOL    HW211610   5.410   0.753   4.611
 3571SOL     OW11611   2.108   0.928   4.801
 3571SOL    HW111612   2.194   0.884   4.826
 3571SOL    HW211613   2.079   0.989   4.874
 3572SOL     OW11614   5.770   3.634   2.881
 3572SOL    HW111615   5.772   3.543   2.840
 3572SOL    HW211616   5.751   3.702   2.810
 3573SOL     OW11617   5.938   3.883   2.733
 3573SOL    HW111618   5.897   3.964   2.773
 3573SOL    HW211619   5.866   3.816   2.713
 3574SOL     OW11620   1.342   3.646   0.357
 3574SOL    HW111621   1.258   3.632   0.305
 3574SOL    HW211622   1.321   3.694   0.443
 3575SOL     OW11623   4.738   5.891   1.883
 3575SOL    HW111624   4.690   5.809   1.852
 3575SOL    HW211625   4.807   5.866   1.951
 3576SOL     OW11626   0.623   1.997   0.335
 3576SOL    HW111627   0.578   2.000   0.424
 3576SOL    HW211628   0.714   2.037   0.342
 3577SOL     OW11629   2.211   2.898   6.699
 3577SOL    HW111630   2.160   2.984   6.696
 3577SOL    HW211631   2.191   2.850   6.784
 3578SOL     OW11632   4.859   1.923   1.077
 3578SOL    HW111633   4.812   1.838   1.098
 3578SOL    HW211634   4.814   1.999   1.124
 3579SOL     OW11635   6.853   3.054   2.490
 3579SOL    HW111636   6.847   3.097   2.401
 3579SOL    HW211637   6.874   2.957   2.479
 3580SOL     OW11638   6.401   3.048   7.017
 3580SOL    HW111639   6.472   3.077   6.952
 3580SOL    HW211640   6.340   2.983   6.972
 3581SOL     OW11641   0.553   6.042   2.698
 3581SOL    HW111642   0.477   5.987   2.664
 3581SOL    HW211643   0.620   5.982   2.741
 3582SOL     OW11644   2.262   5.211   5.466
 3582SOL    HW111645   2.326   5.264   5.522
 3582SOL    HW211646   2.183   5.185   5.520
 3583SOL     OW11647   1.235   4.581   0.240
 3583SOL    HW111648   1.311   4.526   0.207
 3583SOL    HW211649   1.224   4.661   0.180
 3584SOL     OW11650   5.565   4.503   5.700
 3584SOL    HW111651   5.500   4.429   5.682
 3584SOL    HW211652   5.596   4.543   5.614
 3585SOL     OW11653   3.321   2.086   4.907
 3585SOL    HW111654   3.258   2.159   4.932
 3585SOL    HW211655   3.328   2.020   4.982
 3586SOL     OW11656   0.261   2.464   5.114
 3586SOL    HW111657   0.317   2.424   5.186
 3586SOL    HW211658   0.314   2.535   5.067
 3587SOL     OW11659   2.763   5.420   6.622
 3587SOL    HW111660   2.792   5.496   6.681
 3587SOL    HW211661   2.746   5.339   6.677
 3588SOL     OW11662   6.674   3.357   5.028
 3588SOL    HW111663   6.597   3.380   5.088
 3588SOL    HW211664   6.736   3.435   5.022
 3589SOL     OW11665   6.347   6.966   6.680
 3589SOL    HW111666   6.410   7.025   6.731
 3589SOL    HW211667   6.277   7.022   6.635
 3590SOL     OW11668   0.365   3.854   0.123
 3590SOL    HW111669   0.438   3.852   0.054
 3590SOL    HW211670   0.279   3.827   0.080
 3591SOL     OW11671   5.545   3.425   1.172
 3591SOL    HW111672   5.632   3.432   1.220
 3591SOL    HW211673   5.529   3.330   1.144
 3592SOL     OW11674   0.245   6.884   2.912
 3592SOL    HW111675   0.311   6.958   2.925
 3592SOL    HW211676   0.215   6.850   3.001
 3593SOL     OW11677   0.867   4.269   6.067
 3593SOL    HW111678   0.886   4.338   6.136
 3593SOL    HW211679   0.875   4.309   5.976
 3594SOL     OW11680   5.349   0.467   4.046
 3594SOL    HW111681   5.271   0.457   4.108
 3594SOL    HW211682   5.414   0.532   4.085
 3595SOL     OW11683   5.439   5.229   6.376
 3595SOL    HW111684   5.509   5.159   6.361
 3595SOL    HW211685   5.441   5.257   6.472
 3596SOL     OW11686   4.578   2.583   3.632
 3596SOL    HW111687   4.484   2.569   3.603
 3596SOL    HW211688   4.594   2.536   3.718
 3597SOL     OW11689   1.679   3.234   5.519
 3597SOL    HW111690   1.657   3.145   5.560
 3597SOL    HW211691   1.595   3.282   5.496
 3598SOL     OW11692   2.015   6.283   5.267
 3598SOL    HW111693   2.032   6.348   5.192
 3598SOL    HW211694   1.987   6.333   5.349
 3599SOL     OW11695   4.466   2.052   0.005
 3599SOL    HW111696   4.497   1.974   6.979
 3599SOL    HW211697   4.470   2.135   6.977
 3600SOL     OW11698   0.983   3.354   1.676
 3600SOL    HW111699   0.953   3.321   1.587
 3600SOL    HW211700   0.953   3.291   1.748
 3601SOL     OW11701   5.314   2.451   6.214
 3601SOL    HW111702   5.382   2.488   6.150
 3601SOL    HW211703   5.316   2.351   6.209
 3602SOL     OW11704   1.423   3.221   0.641
 3602SOL    HW111705   1.360   3.292   0.609
 3602SOL    HW211706   1.376   3.164   0.709
 3603SOL     OW11707   3.552   1.247   5.252
 3603SOL    HW111708   3.602   1.324   5.292
 3603SOL    HW211709   3.473   1.225   5.311
 3604SOL     OW11710   6.297   0.935   3.861
 3604SOL    HW111711   6.333   1.028   3.859
 3604SOL    HW211712   6.366   0.871   3.829
 3605SOL     OW11713   0.955   5.253   4.198
 3605SOL    HW111714   0.907   5.313   4.262
 3605SOL    HW211715   1.012   5.189   4.248
 3606SOL     OW11716   1.364   6.660   2.894
 3606SOL    HW111717   1.265   6.672   2.889
 3606SOL    HW211718   1.402   6.722   2.963
 3607SOL     OW11719   5.600   3.270   2.218
 3607SOL    HW111720   5.610   3.175   2.188
 3607SOL    HW211721   5.510   3.304   2.190
 3608SOL     OW11722   5.227   1.712   4.148
 3608SOL    HW111723   5.292   1.715   4.072
 3608SOL    HW211724   5.136   1.739   4.115
 3609SOL     OW11725   2.163   0.513   4.276
 3609SOL    HW111726   2.164   0.606   4.314
 3609SOL    HW211727   2.228   0.456   4.325
 3610SOL     OW11728   1.440   0.299   5.741
 3610SOL    HW111729   1.362   0.246   5.774
 3610SOL    HW211730   1.522   0.241   5.739
 3611SOL     OW11731   4.038   4.853   3.902
 3611SOL    HW111732   3.974   4.849   3.825
 3611SOL    HW211733   4.120   4.801   3.880
 3612SOL     OW11734   6.503   0.975   6.908
 3612SOL    HW111735   6.516   1.012   6.816
 3612SOL    HW211736   6.561   0.895   6.921
 3613SOL     OW11737   4.175   5.217   1.687
 3613SOL    HW111738   4.133   5.127   1.680
 3613SOL    HW211739   4.111   5.287   1.657
 3614SOL     OW11740   2.759   3.390   0.016
 3614SOL    HW111741   2.679   3.430   7.000
 3614SOL    HW211742   2.776   3.435   0.103
 3615SOL     OW11743   5.916   2.624   6.432
 3615SOL    HW111744   5.965   2.549   6.387
 3615SOL    HW211745   5.925   2.707   6.377
 3616SOL     OW11746   1.376   0.714   6.341
 3616SOL    HW111747   1.342   0.635   6.393
 3616SOL    HW211748   1.408   0.683   6.252
 3617SOL     OW11749   4.040   0.622   6.001
 3617SOL    HW111750   3.986   0.538   6.002
 3617SOL    HW211751   4.089   0.630   5.914
 3618SOL     OW11752   2.594   3.430   5.415
 3618SOL    HW111753   2.554   3.495   5.480
 3618SOL    HW211754   2.522   3.371   5.379
 3619SOL     OW11755   5.697   3.279   0.309
 3619SOL    HW111756   5.643   3.363   0.308
 3619SOL    HW211757   5.778   3.292   0.364
 3620SOL     OW11758   6.279   5.366   5.439
 3620SOL    HW111759   6.343   5.303   5.482
 3620SOL    HW211760   6.186   5.328   5.444
 3621SOL     OW11761   3.068   3.545   4.501
 3621SOL    HW111762   3.036   3.455   4.530
 3621SOL    HW211763   2.992   3.596   4.460
 3622SOL     OW11764   1.652   0.363   0.538
 3622SOL    HW111765   1.597   0.446   0.543
 3622SOL    HW211766   1.748   0.388   0.528
 3623SOL     OW11767   0.271   5.503   5.218
 3623SOL    HW111768   0.329   5.484   5.297
 3623SOL    HW211769   0.184   5.454   5.228
 3624SOL     OW11770   1.541   7.023   2.580
 3624SOL    HW111771   1.512   7.010   2.485
 3624SOL    HW211772   1.636   6.994   2.590
 3625SOL     OW11773   0.049   3.430   6.480
 3625SOL    HW111774   0.149   3.442   6.478
 3625SOL    HW211775   0.026   3.337   6.452
 3626SOL     OW11776   0.644   3.327   3.931
 3626SOL    HW111777   0.569   3.393   3.934
 3626SOL    HW211778   0.607   3.234   3.931
 3627SOL     OW11779   4.825   3.357   1.738
 3627SOL    HW111780   4.862   3.373   1.646
 3627SOL    HW211781   4.759   3.282   1.735
 3628SOL     OW11782   1.509   1.108   2.198
 3628SOL    HW111783   1.579   1.143   2.260
 3628SOL    HW211784   1.460   1.033   2.242
 3629SOL     OW11785   1.150   0.668   4.139
 3629SOL    HW111786   1.180   0.615   4.059
 3629SOL    HW211787   1.189   0.760   4.135
 3630SOL     OW11788   6.153   2.686   3.810
 3630SOL    HW111789   6.205   2.747   3.870
 3630SOL    HW211790   6.151   2.594   3.851
 3631SOL     OW11791   1.454   6.844   3.604
 3631SOL    HW111792   1.532   6.812   3.657
 3631SOL    HW211793   1.484   6.876   3.515
 3632SOL     OW11794   4.453   4.184   0.313
 3632SOL    HW111795   4.538   4.212   0.358
 3632SOL    HW211796   4.463   4.091   0.278
 3633SOL     OW11797   4.357   2.455   5.907
 3633SOL    HW111798   4.373   2.537   5.853
 3633SOL    HW211799   4.320   2.480   5.997
 3634SOL     OW11800   2.208   6.597   6.126
 3634SOL    HW111801   2.171   6.583   6.035
 3634SOL    HW211802   2.138   6.640   6.184
 3635SOL     OW11803   2.010   1.485   0.832
 3635SOL    HW111804   2.006   1.584   0.826
 3635SOL    HW211805   1.948   1.453   0.904
 3636SOL     OW11806   0.215   6.242   1.330
 3636SOL    HW111807   0.237   6.146   1.347
 3636SOL    HW211808   0.227   6.262   1.233
 3637SOL     OW11809   0.798   2.864   0.928
 3637SOL    HW111810   0.832   2.933   0.992
 3637SOL    HW211811   0.698   2.867   0.927
 3638SOL     OW11812   6.619   3.988   2.575
 3638SOL    HW111813   6.536   3.946   2.610
 3638SOL    HW211814   6.647   4.064   2.635
 3639SOL     OW11815   3.475   4.581   5.970
 3639SOL    HW111816   3.456   4.607   5.875
 3639SOL    HW211817   3.466   4.482   5.980
 3640SOL     OW11818   5.064   2.081   0.980
 3640SOL    HW111819   5.136   2.017   0.951
 3640SOL    HW211820   4.987   2.030   1.018
 3641SOL     OW11821   5.157   4.353   1.204
 3641SOL    HW111822   5.073   4.341   1.257
 3641SOL    HW211823   5.220   4.413   1.254
 3642SOL     OW11824   5.188   2.111   6.816
 3642SOL    HW111825   5.237   2.171   6.879
 3642SOL    HW211826   5.242   2.029   6.799
 3643SOL     OW11827   4.147   6.398   6.034
 3643SOL    HW111828   4.168   6.496   6.030
 3643SOL    HW211829   4.217   6.351   6.088
 3644SOL     OW11830   2.781   0.566   1.539
 3644SOL    HW111831   2.768   0.485   1.596
 3644SOL    HW211832   2.710   0.633   1.560
 3645SOL     OW11833   1.298   3.823   4.352
 3645SOL    HW111834   1.268   3.736   4.391
 3645SOL    HW211835   1.293   3.819   4.253
 3646SOL     OW11836   2.037   5.061   4.631
 3646SOL    HW111837   2.010   5.099   4.542
 3646SOL    HW211838   2.016   4.963   4.633
 3647SOL     OW11839   2.787   6.270   6.757
 3647SOL    HW111840   2.763   6.273   6.854
 3647SOL    HW211841   2.705   6.286   6.702
 3648SOL     OW11842   4.973   6.236   3.148
 3648SOL    HW111843   4.940   6.147   3.180
 3648SOL    HW211844   5.072   6.231   3.132
 3649SOL     OW11845   6.214   4.147   0.264
 3649SOL    HW111846   6.166   4.061   0.251
 3649SOL    HW211847   6.272   4.141   0.345
 3650SOL     OW11848   5.760   4.405   0.957
 3650SOL    HW111849   5.823   4.371   0.888
 3650SOL    HW211850   5.721   4.328   1.008
 3651SOL     OW11851   1.835   2.006   4.835
 3651SOL    HW111852   1.783   1.927   4.804
 3651SOL    HW211853   1.930   1.998   4.805
 3652SOL     OW11854   5.965   0.352   2.709
 3652SOL    HW111855   5.875   0.358   2.751
 3652SOL    HW211856   5.983   0.257   2.682
 3653SOL     OW11857   1.121   0.993   2.943
 3653SOL    HW111858   1.219   0.991   2.923
 3653SOL    HW211859   1.105   0.959   3.035
 3654SOL     OW11860   5.203   6.196   0.678
 3654SOL    HW111861   5.228   6.126   0.611
 3654SOL    HW211862   5.277   6.208   0.744
 3655SOL     OW11863   2.843   1.255   4.059
 3655SOL    HW111864   2.863   1.341   4.106
 3655SOL    HW211865   2.747   1.230   4.074
 3656SOL     OW11866   0.893   5.056   1.171
 3656SOL    HW111867   0.883   5.095   1.263
 3656SOL    HW211868   0.895   4.956   1.177
 3657SOL     OW11869   4.837   5.637   5.453
 3657SOL    HW111870   4.878   5.721   5.488
 3657SOL    HW211871   4.738   5.643   5.458
 3658SOL     OW11872   1.855   4.700   6.228
 3658SOL    HW111873   1.900   4.701   6.318
 3658SOL    HW211874   1.815   4.610   6.213
 3659SOL     OW11875   0.416   1.749   6.421
 3659SOL    HW111876   0.482   1.742   6.347
 3659SOL    HW211877   0.389   1.658   6.451
 3660SOL     OW11878   6.211   6.387   5.143
 3660SOL    HW111879   6.131   6.331   5.120
 3660SOL    HW211880   6.284   6.329   5.178
 3661SOL     OW11881   0.160   0.459   4.386
 3661SOL    HW111882   0.213   0.438   4.468
 3661SOL    HW211883   0.208   0.422   4.306
 3662SOL     OW11884   3.564   0.942   4.945
 3662SOL    HW111885   3.578   0.979   4.853
 3662SOL    HW211886   3.641   0.970   5.004
 3663SOL     OW11887   2.425   2.457   6.586
 3663SOL    HW111888   2.353   2.504   6.536
 3663SOL    HW211889   2.390   2.370   6.621
 3664SOL     OW11890   3.532   1.842   2.208
 3664SOL    HW111891   3.443   1.799   2.224
 3664SOL    HW211892   3.567   1.814   2.119
 3665SOL     OW11893   0.650   6.058   5.724
 3665SOL    HW111894   0.624   5.984   5.663
 3665SOL    HW211895   0.582   6.131   5.718
 3666SOL     OW11896   1.215   3.127   3.009
 3666SOL    HW111897   1.185   3.033   3.028
 3666SOL    HW211898   1.135   3.187   3.002
 3667SOL     OW11899   0.840   1.449   3.984
 3667SOL    HW111900   0.749   1.432   4.023
 3667SOL    HW211901   0.887   1.517   4.039
 3668SOL     OW11902   0.875   0.580   1.227
 3668SOL    HW111903   0.918   0.490   1.236
 3668SOL    HW211904   0.793   0.573   1.170
 3669SOL     OW11905   6.001   1.789   4.060
 3669SOL    HW111906   5.919   1.756   4.013
 3669SOL    HW211907   6.071   1.717   4.059
 3670SOL     OW11908   3.153   5.113   1.259
 3670SOL    HW111909   3.132   5.015   1.269
 3670SOL    HW211910   3.068   5.166   1.264
 3671SOL     OW11911   6.520   1.417   2.649
 3671SOL    HW111912   6.488   1.336   2.601
 3671SOL    HW211913   6.462   1.435   2.728
 3672SOL     OW11914   5.061   1.453   2.677
 3672SOL    HW111915   5.086   1.538   2.631
 3672SOL    HW211916   5.071   1.465   2.776
 3673SOL     OW11917   4.262   5.392   6.927
 3673SOL    HW111918   4.170   5.414   6.960
 3673SOL    HW211919   4.325   5.466   6.951
 3674SOL     OW11920   1.547   5.914   6.065
 3674SOL    HW111921   1.494   5.890   5.983
 3674SOL    HW211922   1.622   5.848   6.077
 3675SOL     OW11923   6.938   3.092   3.775
 3675SOL    HW111924   7.014   3.139   3.819
 3675SOL    HW211925   6.886   3.041   3.843
 3676SOL     OW11926   5.280   2.806   3.006
 3676SOL    HW111927   5.341   2.770   3.077
 3676SOL    HW211928   5.185   2.786   3.032
 3677SOL     OW11929   2.107   0.721   5.229
 3677SOL    HW111930   2.136   0.631   5.196
 3677SOL    HW211931   2.037   0.758   5.167
 3678SOL     OW11932   1.246   1.709   4.559
 3678SOL    HW111933   1.264   1.799   4.598
 3678SOL    HW211934   1.184   1.719   4.481
 3679SOL     OW11935   5.991   0.145   3.625
 3679SOL    HW111936   5.988   0.057   3.672
 3679SOL    HW211937   6.026   0.215   3.687
 3680SOL     OW11938   4.893   2.336   3.769
 3680SOL    HW111939   4.840   2.254   3.791
 3680SOL    HW211940   4.904   2.343   3.670
 3681SOL     OW11941   0.279   0.627   6.108
 3681SOL    HW111942   0.214   0.694   6.070
 3681SOL    HW211943   0.246   0.535   6.089
 3682SOL     OW11944   5.003   2.337   0.886
 3682SOL    HW111945   5.027   2.242   0.910
 3682SOL    HW211946   4.979   2.387   0.970
 3683SOL     OW11947   0.196   0.546   4.791
 3683SOL    HW111948   0.274   0.483   4.794
 3683SOL    HW211949   0.112   0.495   4.806
 3684SOL     OW11950   2.155   6.278   6.741
 3684SOL    HW111951   2.150   6.361   6.686
 3684SOL    HW211952   2.112   6.203   6.691
 3685SOL     OW11953   2.770   5.914   4.955
 3685SOL    HW111954   2.678   5.948   4.932
 3685SOL    HW211955   2.821   5.897   4.870
 3686SOL     OW11956   6.906   4.294   4.079
 3686SOL    HW111957   6.873   4.231   4.150
 3686SOL    HW211958   6.941   4.242   4.001
 3687SOL     OW11959   5.274   6.904   3.321
 3687SOL    HW111960   5.347   6.921   3.387
 3687SOL    HW211961   5.309   6.849   3.245
 3688SOL     OW11962   5.986   3.497   0.333
 3688SOL    HW111963   5.951   3.580   0.376
 3688SOL    HW211964   6.022   3.520   0.242
 3689SOL     OW11965   2.147   2.068   5.513
 3689SOL    HW111966   2.225   2.128   5.530
 3689SOL    HW211967   2.118   2.027   5.600
 3690SOL     OW11968   4.976   5.533   0.877
 3690SOL    HW111969   5.014   5.528   0.969
 3690SOL    HW211970   5.016   5.610   0.828
 3691SOL     OW11971   2.536   2.160   6.033
 3691SOL    HW111972   2.593   2.193   6.108
 3691SOL    HW211973   2.533   2.230   5.961
 3692SOL     OW11974   6.626   4.462   5.986
 3692SOL    HW111975   6.587   4.378   6.023
 3692SOL    HW211976   6.552   4.526   5.962
 3693SOL     OW11977   1.277   2.013   2.759
 3693SOL    HW111978   1.235   2.051   2.677
 3693SOL    HW211979   1.342   1.942   2.733
 3694SOL     OW11980   1.047   0.490   1.628
 3694SOL    HW111981   0.953   0.485   1.595
 3694SOL    HW211982   1.110   0.488   1.550
 3695SOL     OW11983   6.024   1.954   1.720
 3695SOL    HW111984   5.998   1.964   1.817
 3695SOL    HW211985   6.058   1.862   1.704
 3696SOL     OW11986   5.383   0.654   5.338
 3696SOL    HW111987   5.353   0.744   5.369
 3696SOL    HW211988   5.428   0.663   5.249
 3697SOL     OW11989   6.115   6.049   3.099
 3697SOL    HW111990   6.187   5.980   3.083
 3697SOL    HW211991   6.157   6.133   3.133
 3698SOL     OW11992   2.552   1.293   3.559
 3698SOL    HW111993   2.612   1.339   3.625
 3698SOL    HW211994   2.457   1.299   3.590
 3699SOL     OW11995   2.361   2.236   3.559
 3699SOL    HW111996   2.402   2.222   3.469
 3699SOL    HW211997   2.265   2.261   3.549
 3700SOL     OW11998   1.687   5.593   5.034
 3700SOL    HW111999   1.614   5.661   5.030
 3700SOL    HW212000   1.754   5.611   4.961
 3701SOL     OW12001   0.564   6.364   2.109
 3701SOL    HW112002   0.596   6.348   2.203
 3701SOL    HW212003   0.633   6.332   2.044
 3702SOL     OW12004   5.114   6.561   3.830
 3702SOL    HW112005   5.070   6.538   3.917
 3702SOL    HW212006   5.044   6.570   3.759
 3703SOL     OW12007   0.496   0.926   6.510
 3703SOL    HW112008   0.511   0.849   6.572
 3703SOL    HW212009   0.537   0.906   6.421
 3704SOL     OW12010   5.429   3.636   0.948
 3704SOL    HW112011   5.462   3.543   0.933
 3704SOL    HW212012   5.389   3.642   1.040
 3705SOL     OW12013   4.722   4.808   3.469
 3705SOL    HW112014   4.751   4.770   3.381
 3705SOL    HW212015   4.623   4.805   3.476
 3706SOL     OW12016   0.559   3.918   6.978
 3706SOL    HW112017   0.528   3.920   6.883
 3706SOL    HW212018   0.595   4.007   7.004
 3707SOL     OW12019   3.866   5.230   3.767
 3707SOL    HW112020   3.950   5.208   3.818
 3707SOL    HW212021   3.817   5.303   3.814
 3708SOL     OW12022   4.427   0.108   1.482
 3708SOL    HW112023   4.390   0.145   1.567
 3708SOL    HW212024   4.524   0.131   1.476
 3709SOL     OW12025   2.456   0.134   1.831
 3709SOL    HW112026   2.548   0.104   1.806
 3709SOL    HW212027   2.399   0.137   1.750
 3710SOL     OW12028   0.682   5.479   5.314
 3710SOL    HW112029   0.704   5.552   5.249
 3710SOL    HW212030   0.620   5.413   5.272
 3711SOL     OW12031   1.409   6.314   5.002
 3711SOL    HW112032   1.494   6.350   5.041
 3711SOL    HW212033   1.427   6.224   4.963
 3712SOL     OW12034   2.188   5.461   6.513
 3712SOL    HW112035   2.156   5.407   6.435
 3712SOL    HW212036   2.288   5.469   6.509
 3713SOL     OW12037   0.202   6.613   5.071
 3713SOL    HW112038   0.193   6.654   4.981
 3713SOL    HW212039   0.143   6.662   5.136
 3714SOL     OW12040   0.548   5.179   6.953
 3714SOL    HW112041   0.585   5.224   0.006
 3714SOL    HW212042   0.586   5.220   6.871
 3715SOL     OW12043   0.371   5.278   2.977
 3715SOL    HW112044   0.389   5.290   3.075
 3715SOL    HW212045   0.426   5.203   2.942
 3716SOL     OW12046   5.892   5.341   4.129
 3716SOL    HW112047   5.852   5.317   4.040
 3716SOL    HW212048   5.992   5.336   4.122
 3717SOL     OW12049   5.313   1.490   0.270
 3717SOL    HW112050   5.299   1.588   0.262
 3717SOL    HW212051   5.347   1.455   0.182
 3718SOL     OW12052   1.028   0.391   0.033
 3718SOL    HW112053   1.095   0.317   0.027
 3718SOL    HW212054   1.041   0.454   6.984
 3719SOL     OW12055   4.362   2.816   6.590
 3719SOL    HW112056   4.433   2.785   6.526
 3719SOL    HW212057   4.361   2.916   6.593
 3720SOL     OW12058   5.309   3.737   0.710
 3720SOL    HW112059   5.213   3.764   0.701
 3720SOL    HW212060   5.327   3.713   0.806
 3721SOL     OW12061   6.705   5.173   7.010
 3721SOL    HW112062   6.605   5.175   7.023
 3721SOL    HW212063   6.737   5.079   7.010
 3722SOL     OW12064   4.796   0.224   1.155
 3722SOL    HW112065   4.810   0.152   1.223
 3722SOL    HW212066   4.708   0.268   1.171
 3723SOL     OW12067   4.572   4.835   0.031
 3723SOL    HW112068   4.594   4.918   7.009
 3723SOL    HW212069   4.656   4.795   0.068
 3724SOL     OW12070   1.842   5.044   5.345
 3724SOL    HW112071   1.752   4.999   5.344
 3724SOL    HW212072   1.900   5.001   5.415
 3725SOL     OW12073   0.468   6.118   6.865
 3725SOL    HW112074   0.383   6.168   6.846
 3725SOL    HW212075   0.458   6.024   6.832
 3726SOL     OW12076   5.157   4.070   5.309
 3726SOL    HW112077   5.103   4.126   5.372
 3726SOL    HW212078   5.095   4.016   5.251
 3727SOL     OW12079   6.799   3.264   4.771
 3727SOL    HW112080   6.761   3.278   4.862
 3727SOL    HW212081   6.728   3.280   4.702
 3728SOL     OW12082   2.646   3.650   7.011
 3728SOL    HW112083   2.682   3.686   0.069
 3728SOL    HW212084   2.554   3.685   6.996
 3729SOL     OW12085   0.702   0.213   4.270
 3729SOL    HW112086   0.737   0.305   4.250
 3729SOL    HW212087   0.777   0.147   4.269
 3730SOL     OW12088   4.190   6.245   5.756
 3730SOL    HW112089   4.248   6.295   5.821
 3730SOL    HW212090   4.115   6.202   5.805
 3731SOL     OW12091   0.555   1.564   0.354
 3731SOL    HW112092   0.512   1.477   0.327
 3731SOL    HW212093   0.513   1.639   0.305
 3732SOL     OW12094   1.721   1.653   0.791
 3732SOL    HW112095   1.751   1.569   0.835
 3732SOL    HW212096   1.666   1.707   0.855
 3733SOL     OW12097   1.904   3.102   3.619
 3733SOL    HW112098   1.906   3.156   3.704
 3733SOL    HW212099   1.877   3.008   3.640
 3734SOL     OW12100   3.727   1.038   1.569
 3734SOL    HW112101   3.631   1.044   1.594
 3734SOL    HW212102   3.761   0.945   1.587
 3735SOL     OW12103   3.845   0.457   2.513
 3735SOL    HW112104   3.817   0.553   2.505
 3735SOL    HW212105   3.819   0.422   2.603
 3736SOL     OW12106   6.496   0.879   1.196
 3736SOL    HW112107   6.507   0.804   1.261
 3736SOL    HW212108   6.520   0.965   1.240
 3737SOL     OW12109   5.892   2.381   3.995
 3737SOL    HW112110   5.846   2.398   4.082
 3737SOL    HW212111   5.854   2.298   3.954
 3738SOL     OW12112   6.370   5.968   0.784
 3738SOL    HW112113   6.295   5.949   0.720
 3738SOL    HW212114   6.401   6.062   0.771
 3739SOL     OW12115   2.947   4.553   1.603
 3739SOL    HW112116   2.856   4.550   1.561
 3739SOL    HW212117   2.951   4.485   1.676
 3740SOL     OW12118   5.892   5.800   0.340
 3740SOL    HW112119   5.977   5.792   0.393
 3740SOL    HW212120   5.814   5.779   0.400
 3741SOL     OW12121   4.812   3.313   6.911
 3741SOL    HW112122   4.822   3.214   6.901
 3741SOL    HW212123   4.846   3.358   6.828
 3742SOL     OW12124   4.866   5.987   0.424
 3742SOL    HW112125   4.912   5.973   0.511
 3742SOL    HW212126   4.775   5.945   0.426
 3743SOL     OW12127   4.634   4.458   1.390
 3743SOL    HW112128   4.627   4.409   1.478
 3743SOL    HW212129   4.577   4.412   1.322
 3744SOL     OW12130   0.799   6.102   2.543
 3744SOL    HW112131   0.752   6.156   2.473
 3744SOL    HW212132   0.740   6.092   2.623
 3745SOL     OW12133   4.882   4.038   2.211
 3745SOL    HW112134   4.872   4.002   2.118
 3745SOL    HW212135   4.840   4.128   2.217
 3746SOL     OW12136   6.765   0.675   3.264
 3746SOL    HW112137   6.672   0.691   3.231
 3746SOL    HW212138   6.830   0.691   3.190
 3747SOL     OW12139   5.095   6.118   5.597
 3747SOL    HW112140   5.117   6.069   5.681
 3747SOL    HW212141   5.000   6.149   5.600
 3748SOL     OW12142   5.719   0.528   2.025
 3748SOL    HW112143   5.793   0.471   2.060
 3748SOL    HW212144   5.751   0.576   1.943
 3749SOL     OW12145   1.605   4.817   3.017
 3749SOL    HW112146   1.622   4.894   2.955
 3749SOL    HW212147   1.643   4.837   3.107
 3750SOL     OW12148   5.638   4.668   0.887
 3750SOL    HW112149   5.675   4.722   0.811
 3750SOL    HW212150   5.673   4.574   0.881
 3751SOL     OW12151   0.553   2.250   0.726
 3751SOL    HW112152   0.611   2.326   0.696
 3751SOL    HW212153   0.598   2.203   0.803
 3752SOL     OW12154   0.481   6.898   0.157
 3752SOL    HW112155   0.403   6.859   0.205
 3752SOL    HW212156   0.565   6.876   0.207
 3753SOL     OW12157   0.581   6.674   5.182
 3753SOL    HW112158   0.673   6.705   5.160
 3753SOL    HW212159   0.555   6.599   5.121
 3754SOL     OW12160   5.202   6.464   1.563
 3754SOL    HW112161   5.167   6.557   1.549
 3754SOL    HW212162   5.302   6.466   1.563
 3755SOL     OW12163   5.553   5.380   4.497
 3755SOL    HW112164   5.583   5.287   4.478
 3755SOL    HW212165   5.615   5.445   4.454
 3756SOL     OW12166   1.899   0.510   6.182
 3756SOL    HW112167   1.908   0.507   6.083
 3756SOL    HW212168   1.972   0.456   6.224
 3757SOL     OW12169   3.463   5.698   5.941
 3757SOL    HW112170   3.490   5.644   6.021
 3757SOL    HW212171   3.538   5.760   5.916
 3758SOL     OW12172   1.567   1.610   4.844
 3758SOL    HW112173   1.539   1.521   4.809
 3758SOL    HW212174   1.662   1.606   4.873
 3759SOL     OW12175   4.252   5.104   5.461
 3759SOL    HW112176   4.248   5.088   5.363
 3759SOL    HW212177   4.334   5.157   5.483
 3760SOL     OW12178   1.314   4.187   4.047
 3760SOL    HW112179   1.358   4.264   4.000
 3760SOL    HW212180   1.295   4.115   3.981
 3761SOL     OW12181   1.020   6.729   5.007
 3761SOL    HW112182   0.980   6.722   4.916
 3761SOL    HW212183   1.088   6.656   5.019
 3762SOL     OW12184   0.691   4.767   6.909
 3762SOL    HW112185   0.604   4.817   6.913
 3762SOL    HW212186   0.673   4.669   6.914
 3763SOL     OW12187   6.918   4.845   0.125
 3763SOL    HW112188   6.863   4.880   0.049
 3763SOL    HW212189   6.977   4.771   0.093
 3764SOL     OW12190   1.785   0.885   4.772
 3764SOL    HW112191   1.759   0.856   4.680
 3764SOL    HW212192   1.817   0.980   4.769
 3765SOL     OW12193   5.004   0.943   1.833
 3765SOL    HW112194   5.032   1.033   1.799
 3765SOL    HW212195   5.003   0.944   1.933
 3766SOL     OW12196   0.522   0.592   4.516
 3766SOL    HW112197   0.546   0.603   4.419
 3766SOL    HW212198   0.477   0.504   4.529
 3767SOL     OW12199   2.406   4.832   0.129
 3767SOL    HW112200   2.497   4.791   0.130
 3767SOL    HW212201   2.395   4.889   0.210
 3768SOL     OW12202   3.307   6.040   6.159
 3768SOL    HW112203   3.265   5.955   6.127
 3768SOL    HW212204   3.244   6.089   6.220
 3769SOL     OW12205   5.628   6.136   5.101
 3769SOL    HW112206   5.565   6.209   5.126
 3769SOL    HW212207   5.705   6.134   5.166
 3770SOL     OW12208   1.864   7.025   6.559
 3770SOL    HW112209   1.953   0.015   6.601
 3770SOL    HW212210   1.801   6.991   6.628
 3771SOL     OW12211   5.280   1.816   0.662
 3771SOL    HW112212   5.257   1.809   0.565
 3771SOL    HW212213   5.203   1.784   0.718
 3772SOL     OW12214   6.322   1.510   0.959
 3772SOL    HW112215   6.356   1.600   0.932
 3772SOL    HW212216   6.257   1.520   1.035
 3773SOL     OW12217   5.190   2.659   6.279
 3773SOL    HW112218   5.246   2.580   6.251
 3773SOL    HW212219   5.181   2.722   6.201
 3774SOL     OW12220   1.149   6.621   6.941
 3774SOL    HW112221   1.185   6.705   6.902
 3774SOL    HW212222   1.217   6.581   7.003
 3775SOL     OW12223   5.216   3.641   2.121
 3775SOL    HW112224   5.274   3.722   2.118
 3775SOL    HW212225   5.268   3.563   2.155
 3776SOL     OW12226   3.130   1.540   1.355
 3776SOL    HW112227   3.218   1.495   1.373
 3776SOL    HW212228   3.120   1.619   1.415
 3777SOL     OW12229   2.732   4.976   4.306
 3777SOL    HW112230   2.654   4.931   4.350
 3777SOL    HW212231   2.766   5.049   4.366
 3778SOL     OW12232   2.233   5.997   2.941
 3778SOL    HW112233   2.213   5.923   3.005
 3778SOL    HW212234   2.204   5.970   2.849
 3779SOL     OW12235   2.716   4.686   6.818
 3779SOL    HW112236   2.726   4.631   6.901
 3779SOL    HW212237   2.754   4.637   6.740
 3780SOL     OW12238   3.712   5.176   4.978
 3780SOL    HW112239   3.725   5.092   4.926
 3780SOL    HW212240   3.761   5.168   5.065
 3781SOL     OW12241   1.631   6.832   4.098
 3781SOL    HW112242   1.581   6.762   4.047
 3781SOL    HW212243   1.726   6.833   4.069
 3782SOL     OW12244   2.802   2.361   4.261
 3782SOL    HW112245   2.816   2.460   4.268
 3782SOL    HW212246   2.838   2.317   4.344
 3783SOL     OW12247   6.508   6.575   4.840
 3783SOL    HW112248   6.600   6.540   4.819
 3783SOL    HW212249   6.444   6.498   4.844
 3784SOL     OW12250   4.559   1.755   3.143
 3784SOL    HW112251   4.479   1.780   3.087
 3784SOL    HW212252   4.623   1.702   3.087
 3785SOL     OW12253   2.474   1.249   6.538
 3785SOL    HW112254   2.412   1.210   6.606
 3785SOL    HW212255   2.520   1.329   6.576
 3786SOL     OW12256   3.210   6.021   3.245
 3786SOL    HW112257   3.276   5.957   3.205
 3786SOL    HW212258   3.120   6.003   3.205
 3787SOL     OW12259   5.717   6.171   3.726
 3787SOL    HW112260   5.723   6.087   3.672
 3787SOL    HW212261   5.724   6.149   3.823
 3788SOL     OW12262   0.277   2.890   3.299
 3788SOL    HW112263   0.206   2.943   3.253
 3788SOL    HW212264   0.308   2.939   3.381
 3789SOL     OW12265   1.678   4.203   3.844
 3789SOL    HW112266   1.734   4.284   3.826
 3789SOL    HW212267   1.610   4.193   3.771
 3790SOL     OW12268   1.664   3.806   4.950
 3790SOL    HW112269   1.604   3.753   5.010
 3790SOL    HW212270   1.721   3.867   5.006
 3791SOL     OW12271   5.987   0.215   1.158
 3791SOL    HW112272   6.032   0.294   1.200
 3791SOL    HW212273   5.913   0.245   1.099
 3792SOL     OW12274   6.635   0.486   4.639
 3792SOL    HW112275   6.554   0.503   4.696
 3792SOL    HW212276   6.658   0.389   4.644
 3793SOL     OW12277   2.464   0.206   2.973
 3793SOL    HW112278   2.542   0.266   2.952
 3793SOL    HW212279   2.464   0.128   2.910
 3794SOL     OW12280   3.627   5.012   1.888
 3794SOL    HW112281   3.644   4.998   1.790
 3794SOL    HW212282   3.599   4.925   1.929
 3795SOL     OW12283   4.047   6.306   0.097
 3795SOL    HW112284   4.021   6.255   0.015
 3795SOL    HW212285   4.097   6.388   0.072
 3796SOL     OW12286   2.090   2.277   1.684
 3796SOL    HW112287   2.042   2.348   1.633
 3796SOL    HW212288   2.164   2.318   1.738
 3797SOL     OW12289   6.744   5.132   2.717
 3797SOL    HW112290   6.787   5.186   2.644
 3797SOL    HW212291   6.807   5.125   2.794
 3798SOL     OW12292   2.820   5.110   3.328
 3798SOL    HW112293   2.863   5.117   3.238
 3798SOL    HW212294   2.732   5.064   3.319
 3799SOL     OW12295   0.825   2.462   4.615
 3799SOL    HW112296   0.814   2.368   4.583
 3799SOL    HW212297   0.766   2.523   4.562
 3800SOL     OW12298   5.483   2.342   5.190
 3800SOL    HW112299   5.481   2.349   5.091
 3800SOL    HW212300   5.397   2.377   5.227
 3801SOL     OW12301   6.929   6.481   4.986
 3801SOL    HW112302   7.011   6.527   5.020
 3801SOL    HW212303   6.895   6.418   5.057
 3802SOL     OW12304   0.636   1.632   4.766
 3802SOL    HW112305   0.682   1.650   4.854
 3802SOL    HW212306   0.580   1.710   4.741
 3803SOL     OW12307   3.683   1.611   2.014
 3803SOL    HW112308   3.597   1.619   1.964
 3803SOL    HW212309   3.760   1.614   1.950
 3804SOL     OW12310   5.035   2.279   4.531
 3804SOL    HW112311   4.947   2.234   4.540
 3804SOL    HW212312   5.023   2.370   4.491
 3805SOL     OW12313   2.865   3.810   1.734
 3805SOL    HW112314   2.893   3.897   1.775
 3805SOL    HW212315   2.917   3.735   1.776
 3806SOL     OW12316   2.638   2.892   7.016
 3806SOL    HW112317   2.621   2.862   6.922
 3806SOL    HW212318   2.575   2.967   0.011
 3807SOL     OW12319   2.268   1.597   4.716
 3807SOL    HW112320   2.301   1.503   4.724
 3807SOL    HW212321   2.205   1.605   4.639
 3808SOL     OW12322   3.193   1.088   1.908
 3808SOL    HW112323   3.102   1.060   1.878
 3808SOL    HW212324   3.212   1.180   1.875
 3809SOL     OW12325   5.995   1.786   7.012
 3809SOL    HW112326   6.024   1.875   6.977
 3809SOL    HW212327   6.050   1.714   6.971
 3810SOL     OW12328   4.011   2.758   5.586
 3810SOL    HW112329   3.917   2.768   5.620
 3810SOL    HW212330   4.012   2.693   5.510
 3811SOL     OW12331   1.055   4.583   4.802
 3811SOL    HW112332   1.056   4.490   4.765
 3811SOL    HW212333   1.041   4.579   4.901
 3812SOL     OW12334   5.843   1.481   5.762
 3812SOL    HW112335   5.751   1.508   5.789
 3812SOL    HW212336   5.908   1.510   5.832
 3813SOL     OW12337   4.373   4.454   1.167
 3813SOL    HW112338   4.432   4.531   1.144
 3813SOL    HW212339   4.427   4.369   1.164
 3814SOL     OW12340   0.269   6.350   1.077
 3814SOL    HW112341   0.207   6.423   1.048
 3814SOL    HW212342   0.318   6.314   0.998
 3815SOL     OW12343   4.504   2.356   0.375
 3815SOL    HW112344   4.578   2.295   0.348
 3815SOL    HW212345   4.538   2.450   0.380
 3816SOL     OW12346   0.164   6.692   1.492
 3816SOL    HW112347   0.226   6.749   1.545
 3816SOL    HW212348   0.156   6.728   1.399
 3817SOL     OW12349   4.839   2.875   3.874
 3817SOL    HW112350   4.885   2.786   3.873
 3817SOL    HW212351   4.754   2.868   3.821
 3818SOL     OW12352   4.877   6.630   1.584
 3818SOL    HW112353   4.880   6.669   1.676
 3818SOL    HW212354   4.826   6.544   1.587
 3819SOL     OW12355   5.258   4.457   0.769
 3819SOL    HW112356   5.332   4.462   0.702
 3819SOL    HW212357   5.180   4.410   0.729
 3820SOL     OW12358   6.370   6.780   3.726
 3820SOL    HW112359   6.422   6.753   3.645
 3820SOL    HW212360   6.346   6.877   3.719
 3821SOL     OW12361   1.606   3.158   1.962
 3821SOL    HW112362   1.678   3.223   1.985
 3821SOL    HW212363   1.520   3.188   2.005
 3822SOL     OW12364   1.082   5.509   2.261
 3822SOL    HW112365   1.022   5.438   2.298
 3822SOL    HW212366   1.032   5.565   2.196
 3823SOL     OW12367   4.122   2.197   5.331
 3823SOL    HW112368   4.044   2.153   5.287
 3823SOL    HW212369   4.113   2.190   5.430
 3824SOL     OW12370   6.106   1.735   5.554
 3824SOL    HW112371   6.076   1.640   5.557
 3824SOL    HW212372   6.044   1.791   5.609
 3825SOL     OW12373   0.344   0.318   0.026
 3825SOL    HW112374   0.273   0.388   0.030
 3825SOL    HW212375   0.398   0.321   0.111
 3826SOL     OW12376   0.190   3.709   7.018
 3826SOL    HW112377   0.138   3.638   0.037
 3826SOL    HW212378   0.275   3.670   6.982
 3827SOL     OW12379   3.769   3.808   1.130
 3827SOL    HW112380   3.748   3.728   1.186
 3827SOL    HW212381   3.725   3.798   1.041
 3828SOL     OW12382   4.593   2.559   1.139
 3828SOL    HW112383   4.617   2.626   1.068
 3828SOL    HW212384   4.628   2.590   1.228
 3829SOL     OW12385   2.392   4.946   3.935
 3829SOL    HW112386   2.403   4.930   3.836
 3829SOL    HW212387   2.477   4.983   3.972
 3830SOL     OW12388   1.171   6.949   5.017
 3830SOL    HW112389   1.144   7.021   5.080
 3830SOL    HW212390   1.098   6.881   5.009
 3831SOL     OW12391   4.639   1.690   2.442
 3831SOL    HW112392   4.635   1.590   2.451
 3831SOL    HW212393   4.639   1.715   2.346
 3832SOL     OW12394   6.255   0.469   2.025
 3832SOL    HW112395   6.303   0.550   2.060
 3832SOL    HW212396   6.245   0.477   1.926
 3833SOL     OW12397   1.028   5.612   6.531
 3833SOL    HW112398   1.102   5.545   6.529
 3833SOL    HW212399   1.062   5.701   6.503
 3834SOL     OW12400   3.141   2.250   0.124
 3834SOL    HW112401   3.041   2.242   0.122
 3834SOL    HW212402   3.173   2.251   0.219
 3835SOL     OW12403   3.339   5.122   5.596
 3835SOL    HW112404   3.419   5.067   5.575
 3835SOL    HW212405   3.367   5.211   5.630
 3836SOL     OW12406   2.223   3.357   5.130
 3836SOL    HW112407   2.249   3.325   5.039
 3836SOL    HW212408   2.126   3.338   5.145
 3837SOL     OW12409   4.670   3.401   0.641
 3837SOL    HW112410   4.746   3.364   0.694
 3837SOL    HW212411   4.704   3.436   0.554
 3838SOL     OW12412   5.648   3.730   4.754
 3838SOL    HW112413   5.650   3.717   4.654
 3838SOL    HW212414   5.600   3.653   4.796
 3839SOL     OW12415   4.511   6.984   5.064
 3839SOL    HW112416   4.548   0.047   5.046
 3839SOL    HW212417   4.501   6.970   5.162
 3840SOL     OW12418   1.026   0.722   5.656
 3840SOL    HW112419   0.966   0.735   5.577
 3840SOL    HW212420   1.057   0.812   5.688
 3841SOL     OW12421   0.185   3.758   5.295
 3841SOL    HW112422   0.253   3.802   5.236
 3841SOL    HW212423   0.231   3.712   5.371
 3842SOL     OW12424   0.966   5.544   0.302
 3842SOL    HW112425   0.909   5.612   0.256
 3842SOL    HW212426   0.908   5.470   0.336
 3843SOL     OW12427   6.946   3.095   1.078
 3843SOL    HW112428   6.907   3.127   0.992
 3843SOL    HW212429   6.915   3.153   1.153
 3844SOL     OW12430   1.048   4.968   5.800
 3844SOL    HW112431   0.975   4.901   5.785
 3844SOL    HW212432   1.137   4.923   5.793
 3845SOL     OW12433   3.307   2.868   2.622
 3845SOL    HW112434   3.280   2.872   2.719
 3845SOL    HW212435   3.282   2.954   2.578
 3846SOL     OW12436   0.331   5.007   4.215
 3846SOL    HW112437   0.287   4.992   4.126
 3846SOL    HW212438   0.388   4.928   4.237
 3847SOL     OW12439   6.101   1.056   6.211
 3847SOL    HW112440   6.013   1.103   6.205
 3847SOL    HW212441   6.175   1.121   6.194
 3848SOL     OW12442   1.947   5.685   2.950
 3848SOL    HW112443   1.951   5.585   2.951
 3848SOL    HW212444   1.866   5.715   2.900
 3849SOL     OW12445   0.571   1.632   5.551
 3849SOL    HW112446   0.492   1.597   5.501
 3849SOL    HW212447   0.563   1.608   5.648
 3850SOL     OW12448   2.523   3.373   1.653
 3850SOL    HW112449   2.495   3.435   1.580
 3850SOL    HW212450   2.461   3.384   1.731
 3851SOL     OW12451   1.952   4.320   2.629
 3851SOL    HW112452   1.975   4.408   2.670
 3851SOL    HW212453   1.878   4.277   2.681
 3852SOL     OW12454   4.369   6.353   4.953
 3852SOL    HW112455   4.285   6.354   4.899
 3852SOL    HW212456   4.423   6.434   4.931
 3853SOL     OW12457   1.061   3.412   2.419
 3853SOL    HW112458   1.156   3.398   2.391
 3853SOL    HW212459   1.054   3.496   2.473
 3854SOL     OW12460   0.901   3.589   3.298
 3854SOL    HW112461   0.849   3.505   3.291
 3854SOL    HW212462   0.992   3.569   3.336
 3855SOL     OW12463   5.925   4.791   6.362
 3855SOL    HW112464   6.021   4.817   6.351
 3855SOL    HW212465   5.902   4.719   6.296
 3856SOL     OW12466   0.072   0.441   5.733
 3856SOL    HW112467   0.165   0.468   5.707
 3856SOL    HW212468   0.049   0.354   5.688
 3857SOL     OW12469   1.716   6.736   5.004
 3857SOL    HW112470   1.699   6.835   5.008
 3857SOL    HW212471   1.801   6.715   5.052
 3858SOL     OW12472   1.307   6.080   6.108
 3858SOL    HW112473   1.392   6.028   6.100
 3858SOL    HW212474   1.232   6.028   6.067
 3859SOL     OW12475   6.899   2.280   4.059
 3859SOL    HW112476   6.884   2.193   4.106
 3859SOL    HW212477   6.988   2.279   4.015
 3860SOL     OW12478   2.548   6.270   4.429
 3860SOL    HW112479   2.558   6.194   4.365
 3860SOL    HW212480   2.481   6.246   4.499
 3861SOL     OW12481   5.632   4.825   1.328
 3861SOL    HW112482   5.699   4.891   1.295
 3861SOL    HW212483   5.543   4.870   1.339
 3862SOL     OW12484   6.888   0.052   6.528
 3862SOL    HW112485   6.969   0.018   6.575
 3862SOL    HW212486   6.914   0.084   6.437
 3863SOL     OW12487   3.373   3.613   0.006
 3863SOL    HW112488   3.422   3.671   0.071
 3863SOL    HW212489   3.386   3.648   6.941
 3864SOL     OW12490   4.394   1.928   6.352
 3864SOL    HW112491   4.403   2.019   6.392
 3864SOL    HW212492   4.311   1.884   6.387
 3865SOL     OW12493   3.518   0.449   2.127
 3865SOL    HW112494   3.477   0.533   2.161
 3865SOL    HW212495   3.454   0.403   2.066
 3866SOL     OW12496   4.115   0.580   0.249
 3866SOL    HW112497   4.046   0.600   0.319
 3866SOL    HW212498   4.162   0.495   0.272
 3867SOL     OW12499   1.837   3.849   3.581
 3867SOL    HW112500   1.761   3.819   3.638
 3867SOL    HW212501   1.816   3.830   3.485
 3868SOL     OW12502   2.087   5.833   1.757
 3868SOL    HW112503   2.075   5.736   1.776
 3868SOL    HW212504   2.037   5.857   1.673
 3869SOL     OW12505   0.291   2.745   3.647
 3869SOL    HW112506   0.265   2.765   3.741
 3869SOL    HW212507   0.323   2.650   3.640
 3870SOL     OW12508   3.245   4.970   6.569
 3870SOL    HW112509   3.199   4.898   6.620
 3870SOL    HW212510   3.178   5.019   6.513
 3871SOL     OW12511   2.945   0.094   3.028
 3871SOL    HW112512   2.995   0.127   2.947
 3871SOL    HW212513   2.864   0.044   2.999
 3872SOL     OW12514   3.672   3.600   1.295
 3872SOL    HW112515   3.733   3.596   1.373
 3872SOL    HW212516   3.577   3.601   1.326
 3873SOL     OW12517   5.326   5.266   1.272
 3873SOL    HW112518   5.290   5.327   1.201
 3873SOL    HW212519   5.276   5.180   1.271
 3874SOL     OW12520   4.683   6.526   6.854
 3874SOL    HW112521   4.734   6.612   6.847
 3874SOL    HW212522   4.693   6.487   6.945
 3875SOL     OW12523   1.537   3.915   2.351
 3875SOL    HW112524   1.491   3.924   2.439
 3875SOL    HW212525   1.533   4.003   2.302
 3876SOL     OW12526   5.377   4.996   5.595
 3876SOL    HW112527   5.351   4.935   5.521
 3876SOL    HW212528   5.367   4.949   5.683
 3877SOL     OW12529   5.762   0.889   1.545
 3877SOL    HW112530   5.678   0.940   1.564
 3877SOL    HW212531   5.742   0.791   1.548
 3878SOL     OW12532   3.901   6.664   6.164
 3878SOL    HW112533   3.953   6.605   6.102
 3878SOL    HW212534   3.821   6.700   6.116
 3879SOL     OW12535   4.764   5.401   1.054
 3879SOL    HW112536   4.676   5.360   1.029
 3879SOL    HW212537   4.791   5.467   0.984
 3880SOL     OW12538   5.980   4.101   2.545
 3880SOL    HW112539   5.948   4.050   2.625
 3880SOL    HW212540   6.074   4.073   2.523
 3881SOL     OW12541   1.630   5.281   0.618
 3881SOL    HW112542   1.667   5.195   0.583
 3881SOL    HW212543   1.643   5.286   0.717
 3882SOL     OW12544   6.449   1.267   6.145
 3882SOL    HW112545   6.406   1.279   6.055
 3882SOL    HW212546   6.492   1.177   6.149
 3883SOL     OW12547   4.765   1.455   3.847
 3883SOL    HW112548   4.727   1.512   3.774
 3883SOL    HW212549   4.778   1.362   3.813
 3884SOL     OW12550   1.697   6.151   5.191
 3884SOL    HW112551   1.671   6.243   5.222
 3884SOL    HW212552   1.717   6.153   5.093
 3885SOL     OW12553   6.811   1.082   4.251
 3885SOL    HW112554   6.867   1.036   4.182
 3885SOL    HW212555   6.741   1.137   4.205
 3886SOL     OW12556   6.911   0.374   5.286
 3886SOL    HW112557   6.944   0.456   5.240
 3886SOL    HW212558   6.976   0.299   5.270
 3887SOL     OW12559   3.840   1.672   5.593
 3887SOL    HW112560   3.760   1.617   5.616
 3887SOL    HW212561   3.822   1.768   5.615
 3888SOL     OW12562   6.454   1.480   0.528
 3888SOL    HW112563   6.384   1.551   0.518
 3888SOL    HW212564   6.445   1.437   0.618
 3889SOL     OW12565   0.701   5.549   6.158
 3889SOL    HW112566   0.722   5.484   6.085
 3889SOL    HW212567   0.706   5.503   6.247
 3890SOL     OW12568   5.285   5.272   3.376
 3890SOL    HW112569   5.222   5.195   3.364
 3890SOL    HW212570   5.336   5.286   3.291
 3891SOL     OW12571   5.068   5.537   4.810
 3891SOL    HW112572   5.166   5.559   4.810
 3891SOL    HW212573   5.056   5.438   4.821
 3892SOL     OW12574   6.300   6.632   2.962
 3892SOL    HW112575   6.233   6.560   2.949
 3892SOL    HW212576   6.332   6.665   2.873
 3893SOL     OW12577   3.345   5.812   3.921
 3893SOL    HW112578   3.281   5.758   3.976
 3893SOL    HW212579   3.297   5.890   3.881
 3894SOL     OW12580   4.500   3.183   0.528
 3894SOL    HW112581   4.521   3.108   0.590
 3894SOL    HW212582   4.539   3.268   0.564
 3895SOL     OW12583   1.549   0.753   5.538
 3895SOL    HW112584   1.522   0.767   5.443
 3895SOL    HW212585   1.507   0.670   5.573
 3896SOL     OW12586   0.053   2.361   5.645
 3896SOL    HW112587   6.999   2.418   5.649
 3896SOL    HW212588   0.066   2.326   5.552
 3897SOL     OW12589   3.149   6.663   2.266
 3897SOL    HW112590   3.058   6.661   2.306
 3897SOL    HW212591   3.153   6.736   2.197
 3898SOL     OW12592   4.145   3.645   4.500
 3898SOL    HW112593   4.185   3.595   4.423
 3898SOL    HW212594   4.045   3.634   4.498
 3899SOL     OW12595   4.777   1.338   5.959
 3899SOL    HW112596   4.686   1.373   5.938
 3899SOL    HW212597   4.844   1.381   5.898
 3900SOL     OW12598   6.727   2.284   3.365
 3900SOL    HW112599   6.711   2.379   3.392
 3900SOL    HW212600   6.757   2.281   3.270
 3901SOL     OW12601   1.364   6.474   4.789
 3901SOL    HW112602   1.395   6.434   4.875
 3901SOL    HW212603   1.269   6.447   4.772
 3902SOL     OW12604   5.186   5.000   1.298
 3902SOL    HW112605   5.122   4.981   1.223
 3902SOL    HW212606   5.134   5.014   1.383
 3903SOL     OW12607   4.183   2.754   0.422
 3903SOL    HW112608   4.244   2.804   0.360
 3903SOL    HW212609   4.223   2.665   0.443
 3904SOL     OW12610   1.008   6.916   0.849
 3904SOL    HW112611   1.020   6.916   0.949
 3904SOL    HW212612   1.007   6.822   0.816
 3905SOL     OW12613   6.947   6.926   5.850
 3905SOL    HW112614   6.959   6.827   5.853
 3905SOL    HW212615   6.885   6.950   5.776
 3906SOL     OW12616   1.926   5.101   4.392
 3906SOL    HW112617   1.942   5.162   4.315
 3906SOL    HW212618   1.936   5.006   4.361
 3907SOL     OW12619   0.252   1.404   4.378
 3907SOL    HW112620   0.310   1.470   4.426
 3907SOL    HW212621   0.159   1.441   4.369
 3908SOL     OW12622   1.188   0.975   5.391
 3908SOL    HW112623   1.159   1.032   5.468
 3908SOL    HW212624   1.148   0.884   5.400
 3909SOL     OW12625   5.171   2.779   6.017
 3909SOL    HW112626   5.165   2.878   6.006
 3909SOL    HW212627   5.081   2.738   6.002
 3910SOL     OW12628   3.345   2.901   0.517
 3910SOL    HW112629   3.312   2.816   0.559
 3910SOL    HW212630   3.278   2.974   0.532
 3911SOL     OW12631   5.801   1.197   1.512
 3911SOL    HW112632   5.837   1.106   1.532
 3911SOL    HW212633   5.782   1.245   1.597
 3912SOL     OW12634   3.934   2.182   0.437
 3912SOL    HW112635   3.935   2.092   0.481
 3912SOL    HW212636   4.001   2.183   0.362
 3913SOL     OW12637   4.574   5.852   0.730
 3913SOL    HW112638   4.632   5.872   0.808
 3913SOL    HW212639   4.510   5.927   0.716
 3914SOL     OW12640   5.709   0.638   0.959
 3914SOL    HW112641   5.706   0.683   0.870
 3914SOL    HW212642   5.741   0.544   0.948
 3915SOL     OW12643   4.817   5.114   0.218
 3915SOL    HW112644   4.762   5.172   0.278
 3915SOL    HW212645   4.910   5.105   0.256
 3916SOL     OW12646   1.744   0.744   2.544
 3916SOL    HW112647   1.834   0.733   2.502
 3916SOL    HW212648   1.751   0.736   2.643
 3917SOL     OW12649   3.151   4.760   0.594
 3917SOL    HW112650   3.205   4.840   0.622
 3917SOL    HW212651   3.055   4.776   0.617
 3918SOL     OW12652   5.444   7.008   0.673
 3918SOL    HW112653   5.398   0.064   0.701
 3918SOL    HW212654   5.446   6.944   0.749
 3919SOL     OW12655   3.923   0.457   1.115
 3919SOL    HW112656   3.980   0.534   1.144
 3919SOL    HW212657   3.840   0.491   1.071
 3920SOL     OW12658   3.400   0.857   5.775
 3920SOL    HW112659   3.423   0.773   5.824
 3920SOL    HW212660   3.379   0.835   5.680
 3921SOL     OW12661   0.806   2.612   6.042
 3921SOL    HW112662   0.819   2.572   5.951
 3921SOL    HW212663   0.816   2.711   6.037
 3922SOL     OW12664   4.314   5.259   2.300
 3922SOL    HW112665   4.289   5.231   2.392
 3922SOL    HW212666   4.233   5.293   2.252
 3923SOL     OW12667   5.085   0.776   1.605
 3923SOL    HW112668   5.042   0.794   1.517
 3923SOL    HW212669   5.044   0.833   1.676
 3924SOL     OW12670   6.303   4.603   4.405
 3924SOL    HW112671   6.340   4.695   4.398
 3924SOL    HW212672   6.264   4.589   4.496
 3925SOL     OW12673   4.646   3.765   0.598
 3925SOL    HW112674   4.652   3.762   0.697
 3925SOL    HW212675   4.583   3.694   0.566
 3926SOL     OW12676   0.617   0.349   5.442
 3926SOL    HW112677   0.626   0.378   5.537
 3926SOL    HW212678   0.604   0.429   5.383
 3927SOL     OW12679   6.893   2.632   5.065
 3927SOL    HW112680   6.954   2.709   5.083
 3927SOL    HW212681   6.805   2.666   5.031
 3928SOL     OW12682   2.038   6.427   3.007
 3928SOL    HW112683   1.948   6.447   3.045
 3928SOL    HW212684   2.107   6.433   3.079
 3929SOL     OW12685   0.451   2.020   4.961
 3929SOL    HW112686   0.444   1.946   4.894
 3929SOL    HW212687   0.547   2.045   4.974
 3930SOL     OW12688   1.434   3.561   4.028
 3930SOL    HW112689   1.432   3.553   3.929
 3930SOL    HW212690   1.416   3.656   4.054
 3931SOL     OW12691   1.044   2.257   1.667
 3931SOL    HW112692   1.125   2.267   1.724
 3931SOL    HW212693   0.975   2.205   1.716
 3932SOL     OW12694   1.515   5.775   4.198
 3932SOL    HW112695   1.541   5.694   4.145
 3932SOL    HW212696   1.577   5.851   4.176
 3933SOL     OW12697   2.188   5.185   0.302
 3933SOL    HW112698   2.244   5.103   0.314
 3933SOL    HW212699   2.147   5.210   0.389
 3934SOL     OW12700   0.569   1.551   2.137
 3934SOL    HW112701   0.499   1.509   2.079
 3934SOL    HW212702   0.529   1.628   2.188
 3935SOL     OW12703   6.267   3.363   6.950
 3935SOL    HW112704   6.234   3.372   6.856
 3935SOL    HW212705   6.323   3.280   6.958
 3936SOL     OW12706   0.035   4.998   5.491
 3936SOL    HW112707   0.046   5.065   5.564
 3936SOL    HW212708   0.103   5.014   5.420
 3937SOL     OW12709   6.935   6.841   2.354
 3937SOL    HW112710   6.931   6.802   2.446
 3937SOL    HW212711   6.985   6.779   2.294
 3938SOL     OW12712   0.004   4.190   2.978
 3938SOL    HW112713   0.042   4.103   3.007
 3938SOL    HW212714   0.027   4.261   3.045
 3939SOL     OW12715   0.493   1.081   2.592
 3939SOL    HW112716   0.433   1.003   2.611
 3939SOL    HW212717   0.525   1.076   2.497
 3940SOL     OW12718   3.295   4.624   1.367
 3940SOL    HW112719   3.324   4.712   1.406
 3940SOL    HW212720   3.307   4.552   1.436
 3941SOL     OW12721   5.919   6.322   4.323
 3941SOL    HW112722   5.911   6.401   4.385
 3941SOL    HW212723   5.838   6.265   4.333
 3942SOL     OW12724   0.780   5.973   6.629
 3942SOL    HW112725   0.820   5.991   6.539
 3942SOL    HW212726   0.768   5.874   6.641
 3943SOL     OW12727   1.214   3.153   0.808
 3943SOL    HW112728   1.125   3.178   0.770
 3943SOL    HW212729   1.208   3.062   0.849
 3944SOL     OW12730   6.419   1.984   6.340
 3944SOL    HW112731   6.448   1.910   6.281
 3944SOL    HW212732   6.409   2.068   6.286
 3945SOL     OW12733   7.001   1.032   2.873
 3945SOL    HW112734   0.008   0.999   2.785
 3945SOL    HW212735   0.029   1.109   2.904
 3946SOL     OW12736   1.060   2.922   0.528
 3946SOL    HW112737   1.152   2.911   0.491
 3946SOL    HW212738   1.018   2.833   0.541
 3947SOL     OW12739   6.440   5.578   1.017
 3947SOL    HW112740   6.359   5.588   0.959
 3947SOL    HW212741   6.466   5.481   1.021
 3948SOL     OW12742   1.794   2.570   5.870
 3948SOL    HW112743   1.796   2.493   5.933
 3948SOL    HW212744   1.775   2.537   5.777
 3949SOL     OW12745   6.446   6.291   2.597
 3949SOL    HW112746   6.393   6.357   2.544
 3949SOL    HW212747   6.387   6.248   2.665
 3950SOL     OW12748   3.293   4.171   1.313
 3950SOL    HW112749   3.250   4.240   1.370
 3950SOL    HW212750   3.278   4.194   1.216
 3951SOL     OW12751   0.523   1.522   5.139
 3951SOL    HW112752   0.506   1.468   5.222
 3951SOL    HW212753   0.499   1.617   5.156
 3952SOL     OW12754   6.696   3.470   5.839
 3952SOL    HW112755   6.622   3.475   5.772
 3952SOL    HW212756   6.692   3.549   5.900
 3953SOL     OW12757   3.426   4.287   5.953
 3953SOL    HW112758   3.329   4.279   5.977
 3953SOL    HW212759   3.475   4.205   5.983
 3954SOL     OW12760   1.207   3.960   5.728
 3954SOL    HW112761   1.125   3.958   5.784
 3954SOL    HW212762   1.270   4.030   5.762
 3955SOL     OW12763   5.300   5.078   0.161
 3955SOL    HW112764   5.313   5.128   0.075
 3955SOL    HW212765   5.276   4.983   0.141
 3956SOL     OW12766   0.538   3.193   5.897
 3956SOL    HW112767   0.547   3.280   5.945
 3956SOL    HW212768   0.584   3.121   5.950
 3957SOL     OW12769   1.941   0.111   4.061
 3957SOL    HW112770   2.040   0.105   4.059
 3957SOL    HW212771   1.912   0.149   4.149
 3958SOL     OW12772   5.778   6.448   5.297
 3958SOL    HW112773   5.705   6.399   5.249
 3958SOL    HW212774   5.795   6.404   5.385
 3959SOL     OW12775   3.177   5.003   0.091
 3959SOL    HW112776   3.220   5.083   0.047
 3959SOL    HW212777   3.229   4.921   0.067
 3960SOL     OW12778   4.045   3.457   0.298
 3960SOL    HW112779   3.958   3.421   0.332
 3960SOL    HW212780   4.107   3.381   0.278
 3961SOL     OW12781   4.540   0.379   1.165
 3961SOL    HW112782   4.443   0.355   1.159
 3961SOL    HW212783   4.554   0.439   1.244
 3962SOL     OW12784   0.760   0.343   6.515
 3962SOL    HW112785   0.767   0.256   6.564
 3962SOL    HW212786   0.817   0.412   6.561
 3963SOL     OW12787   4.458   5.834   3.884
 3963SOL    HW112788   4.385   5.829   3.815
 3963SOL    HW212789   4.418   5.849   3.974
 3964SOL     OW12790   5.117   5.852   5.397
 3964SOL    HW112791   5.136   5.848   5.299
 3964SOL    HW212792   5.202   5.836   5.448
 3965SOL     OW12793   3.097   3.435   0.234
 3965SOL    HW112794   3.196   3.426   0.235
 3965SOL    HW212795   3.068   3.494   0.309
 3966SOL     OW12796   6.550   4.162   5.124
 3966SOL    HW112797   6.618   4.234   5.112
 3966SOL    HW212798   6.486   4.188   5.197
 3967SOL     OW12799   0.491   6.149   6.331
 3967SOL    HW112800   0.527   6.060   6.360
 3967SOL    HW212801   0.554   6.192   6.267
 3968SOL     OW12802   5.611   0.944   2.190
 3968SOL    HW112803   5.663   0.950   2.105
 3968SOL    HW212804   5.514   0.962   2.170
 3969SOL     OW12805   0.802   5.197   2.828
 3969SOL    HW112806   0.758   5.244   2.751
 3969SOL    HW212807   0.901   5.200   2.817
 3970SOL     OW12808   5.255   4.421   2.617
 3970SOL    HW112809   5.291   4.437   2.709
 3970SOL    HW212810   5.159   4.450   2.613
 3971SOL     OW12811   1.612   5.988   3.058
 3971SOL    HW112812   1.558   6.047   2.997
 3971SOL    HW212813   1.674   5.932   3.004
 3972SOL     OW12814   0.619   6.968   0.484
 3972SOL    HW112815   0.667   6.959   0.571
 3972SOL    HW212816   0.666   6.913   0.415
 3973SOL     OW12817   3.106   3.970   4.729
 3973SOL    HW112818   3.119   3.938   4.635
 3973SOL    HW212819   3.179   4.034   4.752
 3974SOL     OW12820   6.184   1.225   6.470
 3974SOL    HW112821   6.141   1.257   6.386
 3974SOL    HW212822   6.181   1.125   6.474
 3975SOL     OW12823   6.902   1.042   6.138
 3975SOL    HW112824   6.825   1.008   6.084
 3975SOL    HW212825   6.977   0.976   6.135
 3976SOL     OW12826   1.250   3.379   0.310
 3976SOL    HW112827   1.301   3.424   0.237
 3976SOL    HW212828   1.273   3.282   0.312
 3977SOL     OW12829   3.371   6.251   6.518
 3977SOL    HW112830   3.336   6.166   6.557
 3977SOL    HW212831   3.316   6.277   6.439
 3978SOL     OW12832   6.232   2.805   6.264
 3978SOL    HW112833   6.242   2.751   6.347
 3978SOL    HW212834   6.311   2.866   6.254
 3979SOL     OW12835   0.694   6.823   2.502
 3979SOL    HW112836   0.689   6.801   2.405
 3979SOL    HW212837   0.613   6.787   2.549
 3980SOL     OW12838   5.122   2.870   4.571
 3980SOL    HW112839   5.204   2.824   4.539
 3980SOL    HW212840   5.148   2.955   4.619
 3981SOL     OW12841   0.125   2.328   0.083
 3981SOL    HW112842   0.173   2.408   0.118
 3981SOL    HW212843   0.139   2.321   7.012
 3982SOL     OW12844   2.543   1.730   3.741
 3982SOL    HW112845   2.625   1.778   3.771
 3982SOL    HW212846   2.476   1.796   3.708
 3983SOL     OW12847   2.948   6.268   4.185
 3983SOL    HW112848   2.895   6.248   4.102
 3983SOL    HW212849   2.888   6.265   4.265
 3984SOL     OW12850   1.794   6.055   1.754
 3984SOL    HW112851   1.695   6.040   1.752
 3984SOL    HW212852   1.827   6.046   1.848
 3985SOL     OW12853   2.390   3.179   1.197
 3985SOL    HW112854   2.341   3.246   1.253
 3985SOL    HW212855   2.328   3.144   1.126
 3986SOL     OW12856   0.202   2.081   2.096
 3986SOL    HW112857   0.144   2.104   2.174
 3986SOL    HW212858   0.243   2.165   2.060
 3987SOL     OW12859   2.616   4.695   6.555
 3987SOL    HW112860   2.702   4.648   6.572
 3987SOL    HW212861   2.634   4.793   6.540
 3988SOL     OW12862   3.962   3.089   0.874
 3988SOL    HW112863   3.931   3.074   0.780
 3988SOL    HW212864   3.882   3.098   0.934
 3989SOL     OW12865   5.876   6.721   0.001
 3989SOL    HW112866   5.841   6.676   6.946
 3989SOL    HW212867   5.950   6.783   7.004
 3990SOL     OW12868   0.992   3.919   3.545
 3990SOL    HW112869   0.957   3.831   3.513
 3990SOL    HW212870   0.916   3.984   3.551
 3991SOL     OW12871   0.251   2.277   4.033
 3991SOL    HW112872   0.179   2.256   3.967
 3991SOL    HW212873   0.306   2.196   4.050
 3992SOL     OW12874   4.670   3.774   6.418
 3992SOL    HW112875   4.593   3.736   6.468
 3992SOL    HW212876   4.637   3.829   6.341
 3993SOL     OW12877   2.872   2.282   2.910
 3993SOL    HW112878   2.805   2.333   2.857
 3993SOL    HW212879   2.950   2.259   2.852
 3994SOL     OW12880   2.397   2.709   3.559
 3994SOL    HW112881   2.431   2.619   3.587
 3994SOL    HW212882   2.387   2.712   3.460
 3995SOL     OW12883   2.210   3.958   3.140
 3995SOL    HW112884   2.270   3.990   3.214
 3995SOL    HW212885   2.159   3.877   3.171
 3996SOL     OW12886   0.401   1.487   3.273
 3996SOL    HW112887   0.471   1.537   3.324
 3996SOL    HW212888   0.353   1.550   3.212
 3997SOL     OW12889   5.818   3.887   3.336
 3997SOL    HW112890   5.848   3.958   3.271
 3997SOL    HW212891   5.835   3.797   3.296
 3998SOL     OW12892   6.484   2.125   3.301
 3998SOL    HW112893   6.447   2.074   3.379
 3998SOL    HW212894   6.569   2.169   3.328
 3999SOL     OW12895   5.696   3.739   2.643
 3999SOL    HW112896   5.679   3.665   2.578
 3999SOL    HW212897   5.636   3.816   2.622
 4000SOL     OW12898   2.478   5.546   2.550
 4000SOL    HW112899   2.437   5.527   2.461
 4000SOL    HW212900   2.573   5.576   2.536
 4001SOL     OW12901   2.530   3.869   5.349
 4001SOL    HW112902   2.463   3.886   5.422
 4001SOL    HW212903   2.504   3.919   5.267
 4002SOL     OW12904   3.199   3.227   4.786
 4002SOL    HW112905   3.147   3.236   4.701
 4002SOL    HW212906   3.236   3.316   4.813
 4003SOL     OW12907   2.198   1.098   5.591
 4003SOL    HW112908   2.205   1.057   5.500
 4003SOL    HW212909   2.182   1.026   5.658
 4004SOL     OW12910   7.015   3.872   2.817
 4004SOL    HW112911   6.962   3.858   2.901
 4004SOL    HW212912   0.070   3.816   2.820
 4005SOL     OW12913   4.472   3.587   1.642
 4005SOL    HW112914   4.448   3.598   1.546
 4005SOL    HW212915   4.413   3.517   1.684
 4006SOL     OW12916   5.024   5.588   2.530
 4006SOL    HW112917   4.925   5.601   2.524
 4006SOL    HW212918   5.044   5.504   2.580
 4007SOL     OW12919   0.983   2.041   3.353
 4007SOL    HW112920   0.953   1.960   3.304
 4007SOL    HW212921   0.977   2.121   3.293
 4008SOL     OW12922   2.455   0.064   0.881
 4008SOL    HW112923   2.368   0.082   0.836
 4008SOL    HW212924   2.527   0.119   0.838
 4009SOL     OW12925   4.329   1.803   1.194
 4009SOL    HW112926   4.415   1.773   1.235
 4009SOL    HW212927   4.276   1.854   1.262
 4010SOL     OW12928   3.582   4.344   1.533
 4010SOL    HW112929   3.670   4.387   1.554
 4010SOL    HW212930   3.580   4.319   1.436
 4011SOL     OW12931   6.714   5.903   0.252
 4011SOL    HW112932   6.699   5.986   0.198
 4011SOL    HW212933   6.737   5.927   0.346
 4012SOL     OW12934   4.417   6.606   1.562
 4012SOL    HW112935   4.370   6.665   1.628
 4012SOL    HW212936   4.498   6.565   1.605
 4013SOL     OW12937   1.866   0.516   0.830
 4013SOL    HW112938   1.896   0.562   0.746
 4013SOL    HW212939   1.946   0.492   0.885
 4014SOL     OW12940   3.029   5.644   3.303
 4014SOL    HW112941   2.954   5.622   3.240
 4014SOL    HW212942   3.085   5.562   3.318
 4015SOL     OW12943   4.510   5.038   6.220
 4015SOL    HW112944   4.457   4.954   6.227
 4015SOL    HW212945   4.493   5.095   6.300
 4016SOL     OW12946   3.101   5.180   6.441
 4016SOL    HW112947   3.107   5.182   6.342
 4016SOL    HW212948   3.177   5.231   6.481
 4017SOL     OW12949   0.909   5.226   5.725
 4017SOL    HW112950   0.977   5.284   5.771
 4017SOL    HW212951   0.942   5.132   5.721
 4018SOL     OW12952   3.646   6.365   1.912
 4018SOL    HW112953   3.719   6.308   1.875
 4018SOL    HW212954   3.557   6.325   1.886
 4019SOL     OW12955   5.596   3.061   2.674
 4019SOL    HW112956   5.540   3.046   2.593
 4019SOL    HW212957   5.689   3.086   2.646
 4020SOL     OW12958   0.396   4.024   4.310
 4020SOL    HW112959   0.420   4.094   4.378
 4020SOL    HW212960   0.475   3.965   4.294
 4021SOL     OW12961   3.437   3.556   5.528
 4021SOL    HW112962   3.394   3.496   5.596
 4021SOL    HW212963   3.529   3.581   5.559
 4022SOL     OW12964   3.623   6.854   0.987
 4022SOL    HW112965   3.599   6.909   0.907
 4022SOL    HW212966   3.638   6.759   0.958
 4023SOL     OW12967   0.356   1.465   5.417
 4023SOL    HW112968   0.297   1.531   5.370
 4023SOL    HW212969   0.302   1.412   5.482
 4024SOL     OW12970   1.799   5.024   4.039
 4024SOL    HW112971   1.746   4.959   4.091
 4024SOL    HW212972   1.894   5.023   4.071
 4025SOL     OW12973   0.969   5.960   4.180
 4025SOL    HW112974   1.009   5.872   4.154
 4025SOL    HW212975   0.969   6.021   4.101
 4026SOL     OW12976   6.333   6.277   4.375
 4026SOL    HW112977   6.427   6.257   4.348
 4026SOL    HW212978   6.331   6.311   4.468
 4027SOL     OW12979   2.876   2.282   6.790
 4027SOL    HW112980   2.832   2.317   6.707
 4027SOL    HW212981   2.808   2.277   6.863
 4028SOL     OW12982   4.553   1.602   3.384
 4028SOL    HW112983   4.493   1.524   3.365
 4028SOL    HW212984   4.564   1.657   3.302
 4029SOL     OW12985   3.172   3.979   5.965
 4029SOL    HW112986   3.164   3.906   5.898
 4029SOL    HW212987   3.111   3.960   6.042
 4030SOL     OW12988   6.964   0.955   1.907
 4030SOL    HW112989   6.948   0.874   1.964
 4030SOL    HW212990   7.014   0.928   1.825
 4031SOL     OW12991   5.644   0.271   2.543
 4031SOL    HW112992   5.675   0.315   2.627
 4031SOL    HW212993   5.661   0.332   2.465
 4032SOL     OW12994   6.504   6.603   1.898
 4032SOL    HW112995   6.535   6.522   1.849
 4032SOL    HW212996   6.406   6.615   1.885
 4033SOL     OW12997   2.710   2.091   3.020
 4033SOL    HW112998   2.783   2.142   2.974
 4033SOL    HW212999   2.624   2.139   3.009
 4034SOL     OW13000   6.407   2.449   5.215
 4034SOL    HW113001   6.316   2.428   5.178
 4034SOL    HW213002   6.476   2.426   5.147
 4035SOL     OW13003   6.293   1.667   1.370
 4035SOL    HW113004   6.245   1.594   1.321
 4035SOL    HW213005   6.258   1.673   1.464
 4036SOL     OW13006   4.037   4.750   2.465
 4036SOL    HW113007   4.039   4.790   2.374
 4036SOL    HW213008   4.127   4.714   2.489
 4037SOL     OW13009   2.959   1.103   6.023
 4037SOL    HW113010   2.898   1.170   5.980
 4037SOL    HW213011   2.916   1.013   6.023
 4038SOL     OW13012   4.738   3.545   0.394
 4038SOL    HW113013   4.738   3.528   0.296
 4038SOL    HW213014   4.653   3.591   0.420
 4039SOL     OW13015   5.147   5.800   1.832
 4039SOL    HW113016   5.126   5.844   1.919
 4039SOL    HW213017   5.068   5.747   1.801
 4040SOL     OW13018   3.069   5.903   4.554
 4040SOL    HW113019   3.118   5.869   4.634
 4040SOL    HW213020   3.121   5.884   4.471
 4041SOL     OW13021   1.764   6.298   1.454
 4041SOL    HW113022   1.698   6.270   1.524
 4041SOL    HW213023   1.764   6.231   1.380
 4042SOL     OW13024   5.802   6.450   3.105
 4042SOL    HW113025   5.893   6.437   3.066
 4042SOL    HW213026   5.755   6.524   3.057
 4043SOL     OW13027   6.549   2.154   6.551
 4043SOL    HW113028   6.503   2.237   6.584
 4043SOL    HW213029   6.481   2.083   6.532
 4044SOL     OW13030   5.297   4.930   2.369
 4044SOL    HW113031   5.341   4.880   2.444
 4044SOL    HW213032   5.344   4.909   2.283
 4045SOL     OW13033   4.009   6.654   5.892
 4045SOL    HW113034   4.086   6.648   5.828
 4045SOL    HW213035   3.923   6.639   5.842
 4046SOL     OW13036   0.876   1.823   2.600
 4046SOL    HW113037   0.808   1.753   2.578
 4046SOL    HW213038   0.873   1.895   2.530
 4047SOL     OW13039   2.100   2.385   6.922
 4047SOL    HW113040   2.056   2.461   6.874
 4047SOL    HW213041   2.029   2.327   6.963
 4048SOL     OW13042   5.281   1.076   1.929
 4048SOL    HW113043   5.288   1.005   1.859
 4048SOL    HW213044   5.229   1.154   1.892
 4049SOL     OW13045   4.575   6.401   6.144
 4049SOL    HW113046   4.583   6.488   6.193
 4049SOL    HW213047   4.491   6.355   6.172
 4050SOL     OW13048   0.806   6.404   2.498
 4050SOL    HW113049   0.741   6.468   2.539
 4050SOL    HW213050   0.873   6.375   2.566
 4051SOL     OW13051   4.669   1.196   6.481
 4051SOL    HW113052   4.585   1.142   6.468
 4051SOL    HW213053   4.729   1.148   6.545
 4052SOL     OW13054   5.802   2.181   3.607
 4052SOL    HW113055   5.855   2.175   3.523
 4052SOL    HW213056   5.743   2.100   3.615
 4053SOL     OW13057   1.885   6.238   4.672
 4053SOL    HW113058   1.809   6.275   4.618
 4053SOL    HW213059   1.952   6.195   4.612
 4054SOL     OW13060   4.840   4.339   1.006
 4054SOL    HW113061   4.887   4.265   0.958
 4054SOL    HW213062   4.895   4.369   1.083
 4055SOL     OW13063   1.458   4.105   1.176
 4055SOL    HW113064   1.458   4.024   1.117
 4055SOL    HW213065   1.544   4.155   1.163
 4056SOL     OW13066   5.102   3.628   1.098
 4056SOL    HW113067   5.147   3.711   1.066
 4056SOL    HW213068   5.010   3.650   1.132
 4057SOL     OW13069   6.593   3.187   6.865
 4057SOL    HW113070   6.606   3.284   6.846
 4057SOL    HW213071   6.624   3.167   6.958
 4058SOL     OW13072   2.786   6.745   4.977
 4058SOL    HW113073   2.850   6.695   5.036
 4058SOL    HW213074   2.707   6.688   4.957
 4059SOL     OW13075   0.330   2.571   3.336
 4059SOL    HW113076   0.275   2.634   3.391
 4059SOL    HW213077   0.294   2.569   3.242
 4060SOL     OW13078   5.669   4.834   5.612
 4060SOL    HW113079   5.666   4.809   5.709
 4060SOL    HW213080   5.665   4.751   5.556
 4061SOL     OW13081   2.600   4.645   2.096
 4061SOL    HW113082   2.679   4.624   2.038
 4061SOL    HW213083   2.535   4.701   2.044
 4062SOL     OW13084   2.870   0.470   2.130
 4062SOL    HW113085   2.811   0.412   2.074
 4062SOL    HW213086   2.845   0.460   2.227
 4063SOL     OW13087   6.151   6.904   0.674
 4063SOL    HW113088   6.096   6.933   0.751
 4063SOL    HW213089   6.096   6.848   0.612
 4064SOL     OW13090   3.012   2.030   4.236
 4064SOL    HW113091   2.994   2.075   4.323
 4064SOL    HW213092   3.096   1.976   4.243
 4065SOL     OW13093   0.581   0.154   1.607
 4065SOL    HW113094   0.493   0.153   1.654
 4065SOL    HW213095   0.586   0.078   1.543
 4066SOL     OW13096   6.643   3.947   2.939
 4066SOL    HW113097   6.723   3.893   2.964
 4066SOL    HW213098   6.672   4.042   2.921
 4067SOL     OW13099   5.277   3.747   3.729
 4067SOL    HW113100   5.260   3.649   3.730
 4067SOL    HW213101   5.347   3.770   3.797
 4068SOL     OW13102   2.536   2.108   4.268
 4068SOL    HW113103   2.569   2.166   4.194
 4068SOL    HW213104   2.514   2.164   4.347
 4069SOL     OW13105   3.339   5.270   6.904
 4069SOL    HW113106   3.366   5.203   6.835
 4069SOL    HW213107   3.271   5.332   6.866
 4070SOL     OW13108   0.342   2.996   2.681
 4070SOL    HW113109   0.420   2.954   2.726
 4070SOL    HW213110   0.268   2.929   2.673
 4071SOL     OW13111   1.439   1.355   4.827
 4071SOL    HW113112   1.473   1.271   4.785
 4071SOL    HW213113   1.354   1.336   4.876
 4072SOL     OW13114   0.623   5.752   4.901
 4072SOL    HW113115   0.619   5.670   4.843
 4072SOL    HW213116   0.662   5.828   4.849
 4073SOL     OW13117   2.972   5.253   6.161
 4073SOL    HW113118   2.964   5.176   6.098
 4073SOL    HW213119   2.913   5.328   6.130
 4074SOL     OW13120   0.387   4.570   1.249
 4074SOL    HW113121   0.471   4.623   1.257
 4074SOL    HW213122   0.325   4.615   1.185
 4075SOL     OW13123   4.764   2.139   1.213
 4075SOL    HW113124   4.771   2.232   1.249
 4075SOL    HW213125   4.675   2.101   1.236
 4076SOL     OW13126   2.657   3.208   5.994
 4076SOL    HW113127   2.736   3.146   5.996
 4076SOL    HW213128   2.690   3.302   5.988
 4077SOL     OW13129   4.005   1.870   1.197
 4077SOL    HW113130   4.041   1.962   1.203
 4077SOL    HW213131   3.907   1.873   1.177
 4078SOL     OW13132   2.102   4.996   2.217
 4078SOL    HW113133   2.155   5.000   2.302
 4078SOL    HW213134   2.080   4.901   2.196
 4079SOL     OW13135   2.296   1.282   2.861
 4079SOL    HW113136   2.373   1.232   2.902
 4079SOL    HW213137   2.307   1.379   2.879
 4080SOL     OW13138   4.693   2.547   5.976
 4080SOL    HW113139   4.604   2.500   5.973
 4080SOL    HW213140   4.729   2.555   5.883
 4081SOL     OW13141   1.344   2.843   3.701
 4081SOL    HW113142   1.379   2.765   3.651
 4081SOL    HW213143   1.280   2.812   3.771
 4082SOL     OW13144   0.474   4.073   0.236
 4082SOL    HW113145   0.423   4.004   0.184
 4082SOL    HW213146   0.431   4.162   0.224
 4083SOL     OW13147   6.279   3.019   2.963
 4083SOL    HW113148   6.184   3.049   2.965
 4083SOL    HW213149   6.339   3.098   2.947
 4084SOL     OW13150   5.871   1.879   3.731
 4084SOL    HW113151   5.928   1.950   3.772
 4084SOL    HW213152   5.898   1.867   3.635
 4085SOL     OW13153   3.915   5.521   0.547
 4085SOL    HW113154   4.015   5.522   0.551
 4085SOL    HW213155   3.879   5.486   0.633
 4086SOL     OW13156   2.231   6.300   1.840
 4086SOL    HW113157   2.331   6.300   1.846
 4086SOL    HW213158   2.202   6.354   1.761
 4087SOL     OW13159   3.206   2.162   3.365
 4087SOL    HW113160   3.300   2.139   3.391
 4087SOL    HW213161   3.187   2.126   3.273
 4088SOL     OW13162   0.108   1.787   0.852
 4088SOL    HW113163   0.027   1.732   0.831
 4088SOL    HW213164   0.124   1.786   0.951
 4089SOL     OW13165   6.398   6.384   3.521
 4089SOL    HW113166   6.342   6.420   3.596
 4089SOL    HW213167   6.414   6.286   3.535
 4090SOL     OW13168   2.190   4.096   5.497
 4090SOL    HW113169   2.233   4.006   5.500
 4090SOL    HW213170   2.151   4.117   5.587
 4091SOL     OW13171   6.403   6.198   0.418
 4091SOL    HW113172   6.429   6.231   0.327
 4091SOL    HW213173   6.483   6.198   0.477
 4092SOL     OW13174   6.367   3.213   5.100
 4092SOL    HW113175   6.272   3.224   5.070
 4092SOL    HW213176   6.394   3.292   5.155
 4093SOL     OW13177   4.333   0.324   3.580
 4093SOL    HW113178   4.389   0.303   3.660
 4093SOL    HW213179   4.242   0.283   3.592
 4094SOL     OW13180   2.548   5.858   4.621
 4094SOL    HW113181   2.504   5.770   4.604
 4094SOL    HW213182   2.495   5.909   4.689
 4095SOL     OW13183   0.856   3.751   6.473
 4095SOL    HW113184   0.770   3.761   6.523
 4095SOL    HW213185   0.845   3.789   6.381
 4096SOL     OW13186   4.510   5.272   1.033
 4096SOL    HW113187   4.441   5.217   0.986
 4096SOL    HW213188   4.566   5.212   1.091
 4097SOL     OW13189   3.830   3.831   6.222
 4097SOL    HW113190   3.881   3.774   6.286
 4097SOL    HW213191   3.887   3.852   6.143
 4098SOL     OW13192   0.126   3.045   2.115
 4098SOL    HW113193   0.122   3.122   2.051
 4098SOL    HW213194   0.151   2.961   2.066
 4099SOL     OW13195   3.095   4.848   1.290
 4099SOL    HW113196   3.021   4.841   1.357
 4099SOL    HW213197   3.174   4.797   1.321
 4100SOL     OW13198   6.391   6.150   5.208
 4100SOL    HW113199   6.439   6.143   5.295
 4100SOL    HW213200   6.448   6.113   5.135
 4101SOL     OW13201   5.606   0.651   0.698
 4101SOL    HW113202   5.616   0.637   0.600
 4101SOL    HW213203   5.517   0.618   0.728
 4102SOL     OW13204   6.376   0.823   1.823
 4102SOL    HW113205   6.444   0.751   1.838
 4102SOL    HW213206   6.420   0.901   1.778
 4103SOL     OW13207   0.442   0.901   1.164
 4103SOL    HW113208   0.490   0.836   1.224
 4103SOL    HW213209   0.509   0.960   1.119
 4104SOL     OW13210   0.931   4.573   2.012
 4104SOL    HW113211   0.854   4.634   1.997
 4104SOL    HW213212   1.000   4.618   2.068
 4105SOL     OW13213   4.312   5.442   1.120
 4105SOL    HW113214   4.243   5.380   1.157
 4105SOL    HW213215   4.395   5.391   1.100
 4106SOL     OW13216   0.717   1.966   5.119
 4106SOL    HW113217   0.645   1.941   5.184
 4106SOL    HW213218   0.798   1.997   5.168
 4107SOL     OW13219   1.509   6.226   1.004
 4107SOL    HW113220   1.516   6.228   0.904
 4107SOL    HW213221   1.482   6.316   1.037
 4108SOL     OW13222   0.359   5.070   5.942
 4108SOL    HW113223   0.324   5.122   5.865
 4108SOL    HW213224   0.374   5.130   6.020
 4109SOL     OW13225   4.683   6.001   5.311
 4109SOL    HW113226   4.648   5.996   5.405
 4109SOL    HW213227   4.619   6.052   5.254
 4110SOL     OW13228   4.626   3.131   6.562
 4110SOL    HW113229   4.550   3.196   6.553
 4110SOL    HW213230   4.621   3.084   6.650
 4111SOL     OW13231   4.093   2.764   6.477
 4111SOL    HW113232   4.178   2.765   6.529
 4111SOL    HW213233   4.016   2.785   6.537
 4112SOL     OW13234   4.961   0.844   5.538
 4112SOL    HW113235   4.906   0.762   5.533
 4112SOL    HW213236   5.052   0.821   5.573
 4113SOL     OW13237   4.640   6.466   4.830
 4113SOL    HW113238   4.735   6.497   4.840
 4113SOL    HW213239   4.635   6.369   4.853
 4114SOL     OW13240   4.063   2.210   3.506
 4114SOL    HW113241   4.106   2.244   3.589
 4114SOL    HW213242   4.120   2.233   3.427
 4115SOL     OW13243   4.608   5.841   2.170
 4115SOL    HW113244   4.535   5.909   2.172
 4115SOL    HW213245   4.686   5.874   2.223
 4116SOL     OW13246   4.184   2.280   1.856
 4116SOL    HW113247   4.173   2.190   1.813
 4116SOL    HW213248   4.138   2.280   1.945
 4117SOL     OW13249   0.536   5.183   1.866
 4117SOL    HW113250   0.552   5.248   1.793
 4117SOL    HW213251   0.528   5.231   1.953
 4118SOL     OW13252   2.238   6.294   0.792
 4118SOL    HW113253   2.177   6.356   0.743
 4118SOL    HW213254   2.215   6.199   0.770
 4119SOL     OW13255   4.152   1.977   3.233
 4119SOL    HW113256   4.241   2.001   3.270
 4119SOL    HW213257   4.089   1.956   3.307
 4120SOL     OW13258   4.371   0.692   0.663
 4120SOL    HW113259   4.337   0.714   0.571
 4120SOL    HW213260   4.326   0.751   0.730
 4121SOL     OW13261   5.837   1.186   5.263
 4121SOL    HW113262   5.737   1.182   5.260
 4121SOL    HW213263   5.873   1.093   5.273
 4122SOL     OW13264   1.015   6.385   5.740
 4122SOL    HW113265   0.945   6.361   5.673
 4122SOL    HW213266   1.102   6.344   5.712
 4123SOL     OW13267   4.863   4.767   5.332
 4123SOL    HW113268   4.769   4.764   5.366
 4123SOL    HW213269   4.922   4.804   5.403
 4124SOL     OW13270   6.053   5.213   5.742
 4124SOL    HW113271   6.101   5.278   5.802
 4124SOL    HW213272   5.963   5.193   5.779
 4125SOL     OW13273   4.424   1.322   1.983
 4125SOL    HW113274   4.450   1.384   1.909
 4125SOL    HW213275   4.413   1.229   1.946
 4126SOL     OW13276   1.361   4.749   3.889
 4126SOL    HW113277   1.374   4.838   3.933
 4126SOL    HW213278   1.264   4.725   3.889
 4127SOL     OW13279   4.557   4.537   4.483
 4127SOL    HW113280   4.524   4.548   4.577
 4127SOL    HW213281   4.496   4.586   4.421
 4128SOL     OW13282   1.431   3.337   1.737
 4128SOL    HW113283   1.466   3.426   1.767
 4128SOL    HW213284   1.493   3.298   1.669
 4129SOL     OW13285   5.155   1.149   6.483
 4129SOL    HW113286   5.105   1.101   6.554
 4129SOL    HW213287   5.253   1.145   6.502
 4130SOL     OW13288   6.969   3.562   5.759
 4130SOL    HW113289   6.874   3.545   5.786
 4130SOL    HW213290   6.988   3.515   5.673
 4131SOL     OW13291   1.091   5.747   3.721
 4131SOL    HW113292   1.186   5.745   3.690
 4131SOL    HW213293   1.058   5.654   3.732
 4132SOL     OW13294   5.301   4.564   4.106
 4132SOL    HW113295   5.212   4.573   4.062
 4132SOL    HW213296   5.310   4.634   4.177
 4133SOL     OW13297   2.881   7.006   2.123
 4133SOL    HW113298   2.851   6.965   2.208
 4133SOL    HW213299   2.910   6.935   2.059
 4134SOL     OW13300   1.716   2.400   0.611
 4134SOL    HW113301   1.692   2.333   0.541
 4134SOL    HW213302   1.683   2.369   0.700
 4135SOL     OW13303   1.961   0.346   2.502
 4135SOL    HW113304   1.942   0.420   2.567
 4135SOL    HW213305   1.878   0.326   2.450
 4136SOL     OW13306   0.956   2.080   2.854
 4136SOL    HW113307   0.867   2.069   2.810
 4136SOL    HW213308   1.028   2.045   2.794
 4137SOL     OW13309   1.891   4.084   1.308
 4137SOL    HW113310   1.962   4.043   1.250
 4137SOL    HW213311   1.829   4.013   1.339
 4138SOL     OW13312   3.829   5.425   3.234
 4138SOL    HW113313   3.779   5.352   3.281
 4138SOL    HW213314   3.844   5.399   3.138
 4139SOL     OW13315   2.120   2.440   5.288
 4139SOL    HW113316   2.048   2.432   5.219
 4139SOL    HW213317   2.186   2.366   5.277
 4140SOL     OW13318   2.820   0.817   5.462
 4140SOL    HW113319   2.866   0.769   5.387
 4140SOL    HW213320   2.814   0.758   5.542
 4141SOL     OW13321   5.185   6.192   1.774
 4141SOL    HW113322   5.258   6.228   1.832
 4141SOL    HW213323   5.097   6.221   1.810
 4142SOL     OW13324   6.853   5.712   0.788
 4142SOL    HW113325   6.753   5.717   0.795
 4142SOL    HW213326   6.889   5.656   0.862
 4143SOL     OW13327   6.960   2.940   7.027
 4143SOL    HW113328   6.860   2.937   0.003
 4143SOL    HW213329   6.989   2.987   6.943
 4144SOL     OW13330   5.468   3.098   0.271
 4144SOL    HW113331   5.550   3.152   0.290
 4144SOL    HW213332   5.463   3.079   0.173
 4145SOL     OW13333   0.151   6.162   1.626
 4145SOL    HW113334   0.187   6.240   1.575
 4145SOL    HW213335   0.104   6.099   1.564
 4146SOL     OW13336   6.607   0.891   5.683
 4146SOL    HW113337   6.616   0.805   5.632
 4146SOL    HW213338   6.513   0.924   5.677
 4147SOL     OW13339   4.064   1.968   5.569
 4147SOL    HW113340   4.063   1.911   5.651
 4147SOL    HW213341   4.081   2.063   5.594
 4148SOL     OW13342   0.430   0.307   3.761
 4148SOL    HW113343   0.384   0.381   3.809
 4148SOL    HW213344   0.465   0.340   3.673
 4149SOL     OW13345   0.657   3.102   0.078
 4149SOL    HW113346   0.607   3.069   7.025
 4149SOL    HW213347   0.731   3.038   0.099
 4150SOL     OW13348   6.748   0.889   5.936
 4150SOL    HW113349   6.680   0.865   5.867
 4150SOL    HW213350   6.838   0.858   5.907
 4151SOL     OW13351   4.822   6.278   6.131
 4151SOL    HW113352   4.844   6.210   6.201
 4151SOL    HW213353   4.734   6.320   6.152
 4152SOL     OW13354   2.941   5.478   1.011
 4152SOL    HW113355   3.023   5.422   1.028
 4152SOL    HW213356   2.895   5.495   1.098
 4153SOL     OW13357   4.797   5.045   6.477
 4153SOL    HW113358   4.845   5.001   6.553
 4153SOL    HW213359   4.858   5.053   6.399
 4154SOL     OW13360   0.184   4.465   4.820
 4154SOL    HW113361   0.101   4.431   4.777
 4154SOL    HW213362   0.161   4.511   4.905
 4155SOL     OW13363   5.806   2.722   3.550
 4155SOL    HW113364   5.798   2.626   3.578
 4155SOL    HW213365   5.822   2.779   3.630
 4156SOL     OW13366   5.425   0.001   5.122
 4156SOL    HW113367   5.521   7.019   5.148
 4156SOL    HW213368   5.382   0.071   5.180
 4157SOL     OW13369   4.019   6.677   3.806
 4157SOL    HW113370   4.105   6.707   3.764
 4157SOL    HW213371   4.038   6.633   3.893
 4158SOL     OW13372   1.703   5.613   4.320
 4158SOL    HW113373   1.660   5.564   4.244
 4158SOL    HW213374   1.649   5.694   4.343
 4159SOL     OW13375   1.905   3.166   3.882
 4159SOL    HW113376   1.821   3.219   3.873
 4159SOL    HW213377   1.958   3.199   3.960
 4160SOL     OW13378   6.234   0.769   1.144
 4160SOL    HW113379   6.253   0.683   1.190
 4160SOL    HW213380   6.315   0.828   1.149
 4161SOL     OW13381   2.306   5.907   6.541
 4161SOL    HW113382   2.292   5.870   6.449
 4161SOL    HW213383   2.403   5.926   6.555
 4162SOL     OW13384   6.426   0.178   5.217
 4162SOL    HW113385   6.456   0.209   5.307
 4162SOL    HW213386   6.405   0.080   5.220
 4163SOL     OW13387   5.721   0.922   3.266
 4163SOL    HW113388   5.814   0.940   3.296
 4163SOL    HW213389   5.668   0.885   3.342
 4164SOL     OW13390   1.334   6.662   6.232
 4164SOL    HW113391   1.430   6.675   6.258
 4164SOL    HW213392   1.330   6.624   6.140
 4165SOL     OW13393   4.612   0.181   0.657
 4165SOL    HW113394   4.656   0.137   0.735
 4165SOL    HW213395   4.679   0.198   0.585
 4166SOL     OW13396   5.808   3.106   1.070
 4166SOL    HW113397   5.798   3.187   1.012
 4166SOL    HW213398   5.720   3.084   1.112
 4167SOL     OW13399   2.503   3.680   0.408
 4167SOL    HW113400   2.473   3.585   0.416
 4167SOL    HW213401   2.537   3.711   0.497
 4168SOL     OW13402   0.836   5.066   0.922
 4168SOL    HW113403   0.869   5.071   1.016
 4168SOL    HW213404   0.915   5.063   0.860
 4169SOL     OW13405   5.813   3.343   4.199
 4169SOL    HW113406   5.824   3.365   4.296
 4169SOL    HW213407   5.806   3.427   4.146
 4170SOL     OW13408   3.365   3.269   5.186
 4170SOL    HW113409   3.333   3.207   5.114
 4170SOL    HW213410   3.325   3.359   5.173
 4171SOL     OW13411   5.241   4.247   0.966
 4171SOL    HW113412   5.213   4.279   1.056
 4171SOL    HW213413   5.274   4.325   0.913
 4172SOL     OW13414   0.041   2.309   5.987
 4172SOL    HW113415   0.033   2.383   6.054
 4172SOL    HW213416   6.979   2.271   5.968
 4173SOL     OW13417   6.127   3.403   4.590
 4173SOL    HW113418   6.204   3.372   4.646
 4173SOL    HW213419   6.154   3.405   4.494
 4174SOL     OW13420   5.797   0.929   3.668
 4174SOL    HW113421   5.706   0.904   3.635
 4174SOL    HW213422   5.865   0.909   3.597
 4175SOL     OW13423   2.617   6.480   3.999
 4175SOL    HW113424   2.621   6.382   3.979
 4175SOL    HW213425   2.567   6.526   3.926
 4176SOL     OW13426   3.216   6.915   2.193
 4176SOL    HW113427   3.306   6.876   2.171
 4176SOL    HW213428   3.216   6.948   2.287
 4177SOL     OW13429   0.853   5.301   5.443
 4177SOL    HW113430   0.807   5.383   5.412
 4177SOL    HW213431   0.867   5.305   5.542
 4178SOL     OW13432   3.916   0.929   4.136
 4178SOL    HW113433   3.888   0.851   4.192
 4178SOL    HW213434   3.948   1.003   4.194
 4179SOL     OW13435   4.935   3.213   4.311
 4179SOL    HW113436   5.033   3.213   4.294
 4179SOL    HW213437   4.904   3.307   4.325
 4180SOL     OW13438   5.372   3.291   2.538
 4180SOL    HW113439   5.369   3.196   2.506
 4180SOL    HW213440   5.466   3.325   2.533
 4181SOL     OW13441   2.086   1.899   6.007
 4181SOL    HW113442   2.144   1.976   5.981
 4181SOL    HW213443   2.140   1.833   6.060
 4182SOL     OW13444   0.230   6.803   3.183
 4182SOL    HW113445   0.211   6.711   3.219
 4182SOL    HW213446   0.290   6.851   3.246
 4183SOL     OW13447   3.425   1.204   1.259
 4183SOL    HW113448   3.354   1.200   1.188
 4183SOL    HW213449   3.492   1.275   1.234
 4184SOL     OW13450   4.079   4.980   1.330
 4184SOL    HW113451   4.040   4.918   1.262
 4184SOL    HW213452   4.145   4.931   1.387
 4185SOL     OW13453   0.420   5.286   3.254
 4185SOL    HW113454   0.498   5.345   3.274
 4185SOL    HW213455   0.414   5.213   3.322
 4186SOL     OW13456   1.297   4.731   0.472
 4186SOL    HW113457   1.292   4.659   0.541
 4186SOL    HW213458   1.267   4.695   0.383
 4187SOL     OW13459   3.750   3.067   5.782
 4187SOL    HW113460   3.770   3.084   5.879
 4187SOL    HW213461   3.813   3.121   5.725
 4188SOL     OW13462   5.151   6.870   4.585
 4188SOL    HW113463   5.080   6.800   4.580
 4188SOL    HW213464   5.144   6.918   4.672
 4189SOL     OW13465   3.301   1.884   4.732
 4189SOL    HW113466   3.280   1.974   4.771
 4189SOL    HW213467   3.257   1.876   4.642
 4190SOL     OW13468   2.250   0.022   6.382
 4190SOL    HW113469   2.264   0.111   6.337
 4190SOL    HW213470   2.186   6.995   6.328
 4191SOL     OW13471   6.118   3.362   3.109
 4191SOL    HW113472   6.213   3.392   3.111
 4191SOL    HW213473   6.061   3.431   3.153
 4192SOL     OW13474   0.086   1.756   3.810
 4192SOL    HW113475   0.066   1.712   3.722
 4192SOL    HW213476   0.148   1.832   3.797
 4193SOL     OW13477   2.213   6.447   1.620
 4193SOL    HW113478   2.122   6.474   1.588
 4193SOL    HW213479   2.255   6.386   1.553
 4194SOL     OW13480   6.974   2.238   5.167
 4194SOL    HW113481   0.000   2.156   5.188
 4194SOL    HW213482   7.027   2.298   5.107
 4195SOL     OW13483   3.668   0.486   1.871
 4195SOL    HW113484   3.603   0.412   1.885
 4195SOL    HW213485   3.684   0.532   1.959
 4196SOL     OW13486   6.468   2.018   4.478
 4196SOL    HW113487   6.429   2.001   4.568
 4196SOL    HW213488   6.395   2.035   4.412
 4197SOL     OW13489   4.881   4.683   4.123
 4197SOL    HW113490   4.843   4.597   4.159
 4197SOL    HW213491   4.807   4.738   4.084
 4198SOL     OW13492   6.115   3.769   6.917
 4198SOL    HW113493   6.079   3.850   6.963
 4198SOL    HW213494   6.114   3.784   6.818
 4199SOL     OW13495   2.278   3.405   6.060
 4199SOL    HW113496   2.353   3.391   5.996
 4199SOL    HW213497   2.210   3.466   6.019
 4200SOL     OW13498   2.724   6.525   5.711
 4200SOL    HW113499   2.805   6.484   5.752
 4200SOL    HW213500   2.747   6.617   5.678
 4201SOL     OW13501   5.683   6.154   4.018
 4201SOL    HW113502   5.588   6.128   4.040
 4201SOL    HW213503   5.706   6.239   4.066
 4202SOL     OW13504   4.079   4.678   6.028
 4202SOL    HW113505   4.139   4.746   5.987
 4202SOL    HW213506   4.021   4.637   5.958
 4203SOL     OW13507   3.852   6.025   2.741
 4203SOL    HW113508   3.824   5.980   2.656
 4203SOL    HW213509   3.951   6.020   2.750
 4204SOL     OW13510   3.317   2.839   1.900
 4204SOL    HW113511   3.303   2.935   1.877
 4204SOL    HW213512   3.241   2.806   1.956
 4205SOL     OW13513   4.045   5.157   4.179
 4205SOL    HW113514   4.068   5.168   4.082
 4205SOL    HW213515   3.958   5.108   4.187
 4206SOL     OW13516   4.677   1.051   5.897
 4206SOL    HW113517   4.679   0.980   5.827
 4206SOL    HW213518   4.747   1.119   5.877
 4207SOL     OW13519   2.355   1.602   1.911
 4207SOL    HW113520   2.329   1.696   1.888
 4207SOL    HW213521   2.361   1.548   1.827
 4208SOL     OW13522   1.593   2.086   0.781
 4208SOL    HW113523   1.537   2.008   0.752
 4208SOL    HW213524   1.542   2.143   0.845
 4209SOL     OW13525   0.911   1.301   5.052
 4209SOL    HW113526   0.820   1.289   5.011
 4209SOL    HW213527   0.938   1.397   5.044
 4210SOL     OW13528   3.187   3.302   1.998
 4210SOL    HW113529   3.168   3.356   1.916
 4210SOL    HW213530   3.285   3.282   2.002
 4211SOL     OW13531   5.461   5.695   5.586
 4211SOL    HW113532   5.491   5.622   5.525
 4211SOL    HW213533   5.513   5.691   5.671
 4212SOL     OW13534   6.393   2.584   2.147
 4212SOL    HW113535   6.476   2.566   2.095
 4212SOL    HW213536   6.319   2.610   2.085
 4213SOL     OW13537   2.500   0.643   2.671
 4213SOL    HW113538   2.465   0.646   2.765
 4213SOL    HW213539   2.552   0.726   2.652
 4214SOL     OW13540   0.934   4.029   6.165
 4214SOL    HW113541   0.948   4.040   6.263
 4214SOL    HW213542   0.902   4.115   6.126
 4215SOL     OW13543   6.973   5.619   4.803
 4215SOL    HW113544   6.922   5.625   4.717
 4215SOL    HW213545   6.937   5.684   4.868
 4216SOL     OW13546   1.393   2.012   3.739
 4216SOL    HW113547   1.336   2.092   3.757
 4216SOL    HW213548   1.448   2.028   3.657
 4217SOL     OW13549   6.917   0.296   3.134
 4217SOL    HW113550   6.990   0.260   3.077
 4217SOL    HW213551   6.866   0.366   3.084
 4218SOL     OW13552   5.076   7.022   1.775
 4218SOL    HW113553   5.074   6.998   1.872
 4218SOL    HW213554   5.164   0.037   1.754
 4219SOL     OW13555   3.038   4.793   5.233
 4219SOL    HW113556   2.958   4.851   5.248
 4219SOL    HW213557   3.010   4.708   5.191
 4220SOL     OW13558   6.450   3.699   2.976
 4220SOL    HW113559   6.511   3.739   3.044
 4220SOL    HW213560   6.394   3.770   2.935
 4221SOL     OW13561   6.611   5.831   6.075
 4221SOL    HW113562   6.591   5.862   5.982
 4221SOL    HW213563   6.542   5.866   6.138
 4222SOL     OW13564   6.107   1.954   1.985
 4222SOL    HW113565   6.201   1.982   1.966
 4222SOL    HW213566   6.083   1.979   2.079
 4223SOL     OW13567   4.029   3.172   3.360
 4223SOL    HW113568   4.072   3.226   3.287
 4223SOL    HW213569   3.931   3.190   3.361
 4224SOL     OW13570   5.021   3.371   3.858
 4224SOL    HW113571   4.980   3.280   3.871
 4224SOL    HW213572   4.994   3.430   3.934
 4225SOL     OW13573   5.726   0.632   5.355
 4225SOL    HW113574   5.681   0.609   5.269
 4225SOL    HW213575   5.821   0.659   5.336
 4226SOL     OW13576   2.116   1.058   3.504
 4226SOL    HW113577   2.072   1.120   3.439
 4226SOL    HW213578   2.117   0.965   3.467
 4227SOL     OW13579   3.350   3.941   6.568
 4227SOL    HW113580   3.402   3.964   6.651
 4227SOL    HW213581   3.380   4.000   6.493
 4228SOL     OW13582   5.450   5.815   4.078
 4228SOL    HW113583   5.380   5.753   4.043
 4228SOL    HW213584   5.493   5.775   4.159
 4229SOL     OW13585   3.837   4.816   5.823
 4229SOL    HW113586   3.823   4.735   5.766
 4229SOL    HW213587   3.764   4.882   5.805
 4230SOL     OW13588   2.432   0.253   4.794
 4230SOL    HW113589   2.352   0.218   4.746
 4230SOL    HW213590   2.407   0.283   4.886
 4231SOL     OW13591   5.251   6.378   5.353
 4231SOL    HW113592   5.175   6.442   5.363
 4231SOL    HW213593   5.329   6.409   5.407
 4232SOL     OW13594   0.612   5.148   2.285
 4232SOL    HW113595   0.539   5.207   2.251
 4232SOL    HW213596   0.671   5.120   2.209
 4233SOL     OW13597   6.223   0.279   0.370
 4233SOL    HW113598   6.290   0.279   0.296
 4233SOL    HW213599   6.247   0.350   0.437
 4234SOL     OW13600   2.018   5.420   5.666
 4234SOL    HW113601   1.994   5.421   5.569
 4234SOL    HW213602   2.052   5.329   5.692
 4235SOL     OW13603   6.377   4.399   5.416
 4235SOL    HW113604   6.420   4.414   5.505
 4235SOL    HW213605   6.311   4.324   5.424
 4236SOL     OW13606   6.701   3.325   3.866
 4236SOL    HW113607   6.652   3.352   3.783
 4236SOL    HW213608   6.649   3.255   3.915
 4237SOL     OW13609   6.463   4.403   4.365
 4237SOL    HW113610   6.414   4.488   4.386
 4237SOL    HW213611   6.529   4.421   4.291
 4238SOL     OW13612   4.220   4.675   3.835
 4238SOL    HW113613   4.239   4.713   3.745
 4238SOL    HW213614   4.230   4.576   3.833
 4239SOL     OW13615   4.976   6.990   4.302
 4239SOL    HW113616   4.963   0.018   4.383
 4239SOL    HW213617   5.067   7.004   4.265
 4240SOL     OW13618   2.895   6.507   6.207
 4240SOL    HW113619   2.825   6.457   6.156
 4240SOL    HW213620   2.986   6.480   6.174
 4241SOL     OW13621   5.473   0.393   0.932
 4241SOL    HW113622   5.424   0.307   0.914
 4241SOL    HW213623   5.421   0.469   0.894
 4242SOL     OW13624   2.314   6.613   3.298
 4242SOL    HW113625   2.354   6.658   3.218
 4242SOL    HW213626   2.348   6.657   3.381
 4243SOL     OW13627   0.334   3.816   2.371
 4243SOL    HW113628   0.374   3.739   2.322
 4243SOL    HW213629   0.259   3.855   2.316
 4244SOL     OW13630   5.120   5.913   0.930
 4244SOL    HW113631   5.081   5.894   0.840
 4244SOL    HW213632   5.133   6.011   0.940
 4245SOL     OW13633   6.528   2.750   0.046
 4245SOL    HW113634   6.601   2.686   0.069
 4245SOL    HW213635   6.469   2.763   0.126
 4246SOL     OW13636   5.148   2.640   2.598
 4246SOL    HW113637   5.115   2.732   2.620
 4246SOL    HW213638   5.209   2.644   2.520
 4247SOL     OW13639   2.523   5.814   4.059
 4247SOL    HW113640   2.614   5.783   4.086
 4247SOL    HW213641   2.528   5.856   3.969
 4248SOL     OW13642   1.547   0.367   3.284
 4248SOL    HW113643   1.614   0.296   3.262
 4248SOL    HW213644   1.592   0.438   3.338
 4249SOL     OW13645   0.279   1.542   3.845
 4249SOL    HW113646   0.202   1.606   3.846
 4249SOL    HW213647   0.291   1.503   3.937
 4250SOL     OW13648   0.248   5.865   4.229
 4250SOL    HW113649   0.287   5.921   4.302
 4250SOL    HW213650   0.154   5.840   4.251
 4251SOL     OW13651   6.025   2.498   0.106
 4251SOL    HW113652   6.093   2.509   0.034
 4251SOL    HW213653   6.062   2.533   0.192
 4252SOL     OW13654   6.223   5.521   6.115
 4252SOL    HW113655   6.226   5.434   6.163
 4252SOL    HW213656   6.151   5.578   6.155
 4253SOL     OW13657   4.127   6.441   2.062
 4253SOL    HW113658   4.136   6.411   2.157
 4253SOL    HW213659   4.128   6.362   2.001
 4254SOL     OW13660   2.024   4.209   0.731
 4254SOL    HW113661   1.997   4.304   0.718
 4254SOL    HW213662   2.121   4.204   0.757
 4255SOL     OW13663   0.620   4.267   3.835
 4255SOL    HW113664   0.684   4.197   3.868
 4255SOL    HW213665   0.666   4.323   3.766
 4256SOL     OW13666   1.122   5.486   0.981
 4256SOL    HW113667   1.039   5.493   0.925
 4256SOL    HW213668   1.108   5.533   1.068
 4257SOL     OW13669   5.989   1.662   5.088
 4257SOL    HW113670   6.061   1.702   5.031
 4257SOL    HW213671   5.973   1.721   5.167
 4258SOL     OW13672   3.320   5.674   1.065
 4258SOL    HW113673   3.350   5.622   0.985
 4258SOL    HW213674   3.260   5.749   1.035
 4259SOL     OW13675   1.455   0.067   1.595
 4259SOL    HW113676   1.377   0.004   1.592
 4259SOL    HW213677   1.421   0.162   1.590
 4260SOL     OW13678   4.887   0.401   4.417
 4260SOL    HW113679   4.793   0.429   4.400
 4260SOL    HW213680   4.887   0.310   4.459
 4261SOL     OW13681   2.061   0.451   4.013
 4261SOL    HW113682   1.964   0.474   4.004
 4261SOL    HW213683   2.097   0.493   4.096
 4262SOL     OW13684   2.048   5.085   5.619
 4262SOL    HW113685   2.040   5.117   5.713
 4262SOL    HW213686   2.007   4.994   5.611
 4263SOL     OW13687   2.959   2.272   3.443
 4263SOL    HW113688   2.902   2.268   3.360
 4263SOL    HW213689   3.054   2.254   3.419
 4264SOL     OW13690   5.896   1.381   4.145
 4264SOL    HW113691   5.887   1.286   4.115
 4264SOL    HW213692   5.922   1.439   4.068
 4265SOL     OW13693   3.591   6.975   0.740
 4265SOL    HW113694   3.509   6.925   0.710
 4265SOL    HW213695   3.580   0.044   0.716
 4266SOL     OW13696   1.310   0.508   0.004
 4266SOL    HW113697   1.239   0.453   0.047
 4266SOL    HW213698   1.368   0.449   6.976
 4267SOL     OW13699   2.288   4.146   4.102
 4267SOL    HW113700   2.286   4.111   4.008
 4267SOL    HW213701   2.224   4.094   4.158
 4268SOL     OW13702   1.474   5.027   6.885
 4268SOL    HW113703   1.399   5.005   6.822
 4268SOL    HW213704   1.489   5.126   6.886
 4269SOL     OW13705   3.525   1.567   3.711
 4269SOL    HW113706   3.526   1.620   3.627
 4269SOL    HW213707   3.552   1.626   3.788
 4270SOL     OW13708   3.437   3.213   1.370
 4270SOL    HW113709   3.343   3.247   1.372
 4270SOL    HW213710   3.498   3.285   1.335
 4271SOL     OW13711   5.903   0.887   1.275
 4271SOL    HW113712   5.811   0.922   1.294
 4271SOL    HW213713   5.938   0.928   1.191
 4272SOL     OW13714   6.906   3.038   5.831
 4272SOL    HW113715   6.971   3.092   5.778
 4272SOL    HW213716   6.825   3.093   5.852
 4273SOL     OW13717   4.805   6.396   5.518
 4273SOL    HW113718   4.712   6.390   5.480
 4273SOL    HW213719   4.839   6.304   5.537
 4274SOL     OW13720   0.772   6.656   2.289
 4274SOL    HW113721   0.871   6.662   2.281
 4274SOL    HW213722   0.747   6.572   2.336
 4275SOL     OW13723   0.085   2.246   4.295
 4275SOL    HW113724   0.019   2.183   4.254
 4275SOL    HW213725   0.163   2.257   4.234
 4276SOL     OW13726   3.048   4.879   4.003
 4276SOL    HW113727   2.985   4.803   3.989
 4276SOL    HW213728   3.065   4.890   4.101
 4277SOL     OW13729   6.878   4.609   3.852
 4277SOL    HW113730   6.956   4.667   3.824
 4277SOL    HW213731   6.874   4.604   3.952
 4278SOL     OW13732   6.501   6.537   3.136
 4278SOL    HW113733   6.424   6.543   3.200
 4278SOL    HW213734   6.474   6.577   3.048
 4279SOL     OW13735   1.471   1.513   2.670
 4279SOL    HW113736   1.469   1.417   2.697
 4279SOL    HW213737   1.508   1.568   2.745
 4280SOL     OW13738   6.726   6.653   6.332
 4280SOL    HW113739   6.662   6.721   6.297
 4280SOL    HW213740   6.681   6.601   6.405
 4281SOL     OW13741   4.681   5.708   4.048
 4281SOL    HW113742   4.616   5.741   3.981
 4281SOL    HW213743   4.741   5.640   4.006
 4282SOL     OW13744   3.125   3.958   0.688
 4282SOL    HW113745   3.093   4.033   0.746
 4282SOL    HW213746   3.189   3.994   0.620
 4283SOL     OW13747   5.112   0.980   3.041
 4283SOL    HW113748   5.062   0.951   3.123
 4283SOL    HW213749   5.205   0.942   3.044
 4284SOL     OW13750   4.277   5.371   0.281
 4284SOL    HW113751   4.326   5.444   0.232
 4284SOL    HW213752   4.325   5.285   0.269
 4285SOL     OW13753   3.691   0.649   6.213
 4285SOL    HW113754   3.746   0.580   6.260
 4285SOL    HW213755   3.646   0.707   6.281
 4286SOL     OW13756   6.676   0.755   0.170
 4286SOL    HW113757   6.736   0.679   0.144
 4286SOL    HW213758   6.723   0.842   0.151
 4287SOL     OW13759   4.330   0.923   0.089
 4287SOL    HW113760   4.259   0.981   0.050
 4287SOL    HW213761   4.407   0.979   0.118
 4288SOL     OW13762   6.305   5.986   1.796
 4288SOL    HW113763   6.308   6.025   1.888
 4288SOL    HW213764   6.288   6.059   1.730
 4289SOL     OW13765   0.442   2.418   5.331
 4289SOL    HW113766   0.489   2.339   5.370
 4289SOL    HW213767   0.502   2.464   5.266
 4290SOL     OW13768   0.090   0.023   3.255
 4290SOL    HW113769   0.108   6.957   3.228
 4290SOL    HW213770   0.155   0.051   3.325
 4291SOL     OW13771   4.901   2.966   6.171
 4291SOL    HW113772   4.868   2.994   6.081
 4291SOL    HW213773   4.987   3.013   6.190
 4292SOL     OW13774   5.144   2.102   0.154
 4292SOL    HW113775   5.126   2.050   0.237
 4292SOL    HW213776   5.079   2.177   0.146
 4293SOL     OW13777   5.031   3.769   6.827
 4293SOL    HW113778   5.045   3.746   6.731
 4293SOL    HW213779   4.962   3.841   6.834
 4294SOL     OW13780   2.792   1.597   6.166
 4294SOL    HW113781   2.822   1.600   6.071
 4294SOL    HW213782   2.868   1.569   6.225
 4295SOL     OW13783   4.175   6.437   2.360
 4295SOL    HW113784   4.199   6.530   2.332
 4295SOL    HW213785   4.212   6.419   2.451
 4296SOL     OW13786   3.142   6.870   0.904
 4296SOL    HW113787   3.119   6.786   0.955
 4296SOL    HW213788   3.182   6.936   0.967
 4297SOL     OW13789   6.862   5.561   1.121
 4297SOL    HW113790   6.934   5.598   1.181
 4297SOL    HW213791   6.868   5.461   1.120
 4298SOL     OW13792   3.918   5.911   1.519
 4298SOL    HW113793   3.945   6.007   1.510
 4298SOL    HW213794   3.850   5.889   1.449
 4299SOL     OW13795   0.769   2.687   6.952
 4299SOL    HW113796   0.791   2.603   7.003
 4299SOL    HW213797   0.705   2.742   7.005
 4300SOL     OW13798   3.071   0.237   1.077
 4300SOL    HW113799   3.155   0.189   1.049
 4300SOL    HW213800   3.095   0.324   1.119
 4301SOL     OW13801   2.937   6.145   1.404
 4301SOL    HW113802   2.985   6.233   1.412
 4301SOL    HW213803   2.878   6.133   1.484
 4302SOL     OW13804   0.332   6.809   6.884
 4302SOL    HW113805   0.367   6.888   6.934
 4302SOL    HW213806   0.279   6.751   6.946
 4303SOL     OW13807   0.048   4.755   3.741
 4303SOL    HW113808   0.062   4.844   3.697
 4303SOL    HW213809   0.052   4.683   3.672
 4304SOL     OW13810   3.593   4.276   1.881
 4304SOL    HW113811   3.597   4.362   1.830
 4304SOL    HW213812   3.507   4.229   1.861
 4305SOL     OW13813   0.840   6.978   5.541
 4305SOL    HW113814   0.747   6.941   5.542
 4305SOL    HW213815   0.842   0.032   5.485
 4306SOL     OW13816   4.939   3.756   4.798
 4306SOL    HW113817   4.876   3.826   4.765
 4306SOL    HW213818   4.893   3.698   4.865
 4307SOL     OW13819   6.200   2.706   5.570
 4307SOL    HW113820   6.150   2.662   5.644
 4307SOL    HW213821   6.179   2.804   5.568
 4308SOL     OW13822   5.110   5.394   1.723
 4308SOL    HW113823   5.145   5.488   1.728
 4308SOL    HW213824   5.174   5.332   1.769
 4309SOL     OW13825   0.820   3.462   6.574
 4309SOL    HW113826   0.799   3.557   6.552
 4309SOL    HW213827   0.819   3.450   6.673
 4310SOL     OW13828   1.525   2.219   2.859
 4310SOL    HW113829   1.453   2.248   2.795
 4310SOL    HW213830   1.568   2.136   2.824
 4311SOL     OW13831   1.418   6.139   2.367
 4311SOL    HW113832   1.460   6.066   2.422
 4311SOL    HW213833   1.478   6.219   2.366
 4312SOL     OW13834   0.932   5.048   2.457
 4312SOL    HW113835   0.866   5.102   2.510
 4312SOL    HW213836   0.931   4.953   2.488
 4313SOL     OW13837   4.571   1.793   0.315
 4313SOL    HW113838   4.538   1.744   0.396
 4313SOL    HW213839   4.518   1.876   0.302
 4314SOL     OW13840   6.758   2.384   5.954
 4314SOL    HW113841   6.722   2.381   6.047
 4314SOL    HW213842   6.830   2.454   5.948
 4315SOL     OW13843   1.980   1.923   2.893
 4315SOL    HW113844   1.947   2.017   2.881
 4315SOL    HW213845   1.949   1.867   2.816
 4316SOL     OW13846   4.707   0.886   2.748
 4316SOL    HW113847   4.692   0.823   2.673
 4316SOL    HW213848   4.782   0.948   2.726
 4317SOL     OW13849   4.566   0.777   5.299
 4317SOL    HW113850   4.614   0.850   5.347
 4317SOL    HW213851   4.583   0.690   5.343
 4318SOL     OW13852   0.463   0.911   4.216
 4318SOL    HW113853   0.527   0.834   4.219
 4318SOL    HW213854   0.369   0.876   4.212
 4319SOL     OW13855   1.422   2.036   1.740
 4319SOL    HW113856   1.520   2.056   1.739
 4319SOL    HW213857   1.402   1.971   1.814
 4320SOL     OW13858   3.942   6.295   0.564
 4320SOL    HW113859   3.882   6.227   0.521
 4320SOL    HW213860   4.007   6.330   0.497
 4321SOL     OW13861   6.631   5.952   3.210
 4321SOL    HW113862   6.703   5.996   3.157
 4321SOL    HW213863   6.599   6.014   3.282
 4322SOL     OW13864   0.824   2.562   5.336
 4322SOL    HW113865   0.839   2.475   5.289
 4322SOL    HW213866   0.888   2.571   5.413
 4323SOL     OW13867   4.406   5.232   0.055
 4323SOL    HW113868   4.344   5.290   0.001
 4323SOL    HW213869   4.366   5.141   0.065
 4324SOL     OW13870   6.964   3.810   5.550
 4324SOL    HW113871   6.983   3.735   5.614
 4324SOL    HW213872   0.013   3.822   5.488
 4325SOL     OW13873   2.764   1.306   2.741
 4325SOL    HW113874   2.742   1.392   2.788
 4325SOL    HW213875   2.789   1.326   2.646
 4326SOL     OW13876   5.049   2.914   2.635
 4326SOL    HW113877   5.107   2.942   2.712
 4326SOL    HW213878   5.073   2.967   2.554
 4327SOL     OW13879   3.521   5.328   3.131
 4327SOL    HW113880   3.537   5.275   3.048
 4327SOL    HW213881   3.575   5.290   3.206
 4328SOL     OW13882   5.834   4.800   4.740
 4328SOL    HW113883   5.784   4.869   4.793
 4328SOL    HW213884   5.908   4.762   4.796
 4329SOL     OW13885   5.673   3.163   5.358
 4329SOL    HW113886   5.697   3.169   5.262
 4329SOL    HW213887   5.601   3.094   5.370
 4330SOL     OW13888   2.624   6.253   5.031
 4330SOL    HW113889   2.720   6.226   5.023
 4330SOL    HW213890   2.617   6.330   5.095
 4331SOL     OW13891   0.121   0.478   1.453
 4331SOL    HW113892   0.050   0.426   1.405
 4331SOL    HW213893   0.174   0.531   1.388
 4332SOL     OW13894   6.106   3.709   3.031
 4332SOL    HW113895   6.023   3.701   3.086
 4332SOL    HW213896   6.099   3.650   2.950
 4333SOL     OW13897   4.804   2.415   4.806
 4333SOL    HW113898   4.886   2.440   4.756
 4333SOL    HW213899   4.829   2.381   4.896
 4334SOL     OW13900   0.868   2.752   2.524
 4334SOL    HW113901   0.918   2.819   2.469
 4334SOL    HW213902   0.770   2.770   2.519
 4335SOL     OW13903   3.105   3.012   0.643
 4335SOL    HW113904   3.097   2.945   0.717
 4335SOL    HW213905   3.075   3.102   0.676
 4336SOL     OW13906   1.909   5.315   5.445
 4336SOL    HW113907   1.961   5.348   5.366
 4336SOL    HW213908   1.897   5.216   5.438
 4337SOL     OW13909   1.257   5.873   2.605
 4337SOL    HW113910   1.235   5.969   2.591
 4337SOL    HW213911   1.191   5.816   2.556
 4338SOL     OW13912   6.284   6.752   5.977
 4338SOL    HW113913   6.198   6.726   5.934
 4338SOL    HW213914   6.345   6.790   5.908
 4339SOL     OW13915   4.034   2.467   0.179
 4339SOL    HW113916   3.961   2.427   0.123
 4339SOL    HW213917   4.122   2.431   0.148
 4340SOL     OW13918   5.993   3.541   0.875
 4340SOL    HW113919   6.020   3.471   0.809
 4340SOL    HW213920   6.075   3.576   0.921
 4341SOL     OW13921   0.903   5.857   2.296
 4341SOL    HW113922   0.836   5.832   2.227
 4341SOL    HW213923   0.863   5.847   2.387
 4342SOL     OW13924   4.968   3.448   2.960
 4342SOL    HW113925   4.928   3.539   2.952
 4342SOL    HW213926   5.064   3.456   2.987
 4343SOL     OW13927   3.621   0.220   5.908
 4343SOL    HW113928   3.606   0.241   6.004
 4343SOL    HW213929   3.559   0.276   5.852
 4344SOL     OW13930   0.269   3.124   3.779
 4344SOL    HW113931   0.355   3.146   3.826
 4344SOL    HW213932   0.195   3.121   3.846
 4345SOL     OW13933   3.074   3.549   2.698
 4345SOL    HW113934   3.033   3.638   2.719
 4345SOL    HW213935   3.162   3.562   2.653
 4346SOL     OW13936   2.210   2.921   3.030
 4346SOL    HW113937   2.117   2.948   3.056
 4346SOL    HW213938   2.206   2.861   2.951
 4347SOL     OW13939   6.398   5.874   1.053
 4347SOL    HW113940   6.388   5.775   1.062
 4347SOL    HW213941   6.386   5.900   0.957
 4348SOL     OW13942   6.471   5.979   3.964
 4348SOL    HW113943   6.420   5.946   4.043
 4348SOL    HW213944   6.556   5.927   3.954
 4349SOL     OW13945   0.403   4.126   3.648
 4349SOL    HW113946   0.430   4.035   3.678
 4349SOL    HW213947   0.441   4.195   3.710
 4350SOL     OW13948   5.624   1.689   4.820
 4350SOL    HW113949   5.611   1.787   4.814
 4350SOL    HW213950   5.542   1.642   4.787
 4351SOL     OW13951   1.509   6.088   1.750
 4351SOL    HW113952   1.517   6.164   1.814
 4351SOL    HW213953   1.495   6.124   1.657
 4352SOL     OW13954   5.657   4.189   1.080
 4352SOL    HW113955   5.691   4.195   1.174
 4352SOL    HW213956   5.578   4.128   1.077
 4353SOL     OW13957   3.271   3.379   6.744
 4353SOL    HW113958   3.221   3.446   6.690
 4353SOL    HW213959   3.368   3.400   6.743
 4354SOL     OW13960   0.402   0.364   4.817
 4354SOL    HW113961   0.371   0.344   4.910
 4354SOL    HW213962   0.497   0.394   4.819
 4355SOL     OW13963   1.251   0.024   3.940
 4355SOL    HW113964   1.344   0.024   3.977
 4355SOL    HW213965   1.254   0.023   3.840
 4356SOL     OW13966   4.913   3.334   5.872
 4356SOL    HW113967   4.865   3.328   5.785
 4356SOL    HW213968   5.006   3.366   5.857
 4357SOL     OW13969   6.548   1.398   2.310
 4357SOL    HW113970   6.589   1.485   2.338
 4357SOL    HW213971   6.452   1.413   2.287
 4358SOL     OW13972   0.141   1.194   0.212
 4358SOL    HW113973   0.201   1.173   0.288
 4358SOL    HW213974   0.172   1.146   0.130
 4359SOL     OW13975   2.192   0.712   6.264
 4359SOL    HW113976   2.097   0.736   6.286
 4359SOL    HW213977   2.210   0.618   6.293
 4360SOL     OW13978   0.947   2.800   3.482
 4360SOL    HW113979   0.950   2.821   3.580
 4360SOL    HW213980   0.853   2.774   3.456
 4361SOL     OW13981   1.832   2.316   1.045
 4361SOL    HW113982   1.759   2.356   0.990
 4361SOL    HW213983   1.900   2.275   0.985
 4362SOL     OW13984   0.868   6.360   4.241
 4362SOL    HW113985   0.966   6.370   4.225
 4362SOL    HW213986   0.852   6.280   4.300
 4363SOL     OW13987   4.484   0.518   3.176
 4363SOL    HW113988   4.482   0.453   3.100
 4363SOL    HW213989   4.402   0.576   3.172
 4364SOL     OW13990   2.964   3.819   2.753
 4364SOL    HW113991   2.909   3.835   2.671
 4364SOL    HW213992   2.998   3.906   2.788
 4365SOL     OW13993   2.822   2.053   1.600
 4365SOL    HW113994   2.744   2.100   1.643
 4365SOL    HW213995   2.899   2.053   1.664
 4366SOL     OW13996   5.463   5.868   5.370
 4366SOL    HW113997   5.434   5.959   5.400
 4366SOL    HW213998   5.478   5.810   5.450
 4367SOL     OW13999   3.124   4.902   2.880
 4367SOL    HW114000   3.137   4.865   2.788
 4367SOL    HW214001   3.179   4.985   2.891
 4368SOL     OW14002   4.256   6.202   2.506
 4368SOL    HW114003   4.353   6.207   2.531
 4368SOL    HW214004   4.245   6.231   2.411
 4369SOL     OW14005   5.170   5.532   3.418
 4369SOL    HW114006   5.205   5.555   3.327
 4369SOL    HW214007   5.196   5.439   3.441
 4370SOL     OW14008   3.797   4.086   1.591
 4370SOL    HW114009   3.830   4.007   1.540
 4370SOL    HW214010   3.699   4.099   1.574
 4371SOL     OW14011   2.856   0.453   2.391
 4371SOL    HW114012   2.937   0.478   2.444
 4371SOL    HW214013   2.778   0.444   2.453
 4372SOL     OW14014   1.427   2.878   4.739
 4372SOL    HW114015   1.462   2.873   4.832
 4372SOL    HW214016   1.335   2.838   4.735
 4373SOL     OW14017   4.435   0.756   6.164
 4373SOL    HW114018   4.498   0.738   6.239
 4373SOL    HW214019   4.343   0.727   6.191
 4374SOL     OW14020   2.508   1.993   0.993
 4374SOL    HW114021   2.493   1.958   1.086
 4374SOL    HW214022   2.447   1.946   0.930
 4375SOL     OW14023   3.614   0.053   3.691
 4375SOL    HW114024   3.579   0.145   3.676
 4375SOL    HW214025   3.559   0.008   3.761
 4376SOL     OW14026   6.546   6.037   1.414
 4376SOL    HW114027   6.582   6.131   1.418
 4376SOL    HW214028   6.586   5.983   1.487
 4377SOL     OW14029   6.359   5.937   0.373
 4377SOL    HW114030   6.262   5.914   0.374
 4377SOL    HW214031   6.371   6.036   0.384
 4378SOL     OW14032   1.547   5.103   2.050
 4378SOL    HW114033   1.615   5.032   2.066
 4378SOL    HW214034   1.512   5.094   1.956
 4379SOL     OW14035   2.092   0.438   1.803
 4379SOL    HW114036   2.149   0.512   1.837
 4379SOL    HW214037   2.042   0.397   1.880
 4380SOL     OW14038   2.119   5.997   4.724
 4380SOL    HW114039   2.112   6.062   4.649
 4380SOL    HW214040   2.096   6.043   4.810
 4381SOL     OW14041   3.417   5.514   4.606
 4381SOL    HW114042   3.477   5.472   4.674
 4381SOL    HW214043   3.340   5.559   4.652
 4382SOL     OW14044   4.672   4.317   4.329
 4382SOL    HW114045   4.598   4.366   4.374
 4382SOL    HW214046   4.757   4.333   4.377
 4383SOL     OW14047   1.352   1.806   5.529
 4383SOL    HW114048   1.399   1.891   5.506
 4383SOL    HW214049   1.418   1.732   5.538
 4384SOL     OW14050   4.250   0.337   1.417
 4384SOL    HW114051   4.181   0.271   1.445
 4384SOL    HW214052   4.341   0.295   1.423
 4385SOL     OW14053   6.973   1.733   4.045
 4385SOL    HW114054   7.025   1.723   3.960
 4385SOL    HW214055   6.878   1.704   4.030
 4386SOL     OW14056   0.970   4.138   6.424
 4386SOL    HW114057   1.025   4.163   6.504
 4386SOL    HW214058   0.947   4.221   6.373
 4387SOL     OW14059   6.671   2.426   1.302
 4387SOL    HW114060   6.747   2.426   1.237
 4387SOL    HW214061   6.700   2.383   1.388
 4388SOL     OW14062   3.930   0.692   6.526
 4388SOL    HW114063   3.919   0.773   6.467
 4388SOL    HW214064   4.019   0.696   6.571
 4389SOL     OW14065   5.456   2.393   1.415
 4389SOL    HW114066   5.508   2.313   1.384
 4389SOL    HW214067   5.388   2.417   1.347
 4390SOL     OW14068   4.452   2.272   1.967
 4390SOL    HW114069   4.438   2.197   2.031
 4390SOL    HW214070   4.367   2.289   1.916
 4391SOL     OW14071   1.351   5.822   6.632
 4391SOL    HW114072   1.361   5.807   6.730
 4391SOL    HW214073   1.308   5.911   6.616
 4392SOL     OW14074   5.200   3.435   4.944
 4392SOL    HW114075   5.242   3.412   5.032
 4392SOL    HW214076   5.109   3.396   4.939
 4393SOL     OW14077   4.464   0.024   3.622
 4393SOL    HW114078   4.552   0.035   3.576
 4393SOL    HW214079   4.470   6.978   3.688
 4394SOL     OW14080   5.878   5.866   2.743
 4394SOL    HW114081   5.903   5.944   2.801
 4394SOL    HW214082   5.779   5.868   2.726
 4395SOL     OW14083   4.327   1.787   0.918
 4395SOL    HW114084   4.340   1.780   1.017
 4395SOL    HW214085   4.353   1.700   0.875
 4396SOL     OW14086   2.024   1.867   4.403
 4396SOL    HW114087   1.944   1.846   4.346
 4396SOL    HW214088   2.060   1.782   4.441
 4397SOL     OW14089   0.557   1.440   4.041
 4397SOL    HW114090   0.549   1.447   3.941
 4397SOL    HW214091   0.466   1.446   4.082
 4398SOL     OW14092   1.477   4.538   4.519
 4398SOL    HW114093   1.497   4.447   4.556
 4398SOL    HW214094   1.513   4.607   4.581
 4399SOL     OW14095   2.843   0.583   0.949
 4399SOL    HW114096   2.844   0.519   0.872
 4399SOL    HW214097   2.771   0.557   1.013
 4400SOL     OW14098   1.826   6.871   4.361
 4400SOL    HW114099   1.794   6.964   4.342
 4400SOL    HW214100   1.859   6.829   4.277
 4401SOL     OW14101   5.814   6.096   5.309
 4401SOL    HW114102   5.894   6.124   5.363
 4401SOL    HW214103   5.814   5.996   5.299
 4402SOL     OW14104   1.131   5.693   3.224
 4402SOL    HW114105   1.070   5.680   3.146
 4402SOL    HW214106   1.077   5.717   3.305
 4403SOL     OW14107   6.660   0.234   3.263
 4403SOL    HW114108   6.667   0.247   3.164
 4403SOL    HW214109   6.569   0.197   3.285
 4404SOL     OW14110   1.031   3.680   4.563
 4404SOL    HW114111   0.961   3.609   4.575
 4404SOL    HW214112   1.115   3.638   4.528
 4405SOL     OW14113   3.103   4.609   5.581
 4405SOL    HW114114   3.184   4.667   5.573
 4405SOL    HW214115   3.131   4.513   5.573
 4406SOL     OW14116   4.834   4.971   1.100
 4406SOL    HW114117   4.804   4.884   1.138
 4406SOL    HW214118   4.927   4.962   1.065
 4407SOL     OW14119   7.013   5.796   0.577
 4407SOL    HW114120   0.008   5.721   0.515
 4407SOL    HW214121   6.984   5.758   0.665
 4408SOL     OW14122   4.636   0.602   1.036
 4408SOL    HW114123   4.568   0.674   1.022
 4408SOL    HW214124   4.601   0.537   1.103
 4409SOL     OW14125   4.081   1.282   1.843
 4409SOL    HW114126   4.005   1.296   1.779
 4409SOL    HW214127   4.047   1.288   1.937
 4410SOL     OW14128   2.378   4.327   0.065
 4410SOL    HW114129   2.282   4.345   0.083
 4410SOL    HW214130   2.395   4.229   0.073
 4411SOL     OW14131   3.385   3.167   2.878
 4411SOL    HW114132   3.287   3.177   2.864
 4411SOL    HW214133   3.409   3.070   2.884
 4412SOL     OW14134   4.543   1.655   5.502
 4412SOL    HW114135   4.539   1.566   5.547
 4412SOL    HW214136   4.465   1.710   5.532
 4413SOL     OW14137   4.576   5.791   4.756
 4413SOL    HW114138   4.579   5.888   4.733
 4413SOL    HW214139   4.526   5.741   4.686
 4414SOL     OW14140   4.772   5.061   2.373
 4414SOL    HW114141   4.867   5.030   2.367
 4414SOL    HW214142   4.770   5.160   2.387
 4415SOL     OW14143   5.474   3.394   6.437
 4415SOL    HW114144   5.453   3.296   6.429
 4415SOL    HW214145   5.403   3.447   6.392
 4416SOL     OW14146   2.888   1.762   4.110
 4416SOL    HW114147   2.973   1.743   4.159
 4416SOL    HW214148   2.898   1.849   4.060
 4417SOL     OW14149   6.850   4.609   2.744
 4417SOL    HW114150   6.879   4.705   2.751
 4417SOL    HW214151   6.929   4.549   2.753
 4418SOL     OW14152   4.218   6.709   4.057
 4418SOL    HW114153   4.262   6.674   3.974
 4418SOL    HW214154   4.164   6.636   4.099
 4419SOL     OW14155   5.679   5.737   0.476
 4419SOL    HW114156   5.655   5.676   0.400
 4419SOL    HW214157   5.623   5.715   0.555
 4420SOL     OW14158   4.401   1.050   0.533
 4420SOL    HW114159   4.416   1.138   0.490
 4420SOL    HW214160   4.482   1.023   0.585
 4421SOL     OW14161   2.364   1.419   2.476
 4421SOL    HW114162   2.377   1.359   2.397
 4421SOL    HW214163   2.345   1.512   2.444
 4422SOL     OW14164   2.689   2.892   5.787
 4422SOL    HW114165   2.672   2.834   5.866
 4422SOL    HW214166   2.679   2.838   5.703
 4423SOL     OW14167   1.045   2.247   5.562
 4423SOL    HW114168   1.006   2.207   5.645
 4423SOL    HW214169   1.021   2.190   5.483
 4424SOL     OW14170   5.048   6.876   3.172
 4424SOL    HW114171   5.111   6.879   3.249
 4424SOL    HW214172   4.981   6.803   3.187
 4425SOL     OW14173   3.563   5.551   6.151
 4425SOL    HW114174   3.548   5.567   6.249
 4425SOL    HW214175   3.661   5.551   6.132
 4426SOL     OW14176   6.999   0.971   5.277
 4426SOL    HW114177   0.026   0.888   5.260
 4426SOL    HW214178   6.915   0.945   5.324
 4427SOL     OW14179   0.430   0.790   2.852
 4427SOL    HW114180   0.469   0.877   2.883
 4427SOL    HW214181   0.378   0.749   2.926
 4428SOL     OW14182   2.853   4.754   4.219
 4428SOL    HW114183   2.790   4.823   4.255
 4428SOL    HW214184   2.817   4.718   4.133
 4429SOL     OW14185   3.273   0.224   3.878
 4429SOL    HW114186   3.190   0.278   3.865
 4429SOL    HW214187   3.347   0.261   3.822
 4430SOL     OW14188   4.404   2.377   3.521
 4430SOL    HW114189   4.362   2.309   3.461
 4430SOL    HW214190   4.503   2.369   3.517
 4431SOL     OW14191   3.178   1.084   2.497
 4431SOL    HW114192   3.115   1.134   2.438
 4431SOL    HW214193   3.271   1.117   2.483
 4432SOL     OW14194   3.482   2.899   3.846
 4432SOL    HW114195   3.418   2.929   3.917
 4432SOL    HW214196   3.462   2.804   3.820
 4433SOL     OW14197   6.391   0.441   3.719
 4433SOL    HW114198   6.449   0.383   3.661
 4433SOL    HW214199   6.386   0.401   3.811
 4434SOL     OW14200   4.861   1.276   4.488
 4434SOL    HW114201   4.859   1.185   4.446
 4434SOL    HW214202   4.865   1.345   4.417
 4435SOL     OW14203   3.613   3.361   0.769
 4435SOL    HW114204   3.677   3.400   0.703
 4435SOL    HW214205   3.638   3.390   0.861
 4436SOL     OW14206   3.250   2.013   6.938
 4436SOL    HW114207   3.307   2.032   6.859
 4436SOL    HW214208   3.235   2.098   6.990
 4437SOL     OW14209   4.340   0.863   4.521
 4437SOL    HW114210   4.332   0.780   4.577
 4437SOL    HW214211   4.416   0.852   4.457
 4438SOL     OW14212   4.371   1.736   7.000
 4438SOL    HW114213   4.398   1.655   0.025
 4438SOL    HW214214   4.451   1.773   6.952
 4439SOL     OW14215   0.829   5.152   1.437
 4439SOL    HW114216   0.852   5.243   1.402
 4439SOL    HW214217   0.733   5.149   1.462
 4440SOL     OW14218   1.943   5.408   6.952
 4440SOL    HW114219   2.019   5.345   6.964
 4440SOL    HW214220   1.875   5.367   6.891
 4441SOL     OW14221   6.152   1.640   1.609
 4441SOL    HW114222   6.210   1.714   1.643
 4441SOL    HW214223   6.056   1.670   1.607
 4442SOL     OW14224   3.356   6.490   3.674
 4442SOL    HW114225   3.370   6.585   3.643
 4442SOL    HW214226   3.313   6.438   3.601
 4443SOL     OW14227   1.130   2.239   6.779
 4443SOL    HW114228   1.216   2.221   6.732
 4443SOL    HW214229   1.071   2.296   6.721
 4444SOL     OW14230   4.118   6.093   6.369
 4444SOL    HW114231   4.064   6.176   6.385
 4444SOL    HW214232   4.080   6.043   6.292
 4445SOL     OW14233   1.230   0.944   6.311
 4445SOL    HW114234   1.297   0.874   6.337
 4445SOL    HW214235   1.238   0.963   6.213
 4446SOL     OW14236   6.152   0.910   1.469
 4446SOL    HW114237   6.080   0.874   1.409
 4446SOL    HW214238   6.116   0.921   1.562
 4447SOL     OW14239   5.071   3.434   5.587
 4447SOL    HW114240   5.100   3.496   5.514
 4447SOL    HW214241   5.149   3.416   5.647
 4448SOL     OW14242   3.019   3.964   0.065
 4448SOL    HW114243   3.000   3.884   0.123
 4448SOL    HW214244   2.970   3.955   7.007
 4449SOL     OW14245   3.506   0.591   6.015
 4449SOL    HW114246   3.595   0.585   6.061
 4449SOL    HW214247   3.518   0.573   5.917
 4450SOL     OW14248   3.458   2.932   3.064
 4450SOL    HW114249   3.487   2.861   3.000
 4450SOL    HW214250   3.538   2.985   3.093
 4451SOL     OW14251   5.635   4.214   2.638
 4451SOL    HW114252   5.606   4.216   2.734
 4451SOL    HW214253   5.659   4.307   2.609
 4452SOL     OW14254   5.957   6.121   4.548
 4452SOL    HW114255   5.933   6.171   4.464
 4452SOL    HW214256   5.874   6.103   4.601
 4453SOL     OW14257   5.998   3.113   0.850
 4453SOL    HW114258   5.942   3.121   0.933
 4453SOL    HW214259   6.090   3.149   0.869
 4454SOL     OW14260   5.352   2.078   1.112
 4454SOL    HW114261   5.314   2.171   1.121
 4454SOL    HW214262   5.425   2.079   1.044
 4455SOL     OW14263   3.056   6.385   0.813
 4455SOL    HW114264   3.097   6.300   0.779
 4455SOL    HW214265   2.969   6.365   0.858
 4456SOL     OW14266   2.431   5.187   2.441
 4456SOL    HW114267   2.350   5.149   2.487
 4456SOL    HW214268   2.497   5.216   2.510
 4457SOL     OW14269   4.327   2.476   6.799
 4457SOL    HW114270   4.318   2.440   6.706
 4457SOL    HW214271   4.237   2.476   6.843
 4458SOL     OW14272   1.987   3.154   6.709
 4458SOL    HW114273   1.953   3.061   6.696
 4458SOL    HW214274   1.959   3.211   6.631
 4459SOL     OW14275   5.217   0.035   4.219
 4459SOL    HW114276   5.259   0.052   4.308
 4459SOL    HW214277   5.288   0.023   4.150
 4460SOL     OW14278   2.254   3.151   6.524
 4460SOL    HW114279   2.246   3.242   6.484
 4460SOL    HW214280   2.250   3.082   6.452
 4461SOL     OW14281   1.079   0.241   2.566
 4461SOL    HW114282   1.041   0.169   2.624
 4461SOL    HW214283   1.144   0.296   2.618
 4462SOL     OW14284   6.687   4.223   1.258
 4462SOL    HW114285   6.782   4.198   1.276
 4462SOL    HW214286   6.627   4.144   1.275
 4463SOL     OW14287   1.943   2.738   6.951
 4463SOL    HW114288   1.892   2.652   6.958
 4463SOL    HW214289   1.904   2.804   7.015
 4464SOL     OW14290   6.093   5.073   0.626
 4464SOL    HW114291   6.171   5.035   0.578
 4464SOL    HW214292   6.124   5.134   0.699
 4465SOL     OW14293   1.888   6.194   2.654
 4465SOL    HW114294   1.980   6.192   2.694
 4465SOL    HW214295   1.821   6.204   2.727
 4466SOL     OW14296   0.842   0.910   2.902
 4466SOL    HW114297   0.816   0.933   2.808
 4466SOL    HW214298   0.918   0.969   2.930
 4467SOL     OW14299   0.772   6.954   3.653
 4467SOL    HW114300   0.768   0.016   3.610
 4467SOL    HW214301   0.864   6.937   3.688
 4468SOL     OW14302   0.457   1.785   0.199
 4468SOL    HW114303   0.504   1.850   0.260
 4468SOL    HW214304   0.387   1.834   0.147
 4469SOL     OW14305   2.894   6.876   1.788
 4469SOL    HW114306   2.855   6.924   1.710
 4469SOL    HW214307   2.890   6.777   1.773
 4470SOL     OW14308   5.597   3.288   1.736
 4470SOL    HW114309   5.502   3.320   1.741
 4470SOL    HW214310   5.614   3.222   1.809
 4471SOL     OW14311   0.233   3.001   0.077
 4471SOL    HW114312   0.213   2.903   0.083
 4471SOL    HW214313   0.165   3.045   0.018
 4472SOL     OW14314   1.734   4.183   2.742
 4472SOL    HW114315   1.735   4.084   2.755
 4472SOL    HW214316   1.724   4.228   2.831
 4473SOL     OW14317   6.954   0.205   4.910
 4473SOL    HW114318   6.983   0.131   4.849
 4473SOL    HW214319   6.888   0.170   4.976
 4474SOL     OW14320   2.968   0.369   2.734
 4474SOL    HW114321   3.019   0.289   2.763
 4474SOL    HW214322   3.021   0.420   2.666
 4475SOL     OW14323   1.337   3.841   1.576
 4475SOL    HW114324   1.350   3.911   1.646
 4475SOL    HW214325   1.261   3.866   1.517
 4476SOL     OW14326   5.387   6.493   3.175
 4476SOL    HW114327   5.478   6.469   3.210
 4476SOL    HW214328   5.321   6.493   3.250
 4477SOL     OW14329   1.489   0.312   6.579
 4477SOL    HW114330   1.461   0.216   6.581
 4477SOL    HW214331   1.562   0.324   6.512
 4478SOL     OW14332   2.134   6.315   2.785
 4478SOL    HW114333   2.230   6.343   2.780
 4478SOL    HW214334   2.094   6.348   2.870
 4479SOL     OW14335   1.327   0.507   6.487
 4479SOL    HW114336   1.267   0.447   6.433
 4479SOL    HW214337   1.398   0.452   6.531
 4480SOL     OW14338   2.015   3.182   4.520
 4480SOL    HW114339   2.076   3.206   4.444
 4480SOL    HW214340   2.037   3.239   4.599
 4481SOL     OW14341   2.150   6.644   4.264
 4481SOL    HW114342   2.249   6.634   4.272
 4481SOL    HW214343   2.107   6.626   4.353
 4482SOL     OW14344   0.941   3.837   3.959
 4482SOL    HW114345   0.953   3.762   4.023
 4482SOL    HW214346   1.031   3.876   3.936
 4483SOL     OW14347   6.698   2.931   1.266
 4483SOL    HW114348   6.741   2.845   1.297
 4483SOL    HW214349   6.696   2.933   1.166
 4484SOL     OW14350   3.817   1.933   5.395
 4484SOL    HW114351   3.883   1.936   5.469
 4484SOL    HW214352   3.863   1.957   5.309
 4485SOL     OW14353   5.095   2.652   6.619
 4485SOL    HW114354   5.093   2.631   6.521
 4485SOL    HW214355   5.002   2.673   6.649
 4486SOL     OW14356   6.691   4.249   4.790
 4486SOL    HW114357   6.621   4.321   4.795
 4486SOL    HW214358   6.663   4.181   4.722
 4487SOL     OW14359   2.366   3.394   6.941
 4487SOL    HW114360   2.292   3.327   6.930
 4487SOL    HW214361   2.412   3.407   6.853
 4488SOL     OW14362   5.530   2.593   6.645
 4488SOL    HW114363   5.588   2.516   6.673
 4488SOL    HW214364   5.483   2.630   6.724
 4489SOL     OW14365   5.135   6.045   4.200
 4489SOL    HW114366   5.198   6.018   4.128
 4489SOL    HW214367   5.184   6.052   4.287
 4490SOL     OW14368   5.454   1.912   1.642
 4490SOL    HW114369   5.465   2.011   1.652
 4490SOL    HW214370   5.517   1.878   1.572
 4491SOL     OW14371   0.912   2.912   2.863
 4491SOL    HW114372   0.858   2.953   2.789
 4491SOL    HW214373   0.858   2.914   2.948
 4492SOL     OW14374   5.435   2.681   0.353
 4492SOL    HW114375   5.465   2.769   0.391
 4492SOL    HW214376   5.389   2.628   0.423
 4493SOL     OW14377   3.820   4.958   4.503
 4493SOL    HW114378   3.824   5.054   4.475
 4493SOL    HW214379   3.894   4.939   4.567
 4494SOL     OW14380   6.938   2.568   6.009
 4494SOL    HW114381   7.009   2.561   6.078
 4494SOL    HW214382   6.911   2.663   5.997
 4495SOL     OW14383   5.436   6.947   3.530
 4495SOL    HW114384   5.485   6.997   3.602
 4495SOL    HW214385   5.356   6.903   3.570
 4496SOL     OW14386   5.313   4.900   0.427
 4496SOL    HW114387   5.407   4.936   0.419
 4496SOL    HW214388   5.289   4.892   0.524
 4497SOL     OW14389   5.432   6.063   6.854
 4497SOL    HW114390   5.493   6.050   6.777
 4497SOL    HW214391   5.478   6.037   6.939
 4498SOL     OW14392   0.313   3.501   6.482
 4498SOL    HW114393   0.342   3.472   6.573
 4498SOL    HW214394   0.389   3.546   6.435
 4499SOL     OW14395   6.614   3.285   4.295
 4499SOL    HW114396   6.548   3.253   4.364
 4499SOL    HW214397   6.627   3.214   4.226
 4500SOL     OW14398   3.060   4.002   3.998
 4500SOL    HW114399   3.134   4.065   3.972
 4500SOL    HW214400   3.012   3.971   3.917
 4501SOL     OW14401   0.868   3.825   5.618
 4501SOL    HW114402   0.922   3.799   5.698
 4501SOL    HW214403   0.862   3.747   5.555
 4502SOL     OW14404   2.090   2.575   6.031
 4502SOL    HW114405   2.093   2.488   5.981
 4502SOL    HW214406   2.038   2.642   5.978
 4503SOL     OW14407   2.339   0.528   2.943
 4503SOL    HW114408   2.262   0.543   3.004
 4503SOL    HW214409   2.424   0.525   2.995
 4504SOL     OW14410   6.541   2.161   5.366
 4504SOL    HW114411   6.613   2.166   5.296
 4504SOL    HW214412   6.538   2.247   5.416
 4505SOL     OW14413   0.188   6.155   4.898
 4505SOL    HW114414   0.128   6.143   4.818
 4505SOL    HW214415   0.132   6.168   4.980
 4506SOL     OW14416   4.127   2.127   4.522
 4506SOL    HW114417   4.123   2.153   4.426
 4506SOL    HW214418   4.035   2.114   4.558
 4507SOL     OW14419   5.070   4.636   1.479
 4507SOL    HW114420   5.041   4.689   1.559
 4507SOL    HW214421   4.992   4.586   1.443
 4508SOL     OW14422   1.279   4.136   6.710
 4508SOL    HW114423   1.278   4.146   6.611
 4508SOL    HW214424   1.199   4.083   6.740
 4509SOL     OW14425   4.471   1.797   4.160
 4509SOL    HW114426   4.537   1.789   4.085
 4509SOL    HW214427   4.492   1.730   4.230
 4510SOL     OW14428   5.408   0.410   4.996
 4510SOL    HW114429   5.374   0.478   4.930
 4510SOL    HW214430   5.447   0.333   4.946
 4511SOL     OW14431   0.264   3.042   6.574
 4511SOL    HW114432   0.357   3.037   6.537
 4511SOL    HW214433   0.227   2.949   6.584
 4512SOL     OW14434   2.630   6.814   6.115
 4512SOL    HW114435   2.585   6.841   6.030
 4512SOL    HW214436   2.725   6.790   6.095
 4513SOL     OW14437   4.999   6.599   1.302
 4513SOL    HW114438   4.915   6.582   1.251
 4513SOL    HW214439   4.977   6.630   1.394
 4514SOL     OW14440   3.916   0.920   4.559
 4514SOL    HW114441   3.991   0.940   4.497
 4514SOL    HW214442   3.914   0.989   4.632
 4515SOL     OW14443   6.540   4.091   6.946
 4515SOL    HW114444   6.454   4.053   6.980
 4515SOL    HW214445   6.534   4.104   6.847
 4516SOL     OW14446   1.261   1.083   6.039
 4516SOL    HW114447   1.322   1.159   6.017
 4516SOL    HW214448   1.182   1.118   6.090
 4517SOL     OW14449   2.593   0.089   5.848
 4517SOL    HW114450   2.590   0.080   5.749
 4517SOL    HW214451   2.654   0.019   5.886
 4518SOL     OW14452   0.079   2.163   3.848
 4518SOL    HW114453   7.022   2.112   3.861
 4518SOL    HW214454   0.070   2.223   3.768
 4519SOL     OW14455   6.826   1.746   2.460
 4519SOL    HW114456   6.731   1.726   2.437
 4519SOL    HW214457   6.883   1.667   2.439
 4520SOL     OW14458   5.647   4.934   2.855
 4520SOL    HW114459   5.676   4.870   2.784
 4520SOL    HW214460   5.725   4.955   2.914
 4521SOL     OW14461   4.921   1.841   5.855
 4521SOL    HW114462   4.871   1.882   5.778
 4521SOL    HW214463   5.018   1.862   5.846
 4522SOL     OW14464   4.978   6.981   3.781
 4522SOL    HW114465   5.032   0.037   3.779
 4522SOL    HW214466   4.971   6.949   3.875
 4523SOL     OW14467   1.810   4.056   0.015
 4523SOL    HW114468   1.759   3.982   6.998
 4523SOL    HW214469   1.771   4.144   7.015
 4524SOL     OW14470   5.296   2.055   5.487
 4524SOL    HW114471   5.258   1.963   5.495
 4524SOL    HW214472   5.375   2.054   5.426
 4525SOL     OW14473   6.647   1.962   3.951
 4525SOL    HW114474   6.575   1.971   3.882
 4525SOL    HW214475   6.617   2.005   4.037
 4526SOL     OW14476   5.025   0.150   1.371
 4526SOL    HW114477   4.982   0.066   1.338
 4526SOL    HW214478   4.968   0.192   1.441
 4527SOL     OW14479   4.504   1.014   3.864
 4527SOL    HW114480   4.516   0.917   3.884
 4527SOL    HW214481   4.588   1.050   3.823
 4528SOL     OW14482   4.830   6.390   0.047
 4528SOL    HW114483   4.924   6.360   0.061
 4528SOL    HW214484   4.815   6.477   0.095
 4529SOL     OW14485   2.664   1.052   3.462
 4529SOL    HW114486   2.595   1.104   3.512
 4529SOL    HW214487   2.739   1.027   3.523
 4530SOL     OW14488   0.690   3.594   5.901
 4530SOL    HW114489   0.646   3.524   5.959
 4530SOL    HW214490   0.670   3.685   5.938
 4531SOL     OW14491   1.046   3.910   3.224
 4531SOL    HW114492   0.951   3.881   3.231
 4531SOL    HW214493   1.098   3.842   3.172
 4532SOL     OW14494   0.197   1.553   1.874
 4532SOL    HW114495   0.199   1.645   1.914
 4532SOL    HW214496   0.264   1.495   1.920
 4533SOL     OW14497   1.546   0.479   3.563
 4533SOL    HW114498   1.449   0.499   3.553
 4533SOL    HW214499   1.564   0.447   3.656
 4534SOL     OW14500   6.227   3.518   4.936
 4534SOL    HW114501   6.279   3.561   5.010
 4534SOL    HW214502   6.165   3.585   4.896
 4535SOL     OW14503   4.601   1.961   2.438
 4535SOL    HW114504   4.534   1.992   2.504
 4535SOL    HW214505   4.601   1.861   2.435
 4536SOL     OW14506   5.104   1.368   4.601
 4536SOL    HW114507   5.094   1.423   4.519
 4536SOL    HW214508   5.027   1.304   4.607
 4537SOL     OW14509   3.618   3.148   6.461
 4537SOL    HW114510   3.571   3.176   6.545
 4537SOL    HW214511   3.551   3.131   6.389
 4538SOL     OW14512   3.559   2.123   4.051
 4538SOL    HW114513   3.547   2.029   4.019
 4538SOL    HW214514   3.645   2.159   4.016
 4539SOL     OW14515   2.891   2.173   4.040
 4539SOL    HW114516   2.857   2.256   4.083
 4539SOL    HW214517   2.938   2.117   4.109
 4540SOL     OW14518   3.976   3.972   3.682
 4540SOL    HW114519   4.053   3.925   3.726
 4540SOL    HW214520   3.981   3.959   3.583
 4541SOL     OW14521   5.484   0.539   0.232
 4541SOL    HW114522   5.444   0.458   0.275
 4541SOL    HW214523   5.414   0.587   0.179
 4542SOL     OW14524   6.044   6.319   1.986
 4542SOL    HW114525   6.012   6.261   1.911
 4542SOL    HW214526   6.020   6.277   2.074
 4543SOL     OW14527   4.609   1.360   6.991
 4543SOL    HW114528   4.622   1.442   0.019
 4543SOL    HW214529   4.543   1.379   6.918
 4544SOL     OW14530   2.512   6.126   6.334
 4544SOL    HW114531   2.529   6.095   6.240
 4544SOL    HW214532   2.463   6.213   6.332
 4545SOL     OW14533   4.981   2.518   5.244
 4545SOL    HW114534   5.078   2.539   5.234
 4545SOL    HW214535   4.939   2.583   5.308
 4546SOL     OW14536   0.775   6.989   6.230
 4546SOL    HW114537   0.822   0.048   6.211
 4546SOL    HW214538   0.842   6.919   6.253
 4547SOL     OW14539   5.936   3.140   1.888
 4547SOL    HW114540   5.901   3.063   1.941
 4547SOL    HW214541   6.012   3.182   1.938
 4548SOL     OW14542   1.354   4.939   4.090
 4548SOL    HW114543   1.447   4.903   4.100
 4548SOL    HW214544   1.358   5.038   4.083
 4549SOL     OW14545   6.807   3.748   3.022
 4549SOL    HW114546   6.836   3.652   3.023
 4549SOL    HW214547   6.858   3.798   3.092
 4550SOL     OW14548   0.643   5.861   3.800
 4550SOL    HW114549   0.605   5.914   3.725
 4550SOL    HW214550   0.579   5.860   3.876
 4551SOL     OW14551   0.179   1.611   5.279
 4551SOL    HW114552   0.105   1.634   5.342
 4551SOL    HW214553   0.149   1.623   5.185
 4552SOL     OW14554   0.134   3.304   6.069
 4552SOL    HW114555   0.038   3.276   6.064
 4552SOL    HW214556   0.139   3.403   6.082
 4553SOL     OW14557   3.917   4.772   6.725
 4553SOL    HW114558   3.868   4.729   6.649
 4553SOL    HW214559   3.875   4.745   6.811
 4554SOL     OW14560   4.256   1.195   2.162
 4554SOL    HW114561   4.156   1.189   2.153
 4554SOL    HW214562   4.292   1.255   2.091
 4555SOL     OW14563   4.372   1.380   6.732
 4555SOL    HW114564   4.278   1.415   6.736
 4555SOL    HW214565   4.381   1.318   6.654
 4556SOL     OW14566   4.229   1.051   3.797
 4556SOL    HW114567   4.326   1.028   3.799
 4556SOL    HW214568   4.176   0.973   3.829
 4557SOL     OW14569   5.222   0.271   4.647
 4557SOL    HW114570   5.292   0.342   4.638
 4557SOL    HW214571   5.132   0.315   4.658
 4558SOL     OW14572   6.661   3.736   6.484
 4558SOL    HW114573   6.753   3.696   6.481
 4558SOL    HW214574   6.625   3.732   6.577
 4559SOL     OW14575   1.675   6.776   2.006
 4559SOL    HW114576   1.770   6.797   1.984
 4559SOL    HW214577   1.645   6.834   2.081
 4560SOL     OW14578   4.956   4.407   3.143
 4560SOL    HW114579   4.952   4.398   3.043
 4560SOL    HW214580   5.041   4.366   3.176
 4561SOL     OW14581   2.728   0.474   1.207
 4561SOL    HW114582   2.649   0.477   1.269
 4561SOL    HW214583   2.812   0.488   1.260
 4562SOL     OW14584   2.906   5.646   5.326
 4562SOL    HW114585   2.899   5.657   5.227
 4562SOL    HW214586   2.958   5.563   5.346
 4563SOL     OW14587   5.688   3.887   0.590
 4563SOL    HW114588   5.672   3.793   0.562
 4563SOL    HW214589   5.700   3.891   0.689
 4564SOL     OW14590   1.400   5.456   1.031
 4564SOL    HW114591   1.306   5.466   1.000
 4564SOL    HW214592   1.403   5.457   1.131
 4565SOL     OW14593   0.323   1.114   5.293
 4565SOL    HW114594   0.389   1.097   5.220
 4565SOL    HW214595   0.246   1.166   5.256
 4566SOL     OW14596   6.814   0.536   0.457
 4566SOL    HW114597   6.881   0.602   0.425
 4566SOL    HW214598   6.728   0.547   0.406
 4567SOL     OW14599   0.379   1.169   0.645
 4567SOL    HW114600   0.345   1.103   0.712
 4567SOL    HW214601   0.432   1.240   0.692
 4568SOL     OW14602   1.808   3.986   5.068
 4568SOL    HW114603   1.850   4.002   5.157
 4568SOL    HW214604   1.819   4.067   5.011
 4569SOL     OW14605   1.775   2.196   3.957
 4569SOL    HW114606   1.802   2.272   3.897
 4569SOL    HW214607   1.841   2.188   4.032
 4570SOL     OW14608   6.947   6.323   3.215
 4570SOL    HW114609   7.016   6.339   3.286
 4570SOL    HW214610   6.880   6.397   3.217
 4571SOL     OW14611   3.733   3.859   5.082
 4571SOL    HW114612   3.644   3.833   5.121
 4571SOL    HW214613   3.802   3.792   5.109
 4572SOL     OW14614   0.209   0.002   1.090
 4572SOL    HW114615   0.234   0.094   1.061
 4572SOL    HW214616   0.116   0.002   1.126
 4573SOL     OW14617   6.171   5.616   0.933
 4573SOL    HW114618   6.122   5.701   0.952
 4573SOL    HW214619   6.109   5.539   0.944
 4574SOL     OW14620   0.151   4.446   0.966
 4574SOL    HW114621   0.194   4.364   0.929
 4574SOL    HW214622   0.057   4.452   0.933
 4575SOL     OW14623   6.986   1.989   0.364
 4575SOL    HW114624   6.951   2.043   0.440
 4575SOL    HW214625   0.058   1.990   0.364
 4576SOL     OW14626   2.857   5.757   6.062
 4576SOL    HW114627   2.948   5.798   6.070
 4576SOL    HW214628   2.808   5.768   6.148
 4577SOL     OW14629   0.169   3.435   2.829
 4577SOL    HW114630   0.198   3.349   2.788
 4577SOL    HW214631   0.198   3.511   2.770
 4578SOL     OW14632   0.759   4.069   3.601
 4578SOL    HW114633   0.726   3.975   3.605
 4578SOL    HW214634   0.751   4.111   3.691
 4579SOL     OW14635   4.315   1.455   2.942
 4579SOL    HW114636   4.398   1.413   2.903
 4579SOL    HW214637   4.297   1.414   3.032
 4580SOL     OW14638   6.355   4.945   0.782
 4580SOL    HW114639   6.357   4.852   0.746
 4580SOL    HW214640   6.355   5.010   0.706
 4581SOL     OW14641   3.154   5.110   2.245
 4581SOL    HW114642   3.191   5.132   2.155
 4581SOL    HW214643   3.153   5.011   2.257
 4582SOL     OW14644   5.863   6.517   4.524
 4582SOL    HW114645   5.922   6.586   4.566
 4582SOL    HW214646   5.848   6.442   4.589
 4583SOL     OW14647   2.773   1.683   4.914
 4583SOL    HW114648   2.828   1.632   4.848
 4583SOL    HW214649   2.805   1.665   5.006
 4584SOL     OW14650   0.555   5.904   6.420
 4584SOL    HW114651   0.647   5.884   6.453
 4584SOL    HW214652   0.515   5.822   6.379
 4585SOL     OW14653   2.570   6.426   3.051
 4585SOL    HW114654   2.576   6.507   3.110
 4585SOL    HW214655   2.549   6.455   2.958
 4586SOL     OW14656   3.680   4.868   1.319
 4586SOL    HW114657   3.663   4.781   1.273
 4586SOL    HW214658   3.743   4.922   1.265
 4587SOL     OW14659   4.155   3.661   1.844
 4587SOL    HW114660   4.075   3.608   1.871
 4587SOL    HW214661   4.226   3.599   1.811
 4588SOL     OW14662   3.651   3.309   5.188
 4588SOL    HW114663   3.703   3.225   5.169
 4588SOL    HW214664   3.553   3.288   5.187
 4589SOL     OW14665   5.664   1.994   2.702
 4589SOL    HW114666   5.752   2.016   2.661
 4589SOL    HW214667   5.640   1.899   2.684
 4590SOL     OW14668   4.360   6.008   1.599
 4590SOL    HW114669   4.352   5.922   1.648
 4590SOL    HW214670   4.327   5.996   1.505
 4591SOL     OW14671   6.962   5.966   5.470
 4591SOL    HW114672   6.923   6.052   5.502
 4591SOL    HW214673   6.897   5.921   5.408
 4592SOL     OW14674   3.935   3.131   1.621
 4592SOL    HW114675   4.010   3.130   1.555
 4592SOL    HW214676   3.864   3.066   1.592
 4593SOL     OW14677   4.674   5.275   3.228
 4593SOL    HW114678   4.720   5.318   3.306
 4593SOL    HW214679   4.666   5.341   3.153
 4594SOL     OW14680   4.443   1.581   1.752
 4594SOL    HW114681   4.404   1.543   1.668
 4594SOL    HW214682   4.512   1.650   1.727
 4595SOL     OW14683   3.645   2.719   6.591
 4595SOL    HW114684   3.604   2.703   6.501
 4595SOL    HW214685   3.718   2.787   6.583
 4596SOL     OW14686   5.950   6.527   1.797
 4596SOL    HW114687   5.926   6.585   1.874
 4596SOL    HW214688   5.990   6.441   1.831
 4597SOL     OW14689   5.261   4.997   6.393
 4597SOL    HW114690   5.317   5.079   6.383
 4597SOL    HW214691   5.215   4.998   6.482
 4598SOL     OW14692   0.987   5.068   6.613
 4598SOL    HW114693   1.011   5.148   6.669
 4598SOL    HW214694   0.913   5.018   6.657
 4599SOL     OW14695   1.374   3.426   1.314
 4599SOL    HW114696   1.312   3.457   1.242
 4599SOL    HW214697   1.325   3.425   1.402
 4600SOL     OW14698   3.211   4.991   5.881
 4600SOL    HW114699   3.141   5.052   5.845
 4600SOL    HW214700   3.173   4.899   5.892
 4601SOL     OW14701   1.769   1.009   5.319
 4601SOL    HW114702   1.853   1.025   5.267
 4601SOL    HW214703   1.723   1.097   5.333
 4602SOL     OW14704   1.352   6.722   1.402
 4602SOL    HW114705   1.288   6.683   1.336
 4602SOL    HW214706   1.419   6.778   1.354
 4603SOL     OW14707   3.744   6.426   1.251
 4603SOL    HW114708   3.647   6.410   1.234
 4603SOL    HW214709   3.759   6.441   1.348
 4604SOL     OW14710   4.261   1.150   0.925
 4604SOL    HW114711   4.249   1.100   1.010
 4604SOL    HW214712   4.172   1.175   0.887
 4605SOL     OW14713   5.064   0.614   3.918
 4605SOL    HW114714   5.025   0.702   3.945
 4605SOL    HW214715   5.086   0.560   3.999
 4606SOL     OW14716   7.019   6.748   2.604
 4606SOL    HW114717   0.078   6.717   2.566
 4606SOL    HW214718   6.963   6.668   2.628
 4607SOL     OW14719   2.256   2.206   0.875
 4607SOL    HW114720   2.354   2.205   0.896
 4607SOL    HW214721   2.240   2.257   0.790
 4608SOL     OW14722   1.463   5.068   5.099
 4608SOL    HW114723   1.400   5.112   5.163
 4608SOL    HW214724   1.526   5.009   5.150
 4609SOL     OW14725   4.426   5.212   6.478
 4609SOL    HW114726   4.342   5.250   6.438
 4609SOL    HW214727   4.500   5.278   6.471
 4610SOL     OW14728   6.982   2.754   0.204
 4610SOL    HW114729   6.920   2.677   0.193
 4610SOL    HW214730   6.950   2.831   0.149
 4611SOL     OW14731   6.753   4.037   6.532
 4611SOL    HW114732   6.671   3.983   6.544
 4611SOL    HW214733   6.728   4.128   6.498
 4612SOL     OW14734   1.879   6.289   6.857
 4612SOL    HW114735   1.941   6.318   6.784
 4612SOL    HW214736   1.827   6.209   6.828
 4613SOL     OW14737   2.182   5.893   2.699
 4613SOL    HW114738   2.263   5.833   2.703
 4613SOL    HW214739   2.149   5.897   2.605
 4614SOL     OW14740   1.758   4.946   6.151
 4614SOL    HW114741   1.699   4.945   6.231
 4614SOL    HW214742   1.800   4.856   6.139
 4615SOL     OW14743   1.984   1.680   0.002
 4615SOL    HW114744   1.917   1.692   0.075
 4615SOL    HW214745   1.937   1.683   6.941
 4616SOL     OW14746   6.823   0.559   6.367
 4616SOL    HW114747   6.759   0.598   6.300
 4616SOL    HW214748   6.901   0.519   6.320
 4617SOL     OW14749   0.955   2.622   2.160
 4617SOL    HW114750   0.965   2.568   2.076
 4617SOL    HW214751   0.935   2.562   2.237
 4618SOL     OW14752   1.621   2.599   5.054
 4618SOL    HW114753   1.575   2.510   5.059
 4618SOL    HW214754   1.677   2.603   4.971
 4619SOL     OW14755   4.498   6.895   3.382
 4619SOL    HW114756   4.552   6.972   3.348
 4619SOL    HW214757   4.545   6.809   3.360
 4620SOL     OW14758   3.349   3.762   6.800
 4620SOL    HW114759   3.272   3.739   6.741
 4620SOL    HW214760   3.323   3.834   6.864
 4621SOL     OW14761   6.171   2.302   4.482
 4621SOL    HW114762   6.197   2.251   4.564
 4621SOL    HW214763   6.184   2.400   4.499
 4622SOL     OW14764   1.226   2.657   0.971
 4622SOL    HW114765   1.308   2.684   1.022
 4622SOL    HW214766   1.151   2.641   1.035
 4623SOL     OW14767   0.193   5.235   0.714
 4623SOL    HW114768   0.240   5.153   0.747
 4623SOL    HW214769   0.253   5.285   0.651
 4624SOL     OW14770   4.615   0.479   4.082
 4624SOL    HW114771   4.536   0.476   4.021
 4624SOL    HW214772   4.643   0.386   4.106
 4625SOL     OW14773   1.384   4.190   6.947
 4625SOL    HW114774   1.361   4.182   6.850
 4625SOL    HW214775   1.318   4.138   7.001
 4626SOL     OW14776   6.002   5.111   1.606
 4626SOL    HW114777   6.051   5.099   1.693
 4626SOL    HW214778   6.009   5.027   1.552
 4627SOL     OW14779   3.194   5.654   5.481
 4627SOL    HW114780   3.118   5.715   5.505
 4627SOL    HW214781   3.158   5.571   5.439
 4628SOL     OW14782   5.907   4.086   3.145
 4628SOL    HW114783   6.005   4.074   3.158
 4628SOL    HW214784   5.879   4.176   3.178
 4629SOL     OW14785   2.064   4.910   6.093
 4629SOL    HW114786   2.046   4.813   6.079
 4629SOL    HW214787   1.988   4.963   6.055
 4630SOL     OW14788   3.312   5.779   3.603
 4630SOL    HW114789   3.399   5.768   3.651
 4630SOL    HW214790   3.288   5.693   3.559
 4631SOL     OW14791   2.956   0.095   3.714
 4631SOL    HW114792   3.032   0.148   3.677
 4631SOL    HW214793   2.990   0.031   3.782
 4632SOL     OW14794   4.432   5.213   3.087
 4632SOL    HW114795   4.343   5.230   3.044
 4632SOL    HW214796   4.425   5.230   3.185
 4633SOL     OW14797   6.854   1.660   4.451
 4633SOL    HW114798   6.794   1.738   4.432
 4633SOL    HW214799   6.897   1.673   4.541
 4634SOL     OW14800   2.860   4.522   6.625
 4634SOL    HW114801   2.885   4.479   6.712
 4634SOL    HW214802   2.934   4.509   6.559
 4635SOL     OW14803   6.007   3.444   2.328
 4635SOL    HW114804   5.964   3.355   2.342
 4635SOL    HW214805   5.992   3.473   2.233
 4636SOL     OW14806   3.016   4.905   6.893
 4636SOL    HW114807   3.078   4.859   6.957
 4636SOL    HW214808   3.004   4.848   6.812
 4637SOL     OW14809   1.372   0.857   6.800
 4637SOL    HW114810   1.410   0.914   6.726
 4637SOL    HW214811   1.334   0.773   6.761
 4638SOL     OW14812   4.142   2.503   6.375
 4638SOL    HW114813   4.117   2.593   6.410
 4638SOL    HW214814   4.192   2.513   6.289
 4639SOL     OW14815   1.664   4.408   5.454
 4639SOL    HW114816   1.689   4.312   5.438
 4639SOL    HW214817   1.691   4.462   5.375
 4640SOL     OW14818   4.884   5.551   3.919
 4640SOL    HW114819   4.963   5.526   3.976
 4640SOL    HW214820   4.888   5.648   3.898
 4641SOL     OW14821   2.652   5.328   4.150
 4641SOL    HW114822   2.678   5.369   4.238
 4641SOL    HW214823   2.723   5.347   4.082
 4642SOL     OW14824   6.033   6.097   5.436
 4642SOL    HW114825   6.027   6.010   5.483
 4642SOL    HW214826   6.126   6.134   5.446
 4643SOL     OW14827   4.574   2.608   0.316
 4643SOL    HW114828   4.637   2.619   0.393
 4643SOL    HW214829   4.511   2.685   0.314
 4644SOL     OW14830   1.474   5.288   5.383
 4644SOL    HW114831   1.433   5.198   5.372
 4644SOL    HW214832   1.477   5.335   5.295
 4645SOL     OW14833   1.690   0.090   4.358
 4645SOL    HW114834   1.725   0.134   4.441
 4645SOL    HW214835   1.674   0.161   4.289
 4646SOL     OW14836   2.532   6.699   2.313
 4646SOL    HW114837   2.576   6.611   2.334
 4646SOL    HW214838   2.521   6.708   2.214
 4647SOL     OW14839   1.000   6.505   3.130
 4647SOL    HW114840   1.058   6.520   3.210
 4647SOL    HW214841   1.017   6.414   3.094
 4648SOL     OW14842   3.540   7.013   1.465
 4648SOL    HW114843   3.577   6.945   1.528
 4648SOL    HW214844   3.532   6.973   1.374
 4649SOL     OW14845   4.874   0.572   5.548
 4649SOL    HW114846   4.946   0.554   5.481
 4649SOL    HW214847   4.865   0.494   5.610
 4650SOL     OW14848   3.717   5.860   2.933
 4650SOL    HW114849   3.777   5.911   2.872
 4650SOL    HW214850   3.625   5.899   2.931
 4651SOL     OW14851   0.317   2.160   1.751
 4651SOL    HW114852   0.229   2.149   1.797
 4651SOL    HW214853   0.376   2.081   1.771
 4652SOL     OW14854   0.720   0.183   3.572
 4652SOL    HW114855   0.766   0.249   3.513
 4652SOL    HW214856   0.718   0.219   3.666
 4653SOL     OW14857   6.549   5.474   0.202
 4653SOL    HW114858   6.574   5.500   0.295
 4653SOL    HW214859   6.452   5.496   0.186
 4654SOL     OW14860   0.859   0.204   0.144
 4654SOL    HW114861   0.918   0.285   0.141
 4654SOL    HW214862   0.907   0.127   0.102
 4655SOL     OW14863   0.351   4.785   2.306
 4655SOL    HW114864   0.265   4.777   2.256
 4655SOL    HW214865   0.419   4.722   2.267
 4656SOL     OW14866   1.038   0.035   2.729
 4656SOL    HW114867   1.136   0.021   2.716
 4656SOL    HW214868   0.988   6.982   2.697
 4657SOL     OW14869   5.316   6.944   2.179
 4657SOL    HW114870   5.398   6.888   2.173
 4657SOL    HW214871   5.342   0.013   2.185
 4658SOL     OW14872   3.475   0.153   2.856
 4658SOL    HW114873   3.501   0.229   2.916
 4658SOL    HW214874   3.450   0.190   2.766
 4659SOL     OW14875   1.913   3.580   5.110
 4659SOL    HW114876   1.856   3.650   5.068
 4659SOL    HW214877   2.008   3.613   5.116
 4660SOL     OW14878   1.256   2.364   4.746
 4660SOL    HW114879   1.284   2.426   4.673
 4660SOL    HW214880   1.336   2.316   4.782
 4661SOL     OW14881   3.728   3.848   4.522
 4661SOL    HW114882   3.737   3.834   4.621
 4661SOL    HW214883   3.638   3.816   4.493
 4662SOL     OW14884   4.863   0.699   5.161
 4662SOL    HW114885   4.872   0.767   5.089
 4662SOL    HW214886   4.939   0.707   5.225
 4663SOL     OW14887   6.699   1.508   2.829
 4663SOL    HW114888   6.630   1.521   2.901
 4663SOL    HW214889   6.656   1.468   2.748
 4664SOL     OW14890   2.231   2.250   6.313
 4664SOL    HW114891   2.175   2.261   6.395
 4664SOL    HW214892   2.245   2.339   6.270
 4665SOL     OW14893   4.860   6.705   6.824
 4665SOL    HW114894   4.891   6.797   6.850
 4665SOL    HW214895   4.939   6.651   6.794
 4666SOL     OW14896   2.348   1.147   6.781
 4666SOL    HW114897   2.392   1.068   6.823
 4666SOL    HW214898   2.261   1.165   6.827
 4667SOL     OW14899   6.696   4.895   7.015
 4667SOL    HW114900   6.683   4.879   6.917
 4667SOL    HW214901   6.611   4.876   0.036
 4668SOL     OW14902   0.221   1.834   4.521
 4668SOL    HW114903   0.175   1.825   4.433
 4668SOL    HW214904   0.196   1.757   4.580
 4669SOL     OW14905   3.283   6.583   0.792
 4669SOL    HW114906   3.277   6.603   0.694
 4669SOL    HW214907   3.208   6.521   0.817
 4670SOL     OW14908   3.516   1.348   4.979
 4670SOL    HW114909   3.540   1.273   5.041
 4670SOL    HW214910   3.429   1.327   4.934
 4671SOL     OW14911   6.013   3.532   1.580
 4671SOL    HW114912   5.949   3.464   1.617
 4671SOL    HW214913   5.962   3.610   1.545
 4672SOL     OW14914   2.753   4.687   6.151
 4672SOL    HW114915   2.779   4.718   6.060
 4672SOL    HW214916   2.835   4.679   6.209
 4673SOL     OW14917   3.925   0.199   1.221
 4673SOL    HW114918   3.932   0.295   1.196
 4673SOL    HW214919   3.995   0.146   1.172
 4674SOL     OW14920   5.474   5.818   6.404
 4674SOL    HW114921   5.514   5.909   6.403
 4674SOL    HW214922   5.527   5.758   6.344
 4675SOL     OW14923   0.643   3.410   0.733
 4675SOL    HW114924   0.713   3.456   0.680
 4675SOL    HW214925   0.565   3.388   0.674
 4676SOL     OW14926   0.990   5.499   3.763
 4676SOL    HW114927   0.908   5.530   3.717
 4676SOL    HW214928   0.971   5.414   3.812
 4677SOL     OW14929   1.544   1.716   0.417
 4677SOL    HW114930   1.628   1.678   0.455
 4677SOL    HW214931   1.470   1.649   0.427
 4678SOL     OW14932   2.374   4.316   2.944
 4678SOL    HW114933   2.339   4.319   2.851
 4678SOL    HW214934   2.452   4.377   2.953
 4679SOL     OW14935   4.792   6.981   2.205
 4679SOL    HW114936   4.755   6.888   2.203
 4679SOL    HW214937   4.864   6.990   2.135
 4680SOL     OW14938   4.231   1.328   1.322
 4680SOL    HW114939   4.255   1.281   1.237
 4680SOL    HW214940   4.141   1.296   1.353
 4681SOL     OW14941   4.348   4.707   6.962
 4681SOL    HW114942   4.377   4.624   6.914
 4681SOL    HW214943   4.425   4.745   7.013
 4682SOL     OW14944   5.441   3.111   6.139
 4682SOL    HW114945   5.343   3.125   6.142
 4682SOL    HW214946   5.461   3.024   6.094
 4683SOL     OW14947   5.624   5.144   3.146
 4683SOL    HW114948   5.573   5.069   3.189
 4683SOL    HW214949   5.696   5.107   3.088
 4684SOL     OW14950   4.565   5.864   6.107
 4684SOL    HW114951   4.549   5.942   6.168
 4684SOL    HW214952   4.480   5.814   6.095
 4685SOL     OW14953   2.203   4.034   6.109
 4685SOL    HW114954   2.234   4.052   6.203
 4685SOL    HW214955   2.253   4.093   6.046
 4686SOL     OW14956   3.996   5.397   0.328
 4686SOL    HW114957   4.095   5.403   0.327
 4686SOL    HW214958   3.960   5.454   0.402
 4687SOL     OW14959   4.151   1.852   3.923
 4687SOL    HW114960   4.118   1.766   3.963
 4687SOL    HW214961   4.115   1.928   3.977
 4688SOL     OW14962   5.916   2.629   5.677
 4688SOL    HW114963   5.947   2.589   5.763
 4688SOL    HW214964   5.892   2.726   5.692
 4689SOL     OW14965   5.410   0.400   1.186
 4689SOL    HW114966   5.483   0.434   1.245
 4689SOL    HW214967   5.440   0.404   1.090
 4690SOL     OW14968   1.802   0.928   0.645
 4690SOL    HW114969   1.764   0.921   0.737
 4690SOL    HW214970   1.896   0.962   0.650
 4691SOL     OW14971   4.354   3.922   0.236
 4691SOL    HW114972   4.277   3.920   0.172
 4691SOL    HW214973   4.440   3.909   0.186
 4692SOL     OW14974   6.047   4.211   3.387
 4692SOL    HW114975   6.052   4.111   3.384
 4692SOL    HW214976   6.116   4.246   3.451
 4693SOL     OW14977   1.301   1.041   3.783
 4693SOL    HW114978   1.259   1.121   3.824
 4693SOL    HW214979   1.313   1.057   3.684
 4694SOL     OW14980   2.350   2.239   0.464
 4694SOL    HW114981   2.428   2.289   0.427
 4694SOL    HW214982   2.294   2.300   0.520
 4695SOL     OW14983   1.710   5.849   0.570
 4695SOL    HW114984   1.718   5.821   0.666
 4695SOL    HW214985   1.615   5.866   0.548
 4696SOL     OW14986   0.519   5.577   6.412
 4696SOL    HW114987   0.609   5.578   6.457
 4696SOL    HW214988   0.522   5.513   6.335
 4697SOL     OW14989   1.443   3.334   2.102
 4697SOL    HW114990   1.468   3.396   2.027
 4697SOL    HW214991   1.391   3.384   2.170
 4698SOL     OW14992   3.735   6.761   3.230
 4698SOL    HW114993   3.694   6.675   3.259
 4698SOL    HW214994   3.689   6.795   3.149
 4699SOL     OW14995   0.619   6.512   2.888
 4699SOL    HW114996   0.570   6.449   2.949
 4699SOL    HW214997   0.612   6.605   2.925
 4700SOL     OW14998   6.810   1.687   2.056
 4700SOL    HW114999   6.865   1.661   2.136
 4700SOL    HW215000   6.751   1.611   2.030
 4701SOL     OW15001   3.212   2.118   1.871
 4701SOL    HW115002   3.280   2.191   1.866
 4701SOL    HW215003   3.194   2.096   1.968
 4702SOL     OW15004   4.519   5.122   0.636
 4702SOL    HW115005   4.510   5.216   0.666
 4702SOL    HW215006   4.438   5.095   0.583
 4703SOL     OW15007   1.360   5.462   2.865
 4703SOL    HW115008   1.376   5.538   2.928
 4703SOL    HW215009   1.324   5.497   2.779
 4704SOL     OW15010   0.491   6.248   5.772
 4704SOL    HW115011   0.534   6.337   5.791
 4704SOL    HW215012   0.392   6.258   5.771
 4705SOL     OW15013   2.965   2.233   0.650
 4705SOL    HW115014   3.063   2.223   0.638
 4705SOL    HW215015   2.942   2.217   0.746
 4706SOL     OW15016   1.568   0.203   0.740
 4706SOL    HW115017   1.501   0.144   0.694
 4706SOL    HW215018   1.605   0.269   0.675
 4707SOL     OW15019   1.180   5.725   1.868
 4707SOL    HW115020   1.141   5.726   1.960
 4707SOL    HW215021   1.276   5.751   1.872
 4708SOL     OW15022   0.873   1.810   5.777
 4708SOL    HW115023   0.848   1.715   5.796
 4708SOL    HW215024   0.967   1.815   5.744
 4709SOL     OW15025   4.615   4.959   4.606
 4709SOL    HW115026   4.630   4.951   4.507
 4709SOL    HW215027   4.569   5.045   4.626
 4710SOL     OW15028   6.182   0.312   5.188
 4710SOL    HW115029   6.201   0.390   5.248
 4710SOL    HW215030   6.268   0.263   5.170
 4711SOL     OW15031   6.191   2.488   3.322
 4711SOL    HW115032   6.162   2.559   3.259
 4711SOL    HW215033   6.233   2.530   3.403
 4712SOL     OW15034   3.987   4.545   6.261
 4712SOL    HW115035   4.007   4.595   6.177
 4712SOL    HW215036   3.943   4.458   6.238
 4713SOL     OW15037   5.343   5.775   0.853
 4713SOL    HW115038   5.251   5.801   0.881
 4713SOL    HW215039   5.399   5.758   0.935
 4714SOL     OW15040   0.202   1.976   6.526
 4714SOL    HW115041   0.185   1.879   6.507
 4714SOL    HW215042   0.171   2.030   6.447
 4715SOL     OW15043   5.859   2.588   1.160
 4715SOL    HW115044   5.920   2.542   1.095
 4715SOL    HW215045   5.854   2.685   1.139
 4716SOL     OW15046   5.020   5.451   5.856
 4716SOL    HW115047   5.114   5.420   5.844
 4716SOL    HW215048   4.966   5.379   5.900
 4717SOL     OW15049   2.200   5.274   5.034
 4717SOL    HW115050   2.105   5.243   5.043
 4717SOL    HW215051   2.212   5.321   4.947
 4718SOL     OW15052   5.252   2.967   0.913
 4718SOL    HW115053   5.313   2.890   0.895
 4718SOL    HW215054   5.199   2.988   0.831
 4719SOL     OW15055   5.198   3.717   2.759
 4719SOL    HW115056   5.190   3.618   2.744
 4719SOL    HW215057   5.114   3.763   2.732
 4720SOL     OW15058   2.220   4.468   5.531
 4720SOL    HW115059   2.180   4.554   5.565
 4720SOL    HW215060   2.318   4.469   5.547
 4721SOL     OW15061   5.775   2.493   1.720
 4721SOL    HW115062   5.809   2.577   1.761
 4721SOL    HW215063   5.814   2.482   1.629
 4722SOL     OW15064   1.095   5.653   0.078
 4722SOL    HW115065   1.137   5.741   0.059
 4722SOL    HW215066   1.075   5.606   7.020
 4723SOL     OW15067   3.773   4.116   5.597
 4723SOL    HW115068   3.718   4.187   5.552
 4723SOL    HW215069   3.858   4.103   5.547
 4724SOL     OW15070   0.190   6.652   4.095
 4724SOL    HW115071   0.227   6.563   4.071
 4724SOL    HW215072   0.186   6.710   4.013
 4725SOL     OW15073   6.118   4.782   0.177
 4725SOL    HW115074   6.180   4.730   0.236
 4725SOL    HW215075   6.027   4.784   0.218
 4726SOL     OW15076   1.234   3.109   6.102
 4726SOL    HW115077   1.244   3.114   6.003
 4726SOL    HW215078   1.268   3.021   6.135
 4727SOL     OW15079   0.363   5.866   0.193
 4727SOL    HW115080   0.392   5.932   0.263
 4727SOL    HW215081   0.339   5.780   0.237
 4728SOL     OW15082   6.512   1.814   2.924
 4728SOL    HW115083   6.565   1.802   2.841
 4728SOL    HW215084   6.507   1.911   2.947
 4729SOL     OW15085   4.794   0.196   0.444
 4729SOL    HW115086   4.874   0.148   0.480
 4729SOL    HW215087   4.815   0.234   0.354
 4730SOL     OW15088   3.383   6.120   5.284
 4730SOL    HW115089   3.445   6.062   5.336
 4730SOL    HW215090   3.289   6.104   5.314
 4731SOL     OW15091   3.099   0.716   0.960
 4731SOL    HW115092   3.013   0.666   0.945
 4731SOL    HW215093   3.151   0.718   0.875
 4732SOL     OW15094   0.737   4.186   5.293
 4732SOL    HW115095   0.799   4.224   5.225
 4732SOL    HW215096   0.790   4.138   5.363
 4733SOL     OW15097   1.753   4.202   2.440
 4733SOL    HW115098   1.735   4.220   2.537
 4733SOL    HW215099   1.803   4.116   2.432
 4734SOL     OW15100   5.149   3.257   0.129
 4734SOL    HW115101   5.237   3.304   0.115
 4734SOL    HW215102   5.110   3.288   0.216
 4735SOL     OW15103   6.683   5.776   3.944
 4735SOL    HW115104   6.705   5.710   4.016
 4735SOL    HW215105   6.640   5.728   3.867
 4736SOL     OW15106   5.873   2.178   4.396
 4736SOL    HW115107   5.932   2.217   4.466
 4736SOL    HW215108   5.918   2.098   4.356
 4737SOL     OW15109   2.253   4.682   0.772
 4737SOL    HW115110   2.325   4.660   0.706
 4737SOL    HW215111   2.290   4.743   0.842
 4738SOL     OW15112   3.369   6.765   4.082
 4738SOL    HW115113   3.397   6.731   4.172
 4738SOL    HW215114   3.270   6.754   4.072
 4739SOL     OW15115   5.630   1.977   4.073
 4739SOL    HW115116   5.586   1.948   4.158
 4739SOL    HW215117   5.563   1.976   3.998
 4740SOL     OW15118   0.697   0.600   0.806
 4740SOL    HW115119   0.680   0.503   0.789
 4740SOL    HW215120   0.644   0.655   0.742
 4741SOL     OW15121   4.685   4.726   0.849
 4741SOL    HW115122   4.698   4.821   0.819
 4741SOL    HW215123   4.770   4.675   0.837
 4742SOL     OW15124   2.936   5.260   1.316
 4742SOL    HW115125   2.857   5.288   1.261
 4742SOL    HW215126   2.968   5.337   1.371
 4743SOL     OW15127   2.078   1.407   5.698
 4743SOL    HW115128   2.003   1.377   5.757
 4743SOL    HW215129   2.109   1.331   5.642
 4744SOL     OW15130   2.519   2.930   5.539
 4744SOL    HW115131   2.493   2.880   5.456
 4744SOL    HW215132   2.499   3.027   5.527
 4745SOL     OW15133   2.654   5.109   5.709
 4745SOL    HW115134   2.663   5.113   5.609
 4745SOL    HW215135   2.558   5.103   5.734
 4746SOL     OW15136   5.909   6.228   1.336
 4746SOL    HW115137   5.953   6.310   1.373
 4746SOL    HW215138   5.827   6.254   1.285
 4747SOL     OW15139   1.166   3.518   6.145
 4747SOL    HW115140   1.152   3.617   6.143
 4747SOL    HW215141   1.086   3.473   6.104
 4748SOL     OW15142   1.437   0.131   1.263
 4748SOL    HW115143   1.505   0.150   1.334
 4748SOL    HW215144   1.459   0.184   1.181
 4749SOL     OW15145   3.132   6.451   6.092
 4749SOL    HW115146   3.181   6.531   6.059
 4749SOL    HW215147   3.146   6.375   6.029
 4750SOL     OW15148   0.381   2.044   4.115
 4750SOL    HW115149   0.452   2.085   4.171
 4750SOL    HW215150   0.420   2.011   4.029
 4751SOL     OW15151   1.984   3.337   0.310
 4751SOL    HW115152   2.001   3.238   0.308
 4751SOL    HW215153   1.947   3.366   0.222
 4752SOL     OW15154   2.985   6.778   0.562
 4752SOL    HW115155   2.974   6.856   0.622
 4752SOL    HW215156   2.932   6.701   0.598
 4753SOL     OW15157   5.346   6.694   4.508
 4753SOL    HW115158   5.296   6.779   4.531
 4753SOL    HW215159   5.435   6.695   4.553
 4754SOL     OW15160   6.440   0.352   5.946
 4754SOL    HW115161   6.480   0.265   5.976
 4754SOL    HW215162   6.510   0.405   5.897
 4755SOL     OW15163   2.407   0.526   6.989
 4755SOL    HW115164   2.425   0.429   6.969
 4755SOL    HW215165   2.346   0.563   6.919
 4756SOL     OW15166   5.604   2.160   1.368
 4756SOL    HW115167   5.682   2.170   1.307
 4756SOL    HW215168   5.633   2.173   1.462
 4757SOL     OW15169   2.399   1.880   1.789
 4757SOL    HW115170   2.344   1.935   1.727
 4757SOL    HW215171   2.489   1.864   1.749
 4758SOL     OW15172   3.403   5.835   5.024
 4758SOL    HW115173   3.348   5.848   5.106
 4758SOL    HW215174   3.408   5.737   5.002
 4759SOL     OW15175   5.323   5.603   4.850
 4759SOL    HW115176   5.386   5.531   4.877
 4759SOL    HW215177   5.318   5.672   4.923
 4760SOL     OW15178   3.343   1.951   1.395
 4760SOL    HW115179   3.329   2.050   1.398
 4760SOL    HW215180   3.293   1.908   1.470
 4761SOL     OW15181   6.703   0.697   6.871
 4761SOL    HW115182   6.663   0.666   6.957
 4761SOL    HW215183   6.796   0.660   6.864
 4762SOL     OW15184   2.937   4.838   3.490
 4762SOL    HW115185   3.033   4.867   3.492
 4762SOL    HW215186   2.880   4.907   3.534
 4763SOL     OW15187   5.659   6.082   3.192
 4763SOL    HW115188   5.719   6.123   3.123
 4763SOL    HW215189   5.612   6.003   3.152
 4764SOL     OW15190   5.108   3.824   5.081
 4764SOL    HW115191   5.174   3.801   5.009
 4764SOL    HW215192   5.065   3.741   5.114
 4765SOL     OW15193   4.939   6.681   4.543
 4765SOL    HW115194   4.954   6.586   4.515
 4765SOL    HW215195   4.928   6.685   4.642
 4766SOL     OW15196   4.221   0.655   4.050
 4766SOL    HW115197   4.183   0.661   3.957
 4766SOL    HW215198   4.258   0.744   4.076
 4767SOL     OW15199   4.552   5.852   0.036
 4767SOL    HW115200   4.569   5.938   7.015
 4767SOL    HW215201   4.519   5.872   0.128
 4768SOL     OW15202   5.495   1.936   4.936
 4768SOL    HW115203   5.414   1.889   4.972
 4768SOL    HW215204   5.571   1.923   4.999
 4769SOL     OW15205   4.347   5.261   1.431
 4769SOL    HW115206   4.281   5.232   1.361
 4769SOL    HW215207   4.310   5.243   1.522
 4770SOL     OW15208   2.068   0.233   3.609
 4770SOL    HW115209   2.098   0.217   3.703
 4770SOL    HW215210   1.989   0.176   3.589
 4771SOL     OW15211   3.271   5.076   6.172
 4771SOL    HW115212   3.340   5.081   6.100
 4771SOL    HW215213   3.189   5.032   6.136
 4772SOL     OW15214   2.194   6.174   2.087
 4772SOL    HW115215   2.218   6.222   2.171
 4772SOL    HW215216   2.190   6.240   2.011
 4773SOL     OW15217   6.830   5.619   4.589
 4773SOL    HW115218   6.812   5.717   4.580
 4773SOL    HW215219   6.744   5.569   4.577
 4774SOL     OW15220   0.601   2.826   2.518
 4774SOL    HW115221   0.563   2.799   2.607
 4774SOL    HW215222   0.527   2.841   2.453
 4775SOL     OW15223   5.418   0.539   3.291
 4775SOL    HW115224   5.457   0.543   3.383
 4775SOL    HW215225   5.420   0.444   3.259
 4776SOL     OW15226   2.472   6.996   3.845
 4776SOL    HW115227   2.502   0.020   3.765
 4776SOL    HW215228   2.512   6.905   3.843
 4777SOL     OW15229   2.427   4.827   0.953
 4777SOL    HW115230   2.473   4.916   0.956
 4777SOL    HW215231   2.488   4.758   0.991
 4778SOL     OW15232   5.270   2.443   1.862
 4778SOL    HW115233   5.333   2.437   1.785
 4778SOL    HW215234   5.189   2.496   1.835
 4779SOL     OW15235   6.047   6.876   2.089
 4779SOL    HW115236   6.044   6.914   1.996
 4779SOL    HW215237   6.142   6.853   2.112
 4780SOL     OW15238   0.889   6.557   6.953
 4780SOL    HW115239   0.985   6.581   6.941
 4780SOL    HW215240   0.832   6.626   6.908
 4781SOL     OW15241   3.174   6.257   1.078
 4781SOL    HW115242   3.224   6.180   1.038
 4781SOL    HW215243   3.076   6.243   1.064
 4782SOL     OW15244   4.803   6.630   0.168
 4782SOL    HW115245   4.732   6.627   0.238
 4782SOL    HW215246   4.880   6.685   0.201
 4783SOL     OW15247   4.655   4.259   0.485
 4783SOL    HW115248   4.730   4.313   0.447
 4783SOL    HW215249   4.689   4.197   0.556
 4784SOL     OW15250   6.116   4.597   7.002
 4784SOL    HW115251   6.097   4.656   0.052
 4784SOL    HW215252   6.212   4.606   6.975
 4785SOL     OW15253   7.013   5.985   1.459
 4785SOL    HW115254   6.975   5.983   1.366
 4785SOL    HW215255   6.944   6.020   1.522
 4786SOL     OW15256   1.836   2.223   2.220
 4786SOL    HW115257   1.742   2.250   2.241
 4786SOL    HW215258   1.900   2.284   2.266
 4787SOL     OW15259   3.397   1.941   3.372
 4787SOL    HW115260   3.454   1.997   3.432
 4787SOL    HW215261   3.384   1.851   3.414
 4788SOL     OW15262   1.635   5.004   6.378
 4788SOL    HW115263   1.606   5.093   6.412
 4788SOL    HW215264   1.579   4.932   6.419
 4789SOL     OW15265   5.346   0.776   0.129
 4789SOL    HW115266   5.279   0.796   0.058
 4789SOL    HW215267   5.413   0.850   0.134
 4790SOL     OW15268   6.438   3.577   6.699
 4790SOL    HW115269   6.363   3.543   6.755
 4790SOL    HW215270   6.407   3.592   6.605
 4791SOL     OW15271   5.467   2.177   1.689
 4791SOL    HW115272   5.413   2.166   1.606
 4791SOL    HW215273   5.457   2.271   1.723
 4792SOL     OW15274   1.659   3.034   2.473
 4792SOL    HW115275   1.733   3.060   2.536
 4792SOL    HW215276   1.571   3.066   2.510
 4793SOL     OW15277   0.969   2.526   5.582
 4793SOL    HW115278   0.923   2.534   5.670
 4793SOL    HW215279   0.991   2.431   5.564
 4794SOL     OW15280   3.952   0.810   3.452
 4794SOL    HW115281   3.863   0.852   3.470
 4794SOL    HW215282   3.999   0.862   3.380
 4795SOL     OW15283   6.846   2.525   4.203
 4795SOL    HW115284   6.917   2.535   4.273
 4795SOL    HW215285   6.880   2.467   4.129
 4796SOL     OW15286   4.854   1.870   6.549
 4796SOL    HW115287   4.917   1.942   6.579
 4796SOL    HW215288   4.760   1.904   6.553
 4797SOL     OW15289   1.455   5.736   4.957
 4797SOL    HW115290   1.454   5.772   4.864
 4797SOL    HW215291   1.365   5.746   4.998
 4798SOL     OW15292   0.375   3.874   5.771
 4798SOL    HW115293   0.389   3.972   5.761
 4798SOL    HW215294   0.348   3.853   5.865
 4799SOL     OW15295   4.905   2.174   5.912
 4799SOL    HW115296   4.814   2.183   5.952
 4799SOL    HW215297   4.951   2.093   5.950
 4800SOL     OW15298   3.502   3.067   6.034
 4800SOL    HW115299   3.456   2.980   6.013
 4800SOL    HW215300   3.481   3.134   5.964
 4801SOL     OW15301   2.283   2.021   0.276
 4801SOL    HW115302   2.318   1.949   0.335
 4801SOL    HW215303   2.289   2.109   0.323
 4802SOL     OW15304   1.235   6.503   2.412
 4802SOL    HW115305   1.276   6.537   2.497
 4802SOL    HW215306   1.226   6.404   2.417
 4803SOL     OW15307   0.738   6.737   0.757
 4803SOL    HW115308   0.723   6.833   0.782
 4803SOL    HW215309   0.836   6.717   0.763
 4804SOL     OW15310   4.025   5.068   6.354
 4804SOL    HW115311   4.113   5.034   6.389
 4804SOL    HW215312   3.972   4.991   6.318
 4805SOL     OW15313   6.730   6.937   1.222
 4805SOL    HW115314   6.716   6.873   1.297
 4805SOL    HW215315   6.680   7.022   1.241
 4806SOL     OW15316   0.156   3.536   3.354
 4806SOL    HW115317   0.068   3.491   3.375
 4806SOL    HW215318   0.188   3.506   3.264
 4807SOL     OW15319   1.530   5.541   0.684
 4807SOL    HW115320   1.553   5.516   0.589
 4807SOL    HW215321   1.525   5.458   0.739
 4808SOL     OW15322   6.067   3.891   0.312
 4808SOL    HW115323   6.001   3.841   0.368
 4808SOL    HW215324   6.157   3.849   0.322
 4809SOL     OW15325   3.760   3.886   6.666
 4809SOL    HW115326   3.843   3.938   6.645
 4809SOL    HW215327   3.751   3.810   6.602
 4810SOL     OW15328   1.343   4.348   2.175
 4810SOL    HW115329   1.319   4.374   2.082
 4810SOL    HW215330   1.268   4.371   2.237
 4811SOL     OW15331   2.406   4.592   2.343
 4811SOL    HW115332   2.476   4.583   2.273
 4811SOL    HW215333   2.444   4.565   2.432
 4812SOL     OW15334   6.653   4.813   5.420
 4812SOL    HW115335   6.665   4.913   5.421
 4812SOL    HW215336   6.594   4.786   5.496
 4813SOL     OW15337   4.916   1.243   2.030
 4813SOL    HW115338   4.843   1.310   2.041
 4813SOL    HW215339   4.890   1.157   2.072
 4814SOL     OW15340   5.976   4.504   0.350
 4814SOL    HW115341   5.969   4.442   0.272
 4814SOL    HW215342   5.957   4.598   0.320
 4815SOL     OW15343   5.404   4.562   1.940
 4815SOL    HW115344   5.309   4.576   1.910
 4815SOL    HW215345   5.464   4.624   1.889
 4816SOL     OW15346   5.892   5.253   2.968
 4816SOL    HW115347   5.901   5.155   2.986
 4816SOL    HW215348   5.882   5.302   3.054
 4817SOL     OW15349   0.710   2.119   6.067
 4817SOL    HW115350   0.709   2.125   6.167
 4817SOL    HW215351   0.789   2.168   6.031
 4818SOL     OW15352   0.925   0.133   4.636
 4818SOL    HW115353   0.988   0.199   4.677
 4818SOL    HW215354   0.939   0.131   4.537
 4819SOL     OW15355   1.670   3.278   0.749
 4819SOL    HW115356   1.570   3.274   0.747
 4819SOL    HW215357   1.702   3.330   0.670
 4820SOL     OW15358   0.002   3.265   1.737
 4820SOL    HW115359   0.019   3.173   1.701
 4820SOL    HW215360   0.029   3.333   1.668
 4821SOL     OW15361   0.908   5.972   2.965
 4821SOL    HW115362   0.937   5.901   2.900
 4821SOL    HW215363   0.835   5.936   3.023
 4822SOL     OW15364   1.216   3.538   4.245
 4822SOL    HW115365   1.279   3.525   4.169
 4822SOL    HW215366   1.238   3.473   4.318
 4823SOL     OW15367   1.634   2.012   2.747
 4823SOL    HW115368   1.688   2.032   2.665
 4823SOL    HW215369   1.565   1.943   2.726
 4824SOL     OW15370   5.454   2.352   5.557
 4824SOL    HW115371   5.445   2.253   5.566
 4824SOL    HW215372   5.549   2.375   5.533
 4825SOL     OW15373   1.233   1.765   4.055
 4825SOL    HW115374   1.280   1.743   4.141
 4825SOL    HW215375   1.263   1.701   3.984
 4826SOL     OW15376   5.186   0.421   0.594
 4826SOL    HW115377   5.170   0.457   0.502
 4826SOL    HW215378   5.112   0.451   0.654
 4827SOL     OW15379   6.023   1.830   0.254
 4827SOL    HW115380   6.110   1.854   0.297
 4827SOL    HW215381   6.039   1.805   0.159
 4828SOL     OW15382   4.599   0.583   1.342
 4828SOL    HW115383   4.571   0.669   1.384
 4828SOL    HW215384   4.698   0.574   1.345
 4829SOL     OW15385   4.353   6.711   6.546
 4829SOL    HW115386   4.384   6.632   6.600
 4829SOL    HW215387   4.426   6.779   6.542
 4830SOL     OW15388   3.960   5.884   4.084
 4830SOL    HW115389   3.987   5.791   4.058
 4830SOL    HW215390   3.862   5.884   4.106
 4831SOL     OW15391   2.814   5.253   5.212
 4831SOL    HW115392   2.856   5.200   5.138
 4831SOL    HW215393   2.754   5.322   5.172
 4832SOL     OW15394   3.410   2.987   4.592
 4832SOL    HW115395   3.315   3.012   4.611
 4832SOL    HW215396   3.470   3.025   4.663
 4833SOL     OW15397   5.662   2.186   3.169
 4833SOL    HW115398   5.604   2.167   3.090
 4833SOL    HW215399   5.649   2.281   3.198
 4834SOL     OW15400   2.436   6.013   2.458
 4834SOL    HW115401   2.478   6.015   2.548
 4834SOL    HW215402   2.338   5.998   2.467
 4835SOL     OW15403   6.104   3.291   5.939
 4835SOL    HW115404   6.183   3.351   5.926
 4835SOL    HW215405   6.127   3.219   6.003
 4836SOL     OW15406   5.064   1.584   5.598
 4836SOL    HW115407   5.082   1.494   5.560
 4836SOL    HW215408   5.151   1.634   5.607
 4837SOL     OW15409   6.730   3.320   2.758
 4837SOL    HW115410   6.811   3.377   2.745
 4837SOL    HW215411   6.698   3.287   2.670
 4838SOL     OW15412   1.956   5.082   6.738
 4838SOL    HW115413   2.038   5.104   6.685
 4838SOL    HW215414   1.944   4.982   6.741
 4839SOL     OW15415   1.303   3.385   6.842
 4839SOL    HW115416   1.397   3.360   6.819
 4839SOL    HW215417   1.242   3.308   6.823
 4840SOL     OW15418   5.485   3.857   5.408
 4840SOL    HW115419   5.566   3.805   5.433
 4840SOL    HW215420   5.511   3.946   5.371
 4841SOL     OW15421   3.374   5.622   2.911
 4841SOL    HW115422   3.367   5.562   2.831
 4841SOL    HW215423   3.283   5.645   2.944
 4842SOL     OW15424   2.605   5.305   3.046
 4842SOL    HW115425   2.565   5.308   3.137
 4842SOL    HW215426   2.570   5.226   2.996
 4843SOL     OW15427   6.448   2.612   1.813
 4843SOL    HW115428   6.418   2.707   1.823
 4843SOL    HW215429   6.539   2.601   1.853
 4844SOL     OW15430   1.219   3.804   5.495
 4844SOL    HW115431   1.186   3.859   5.418
 4844SOL    HW215432   1.211   3.857   5.579
 4845SOL     OW15433   4.617   4.867   5.481
 4845SOL    HW115434   4.643   4.954   5.522
 4845SOL    HW215435   4.561   4.883   5.400
 4846SOL     OW15436   0.074   2.071   3.450
 4846SOL    HW115437   0.007   2.064   3.524
 4846SOL    HW215438   0.165   2.086   3.489
 4847SOL     OW15439   2.476   0.879   5.141
 4847SOL    HW115440   2.457   0.803   5.204
 4847SOL    HW215441   2.559   0.927   5.169
 4848SOL     OW15442   2.384   1.273   4.011
 4848SOL    HW115443   2.457   1.220   4.053
 4848SOL    HW215444   2.343   1.221   3.936
 4849SOL     OW15445   1.840   6.937   0.704
 4849SOL    HW115446   1.846   7.027   0.746
 4849SOL    HW215447   1.793   6.874   0.766
 4850SOL     OW15448   4.253   0.555   1.574
 4850SOL    HW115449   4.230   0.499   1.494
 4850SOL    HW215450   4.284   0.645   1.543
 4851SOL     OW15451   3.995   5.521   6.469
 4851SOL    HW115452   3.937   5.469   6.407
 4851SOL    HW215453   4.069   5.463   6.503
 4852SOL     OW15454   3.226   5.780   4.357
 4852SOL    HW115455   3.269   5.696   4.323
 4852SOL    HW215456   3.288   5.857   4.347
 4853SOL     OW15457   3.653   1.155   2.778
 4853SOL    HW115458   3.570   1.210   2.781
 4853SOL    HW215459   3.733   1.214   2.781
 4854SOL     OW15460   5.477   6.721   2.097
 4854SOL    HW115461   5.424   6.636   2.102
 4854SOL    HW215462   5.562   6.711   2.147
 4855SOL     OW15463   0.005   3.623   4.826
 4855SOL    HW115464   0.001   3.556   4.751
 4855SOL    HW215465   0.073   3.594   4.893
 4856SOL     OW15466   0.440   2.934   2.329
 4856SOL    HW115467   0.477   2.928   2.237
 4856SOL    HW215468   0.343   2.958   2.325
 4857SOL     OW15469   3.521   2.120   3.538
 4857SOL    HW115470   3.486   2.163   3.621
 4857SOL    HW215471   3.621   2.123   3.538
 4858SOL     OW15472   1.084   0.304   4.800
 4858SOL    HW115473   1.163   0.243   4.791
 4858SOL    HW215474   1.088   0.351   4.889
 4859SOL     OW15475   1.206   4.946   1.374
 4859SOL    HW115476   1.144   4.989   1.440
 4859SOL    HW215477   1.300   4.949   1.411
 4860SOL     OW15478   3.987   4.408   0.268
 4860SOL    HW115479   4.035   4.321   0.279
 4860SOL    HW215480   4.005   4.467   0.347
 4861SOL     OW15481   6.410   4.904   5.892
 4861SOL    HW115482   6.327   4.924   5.839
 4861SOL    HW215483   6.462   4.989   5.904
 4862SOL     OW15484   2.950   4.838   4.866
 4862SOL    HW115485   2.935   4.766   4.934
 4862SOL    HW215486   3.040   4.826   4.825
 4863SOL     OW15487   4.915   3.292   2.737
 4863SOL    HW115488   4.905   3.381   2.781
 4863SOL    HW215489   4.841   3.232   2.766
 4864SOL     OW15490   3.098   1.534   1.739
 4864SOL    HW115491   3.057   1.583   1.816
 4864SOL    HW215492   3.075   1.580   1.653
 4865SOL     OW15493   2.846   4.818   5.934
 4865SOL    HW115494   2.889   4.809   5.844
 4865SOL    HW215495   2.827   4.914   5.952
 4866SOL     OW15496   6.074   5.135   1.855
 4866SOL    HW115497   5.977   5.157   1.857
 4866SOL    HW215498   6.104   5.107   1.946
 4867SOL     OW15499   4.985   5.989   3.482
 4867SOL    HW115500   5.060   5.982   3.549
 4867SOL    HW215501   4.899   5.964   3.527
 4868SOL     OW15502   0.907   5.405   1.310
 4868SOL    HW115503   0.883   5.499   1.287
 4868SOL    HW215504   0.999   5.402   1.348
 4869SOL     OW15505   6.482   2.121   0.573
 4869SOL    HW115506   6.472   2.041   0.632
 4869SOL    HW215507   6.509   2.092   0.481
 4870SOL     OW15508   4.158   5.753   1.548
 4870SOL    HW115509   4.189   5.758   1.453
 4870SOL    HW215510   4.071   5.801   1.557
 4871SOL     OW15511   1.310   1.740   3.103
 4871SOL    HW115512   1.265   1.823   3.134
 4871SOL    HW215513   1.255   1.697   3.031
 4872SOL     OW15514   1.126   6.986   3.055
 4872SOL    HW115515   1.095   6.989   3.150
 4872SOL    HW215516   1.174   0.043   3.033
 4873SOL     OW15517   0.262   5.126   5.302
 4873SOL    HW115518   0.220   5.168   5.222
 4873SOL    HW215519   0.302   5.038   5.275
 4874SOL     OW15520   5.569   3.967   2.575
 4874SOL    HW115521   5.511   3.946   2.496
 4874SOL    HW215522   5.591   4.064   2.575
 4875SOL     OW15523   5.468   1.924   1.337
 4875SOL    HW115524   5.430   1.898   1.248
 4875SOL    HW215525   5.541   1.991   1.324
 4876SOL     OW15526   6.014   0.352   5.618
 4876SOL    HW115527   5.930   0.298   5.622
 4876SOL    HW215528   6.006   0.431   5.678
 4877SOL     OW15529   6.517   1.718   0.905
 4877SOL    HW115530   6.510   1.759   0.996
 4877SOL    HW215531   6.546   1.788   0.840
 4878SOL     OW15532   0.268   1.835   1.966
 4878SOL    HW115533   0.224   1.915   2.007
 4878SOL    HW215534   0.343   1.864   1.907
 4879SOL     OW15535   4.400   4.557   2.956
 4879SOL    HW115536   4.359   4.557   3.047
 4879SOL    HW215537   4.499   4.544   2.964
 4880SOL     OW15538   5.371   1.881   0.278
 4880SOL    HW115539   5.463   1.894   0.315
 4880SOL    HW215540   5.358   1.943   0.200
 4881SOL     OW15541   2.728   6.427   5.999
 4881SOL    HW115542   2.636   6.442   5.963
 4881SOL    HW215543   2.784   6.380   5.931
 4882SOL     OW15544   6.467   1.604   5.576
 4882SOL    HW115545   6.435   1.677   5.516
 4882SOL    HW215546   6.536   1.640   5.639
 4883SOL     OW15547   5.452   4.513   2.422
 4883SOL    HW115548   5.387   4.476   2.488
 4883SOL    HW215549   5.432   4.476   2.332
 4884SOL     OW15550   4.495   0.394   1.610
 4884SOL    HW115551   4.551   0.444   1.544
 4884SOL    HW215552   4.402   0.430   1.610
 4885SOL     OW15553   1.768   6.527   1.931
 4885SOL    HW115554   1.741   6.621   1.954
 4885SOL    HW215555   1.847   6.500   1.985
 4886SOL     OW15556   0.184   6.485   6.754
 4886SOL    HW115557   0.147   6.446   6.669
 4886SOL    HW215558   0.276   6.519   6.738
 4887SOL     OW15559   6.534   2.189   3.743
 4887SOL    HW115560   6.558   2.222   3.834
 4887SOL    HW215561   6.435   2.188   3.733
 4888SOL     OW15562   1.830   0.026   3.663
 4888SOL    HW115563   1.899   7.009   3.606
 4888SOL    HW215564   1.759   6.987   3.688
 4889SOL     OW15565   0.504   2.360   0.427
 4889SOL    HW115566   0.463   2.288   0.483
 4889SOL    HW215567   0.598   2.335   0.405
 4890SOL     OW15568   0.985   1.636   4.121
 4890SOL    HW115569   1.066   1.691   4.105
 4890SOL    HW215570   0.938   1.668   4.203
 4891SOL     OW15571   1.239   5.138   0.275
 4891SOL    HW115572   1.176   5.081   0.222
 4891SOL    HW215573   1.299   5.079   0.330
 4892SOL     OW15574   1.085   5.736   2.452
 4892SOL    HW115575   1.036   5.792   2.386
 4892SOL    HW215576   1.098   5.644   2.415
 4893SOL     OW15577   6.796   4.607   6.695
 4893SOL    HW115578   6.715   4.639   6.646
 4893SOL    HW215579   6.770   4.538   6.762
 4894SOL     OW15580   2.010   0.300   2.884
 4894SOL    HW115581   1.984   0.359   2.807
 4894SOL    HW215582   1.931   0.243   2.909
 4895SOL     OW15583   0.861   3.433   0.913
 4895SOL    HW115584   0.797   3.483   0.854
 4895SOL    HW215585   0.868   3.338   0.881
 4896SOL     OW15586   3.258   5.567   3.448
 4896SOL    HW115587   3.300   5.564   3.357
 4896SOL    HW215588   3.282   5.484   3.498
 4897SOL     OW15589   3.460   4.946   6.355
 4897SOL    HW115590   3.400   4.956   6.434
 4897SOL    HW215591   3.407   4.956   6.271
 4898SOL     OW15592   5.284   2.464   5.732
 4898SOL    HW115593   5.231   2.406   5.795
 4898SOL    HW215594   5.360   2.410   5.695
 4899SOL     OW15595   6.257   4.850   2.744
 4899SOL    HW115596   6.297   4.805   2.665
 4899SOL    HW215597   6.279   4.948   2.741
 4900SOL     OW15598   0.153   6.736   5.717
 4900SOL    HW115599   0.104   6.656   5.751
 4900SOL    HW215600   0.106   6.772   5.636
 4901SOL     OW15601   1.940   0.285   4.285
 4901SOL    HW115602   1.871   0.332   4.339
 4901SOL    HW215603   1.992   0.352   4.231
 4902SOL     OW15604   1.325   3.693   2.200
 4902SOL    HW115605   1.371   3.766   2.151
 4902SOL    HW215606   1.267   3.732   2.272
 4903SOL     OW15607   4.158   6.363   6.775
 4903SOL    HW115608   4.148   6.381   6.677
 4903SOL    HW215609   4.093   6.419   6.826
 4904SOL     OW15610   2.208   5.694   4.338
 4904SOL    HW115611   2.109   5.680   4.336
 4904SOL    HW215612   2.253   5.621   4.287
 4905SOL     OW15613   4.719   2.272   2.229
 4905SOL    HW115614   4.622   2.280   2.210
 4905SOL    HW215615   4.754   2.359   2.263
 4906SOL     OW15616   4.517   6.768   0.407
 4906SOL    HW115617   4.550   6.681   0.370
 4906SOL    HW215618   4.480   6.753   0.499
 4907SOL     OW15619   4.244   6.183   3.293
 4907SOL    HW115620   4.151   6.204   3.264
 4907SOL    HW215621   4.246   6.096   3.342
 4908SOL     OW15622   4.206   5.855   6.793
 4908SOL    HW115623   4.227   5.764   6.756
 4908SOL    HW215624   4.255   5.924   6.740
 4909SOL     OW15625   5.785   0.207   5.613
 4909SOL    HW115626   5.754   0.175   5.703
 4909SOL    HW215627   5.803   0.128   5.554
 4910SOL     OW15628   5.084   0.276   5.373
 4910SOL    HW115629   5.022   0.199   5.358
 4910SOL    HW215630   5.163   0.267   5.313
 4911SOL     OW15631   6.770   2.067   5.836
 4911SOL    HW115632   6.779   2.141   5.903
 4911SOL    HW215633   6.696   2.006   5.863
 4912SOL     OW15634   4.704   1.409   2.049
 4912SOL    HW115635   4.720   1.490   1.992
 4912SOL    HW215636   4.606   1.387   2.047
 4913SOL     OW15637   3.314   4.080   3.771
 4913SOL    HW115638   3.312   3.980   3.768
 4913SOL    HW215639   3.330   4.110   3.865
 4914SOL     OW15640   3.050   1.069   4.188
 4914SOL    HW115641   2.984   1.128   4.141
 4914SOL    HW215642   3.035   0.974   4.161
 4915SOL     OW15643   4.501   6.936   4.435
 4915SOL    HW115644   4.594   6.906   4.412
 4915SOL    HW215645   4.451   6.959   4.351
 4916SOL     OW15646   2.460   1.949   3.141
 4916SOL    HW115647   2.435   2.043   3.118
 4916SOL    HW215648   2.481   1.898   3.057
 4917SOL     OW15649   1.526   3.611   0.887
 4917SOL    HW115650   1.541   3.619   0.788
 4917SOL    HW215651   1.433   3.579   0.904
 4918SOL     OW15652   2.563   6.970   3.139
 4918SOL    HW115653   2.641   6.938   3.085
 4918SOL    HW215654   2.577   0.038   3.164
 4919SOL     OW15655   1.737   2.096   3.061
 4919SOL    HW115656   1.712   2.022   3.000
 4919SOL    HW215657   1.731   2.183   3.012
 4920SOL     OW15658   4.192   0.427   6.940
 4920SOL    HW115659   4.218   0.347   6.994
 4920SOL    HW215660   4.202   0.510   6.995
 4921SOL     OW15661   2.404   3.892   1.674
 4921SOL    HW115662   2.353   3.817   1.631
 4921SOL    HW215663   2.359   3.918   1.760
 4922SOL     OW15664   1.213   3.314   5.423
 4922SOL    HW115665   1.178   3.309   5.329
 4922SOL    HW215666   1.169   3.390   5.471
 4923SOL     OW15667   4.995   0.114   2.409
 4923SOL    HW115668   5.071   0.131   2.346
 4923SOL    HW215669   4.916   0.080   2.357
 4924SOL     OW15670   1.704   3.352   4.560
 4924SOL    HW115671   1.710   3.270   4.504
 4924SOL    HW215672   1.724   3.328   4.655
 4925SOL     OW15673   5.652   6.335   0.999
 4925SOL    HW115674   5.595   6.367   1.075
 4925SOL    HW215675   5.697   6.414   0.957
 4926SOL     OW15676   5.192   2.833   1.578
 4926SOL    HW115677   5.217   2.919   1.533
 4926SOL    HW215678   5.188   2.847   1.676
 4927SOL     OW15679   3.824   3.083   2.990
 4927SOL    HW115680   3.838   3.005   2.928
 4927SOL    HW215681   3.832   3.051   3.084
 4928SOL     OW15682   0.670   6.749   6.402
 4928SOL    HW115683   0.634   6.770   6.493
 4928SOL    HW215684   0.698   6.834   6.357
 4929SOL     OW15685   1.406   4.457   5.112
 4929SOL    HW115686   1.335   4.416   5.056
 4929SOL    HW215687   1.472   4.386   5.140
 4930SOL     OW15688   0.873   1.248   0.513
 4930SOL    HW115689   0.919   1.224   0.598
 4930SOL    HW215690   0.914   1.196   0.438
 4931SOL     OW15691   0.600   0.588   0.004
 4931SOL    HW115692   0.656   0.669   0.015
 4931SOL    HW215693   0.634   0.534   6.955
 4932SOL     OW15694   2.382   2.980   1.744
 4932SOL    HW115695   2.477   2.953   1.753
 4932SOL    HW215696   2.358   2.985   1.647
 4933SOL     OW15697   2.384   1.237   4.344
 4933SOL    HW115698   2.447   1.315   4.347
 4933SOL    HW215699   2.294   1.265   4.377
 4934SOL     OW15700   0.751   5.315   4.390
 4934SOL    HW115701   0.804   5.316   4.475
 4934SOL    HW215702   0.687   5.238   4.391
 4935SOL     OW15703   1.437   1.044   6.552
 4935SOL    HW115704   1.522   1.095   6.547
 4935SOL    HW215705   1.387   1.054   6.466
 4936SOL     OW15706   2.782   5.799   1.568
 4936SOL    HW115707   2.873   5.802   1.611
 4936SOL    HW215708   2.767   5.709   1.527
 4937SOL     OW15709   0.748   3.837   6.245
 4937SOL    HW115710   0.830   3.890   6.222
 4937SOL    HW215711   0.670   3.874   6.194
 4938SOL     OW15712   3.163   4.702   1.675
 4938SOL    HW115713   3.083   4.651   1.643
 4938SOL    HW215714   3.246   4.648   1.659
 4939SOL     OW15715   1.552   1.893   1.965
 4939SOL    HW115716   1.620   1.882   1.892
 4939SOL    HW215717   1.586   1.957   2.033
 4940SOL     OW15718   6.899   1.525   5.112
 4940SOL    HW115719   6.993   1.539   5.081
 4940SOL    HW215720   6.840   1.508   5.033
 4941SOL     OW15721   3.978   2.589   5.359
 4941SOL    HW115722   3.944   2.496   5.373
 4941SOL    HW215723   4.048   2.589   5.288
 4942SOL     OW15724   5.282   3.130   4.038
 4942SOL    HW115725   5.345   3.061   4.074
 4942SOL    HW215726   5.216   3.156   4.109
 4943SOL     OW15727   6.063   3.941   6.626
 4943SOL    HW115728   5.969   3.910   6.637
 4943SOL    HW215729   6.114   3.875   6.572
 4944SOL     OW15730   2.123   4.781   0.427
 4944SOL    HW115731   2.170   4.844   0.489
 4944SOL    HW215732   2.170   4.693   0.426
 4945SOL     OW15733   1.701   1.331   5.494
 4945SOL    HW115734   1.669   1.337   5.399
 4945SOL    HW215735   1.761   1.408   5.513
 4946SOL     OW15736   0.940   4.609   6.768
 4946SOL    HW115737   0.938   4.709   6.773
 4946SOL    HW215738   0.858   4.572   6.810
 4947SOL     OW15739   3.014   0.866   2.177
 4947SOL    HW115740   2.924   0.822   2.178
 4947SOL    HW215741   3.080   0.807   2.131
 4948SOL     OW15742   1.669   2.487   2.188
 4948SOL    HW115743   1.726   2.567   2.205
 4948SOL    HW215744   1.628   2.456   2.274
 4949SOL     OW15745   6.661   4.002   5.951
 4949SOL    HW115746   6.624   4.054   6.028
 4949SOL    HW215747   6.620   4.035   5.866
 4950SOL     OW15748   2.146   4.013   4.731
 4950SOL    HW115749   2.216   3.999   4.801
 4950SOL    HW215750   2.129   4.111   4.721
 4951SOL     OW15751   6.273   6.317   3.953
 4951SOL    HW115752   6.254   6.294   4.048
 4951SOL    HW215753   6.361   6.364   3.947
 4952SOL     OW15754   6.728   0.285   6.577
 4952SOL    HW115755   6.779   0.357   6.624
 4952SOL    HW215756   6.786   0.204   6.566
 4953SOL     OW15757   2.056   1.531   4.149
 4953SOL    HW115758   2.127   1.556   4.216
 4953SOL    HW215759   2.054   1.599   4.076
 4954SOL     OW15760   2.269   3.894   5.852
 4954SOL    HW115761   2.171   3.880   5.841
 4954SOL    HW215762   2.286   3.985   5.889
 4955SOL     OW15763   2.969   5.211   0.115
 4955SOL    HW115764   3.020   5.133   0.080
 4955SOL    HW215765   2.898   5.237   0.050
 4956SOL     OW15766   2.957   0.622   5.290
 4956SOL    HW115767   2.998   0.569   5.364
 4956SOL    HW215768   3.018   0.621   5.211
 4957SOL     OW15769   5.874   3.716   0.438
 4957SOL    HW115770   5.799   3.764   0.392
 4957SOL    HW215771   5.842   3.685   0.528
 4958SOL     OW15772   2.298   6.198   5.369
 4958SOL    HW115773   2.202   6.172   5.355
 4958SOL    HW215774   2.355   6.156   5.298
 4959SOL     OW15775   6.780   2.031   1.271
 4959SOL    HW115776   6.822   1.946   1.303
 4959SOL    HW215777   6.847   2.086   1.222
 4960SOL     OW15778   4.222   4.826   3.615
 4960SOL    HW115779   4.126   4.854   3.616
 4960SOL    HW215780   4.252   4.813   3.520
 4961SOL     OW15781   3.072   0.809   6.885
 4961SOL    HW115782   3.039   0.899   6.915
 4961SOL    HW215783   3.049   0.741   6.954
 4962SOL     OW15784   5.523   2.119   0.901
 4962SOL    HW115785   5.454   2.131   0.830
 4962SOL    HW215786   5.574   2.205   0.913
 4963SOL     OW15787   1.658   6.021   1.046
 4963SOL    HW115788   1.603   6.103   1.030
 4963SOL    HW215789   1.740   6.024   0.988
 4964SOL     OW15790   2.203   6.341   5.034
 4964SOL    HW115791   2.120   6.378   4.992
 4964SOL    HW215792   2.283   6.389   4.998
 4965SOL     OW15793   0.787   6.759   3.205
 4965SOL    HW115794   0.851   6.686   3.231
 4965SOL    HW215795   0.713   6.763   3.273
 4966SOL     OW15796   2.423   6.583   4.218
 4966SOL    HW115797   2.474   6.582   4.303
 4966SOL    HW215798   2.461   6.515   4.155
 4967SOL     OW15799   3.248   4.572   6.194
 4967SOL    HW115800   3.344   4.577   6.166
 4967SOL    HW215801   3.221   4.476   6.203
 4968SOL     OW15802   0.304   0.834   3.968
 4968SOL    HW115803   0.345   0.906   4.023
 4968SOL    HW215804   0.228   0.793   4.018
 4969SOL     OW15805   0.263   6.285   2.541
 4969SOL    HW115806   0.274   6.261   2.638
 4969SOL    HW215807   0.265   6.202   2.486
 4970SOL     OW15808   2.372   0.871   1.759
 4970SOL    HW115809   2.338   0.901   1.670
 4970SOL    HW215810   2.399   0.951   1.813
 4971SOL     OW15811   6.057   5.644   2.741
 4971SOL    HW115812   6.023   5.736   2.722
 4971SOL    HW215813   6.140   5.650   2.796
 4972SOL     OW15814   1.394   4.387   0.089
 4972SOL    HW115815   1.478   4.361   0.138
 4972SOL    HW215816   1.380   4.325   0.013
 4973SOL     OW15817   0.583   0.697   1.878
 4973SOL    HW115818   0.672   0.713   1.835
 4973SOL    HW215819   0.517   0.667   1.809
 4974SOL     OW15820   4.977   4.504   0.161
 4974SOL    HW115821   4.987   4.462   0.071
 4974SOL    HW215822   5.027   4.590   0.164
 4975SOL     OW15823   5.067   3.874   0.785
 4975SOL    HW115824   5.033   3.911   0.872
 4975SOL    HW215825   5.003   3.897   0.712
 4976SOL     OW15826   1.148   0.702   4.561
 4976SOL    HW115827   1.099   0.655   4.634
 4976SOL    HW215828   1.230   0.745   4.599
 4977SOL     OW15829   3.511   3.511   6.770
 4977SOL    HW115830   3.497   3.597   6.721
 4977SOL    HW215831   3.600   3.515   6.817
 4978SOL     OW15832   4.845   4.502   5.150
 4978SOL    HW115833   4.924   4.540   5.198
 4978SOL    HW215834   4.772   4.570   5.147
 4979SOL     OW15835   0.374   6.330   0.083
 4979SOL    HW115836   0.436   6.404   0.057
 4979SOL    HW215837   0.309   6.313   0.009
 4980SOL     OW15838   5.985   4.523   2.504
 4980SOL    HW115839   5.936   4.489   2.585
 4980SOL    HW215840   6.077   4.485   2.502
 4981SOL     OW15841   3.368   5.847   1.639
 4981SOL    HW115842   3.450   5.809   1.596
 4981SOL    HW215843   3.337   5.926   1.586
 4982SOL     OW15844   4.022   1.652   6.870
 4982SOL    HW115845   3.924   1.643   6.855
 4982SOL    HW215846   4.048   1.748   6.866
 4983SOL     OW15847   5.958   5.019   4.125
 4983SOL    HW115848   5.981   4.949   4.057
 4983SOL    HW215849   6.040   5.072   4.148
 4984SOL     OW15850   4.639   4.332   3.213
 4984SOL    HW115851   4.569   4.374   3.271
 4984SOL    HW215852   4.640   4.376   3.124
 4985SOL     OW15853   5.050   6.451   2.655
 4985SOL    HW115854   5.017   6.440   2.561
 4985SOL    HW215855   5.044   6.547   2.681
 4986SOL     OW15856   6.656   5.011   1.296
 4986SOL    HW115857   6.581   4.997   1.231
 4986SOL    HW215858   6.619   5.042   1.383
 4987SOL     OW15859   1.510   6.198   2.926
 4987SOL    HW115860   1.428   6.244   2.959
 4987SOL    HW215861   1.520   6.214   2.827
 4988SOL     OW15862   6.135   1.367   3.395
 4988SOL    HW115863   6.040   1.377   3.425
 4988SOL    HW215864   6.193   1.352   3.475
 4989SOL     OW15865   4.679   0.365   1.902
 4989SOL    HW115866   4.755   0.317   1.859
 4989SOL    HW215867   4.639   0.430   1.837
 4990SOL     OW15868   3.749   1.630   6.817
 4990SOL    HW115869   3.732   1.617   6.719
 4990SOL    HW215870   3.724   1.723   6.843
 4991SOL     OW15871   6.926   5.909   3.970
 4991SOL    HW115872   6.956   5.954   3.887
 4991SOL    HW215873   6.826   5.898   3.968
 4992SOL     OW15874   6.128   1.441   2.981
 4992SOL    HW115875   6.074   1.524   2.966
 4992SOL    HW215876   6.077   1.362   2.947
 4993SOL     OW15877   3.879   6.690   4.848
 4993SOL    HW115878   3.902   6.597   4.822
 4993SOL    HW215879   3.825   6.732   4.775
 4994SOL     OW15880   2.361   5.668   4.561
 4994SOL    HW115881   2.413   5.588   4.532
 4994SOL    HW215882   2.303   5.699   4.486
 4995SOL     OW15883   0.444   0.828   5.135
 4995SOL    HW115884   0.494   0.764   5.194
 4995SOL    HW215885   0.349   0.799   5.126
 4996SOL     OW15886   6.910   1.483   3.728
 4996SOL    HW115887   6.945   1.566   3.683
 4996SOL    HW215888   6.919   1.405   3.666
 4997SOL     OW15889   3.421   2.332   1.183
 4997SOL    HW115890   3.433   2.237   1.155
 4997SOL    HW215891   3.504   2.366   1.227
 4998SOL     OW15892   1.688   3.477   3.682
 4998SOL    HW115893   1.684   3.426   3.768
 4998SOL    HW215894   1.621   3.552   3.684
 4999SOL     OW15895   0.210   3.626   5.051
 4999SOL    HW115896   0.182   3.641   5.146
 4999SOL    HW215897   0.287   3.562   5.049
 5000SOL     OW15898   3.277   6.294   3.124
 5000SOL    HW115899   3.261   6.207   3.170
 5000SOL    HW215900   3.192   6.327   3.083
 5001SOL     OW15901   0.285   5.828   2.439
 5001SOL    HW115902   0.303   5.915   2.394
 5001SOL    HW215903   0.294   5.838   2.538
 5002SOL     OW15904   0.239   5.268   2.059
 5002SOL    HW115905   0.189   5.326   1.995
 5002SOL    HW215906   0.312   5.321   2.103
 5003SOL     OW15907   4.291   6.686   2.806
 5003SOL    HW115908   4.264   6.774   2.769
 5003SOL    HW215909   4.241   6.613   2.759
 5004SOL     OW15910   2.352   5.385   5.274
 5004SOL    HW115911   2.344   5.349   5.181
 5004SOL    HW215912   2.303   5.325   5.337
 5005SOL     OW15913   2.387   3.407   6.313
 5005SOL    HW115914   2.327   3.415   6.233
 5005SOL    HW215915   2.352   3.466   6.386
 5006SOL     OW15916   5.714   1.090   2.418
 5006SOL    HW115917   5.667   1.027   2.356
 5006SOL    HW215918   5.755   1.038   2.494
 5007SOL     OW15919   6.886   0.454   1.138
 5007SOL    HW115920   6.859   0.550   1.133
 5007SOL    HW215921   6.925   0.425   1.050
 5008SOL     OW15922   6.557   5.579   1.369
 5008SOL    HW115923   6.605   5.666   1.365
 5008SOL    HW215924   6.460   5.595   1.389
 5009SOL     OW15925   0.820   2.722   0.358
 5009SOL    HW115926   0.863   2.677   0.280
 5009SOL    HW215927   0.864   2.692   0.442
 5010SOL     OW15928   4.081   2.505   0.829
 5010SOL    HW115929   4.053   2.419   0.873
 5010SOL    HW215930   4.176   2.497   0.800
 5011SOL     OW15931   2.185   3.850   1.376
 5011SOL    HW115932   2.120   3.898   1.435
 5011SOL    HW215933   2.153   3.853   1.281
 5012SOL     OW15934   6.402   3.032   5.298
 5012SOL    HW115935   6.388   3.078   5.210
 5012SOL    HW215936   6.497   3.043   5.327
 5013SOL     OW15937   5.728   0.419   5.873
 5013SOL    HW115938   5.678   0.464   5.947
 5013SOL    HW215939   5.703   0.460   5.785
 5014SOL     OW15940   6.754   4.358   6.923
 5014SOL    HW115941   6.772   4.359   7.021
 5014SOL    HW215942   6.754   4.264   6.890
 5015SOL     OW15943   5.045   0.685   4.775
 5015SOL    HW115944   5.062   0.739   4.857
 5015SOL    HW215945   4.979   0.732   4.717
 5016SOL     OW15946   0.573   3.384   4.711
 5016SOL    HW115947   0.516   3.466   4.719
 5016SOL    HW215948   0.575   3.337   4.799
 5017SOL     OW15949   1.418   2.026   1.263
 5017SOL    HW115950   1.506   1.980   1.254
 5017SOL    HW215951   1.364   1.982   1.335
 5018SOL     OW15952   1.278   5.215   2.449
 5018SOL    HW115953   1.235   5.146   2.507
 5018SOL    HW215954   1.254   5.198   2.353
 5019SOL     OW15955   2.593   6.183   5.822
 5019SOL    HW115956   2.548   6.118   5.761
 5019SOL    HW215957   2.540   6.267   5.826
 5020SOL     OW15958   0.194   7.020   5.410
 5020SOL    HW115959   0.235   0.083   5.404
 5020SOL    HW215960   0.255   6.952   5.369
 5021SOL     OW15961   1.170   0.658   1.036
 5021SOL    HW115962   1.080   0.615   1.035
 5021SOL    HW215963   1.179   0.719   0.957
 5022SOL     OW15964   0.959   2.466   1.900
 5022SOL    HW115965   0.975   2.536   1.830
 5022SOL    HW215966   1.019   2.388   1.883
 5023SOL     OW15967   0.318   4.329   1.748
 5023SOL    HW115968   0.222   4.300   1.743
 5023SOL    HW215969   0.378   4.250   1.739
 5024SOL     OW15970   6.129   5.168   0.989
 5024SOL    HW115971   6.053   5.211   0.941
 5024SOL    HW215972   6.175   5.103   0.929
 5025SOL     OW15973   4.256   1.993   3.698
 5025SOL    HW115974   4.282   2.088   3.711
 5025SOL    HW215975   4.201   1.963   3.776
 5026SOL     OW15976   6.843   5.219   4.836
 5026SOL    HW115977   6.805   5.270   4.758
 5026SOL    HW215978   6.811   5.261   4.921
 5027SOL     OW15979   6.017   0.171   2.005
 5027SOL    HW115980   5.967   0.113   1.940
 5027SOL    HW215981   6.115   0.156   1.994
 5028SOL     OW15982   6.517   1.802   3.694
 5028SOL    HW115983   6.485   1.860   3.619
 5028SOL    HW215984   6.450   1.803   3.768
 5029SOL     OW15985   6.204   2.350   2.207
 5029SOL    HW115986   6.184   2.375   2.302
 5029SOL    HW215987   6.291   2.390   2.179
 5030SOL     OW15988   6.792   6.015   5.903
 5030SOL    HW115989   6.877   5.985   5.947
 5030SOL    HW215990   6.766   5.950   5.832
 5031SOL     OW15991   6.762   1.509   5.485
 5031SOL    HW115992   6.839   1.455   5.451
 5031SOL    HW215993   6.707   1.453   5.547
 5032SOL     OW15994   2.905   1.258   5.643
 5032SOL    HW115995   2.991   1.211   5.626
 5032SOL    HW215996   2.898   1.279   5.741
 5033SOL     OW15997   1.747   0.353   0.028
 5033SOL    HW115998   1.759   0.326   0.124
 5033SOL    HW215999   1.835   0.353   7.010
 5034SOL     OW16000   5.761   6.559   3.948
 5034SOL    HW116001   5.752   6.524   3.855
 5034SOL    HW216002   5.760   6.659   3.945
 5035SOL     OW16003   0.650   3.923   5.797
 5035SOL    HW116004   0.723   3.886   5.740
 5035SOL    HW216005   0.563   3.883   5.770
 5036SOL     OW16006   6.517   5.161   6.751
 5036SOL    HW116007   6.541   5.243   6.802
 5036SOL    HW216008   6.585   5.090   6.769
 5037SOL     OW16009   4.747   4.710   1.401
 5037SOL    HW116010   4.797   4.723   1.315
 5037SOL    HW216011   4.717   4.614   1.407
 5038SOL     OW16012   3.663   3.169   4.087
 5038SOL    HW116013   3.598   3.232   4.044
 5038SOL    HW216014   3.619   3.080   4.102
 5039SOL     OW16015   1.980   3.265   5.518
 5039SOL    HW116016   1.882   3.260   5.542
 5039SOL    HW216017   2.001   3.196   5.449
 5040SOL     OW16018   0.731   6.333   5.309
 5040SOL    HW116019   0.774   6.395   5.243
 5040SOL    HW216020   0.704   6.249   5.263
 5041SOL     OW16021   0.922   2.030   1.783
 5041SOL    HW116022   0.983   1.951   1.788
 5041SOL    HW216023   0.838   2.004   1.735
 5042SOL     OW16024   6.749   2.903   0.319
 5042SOL    HW116025   6.814   2.963   0.366
 5042SOL    HW216026   6.779   2.808   0.327
 5043SOL     OW16027   4.156   0.639   6.676
 5043SOL    HW116028   4.155   0.735   6.707
 5043SOL    HW216029   4.125   0.580   6.750
 5044SOL     OW16030   0.884   5.669   1.189
 5044SOL    HW116031   0.978   5.656   1.161
 5044SOL    HW216032   0.862   5.767   1.190
 5045SOL     OW16033   6.193   5.966   6.193
 5045SOL    HW116034   6.155   6.021   6.118
 5045SOL    HW216035   6.293   5.971   6.190
 5046SOL     OW16036   3.659   3.829   3.580
 5046SOL    HW116037   3.672   3.803   3.484
 5046SOL    HW216038   3.617   3.920   3.585
 5047SOL     OW16039   2.059   4.476   2.855
 5047SOL    HW116040   1.991   4.427   2.910
 5047SOL    HW216041   2.117   4.410   2.808
 5048SOL     OW16042   1.446   1.311   4.023
 5048SOL    HW116043   1.511   1.339   3.952
 5048SOL    HW216044   1.360   1.360   4.010
 5049SOL     OW16045   4.795   1.038   0.024
 5049SOL    HW116046   4.748   1.031   0.112
 5049SOL    HW216047   4.783   1.130   7.016
 5050SOL     OW16048   1.531   1.042   0.017
 5050SOL    HW116049   1.518   1.091   6.959
 5050SOL    HW216050   1.519   0.944   0.002
 5051SOL     OW16051   4.625   4.334   1.654
 5051SOL    HW116052   4.714   4.295   1.677
 5051SOL    HW216053   4.555   4.291   1.711
 5052SOL     OW16054   2.944   1.805   5.731
 5052SOL    HW116055   2.868   1.779   5.672
 5052SOL    HW216056   3.024   1.828   5.675
 5053SOL     OW16057   0.643   4.946   3.151
 5053SOL    HW116058   0.697   4.864   3.171
 5053SOL    HW216059   0.572   4.957   3.220
 5054SOL     OW16060   2.702   5.016   4.848
 5054SOL    HW116061   2.624   4.991   4.790
 5054SOL    HW216062   2.765   4.939   4.854
 5055SOL     OW16063   0.946   2.070   5.875
 5055SOL    HW116064   0.978   2.033   5.963
 5055SOL    HW216065   0.921   1.994   5.815
 5056SOL     OW16066   5.153   3.636   6.013
 5056SOL    HW116067   5.220   3.685   6.069
 5056SOL    HW216068   5.164   3.661   5.917
 5057SOL     OW16069   6.867   0.120   3.397
 5057SOL    HW116070   6.815   0.175   3.332
 5057SOL    HW216071   6.935   0.066   3.348
 5058SOL     OW16072   3.423   3.400   6.127
 5058SOL    HW116073   3.421   3.317   6.183
 5058SOL    HW216074   3.330   3.438   6.122
 5059SOL     OW16075   0.330   0.844   3.318
 5059SOL    HW116076   0.267   0.820   3.244
 5059SOL    HW216077   0.289   0.915   3.376
 5060SOL     OW16078   0.427   2.739   6.135
 5060SOL    HW116079   0.504   2.793   6.167
 5060SOL    HW216080   0.456   2.644   6.121
 5061SOL     OW16081   4.922   2.708   0.294
 5061SOL    HW116082   4.984   2.768   0.243
 5061SOL    HW216083   4.871   2.652   0.229
 5062SOL     OW16084   5.977   0.082   2.705
 5062SOL    HW116085   6.047   0.031   2.655
 5062SOL    HW216086   5.886   0.055   2.672
 5063SOL     OW16087   0.405   6.783   2.644
 5063SOL    HW116088   0.437   6.877   2.651
 5063SOL    HW216089   0.368   6.754   2.732
 5064SOL     OW16090   5.131   3.397   0.968
 5064SOL    HW116091   5.109   3.488   1.004
 5064SOL    HW216092   5.203   3.356   1.023
 5065SOL     OW16093   2.883   0.639   5.673
 5065SOL    HW116094   2.957   0.595   5.622
 5065SOL    HW216095   2.894   0.621   5.770
 5066SOL     OW16096   4.876   4.647   1.707
 5066SOL    HW116097   4.809   4.572   1.714
 5066SOL    HW216098   4.828   4.732   1.686
 5067SOL     OW16099   4.762   1.691   1.100
 5067SOL    HW116100   4.839   1.655   1.046
 5067SOL    HW216101   4.678   1.644   1.073
 5068SOL     OW16102   2.745   4.807   0.898
 5068SOL    HW116103   2.698   4.887   0.860
 5068SOL    HW216104   2.817   4.837   0.959
 5069SOL     OW16105   1.648   4.560   3.266
 5069SOL    HW116106   1.606   4.618   3.197
 5069SOL    HW216107   1.577   4.523   3.326
 5070SOL     OW16108   5.097   3.338   3.593
 5070SOL    HW116109   5.061   3.359   3.684
 5070SOL    HW216110   5.048   3.260   3.555
 5071SOL     OW16111   4.594   2.512   4.598
 5071SOL    HW116112   4.674   2.477   4.647
 5071SOL    HW216113   4.513   2.506   4.657
 5072SOL     OW16114   0.765   6.422   0.792
 5072SOL    HW116115   0.817   6.505   0.815
 5072SOL    HW216116   0.667   6.440   0.807
 5073SOL     OW16117   6.308   6.967   3.208
 5073SOL    HW116118   6.393   6.974   3.156
 5073SOL    HW216119   6.232   6.996   3.150
 5074SOL     OW16120   3.389   3.161   6.646
 5074SOL    HW116121   3.360   3.069   6.620
 5074SOL    HW216122   3.310   3.215   6.673
 5075SOL     OW16123   0.532   1.571   5.794
 5075SOL    HW116124   0.622   1.537   5.819
 5075SOL    HW216125   0.493   1.623   5.870
 5076SOL     OW16126   3.549   0.738   1.310
 5076SOL    HW116127   3.494   0.738   1.394
 5076SOL    HW216128   3.582   0.831   1.293
 5077SOL     OW16129   0.106   2.898   4.382
 5077SOL    HW116130   0.135   2.805   4.359
 5077SOL    HW216131   0.035   2.928   4.317
 5078SOL     OW16132   0.820   2.085   3.582
 5078SOL    HW116133   0.874   2.038   3.652
 5078SOL    HW216134   0.870   2.085   3.496
 5079SOL     OW16135   2.549   4.551   6.320
 5079SOL    HW116136   2.512   4.611   6.390
 5079SOL    HW216137   2.609   4.603   6.259
 5080SOL     OW16138   5.835   6.658   5.457
 5080SOL    HW116139   5.753   6.712   5.475
 5080SOL    HW216140   5.811   6.580   5.400
 5081SOL     OW16141   4.032   3.479   3.124
 5081SOL    HW116142   3.947   3.426   3.119
 5081SOL    HW216143   4.070   3.472   3.216
 5082SOL     OW16144   6.034   5.244   5.447
 5082SOL    HW116145   6.026   5.240   5.547
 5082SOL    HW216146   5.968   5.182   5.406
 5083SOL     OW16147   1.966   6.644   2.832
 5083SOL    HW116148   1.922   6.625   2.744
 5083SOL    HW216149   1.995   6.558   2.873
 5084SOL     OW16150   1.079   4.901   4.888
 5084SOL    HW116151   1.025   4.958   4.826
 5084SOL    HW216152   1.142   4.844   4.836
 5085SOL     OW16153   5.658   2.299   0.052
 5085SOL    HW116154   5.615   2.217   0.014
 5085SOL    HW216155   5.730   2.330   7.018
 5086SOL     OW16156   6.466   5.459   4.236
 5086SOL    HW116157   6.535   5.531   4.244
 5086SOL    HW216158   6.434   5.434   4.328
 5087SOL     OW16159   6.557   6.169   3.331
 5087SOL    HW116160   6.588   6.263   3.333
 5087SOL    HW216161   6.522   6.143   3.422
 5088SOL     OW16162   5.830   1.499   5.271
 5088SOL    HW116163   5.888   1.528   5.196
 5088SOL    HW216164   5.854   1.405   5.297
 5089SOL     OW16165   6.381   3.444   3.088
 5089SOL    HW116166   6.393   3.358   3.039
 5089SOL    HW216167   6.406   3.520   3.028
 5090SOL     OW16168   1.940   3.893   1.538
 5090SOL    HW116169   1.863   3.905   1.475
 5090SOL    HW216170   1.916   3.824   1.606
 5091SOL     OW16171   0.667   5.803   2.815
 5091SOL    HW116172   0.577   5.788   2.857
 5091SOL    HW216173   0.728   5.729   2.842
 5092SOL     OW16174   3.258   2.562   1.307
 5092SOL    HW116175   3.183   2.502   1.338
 5092SOL    HW216176   3.314   2.513   1.240
 5093SOL     OW16177   1.492   1.792   1.547
 5093SOL    HW116178   1.581   1.804   1.592
 5093SOL    HW216179   1.437   1.727   1.599
 5094SOL     OW16180   1.079   0.073   5.259
 5094SOL    HW116181   1.143   0.105   5.329
 5094SOL    HW216182   0.993   0.123   5.266
 5095SOL     OW16183   0.964   1.365   4.439
 5095SOL    HW116184   0.879   1.319   4.411
 5095SOL    HW216185   0.942   1.450   4.486
 5096SOL     OW16186   4.190   4.143   0.871
 5096SOL    HW116187   4.235   4.165   0.784
 5096SOL    HW216188   4.111   4.084   0.853
 5097SOL     OW16189   1.790   0.106   6.329
 5097SOL    HW116190   1.747   0.046   6.261
 5097SOL    HW216191   1.830   0.050   6.402
 5098SOL     OW16192   0.476   0.685   1.613
 5098SOL    HW116193   0.386   0.707   1.577
 5098SOL    HW216194   0.541   0.757   1.589
 5099SOL     OW16195   0.974   0.665   6.258
 5099SOL    HW116196   1.034   0.615   6.196
 5099SOL    HW216197   0.893   0.611   6.278
 5100SOL     OW16198   4.680   6.389   5.871
 5100SOL    HW116199   4.697   6.487   5.884
 5100SOL    HW216200   4.682   6.343   5.959
 5101SOL     OW16201   5.422   6.330   6.794
 5101SOL    HW116202   5.425   6.241   6.838
 5101SOL    HW216203   5.341   6.380   6.825
 5102SOL     OW16204   5.913   0.844   5.757
 5102SOL    HW116205   5.893   0.846   5.659
 5102SOL    HW216206   5.937   0.750   5.783
 5103SOL     OW16207   6.951   0.974   4.659
 5103SOL    HW116208   6.875   0.912   4.676
 5103SOL    HW216209   0.009   0.922   4.655
 5104SOL     OW16210   1.841   6.824   1.540
 5104SOL    HW116211   1.909   6.854   1.607
 5104SOL    HW216212   1.761   6.788   1.588
 5105SOL     OW16213   4.201   3.445   0.005
 5105SOL    HW116214   4.216   3.353   0.043
 5105SOL    HW216215   4.142   3.497   0.066
 5106SOL     OW16216   3.353   0.183   2.589
 5106SOL    HW116217   3.446   0.219   2.579
 5106SOL    HW216218   3.319   0.152   2.500
 5107SOL     OW16219   3.090   0.872   0.230
 5107SOL    HW116220   3.102   0.772   0.233
 5107SOL    HW216221   2.992   0.893   0.234
 5108SOL     OW16222   2.911   3.559   3.692
 5108SOL    HW116223   2.926   3.571   3.790
 5108SOL    HW216224   2.995   3.579   3.643
 5109SOL     OW16225   0.637   1.637   1.110
 5109SOL    HW116226   0.661   1.553   1.062
 5109SOL    HW216227   0.659   1.627   1.207
 5110SOL     OW16228   1.179   6.713   6.482
 5110SOL    HW116229   1.233   6.695   6.400
 5110SOL    HW216230   1.143   6.627   6.518
 5111SOL     OW16231   0.762   1.250   5.780
 5111SOL    HW116232   0.808   1.234   5.868
 5111SOL    HW216233   0.816   1.209   5.706
 5112SOL     OW16234   0.627   6.737   3.436
 5112SOL    HW116235   0.666   6.763   3.524
 5112SOL    HW216236   0.555   6.802   3.410
 5113SOL     OW16237   1.282   0.155   0.849
 5113SOL    HW116238   1.341   0.202   0.914
 5113SOL    HW216239   1.336   0.118   0.774
 5114SOL     OW16240   3.336   3.029   0.236
 5114SOL    HW116241   3.385   3.058   0.154
 5114SOL    HW216242   3.361   3.088   0.313
 5115SOL     OW16243   1.809   4.489   5.214
 5115SOL    HW116244   1.792   4.584   5.187
 5115SOL    HW216245   1.907   4.477   5.232
 5116SOL     OW16246   5.617   5.647   5.853
 5116SOL    HW116247   5.684   5.610   5.918
 5116SOL    HW216248   5.535   5.676   5.902
 5117SOL     OW16249   2.164   4.471   3.966
 5117SOL    HW116250   2.203   4.417   3.891
 5117SOL    HW216251   2.228   4.470   4.043
 5118SOL     OW16252   4.990   6.168   0.239
 5118SOL    HW116253   4.964   6.107   0.313
 5118SOL    HW216254   4.930   6.153   0.160
 5119SOL     OW16255   4.965   0.461   1.798
 5119SOL    HW116256   5.013   0.389   1.848
 5119SOL    HW216257   5.019   0.545   1.800
 5120SOL     OW16258   5.899   1.515   3.199
 5120SOL    HW116259   5.893   1.474   3.290
 5120SOL    HW216260   5.968   1.588   3.200
 5121SOL     OW16261   1.439   2.745   6.533
 5121SOL    HW116262   1.408   2.652   6.554
 5121SOL    HW216263   1.472   2.789   6.616
 5122SOL     OW16264   2.853   0.953   3.905
 5122SOL    HW116265   2.801   0.877   3.944
 5122SOL    HW216266   2.790   1.026   3.878
 5123SOL     OW16267   5.387   3.388   4.726
 5123SOL    HW116268   5.478   3.425   4.746
 5123SOL    HW216269   5.329   3.399   4.807
 5124SOL     OW16270   2.534   5.219   6.385
 5124SOL    HW116271   2.634   5.217   6.375
 5124SOL    HW216272   2.509   5.293   6.446
 5125SOL     OW16273   0.188   3.766   4.576
 5125SOL    HW116274   0.236   3.687   4.537
 5125SOL    HW216275   0.090   3.758   4.557
 5126SOL     OW16276   6.192   4.878   5.499
 5126SOL    HW116277   6.203   4.904   5.403
 5126SOL    HW216278   6.276   4.834   5.531
 5127SOL     OW16279   5.804   3.995   0.932
 5127SOL    HW116280   5.770   3.906   0.901
 5127SOL    HW216281   5.727   4.054   0.956
 5128SOL     OW16282   0.963   0.629   0.272
 5128SOL    HW116283   0.930   0.550   0.220
 5128SOL    HW216284   1.048   0.604   0.319
 5129SOL     OW16285   4.988   1.213   3.091
 5129SOL    HW116286   4.990   1.123   3.049
 5129SOL    HW216287   5.059   1.219   3.161
 5130SOL     OW16288   1.106   5.740   4.781
 5130SOL    HW116289   1.094   5.681   4.861
 5130SOL    HW216290   1.157   5.690   4.710
 5131SOL     OW16291   3.249   4.857   3.311
 5131SOL    HW116292   3.310   4.895   3.241
 5131SOL    HW216293   3.185   4.793   3.268
 5132SOL     OW16294   3.596   1.455   6.157
 5132SOL    HW116295   3.658   1.380   6.132
 5132SOL    HW216296   3.634   1.542   6.127
 5133SOL     OW16297   3.242   5.288   5.915
 5133SOL    HW116298   3.148   5.314   5.893
 5133SOL    HW216299   3.277   5.348   5.988
 5134SOL     OW16300   6.332   6.912   2.115
 5134SOL    HW116301   6.350   6.814   2.118
 5134SOL    HW216302   6.377   6.952   2.035
 5135SOL     OW16303   6.572   3.561   2.776
 5135SOL    HW116304   6.622   3.479   2.805
 5135SOL    HW216305   6.549   3.616   2.856
 5136SOL     OW16306   6.728   1.706   5.690
 5136SOL    HW116307   6.742   1.684   5.594
 5136SOL    HW216308   6.740   1.623   5.746
 5137SOL     OW16309   5.026   3.066   5.075
 5137SOL    HW116310   4.957   3.084   5.145
 5137SOL    HW216311   4.986   3.083   4.985
 5138SOL     OW16312   3.443   3.873   3.982
 5138SOL    HW116313   3.514   3.804   3.997
 5138SOL    HW216314   3.416   3.874   3.886
 5139SOL     OW16315   0.952   0.522   4.693
 5139SOL    HW116316   0.996   0.438   4.726
 5139SOL    HW216317   0.854   0.517   4.711
 5140SOL     OW16318   3.809   1.641   6.313
 5140SOL    HW116319   3.777   1.679   6.226
 5140SOL    HW216320   3.904   1.670   6.329
 5141SOL     OW16321   6.207   2.556   0.804
 5141SOL    HW116322   6.154   2.641   0.805
 5141SOL    HW216323   6.300   2.575   0.774
 5142SOL     OW16324   5.817   6.756   4.380
 5142SOL    HW116325   5.891   6.795   4.436
 5142SOL    HW216326   5.809   6.658   4.399
 5143SOL     OW16327   0.981   4.094   4.283
 5143SOL    HW116328   1.077   4.120   4.290
 5143SOL    HW216329   0.973   3.994   4.289
 5144SOL     OW16330   2.129   3.619   6.786
 5144SOL    HW116331   2.208   3.649   6.841
 5144SOL    HW216332   2.155   3.540   6.731
 5145SOL     OW16333   3.593   5.995   6.316
 5145SOL    HW116334   3.643   5.909   6.317
 5145SOL    HW216335   3.496   5.978   6.298
 5146SOL     OW16336   4.077   4.272   5.777
 5146SOL    HW116337   3.987   4.253   5.814
 5146SOL    HW216338   4.072   4.351   5.715
 5147SOL     OW16339   5.513   4.181   3.204
 5147SOL    HW116340   5.504   4.104   3.268
 5147SOL    HW216341   5.478   4.264   3.247
 5148SOL     OW16342   0.703   0.552   2.296
 5148SOL    HW116343   0.745   0.536   2.386
 5148SOL    HW216344   0.663   0.643   2.294
 5149SOL     OW16345   5.622   4.654   4.227
 5149SOL    HW116346   5.660   4.744   4.245
 5149SOL    HW216347   5.523   4.662   4.214
 5150SOL     OW16348   1.217   5.045   3.640
 5150SOL    HW116349   1.256   5.096   3.563
 5150SOL    HW216350   1.225   4.947   3.623
 5151SOL     OW16351   5.610   4.531   1.375
 5151SOL    HW116352   5.620   4.627   1.347
 5151SOL    HW216353   5.609   4.525   1.475
 5152SOL     OW16354   1.364   6.314   6.967
 5152SOL    HW116355   1.413   6.296   6.882
 5152SOL    HW216356   1.269   6.285   6.958
 5153SOL     OW16357   1.779   1.379   0.257
 5153SOL    HW116358   1.753   1.308   0.322
 5153SOL    HW216359   1.741   1.467   0.286
 5154SOL     OW16360   1.230   2.815   6.862
 5154SOL    HW116361   1.299   2.855   6.801
 5154SOL    HW216362   1.139   2.846   6.834
 5155SOL     OW16363   2.666   1.731   0.729
 5155SOL    HW116364   2.634   1.644   0.766
 5155SOL    HW216365   2.643   1.805   0.793
 5156SOL     OW16366   5.510   5.254   5.264
 5156SOL    HW116367   5.539   5.327   5.202
 5156SOL    HW216368   5.590   5.215   5.310
 5157SOL     OW16369   3.364   1.781   1.840
 5157SOL    HW116370   3.451   1.830   1.842
 5157SOL    HW216371   3.362   1.721   1.760
 5158SOL     OW16372   3.385   1.855   1.149
 5158SOL    HW116373   3.481   1.826   1.151
 5158SOL    HW216374   3.363   1.901   1.235
 5159SOL     OW16375   6.181   3.771   6.458
 5159SOL    HW116376   6.109   3.701   6.461
 5159SOL    HW216377   6.270   3.727   6.447
 5160SOL     OW16378   6.228   6.262   3.253
 5160SOL    HW116379   6.232   6.354   3.215
 5160SOL    HW216380   6.226   6.266   3.353
 5161SOL     OW16381   1.156   3.585   6.761
 5161SOL    HW116382   1.209   3.665   6.733
 5161SOL    HW216383   1.216   3.506   6.772
 5162SOL     OW16384   0.651   5.290   2.523
 5162SOL    HW116385   0.642   5.229   2.445
 5162SOL    HW216386   0.564   5.335   2.541
 5163SOL     OW16387   3.057   6.057   1.674
 5163SOL    HW116388   3.142   6.060   1.622
 5163SOL    HW216389   3.016   6.148   1.677
 5164SOL     OW16390   2.822   2.908   0.418
 5164SOL    HW116391   2.857   2.825   0.462
 5164SOL    HW216392   2.893   2.944   0.357
 5165SOL     OW16393   1.358   4.710   6.807
 5165SOL    HW116394   1.295   4.706   6.730
 5165SOL    HW216395   1.445   4.668   6.781
 5166SOL     OW16396   1.607   5.430   2.176
 5166SOL    HW116397   1.515   5.412   2.142
 5166SOL    HW216398   1.672   5.428   2.100
 5167SOL     OW16399   6.047   4.184   5.279
 5167SOL    HW116400   5.961   4.212   5.322
 5167SOL    HW216401   6.048   4.215   5.184
 5168SOL     OW16402   4.655   1.733   2.181
 5168SOL    HW116403   4.622   1.646   2.144
 5168SOL    HW216404   4.613   1.809   2.131
 5169SOL     OW16405   4.387   1.707   3.847
 5169SOL    HW116406   4.314   1.765   3.883
 5169SOL    HW216407   4.412   1.639   3.916
 5170SOL     OW16408   1.661   3.582   6.137
 5170SOL    HW116409   1.712   3.649   6.082
 5170SOL    HW216410   1.571   3.567   6.096
 5171SOL     OW16411   1.372   5.034   5.454
 5171SOL    HW116412   1.415   5.026   5.545
 5171SOL    HW216413   1.273   5.042   5.465
 5172SOL     OW16414   1.580   5.191   4.241
 5172SOL    HW116415   1.674   5.171   4.211
 5172SOL    HW216416   1.582   5.225   4.335
 5173SOL     OW16417   4.435   3.783   6.144
 5173SOL    HW116418   4.490   3.852   6.190
 5173SOL    HW216419   4.422   3.705   6.206
 5174SOL     OW16420   1.840   0.238   3.834
 5174SOL    HW116421   1.838   0.160   3.771
 5174SOL    HW216422   1.870   0.208   3.924
 5175SOL     OW16423   3.045   4.385   6.468
 5175SOL    HW116424   3.138   4.350   6.479
 5175SOL    HW216425   2.989   4.316   6.421
 5176SOL     OW16426   5.541   5.304   6.035
 5176SOL    HW116427   5.500   5.214   6.048
 5176SOL    HW216428   5.623   5.297   5.979
 5177SOL     OW16429   5.457   6.757   0.807
 5177SOL    HW116430   5.532   6.706   0.765
 5177SOL    HW216431   5.390   6.693   0.845
 5178SOL     OW16432   0.550   4.444   1.841
 5178SOL    HW116433   0.568   4.515   1.773
 5178SOL    HW216434   0.461   4.402   1.824
 5179SOL     OW16435   5.099   4.060   2.959
 5179SOL    HW116436   5.178   4.121   2.948
 5179SOL    HW216437   5.029   4.084   2.892
 5180SOL     OW16438   3.163   6.860   1.276
 5180SOL    HW116439   3.176   6.945   1.326
 5180SOL    HW216440   3.190   6.872   1.180
 5181SOL     OW16441   0.175   0.535   0.045
 5181SOL    HW116442   0.123   0.613   0.078
 5181SOL    HW216443   0.137   0.503   6.986
 5182SOL     OW16444   4.492   4.590   2.217
 5182SOL    HW116445   4.563   4.539   2.169
 5182SOL    HW216446   4.412   4.598   2.159
 5183SOL     OW16447   4.078   2.159   2.803
 5183SOL    HW116448   4.118   2.071   2.827
 5183SOL    HW216449   4.137   2.206   2.737
 5184SOL     OW16450   2.087   2.494   3.487
 5184SOL    HW116451   2.070   2.396   3.499
 5184SOL    HW216452   2.073   2.520   3.391
 5185SOL     OW16453   4.695   0.439   2.841
 5185SOL    HW116454   4.713   0.400   2.931
 5185SOL    HW216455   4.687   0.365   2.774
 5186SOL     OW16456   6.114   2.971   5.832
 5186SOL    HW116457   6.073   2.908   5.898
 5186SOL    HW216458   6.207   2.942   5.811
 5187SOL     OW16459   2.499   5.428   4.557
 5187SOL    HW116460   2.485   5.346   4.613
 5187SOL    HW216461   2.580   5.477   4.589
 5188SOL     OW16462   6.971   6.567   1.711
 5188SOL    HW116463   0.017   6.633   1.724
 5188SOL    HW216464   6.991   6.511   1.630
 5189SOL     OW16465   5.750   6.427   6.480
 5189SOL    HW116466   5.659   6.459   6.454
 5189SOL    HW216467   5.820   6.479   6.430
 5190SOL     OW16468   1.922   2.896   2.425
 5190SOL    HW116469   1.861   2.973   2.406
 5190SOL    HW216470   2.002   2.928   2.475
 5191SOL     OW16471   2.825   6.063   2.856
 5191SOL    HW116472   2.727   6.043   2.853
 5191SOL    HW216473   2.866   6.016   2.935
 5192SOL     OW16474   1.907   5.888   1.550
 5192SOL    HW116475   1.870   5.949   1.621
 5192SOL    HW216476   1.835   5.828   1.516
 5193SOL     OW16477   5.256   6.867   6.682
 5193SOL    HW116478   5.223   6.951   6.639
 5193SOL    HW216479   5.331   6.829   6.628
 5194SOL     OW16480   3.154   1.799   6.342
 5194SOL    HW116481   3.217   1.752   6.281
 5194SOL    HW216482   3.118   1.734   6.409
 5195SOL     OW16483   0.704   0.888   3.580
 5195SOL    HW116484   0.632   0.942   3.537
 5195SOL    HW216485   0.773   0.949   3.619
 5196SOL     OW16486   4.594   6.620   2.682
 5196SOL    HW116487   4.652   6.538   2.682
 5196SOL    HW216488   4.577   6.649   2.776
 5197SOL     OW16489   1.948   3.506   6.258
 5197SOL    HW116490   1.873   3.536   6.199
 5197SOL    HW216491   1.964   3.409   6.244
 5198SOL     OW16492   4.389   5.542   2.880
 5198SOL    HW116493   4.299   5.539   2.923
 5198SOL    HW216494   4.392   5.617   2.813
 5199SOL     OW16495   0.254   5.421   1.088
 5199SOL    HW116496   0.223   5.444   0.996
 5199SOL    HW216497   0.342   5.465   1.106
 5200SOL     OW16498   0.462   4.161   5.297
 5200SOL    HW116499   0.558   4.140   5.277
 5200SOL    HW216500   0.405   4.136   5.219
 5201SOL     OW16501   0.444   6.745   3.900
 5201SOL    HW116502   0.405   6.825   3.945
 5201SOL    HW216503   0.399   6.662   3.934
 5202SOL     OW16504   6.961   2.896   6.255
 5202SOL    HW116505   0.028   2.877   6.278
 5202SOL    HW216506   6.934   2.983   6.295
 5203SOL     OW16507   0.938   2.123   0.129
 5203SOL    HW116508   0.845   2.133   0.096
 5203SOL    HW216509   1.002   2.140   0.054
 5204SOL     OW16510   4.092   5.114   0.253
 5204SOL    HW116511   4.016   5.089   0.192
 5204SOL    HW216512   4.084   5.210   0.278
 5205SOL     OW16513   1.980   6.987   1.351
 5205SOL    HW116514   1.933   6.942   1.427
 5205SOL    HW216515   1.940   6.957   1.264
 5206SOL     OW16516   0.661   4.676   6.553
 5206SOL    HW116517   0.593   4.633   6.494
 5206SOL    HW216518   0.743   4.698   6.500
 5207SOL     OW16519   1.121   5.461   4.118
 5207SOL    HW116520   1.089   5.554   4.101
 5207SOL    HW216521   1.042   5.401   4.133
 5208SOL     OW16522   3.488   1.089   0.564
 5208SOL    HW116523   3.552   1.139   0.507
 5208SOL    HW216524   3.406   1.144   0.580
 5209SOL     OW16525   5.927   5.690   4.116
 5209SOL    HW116526   6.001   5.700   4.050
 5209SOL    HW216527   5.842   5.723   4.075
 5210SOL     OW16528   5.347   3.730   5.186
 5210SOL    HW116529   5.281   3.780   5.130
 5210SOL    HW216530   5.372   3.785   5.265
 5211SOL     OW16531   3.554   3.173   3.781
 5211SOL    HW116532   3.617   3.192   3.706
 5211SOL    HW216533   3.556   3.075   3.803
 5212SOL     OW16534   6.747   2.079   0.879
 5212SOL    HW116535   6.743   2.176   0.854
 5212SOL    HW216536   6.808   2.068   0.958
 5213SOL     OW16537   5.129   1.673   6.820
 5213SOL    HW116538   5.037   1.666   6.858
 5213SOL    HW216539   5.124   1.673   6.720
 5214SOL     OW16540   5.413   1.369   6.459
 5214SOL    HW116541   5.455   1.376   6.368
 5214SOL    HW216542   5.485   1.356   6.527
 5215SOL     OW16543   5.421   5.339   3.142
 5215SOL    HW116544   5.490   5.268   3.127
 5215SOL    HW216545   5.395   5.379   3.054
 5216SOL     OW16546   5.107   5.938   1.536
 5216SOL    HW116547   5.070   6.030   1.546
 5216SOL    HW216548   5.183   5.926   1.599
 5217SOL     OW16549   3.192   5.225   3.899
 5217SOL    HW116550   3.263   5.284   3.861
 5217SOL    HW216551   3.222   5.130   3.898
 5218SOL     OW16552   1.859   0.481   3.742
 5218SOL    HW116553   1.905   0.496   3.654
 5218SOL    HW216554   1.863   0.384   3.765
 5219SOL     OW16555   3.678   6.988   6.862
 5219SOL    HW116556   3.680   6.926   6.784
 5219SOL    HW216557   3.587   7.028   6.871
 5220SOL     OW16558   1.286   5.460   2.564
 5220SOL    HW116559   1.323   5.536   2.509
 5220SOL    HW216560   1.280   5.378   2.508
 5221SOL     OW16561   5.695   2.296   4.569
 5221SOL    HW116562   5.730   2.248   4.649
 5221SOL    HW216563   5.726   2.250   4.486
 5222SOL     OW16564   2.651   6.910   4.228
 5222SOL    HW116565   2.627   6.984   4.165
 5222SOL    HW216566   2.582   6.903   4.300
 5223SOL     OW16567   4.278   0.779   1.287
 5223SOL    HW116568   4.245   0.803   1.379
 5223SOL    HW216569   4.234   0.695   1.257
 5224SOL     OW16570   0.122   1.531   3.339
 5224SOL    HW116571   0.085   1.586   3.265
 5224SOL    HW216572   0.219   1.551   3.350
 5225SOL     OW16573   6.412   1.059   2.983
 5225SOL    HW116574   6.363   1.070   3.070
 5225SOL    HW216575   6.498   1.109   2.987
 5226SOL     OW16576   0.146   6.328   5.543
 5226SOL    HW116577   0.182   6.251   5.490
 5226SOL    HW216578   0.080   6.379   5.487
 5227SOL     OW16579   1.089   5.070   4.375
 5227SOL    HW116580   0.994   5.050   4.397
 5227SOL    HW216581   1.130   5.121   4.451
 5228SOL     OW16582   6.355   2.789   0.248
 5228SOL    HW116583   6.374   2.752   0.339
 5228SOL    HW216584   6.257   2.781   0.229
 5229SOL     OW16585   2.164   4.183   6.852
 5229SOL    HW116586   2.258   4.162   6.828
 5229SOL    HW216587   2.147   4.156   6.947
 5230SOL     OW16588   0.366   0.438   0.608
 5230SOL    HW116589   0.391   0.473   0.517
 5230SOL    HW216590   0.436   0.374   0.638
 5231SOL     OW16591   2.971   3.213   4.609
 5231SOL    HW116592   2.948   3.288   4.671
 5231SOL    HW216593   2.904   3.139   4.620
 5232SOL     OW16594   3.476   1.763   6.452
 5232SOL    HW116595   3.394   1.717   6.486
 5232SOL    HW216596   3.486   1.852   6.498
 5233SOL     OW16597   6.639   0.129   1.403
 5233SOL    HW116598   6.553   0.080   1.391
 5233SOL    HW216599   6.620   0.227   1.409
 5234SOL     OW16600   3.153   6.927   0.022
 5234SOL    HW116601   3.154   6.933   0.121
 5234SOL    HW216602   3.148   7.020   7.011
 5235SOL     OW16603   2.007   2.928   1.146
 5235SOL    HW116604   2.032   3.024   1.151
 5235SOL    HW216605   2.065   2.875   1.208
 5236SOL     OW16606   5.309   3.070   1.550
 5236SOL    HW116607   5.298   3.093   1.647
 5236SOL    HW216608   5.326   3.153   1.497
 5237SOL     OW16609   2.462   1.928   5.223
 5237SOL    HW116610   2.499   1.887   5.140
 5237SOL    HW216611   2.372   1.889   5.242
 5238SOL     OW16612   1.987   5.335   0.223
 5238SOL    HW116613   1.946   5.372   0.139
 5238SOL    HW216614   2.049   5.261   0.199
 5239SOL     OW16615   3.654   3.676   3.965
 5239SOL    HW116616   3.713   3.694   4.043
 5239SOL    HW216617   3.708   3.673   3.881
 5240SOL     OW16618   3.121   2.250   5.534
 5240SOL    HW116619   3.135   2.193   5.615
 5240SOL    HW216620   3.081   2.194   5.461
 5241SOL     OW16621   1.683   6.010   6.677
 5241SOL    HW116622   1.679   5.975   6.770
 5241SOL    HW216623   1.735   5.947   6.619
 5242SOL     OW16624   5.890   0.164   4.864
 5242SOL    HW116625   5.852   0.218   4.939
 5242SOL    HW216626   5.968   0.110   4.898
 5243SOL     OW16627   1.684   6.468   1.228
 5243SOL    HW116628   1.678   6.412   1.311
 5243SOL    HW216629   1.780   6.492   1.212
 5244SOL     OW16630   4.220   3.655   6.020
 5244SOL    HW116631   4.304   3.706   6.035
 5244SOL    HW216632   4.234   3.589   5.946
 5245SOL     OW16633   4.295   4.096   6.503
 5245SOL    HW116634   4.198   4.089   6.484
 5245SOL    HW216635   4.334   4.172   6.451
 5246SOL     OW16636   6.427   4.379   2.756
 5246SOL    HW116637   6.498   4.439   2.795
 5246SOL    HW216638   6.349   4.377   2.818
 5247SOL     OW16639   1.188   6.524   0.618
 5247SOL    HW116640   1.154   6.449   0.562
 5247SOL    HW216641   1.254   6.490   0.684
 5248SOL     OW16642   5.578   6.934   5.791
 5248SOL    HW116643   5.528   6.962   5.710
 5248SOL    HW216644   5.590   7.013   5.852
 5249SOL     OW16645   0.316   5.579   4.963
 5249SOL    HW116646   0.384   5.508   4.940
 5249SOL    HW216647   0.296   5.575   5.061
 5250SOL     OW16648   0.042   1.184   5.931
 5250SOL    HW116649   0.083   1.255   5.874
 5250SOL    HW216650   0.084   1.186   6.022
 5251SOL     OW16651   6.942   2.485   1.116
 5251SOL    HW116652   6.994   2.551   1.061
 5251SOL    HW216653   6.984   2.479   1.207
 5252SOL     OW16654   2.150   5.423   0.958
 5252SOL    HW116655   2.227   5.372   0.997
 5252SOL    HW216656   2.151   5.517   0.995
 5253SOL     OW16657   5.954   3.799   4.524
 5253SOL    HW116658   5.901   3.881   4.545
 5253SOL    HW216659   5.891   3.725   4.499
 5254SOL     OW16660   5.328   1.323   3.671
 5254SOL    HW116661   5.333   1.397   3.737
 5254SOL    HW216662   5.234   1.312   3.639
 5255SOL     OW16663   4.080   0.314   4.743
 5255SOL    HW116664   4.157   0.354   4.793
 5255SOL    HW216665   4.115   0.244   4.680
 5256SOL     OW16666   5.145   1.212   3.311
 5256SOL    HW116667   5.114   1.140   3.373
 5256SOL    HW216668   5.245   1.216   3.313
 5257SOL     OW16669   4.668   0.187   2.266
 5257SOL    HW116670   4.712   0.103   2.235
 5257SOL    HW216671   4.613   0.226   2.191
 5258SOL     OW16672   5.308   4.483   1.394
 5258SOL    HW116673   5.274   4.556   1.454
 5258SOL    HW216674   5.396   4.511   1.354
 5259SOL     OW16675   4.733   6.363   1.309
 5259SOL    HW116676   4.747   6.428   1.234
 5259SOL    HW216677   4.753   6.271   1.277
 5260SOL     OW16678   5.327   3.213   1.101
 5260SOL    HW116679   5.239   3.166   1.090
 5260SOL    HW216680   5.399   3.158   1.060
 5261SOL     OW16681   1.086   2.708   5.830
 5261SOL    HW116682   1.108   2.671   5.920
 5261SOL    HW216683   1.152   2.674   5.763
 5262SOL     OW16684   2.345   6.793   3.058
 5262SOL    HW116685   2.271   6.853   3.029
 5262SOL    HW216686   2.425   6.848   3.082
 5263SOL     OW16687   0.865   0.227   6.275
 5263SOL    HW116688   0.829   0.284   6.349
 5263SOL    HW216689   0.952   0.187   6.303
 5264SOL     OW16690   6.025   1.025   1.702
 5264SOL    HW116691   5.952   0.982   1.755
 5264SOL    HW216692   6.080   1.083   1.762
 5265SOL     OW16693   5.045   4.182   2.436
 5265SOL    HW116694   5.102   4.162   2.516
 5265SOL    HW216695   5.088   4.141   2.355
 5266SOL     OW16696   2.678   6.536   1.327
 5266SOL    HW116697   2.684   6.634   1.349
 5266SOL    HW216698   2.593   6.519   1.277
 5267SOL     OW16699   4.330   4.563   5.708
 5267SOL    HW116700   4.411   4.593   5.759
 5267SOL    HW216701   4.258   4.538   5.773
 5268SOL     OW16702   6.808   5.474   5.404
 5268SOL    HW116703   6.773   5.431   5.487
 5268SOL    HW216704   6.732   5.510   5.349
 5269SOL     OW16705   2.156   6.186   4.113
 5269SOL    HW116706   2.103   6.260   4.154
 5269SOL    HW216707   2.191   6.126   4.185
 5270SOL     OW16708   4.364   2.049   1.631
 5270SOL    HW116709   4.296   2.033   1.559
 5270SOL    HW216710   4.453   2.067   1.589
 5271SOL     OW16711   4.431   5.265   4.113
 5271SOL    HW116712   4.414   5.168   4.131
 5271SOL    HW216713   4.525   5.278   4.080
 5272SOL     OW16714   0.902   5.935   3.805
 5272SOL    HW116715   0.812   5.903   3.832
 5272SOL    HW216716   0.959   5.856   3.780
 5273SOL     OW16717   1.073   2.942   3.290
 5273SOL    HW116718   1.156   2.900   3.253
 5273SOL    HW216719   1.036   2.883   3.362
 5274SOL     OW16720   5.970   5.103   2.619
 5274SOL    HW116721   5.929   5.185   2.659
 5274SOL    HW216722   5.916   5.023   2.645
 5275SOL     OW16723   3.126   1.294   6.167
 5275SOL    HW116724   3.064   1.347   6.225
 5275SOL    HW216725   3.074   1.226   6.116
 5276SOL     OW16726   0.175   6.070   0.840
 5276SOL    HW116727   0.089   6.019   0.833
 5276SOL    HW216728   0.199   6.109   0.751
 5277SOL     OW16729   1.800   2.448   2.760
 5277SOL    HW116730   1.824   2.352   2.775
 5277SOL    HW216731   1.854   2.483   2.684
 5278SOL     OW16732   5.454   0.034   5.580
 5278SOL    HW116733   5.493   0.090   5.507
 5278SOL    HW216734   5.359   0.062   5.596
 5279SOL     OW16735   1.477   6.348   6.481
 5279SOL    HW116736   1.480   6.385   6.573
 5279SOL    HW216737   1.382   6.339   6.451
 5280SOL     OW16738   3.529   5.874   5.371
 5280SOL    HW116739   3.601   5.822   5.325
 5280SOL    HW216740   3.442   5.858   5.325
 5281SOL     OW16741   1.373   1.690   3.758
 5281SOL    HW116742   1.370   1.789   3.771
 5281SOL    HW216743   1.334   1.666   3.669
 5282SOL     OW16744   1.867   0.099   2.133
 5282SOL    HW116745   1.785   0.149   2.104
 5282SOL    HW216746   1.942   0.119   2.071
 5283SOL     OW16747   1.531   0.988   3.088
 5283SOL    HW116748   1.498   0.996   2.993
 5283SOL    HW216749   1.556   0.893   3.106
 5284SOL     OW16750   4.513   2.548   3.279
 5284SOL    HW116751   4.422   2.560   3.321
 5284SOL    HW216752   4.578   2.611   3.321
 5285SOL     OW16753   0.950   3.649   4.173
 5285SOL    HW116754   0.887   3.580   4.137
 5285SOL    HW216755   1.027   3.604   4.217
 5286SOL     OW16756   6.331   3.216   0.979
 5286SOL    HW116757   6.377   3.188   0.894
 5286SOL    HW216758   6.388   3.191   1.057
 5287SOL     OW16759   2.800   5.538   1.234
 5287SOL    HW116760   2.830   5.575   1.322
 5287SOL    HW216761   2.701   5.545   1.227
 5288SOL     OW16762   3.936   0.194   2.911
 5288SOL    HW116763   3.905   0.102   2.935
 5288SOL    HW216764   4.022   0.214   2.958
 5289SOL     OW16765   2.527   5.365   5.920
 5289SOL    HW116766   2.475   5.317   5.850
 5289SOL    HW216767   2.496   5.336   6.011
 5290SOL     OW16768   1.504   3.812   5.545
 5290SOL    HW116769   1.405   3.798   5.543
 5290SOL    HW216770   1.551   3.724   5.534
 5291SOL     OW16771   3.220   4.308   6.223
 5291SOL    HW116772   3.260   4.232   6.274
 5291SOL    HW216773   3.170   4.272   6.143
 5292SOL     OW16774   5.879   4.764   5.987
 5292SOL    HW116775   5.799   4.769   5.927
 5292SOL    HW216776   5.853   4.719   6.072
 5293SOL     OW16777   1.957   7.015   5.104
 5293SOL    HW116778   1.871   7.000   5.055
 5293SOL    HW216779   2.010   0.057   5.058
 5294SOL     OW16780   4.654   2.016   5.222
 5294SOL    HW116781   4.588   2.060   5.284
 5294SOL    HW216782   4.679   2.080   5.150
 5295SOL     OW16783   3.781   0.994   2.990
 5295SOL    HW116784   3.751   1.058   2.919
 5295SOL    HW216785   3.776   1.040   3.079
 5296SOL     OW16786   3.258   3.973   6.952
 5296SOL    HW116787   3.195   4.022   6.892
 5296SOL    HW216788   3.210   3.943   0.007
 5297SOL     OW16789   1.317   3.781   0.030
 5297SOL    HW116790   1.353   3.809   0.119
 5297SOL    HW216791   1.248   3.847   7.028
 5298SOL     OW16792   1.498   6.239   0.194
 5298SOL    HW116793   1.593   6.256   0.169
 5298SOL    HW216794   1.439   6.262   0.117
 5299SOL     OW16795   2.848   2.630   0.422
 5299SOL    HW116796   2.789   2.661   0.348
 5299SOL    HW216797   2.941   2.615   0.388
 5300SOL     OW16798   0.359   5.749   1.261
 5300SOL    HW116799   0.451   5.734   1.298
 5300SOL    HW216800   0.355   5.715   1.167
 5301SOL     OW16801   4.291   1.629   6.200
 5301SOL    HW116802   4.330   1.673   6.119
 5301SOL    HW216803   4.360   1.571   6.243
 5302SOL     OW16804   5.869   5.717   3.363
 5302SOL    HW116805   5.774   5.694   3.384
 5302SOL    HW216806   5.884   5.710   3.265
 5303SOL     OW16807   0.090   5.194   5.071
 5303SOL    HW116808   0.071   5.129   4.998
 5303SOL    HW216809   0.072   5.287   5.040
 5304SOL     OW16810   5.989   0.525   0.212
 5304SOL    HW116811   6.030   0.456   0.272
 5304SOL    HW216812   5.936   0.590   0.267
 5305SOL     OW16813   1.088   5.187   2.812
 5305SOL    HW116814   1.178   5.169   2.772
 5305SOL    HW216815   1.079   5.139   2.899
 5306SOL     OW16816   0.902   4.754   5.663
 5306SOL    HW116817   0.869   4.663   5.685
 5306SOL    HW216818   0.930   4.758   5.568
 5307SOL     OW16819   3.714   1.515   0.055
 5307SOL    HW116820   3.731   1.571   7.002
 5307SOL    HW216821   3.695   1.421   0.026
 5308SOL     OW16822   1.421   4.254   2.682
 5308SOL    HW116823   1.442   4.345   2.644
 5308SOL    HW216824   1.504   4.215   2.723
 5309SOL     OW16825   4.017   4.992   1.927
 5309SOL    HW116826   3.970   4.906   1.946
 5309SOL    HW216827   3.958   5.069   1.953
 5310SOL     OW16828   5.802   3.570   1.882
 5310SOL    HW116829   5.845   3.501   1.824
 5310SOL    HW216830   5.722   3.607   1.837
 5311SOL     OW16831   6.490   6.827   0.438
 5311SOL    HW116832   6.570   6.775   0.470
 5311SOL    HW216833   6.517   6.886   0.362
 5312SOL     OW16834   0.865   5.380   1.847
 5312SOL    HW116835   0.835   5.285   1.859
 5312SOL    HW216836   0.787   5.436   1.819
 5313SOL     OW16837   1.319   2.820   6.143
 5313SOL    HW116838   1.347   2.835   6.238
 5313SOL    HW216839   1.239   2.759   6.141
 5314SOL     OW16840   4.222   6.539   0.080
 5314SOL    HW116841   4.222   6.584   0.169
 5314SOL    HW216842   4.307   6.561   0.032
 5315SOL     OW16843   4.926   3.599   2.107
 5315SOL    HW116844   5.022   3.606   2.081
 5315SOL    HW216845   4.898   3.503   2.102
 5316SOL     OW16846   0.823   3.547   5.456
 5316SOL    HW116847   0.799   3.514   5.547
 5316SOL    HW216848   0.757   3.511   5.390
 5317SOL     OW16849   6.051   1.824   5.290
 5317SOL    HW116850   6.017   1.917   5.306
 5317SOL    HW216851   6.071   1.780   5.377
 5318SOL     OW16852   0.995   2.296   0.559
 5318SOL    HW116853   1.081   2.305   0.610
 5318SOL    HW216854   1.013   2.304   0.461
 5319SOL     OW16855   4.504   5.914   0.364
 5319SOL    HW116856   4.529   6.011   0.359
 5319SOL    HW216857   4.547   5.872   0.444
 5320SOL     OW16858   4.376   4.795   0.694
 5320SOL    HW116859   4.338   4.795   0.602
 5320SOL    HW216860   4.314   4.842   0.756
 5321SOL     OW16861   2.163   4.687   4.313
 5321SOL    HW116862   2.124   4.598   4.335
 5321SOL    HW216863   2.242   4.704   4.372
 5322SOL     OW16864   5.547   5.950   0.113
 5322SOL    HW116865   5.453   5.959   0.079
 5322SOL    HW216866   5.590   5.870   0.071
 5323SOL     OW16867   4.101   1.429   6.126
 5323SOL    HW116868   4.160   1.501   6.162
 5323SOL    HW216869   4.051   1.464   6.046
 5324SOL     OW16870   3.476   2.599   0.855
 5324SOL    HW116871   3.517   2.553   0.934
 5324SOL    HW216872   3.547   2.641   0.799
 5325SOL     OW16873   4.346   0.413   4.492
 5325SOL    HW116874   4.260   0.368   4.469
 5325SOL    HW216875   4.420   0.345   4.491
 5326SOL     OW16876   6.647   4.919   3.262
 5326SOL    HW116877   6.599   4.835   3.236
 5326SOL    HW216878   6.584   4.981   3.307
 5327SOL     OW16879   5.738   2.863   5.619
 5327SOL    HW116880   5.665   2.799   5.644
 5327SOL    HW216881   5.727   2.891   5.524
 5328SOL     OW16882   3.473   3.289   5.881
 5328SOL    HW116883   3.468   3.348   5.962
 5328SOL    HW216884   3.569   3.271   5.859
 5329SOL     OW16885   0.543   4.538   6.353
 5329SOL    HW116886   0.598   4.469   6.400
 5329SOL    HW216887   0.529   4.511   6.258
 5330SOL     OW16888   4.637   3.977   0.189
 5330SOL    HW116889   4.696   4.057   0.200
 5330SOL    HW216890   4.677   3.914   0.123
 5331SOL     OW16891   5.821   1.599   6.677
 5331SOL    HW116892   5.888   1.670   6.655
 5331SOL    HW216893   5.869   1.512   6.691
 5332SOL     OW16894   0.636   2.930   1.331
 5332SOL    HW116895   0.545   2.897   1.304
 5332SOL    HW216896   0.680   2.973   1.252
 5333SOL     OW16897   0.764   0.697   3.060
 5333SOL    HW116898   0.798   0.762   2.992
 5333SOL    HW216899   0.703   0.745   3.124
 5334SOL     OW16900   3.239   0.053   4.184
 5334SOL    HW116901   3.236   7.016   4.259
 5334SOL    HW216902   3.334   0.078   4.166
 5335SOL     OW16903   7.013   6.212   0.982
 5335SOL    HW116904   0.079   6.229   1.010
 5335SOL    HW216905   7.013   6.151   0.902
 5336SOL     OW16906   1.848   3.589   3.038
 5336SOL    HW116907   1.798   3.559   2.957
 5336SOL    HW216908   1.838   3.521   3.111
 5337SOL     OW16909   4.886   4.332   1.300
 5337SOL    HW116910   4.805   4.391   1.293
 5337SOL    HW216911   4.858   4.239   1.320
 5338SOL     OW16912   5.667   1.633   0.184
 5338SOL    HW116913   5.756   1.588   0.196
 5338SOL    HW216914   5.643   1.633   0.086
 5339SOL     OW16915   6.914   2.038   4.179
 5339SOL    HW116916   6.861   1.973   4.233
 5339SOL    HW216917   6.918   2.007   4.084
 5340SOL     OW16918   4.357   4.101   1.106
 5340SOL    HW116919   4.332   4.121   1.200
 5340SOL    HW216920   4.282   4.128   1.045
 5341SOL     OW16921   3.553   2.675   6.339
 5341SOL    HW116922   3.491   2.692   6.262
 5341SOL    HW216923   3.646   2.661   6.305
 5342SOL     OW16924   3.673   6.684   4.138
 5342SOL    HW116925   3.730   6.720   4.213
 5342SOL    HW216926   3.577   6.699   4.160
 5343SOL     OW16927   3.671   4.156   4.233
 5343SOL    HW116928   3.686   4.238   4.178
 5343SOL    HW216929   3.742   4.151   4.303
 5344SOL     OW16930   2.218   2.932   2.666
 5344SOL    HW116931   2.290   2.928   2.735
 5344SOL    HW216932   2.258   2.958   2.578
 5345SOL     OW16933   3.979   6.305   1.261
 5345SOL    HW116934   3.888   6.339   1.241
 5345SOL    HW216935   3.994   6.218   1.213
 5346SOL     OW16936   3.383   6.099   4.066
 5346SOL    HW116937   3.296   6.074   4.023
 5346SOL    HW216938   3.379   6.194   4.096
 5347SOL     OW16939   0.718   2.808   2.257
 5347SOL    HW116940   0.677   2.865   2.328
 5347SOL    HW216941   0.732   2.863   2.175
 5348SOL     OW16942   0.254   1.926   0.629
 5348SOL    HW116943   0.248   1.873   0.545
 5348SOL    HW216944   0.206   1.877   0.702
 5349SOL     OW16945   1.348   2.597   7.002
 5349SOL    HW116946   1.269   2.537   7.017
 5349SOL    HW216947   1.315   2.686   6.968
 5350SOL     OW16948   2.142   0.363   5.418
 5350SOL    HW116949   2.105   0.315   5.338
 5350SOL    HW216950   2.235   0.331   5.436
 5351SOL     OW16951   6.057   5.867   2.140
 5351SOL    HW116952   6.022   5.840   2.230
 5351SOL    HW216953   6.024   5.803   2.071
 5352SOL     OW16954   2.147   5.484   3.590
 5352SOL    HW116955   2.152   5.558   3.658
 5352SOL    HW216956   2.222   5.493   3.525
 5353SOL     OW16957   3.875   5.098   3.544
 5353SOL    HW116958   3.847   5.153   3.623
 5353SOL    HW216959   3.838   5.139   3.460
 5354SOL     OW16960   2.340   5.428   1.828
 5354SOL    HW116961   2.327   5.465   1.920
 5354SOL    HW216962   2.331   5.328   1.831
 5355SOL     OW16963   5.499   3.289   3.299
 5355SOL    HW116964   5.438   3.224   3.253
 5355SOL    HW216965   5.548   3.242   3.373
 5356SOL     OW16966   5.892   4.527   1.747
 5356SOL    HW116967   5.834   4.455   1.785
 5356SOL    HW216968   5.835   4.598   1.706
 5357SOL     OW16969   4.436   6.335   0.164
 5357SOL    HW116970   4.391   6.289   0.087
 5357SOL    HW216971   4.418   6.433   0.158
 5358SOL     OW16972   4.240   1.246   0.095
 5358SOL    HW116973   4.200   1.332   0.065
 5358SOL    HW216974   4.334   1.261   0.124
 5359SOL     OW16975   1.355   1.933   6.690
 5359SOL    HW116976   1.440   1.962   6.647
 5359SOL    HW216977   1.277   1.966   6.637
 5360SOL     OW16978   4.576   6.339   5.395
 5360SOL    HW116979   4.574   6.252   5.347
 5360SOL    HW216980   4.514   6.404   5.349
 5361SOL     OW16981   2.177   0.532   5.023
 5361SOL    HW116982   2.258   0.588   5.009
 5361SOL    HW216983   2.110   0.552   4.951
 5362SOL     OW16984   5.621   4.979   3.550
 5362SOL    HW116985   5.551   5.044   3.581
 5362SOL    HW216986   5.711   5.009   3.582
 5363SOL     OW16987   0.288   0.047   6.339
 5363SOL    HW116988   0.218   0.007   6.280
 5363SOL    HW216989   0.378   0.032   6.298
 5364SOL     OW16990   6.673   5.576   1.859
 5364SOL    HW116991   6.585   5.617   1.834
 5364SOL    HW216992   6.658   5.482   1.891
 5365SOL     OW16993   3.607   3.214   6.784
 5365SOL    HW116994   3.525   3.183   6.736
 5365SOL    HW216995   3.609   3.314   6.786
 5366SOL     OW16996   5.382   5.621   1.778
 5366SOL    HW116997   5.448   5.648   1.707
 5366SOL    HW216998   5.295   5.666   1.761
 5367SOL     OW16999   0.524   5.933   0.638
 5367SOL    HW117000   0.458   5.859   0.648
 5367SOL    HW217001   0.592   5.927   0.711
 5368SOL     OW17002   5.416   0.373   2.850
 5368SOL    HW117003   5.386   0.466   2.832
 5368SOL    HW217004   5.362   0.309   2.795
 5369SOL     OW17005   2.989   0.158   1.978
 5369SOL    HW117006   3.080   0.119   1.968
 5369SOL    HW217007   2.937   0.107   2.047
 5370SOL     OW17008   4.304   2.889   1.474
 5370SOL    HW117009   4.249   2.846   1.545
 5370SOL    HW217010   4.400   2.887   1.501
 5371SOL     OW17011   1.640   4.228   4.419
 5371SOL    HW117012   1.636   4.128   4.412
 5371SOL    HW217013   1.649   4.267   4.327
 5372SOL     OW17014   2.381   5.547   3.443
 5372SOL    HW117015   2.349   5.630   3.397
 5372SOL    HW217016   2.476   5.561   3.473
 5373SOL     OW17017   3.758   6.030   3.816
 5373SOL    HW117018   3.836   6.091   3.828
 5373SOL    HW217019   3.721   6.040   3.724
 5374SOL     OW17020   0.896   4.119   0.075
 5374SOL    HW117021   0.870   4.023   0.058
 5374SOL    HW217022   0.819   4.167   0.117
 5375SOL     OW17023   1.985   5.110   4.903
 5375SOL    HW117024   1.988   5.093   4.805
 5375SOL    HW217025   2.056   5.058   4.949
 5376SOL     OW17026   1.798   3.374   0.503
 5376SOL    HW117027   1.706   3.401   0.473
 5376SOL    HW217028   1.856   3.360   0.423
 5377SOL     OW17029   0.482   0.466   1.994
 5377SOL    HW117030   0.523   0.556   1.977
 5377SOL    HW217031   0.488   0.444   2.091
 5378SOL     OW17032   0.042   0.417   2.217
 5378SOL    HW117033   0.017   0.348   2.285
 5378SOL    HW217034   0.129   0.459   2.244
 5379SOL     OW17035   2.128   5.635   5.000
 5379SOL    HW117036   2.055   5.588   4.952
 5379SOL    HW217037   2.182   5.689   4.936
 5380SOL     OW17038   1.956   1.811   3.568
 5380SOL    HW117039   2.042   1.769   3.540
 5380SOL    HW217040   1.975   1.884   3.633
 5381SOL     OW17041   6.303   3.928   1.106
 5381SOL    HW117042   6.338   3.981   1.029
 5381SOL    HW217043   6.214   3.964   1.134
 5382SOL     OW17044   3.346   0.445   2.414
 5382SOL    HW117045   3.370   0.519   2.477
 5382SOL    HW217046   3.429   0.410   2.370
 5383SOL     OW17047   2.153   2.696   5.355
 5383SOL    HW117048   2.131   2.758   5.279
 5383SOL    HW217049   2.142   2.601   5.325
 5384SOL     OW17050   5.653   0.256   4.628
 5384SOL    HW117051   5.739   0.211   4.606
 5384SOL    HW217052   5.638   0.255   4.726
 5385SOL     OW17053   2.900   3.370   4.206
 5385SOL    HW117054   2.956   3.299   4.249
 5385SOL    HW217055   2.869   3.435   4.276
 5386SOL     OW17056   4.872   0.160   4.519
 5386SOL    HW117057   4.918   0.087   4.570
 5386SOL    HW217058   4.778   0.170   4.552
 5387SOL     OW17059   3.192   6.284   3.794
 5387SOL    HW117060   3.250   6.309   3.717
 5387SOL    HW217061   3.112   6.345   3.797
 5388SOL     OW17062   6.750   0.461   3.857
 5388SOL    HW117063   6.792   0.404   3.929
 5388SOL    HW217064   6.677   0.516   3.897
 5389SOL     OW17065   4.550   0.820   1.483
 5389SOL    HW117066   4.613   0.778   1.549
 5389SOL    HW217067   4.551   0.919   1.493
 5390SOL     OW17068   4.749   4.077   3.278
 5390SOL    HW117069   4.714   4.170   3.267
 5390SOL    HW217070   4.691   4.013   3.229
 5391SOL     OW17071   1.720   2.221   1.303
 5391SOL    HW117072   1.772   2.221   1.217
 5391SOL    HW217073   1.659   2.300   1.304
 5392SOL     OW17074   5.616   3.283   1.441
 5392SOL    HW117075   5.694   3.336   1.409
 5392SOL    HW217076   5.619   3.274   1.541
 5393SOL     OW17077   5.198   6.726   6.301
 5393SOL    HW117078   5.202   6.822   6.328
 5393SOL    HW217079   5.289   6.685   6.309
 5394SOL     OW17080   6.981   4.575   6.513
 5394SOL    HW117081   6.903   4.593   6.572
 5394SOL    HW217082   7.021   4.662   6.482
 5395SOL     OW17083   4.579   1.092   1.756
 5395SOL    HW117084   4.484   1.063   1.769
 5395SOL    HW217085   4.603   1.161   1.824
 5396SOL     OW17086   5.001   4.506   2.647
 5396SOL    HW117087   4.904   4.487   2.661
 5396SOL    HW217088   5.015   4.604   2.632
 5397SOL     OW17089   6.871   2.727   2.025
 5397SOL    HW117090   6.853   2.785   2.104
 5397SOL    HW217091   6.888   2.784   1.945
 5398SOL     OW17092   3.368   1.848   2.618
 5398SOL    HW117093   3.323   1.841   2.529
 5398SOL    HW217094   3.388   1.944   2.638
 5399SOL     OW17095   2.480   5.450   7.027
 5399SOL    HW117096   2.415   5.377   0.024
 5399SOL    HW217097   2.513   5.494   0.082
 5400SOL     OW17098   2.410   4.256   1.054
 5400SOL    HW117099   2.389   4.285   1.147
 5400SOL    HW217100   2.422   4.157   1.051
 5401SOL     OW17101   5.529   3.654   1.847
 5401SOL    HW117102   5.515   3.712   1.927
 5401SOL    HW217103   5.466   3.577   1.850
 5402SOL     OW17104   2.219   4.703   1.609
 5402SOL    HW117105   2.306   4.752   1.601
 5402SOL    HW217106   2.224   4.641   1.688
 5403SOL     OW17107   6.355   2.506   6.382
 5403SOL    HW117108   6.322   2.576   6.446
 5403SOL    HW217109   6.429   2.544   6.326
 5404SOL     OW17110   0.830   1.326   3.127
 5404SOL    HW117111   0.792   1.254   3.068
 5404SOL    HW217112   0.757   1.384   3.161
 5405SOL     OW17113   5.994   5.966   0.125
 5405SOL    HW117114   6.076   5.926   0.085
 5405SOL    HW217115   5.940   5.895   0.170
 5406SOL     OW17116   2.690   0.570   0.024
 5406SOL    HW117117   2.602   0.546   7.012
 5406SOL    HW217118   2.683   0.657   0.073
 5407SOL     OW17119   4.092   3.062   1.409
 5407SOL    HW117120   4.054   3.021   1.326
 5407SOL    HW217121   4.169   3.008   1.441
 5408SOL     OW17122   3.350   1.176   6.259
 5408SOL    HW117123   3.375   1.259   6.309
 5408SOL    HW217124   3.265   1.192   6.209
 5409SOL     OW17125   6.146   1.305   3.911
 5409SOL    HW117126   6.055   1.323   3.874
 5409SOL    HW217127   6.138   1.255   3.997
 5410SOL     OW17128   2.010   2.908   1.487
 5410SOL    HW117129   2.016   3.000   1.448
 5410SOL    HW217130   2.041   2.841   1.419
 5411SOL     OW17131   6.464   5.339   5.775
 5411SOL    HW117132   6.494   5.424   5.732
 5411SOL    HW217133   6.378   5.355   5.824
 5412SOL     OW17134   4.147   0.993   6.430
 5412SOL    HW117135   4.049   0.978   6.442
 5412SOL    HW217136   4.169   0.996   6.333
 5413SOL     OW17137   2.020   1.054   1.397
 5413SOL    HW117138   1.932   1.020   1.430
 5413SOL    HW217139   2.070   1.097   1.472
 5414SOL     OW17140   5.748   2.779   4.871
 5414SOL    HW117141   5.784   2.866   4.837
 5414SOL    HW217142   5.815   2.706   4.854
 5415SOL     OW17143   1.719   6.108   1.285
 5415SOL    HW117144   1.726   6.016   1.324
 5415SOL    HW217145   1.702   6.101   1.187
 5416SOL     OW17146   4.622   4.570   6.354
 5416SOL    HW117147   4.595   4.573   6.450
 5416SOL    HW217148   4.541   4.562   6.297
 5417SOL     OW17149   4.065   6.645   5.585
 5417SOL    HW117150   4.089   6.633   5.489
 5417SOL    HW217151   3.992   6.581   5.609
 5418SOL     OW17152   4.074   6.491   4.128
 5418SOL    HW117153   4.124   6.443   4.200
 5418SOL    HW217154   3.980   6.456   4.125
 5419SOL     OW17155   2.971   4.900   0.243
 5419SOL    HW117156   2.967   4.943   0.334
 5419SOL    HW217157   3.040   4.946   0.187
 5420SOL     OW17158   1.213   2.004   2.267
 5420SOL    HW117159   1.204   2.104   2.270
 5420SOL    HW217160   1.153   1.968   2.195
 5421SOL     OW17161   2.155   3.357   2.851
 5421SOL    HW117162   2.178   3.453   2.867
 5421SOL    HW217163   2.092   3.325   2.922
 5422SOL     OW17164   0.970   5.587   6.869
 5422SOL    HW117165   0.919   5.520   6.816
 5422SOL    HW217166   0.929   5.678   6.856
 5423SOL     OW17167   5.740   2.570   0.121
 5423SOL    HW117168   5.814   2.504   0.110
 5423SOL    HW217169   5.667   2.549   0.055
 5424SOL     OW17170   4.866   3.158   3.958
 5424SOL    HW117171   4.866   3.173   4.057
 5424SOL    HW217172   4.888   3.062   3.938
 5425SOL     OW17173   4.290   1.424   4.295
 5425SOL    HW117174   4.295   1.350   4.228
 5425SOL    HW217175   4.309   1.387   4.386
 5426SOL     OW17176   6.159   5.087   3.751
 5426SOL    HW117177   6.113   5.001   3.773
 5426SOL    HW217178   6.136   5.115   3.658
 5427SOL     OW17179   4.852   4.828   0.457
 5427SOL    HW117180   4.763   4.871   0.444
 5427SOL    HW217181   4.916   4.893   0.498
 5428SOL     OW17182   0.372   0.305   1.808
 5428SOL    HW117183   0.357   0.344   1.717
 5428SOL    HW217184   0.396   0.378   1.872
 5429SOL     OW17185   1.144   1.806   5.698
 5429SOL    HW117186   1.154   1.831   5.794
 5429SOL    HW217187   1.234   1.806   5.654
 5430SOL     OW17188   0.916   3.154   5.865
 5430SOL    HW117189   0.845   3.126   5.800
 5430SOL    HW217190   0.995   3.093   5.857
 5431SOL     OW17191   3.500   5.625   0.023
 5431SOL    HW117192   3.532   5.583   6.966
 5431SOL    HW217193   3.409   5.664   0.010
 5432SOL     OW17194   4.818   6.332   6.702
 5432SOL    HW117195   4.760   6.379   6.768
 5432SOL    HW217196   4.827   6.388   6.620
 5433SOL     OW17197   0.633   1.780   3.803
 5433SOL    HW117198   0.590   1.739   3.884
 5433SOL    HW217199   0.726   1.744   3.794
 5434SOL     OW17200   3.862   1.119   4.758
 5434SOL    HW117201   3.942   1.162   4.716
 5434SOL    HW217202   3.870   1.125   4.858
 5435SOL     OW17203   5.112   1.146   1.698
 5435SOL    HW117204   5.136   1.239   1.723
 5435SOL    HW217205   5.133   1.130   1.602
 5436SOL     OW17206   5.215   3.632   4.022
 5436SOL    HW117207   5.268   3.566   3.969
 5436SOL    HW217208   5.277   3.701   4.060
 5437SOL     OW17209   2.890   4.833   6.482
 5437SOL    HW117210   2.797   4.870   6.475
 5437SOL    HW217211   2.909   4.774   6.404
 5438SOL     OW17212   6.248   4.087   2.661
 5438SOL    HW117213   6.242   4.027   2.741
 5438SOL    HW217214   6.262   4.181   2.692
 5439SOL     OW17215   1.226   2.612   1.513
 5439SOL    HW117216   1.235   2.583   1.608
 5439SOL    HW217217   1.173   2.545   1.462
 5440SOL     OW17218   0.474   1.154   2.118
 5440SOL    HW117219   0.547   1.158   2.186
 5440SOL    HW217220   0.456   1.058   2.093
 5441SOL     OW17221   5.083   2.239   2.761
 5441SOL    HW117222   5.049   2.277   2.675
 5441SOL    HW217223   5.074   2.307   2.833
 5442SOL     OW17224   3.606   5.856   3.288
 5442SOL    HW117225   3.657   5.772   3.307
 5442SOL    HW217226   3.537   5.837   3.218
 5443SOL     OW17227   2.970   0.589   3.701
 5443SOL    HW117228   2.968   0.669   3.642
 5443SOL    HW217229   2.879   0.574   3.741
 5444SOL     OW17230   1.581   0.705   4.136
 5444SOL    HW117231   1.537   0.681   4.223
 5444SOL    HW217232   1.602   0.803   4.136
 5445SOL     OW17233   5.633   3.928   4.257
 5445SOL    HW117234   5.573   3.974   4.192
 5445SOL    HW217235   5.582   3.905   4.340
 5446SOL     OW17236   6.511   5.077   4.862
 5446SOL    HW117237   6.428   5.025   4.879
 5446SOL    HW217238   6.570   5.074   4.943
 5447SOL     OW17239   2.219   1.965   6.386
 5447SOL    HW117240   2.193   1.958   6.482
 5447SOL    HW217241   2.274   2.048   6.372
 5448SOL     OW17242   4.842   3.107   4.846
 5448SOL    HW117243   4.823   3.023   4.795
 5448SOL    HW217244   4.880   3.176   4.784
 5449SOL     OW17245   1.736   2.570   6.635
 5449SOL    HW117246   1.788   2.535   6.556
 5449SOL    HW217247   1.709   2.494   6.693
 5450SOL     OW17248   1.698   0.562   2.148
 5450SOL    HW117249   1.782   0.509   2.138
 5450SOL    HW217250   1.685   0.619   2.067
 5451SOL     OW17251   1.041   6.010   3.548
 5451SOL    HW117252   1.100   5.955   3.607
 5451SOL    HW217253   0.948   6.011   3.586
 5452SOL     OW17254   2.448   4.035   0.107
 5452SOL    HW117255   2.371   3.972   0.113
 5452SOL    HW217256   2.512   4.017   0.181
 5453SOL     OW17257   5.279   4.326   1.812
 5453SOL    HW117258   5.327   4.365   1.891
 5453SOL    HW217259   5.203   4.269   1.845
 5454SOL     OW17260   0.079   3.769   6.295
 5454SOL    HW117261   0.151   3.834   6.270
 5454SOL    HW217262   0.026   3.806   6.371
 5455SOL     OW17263   6.332   2.789   0.709
 5455SOL    HW117264   6.267   2.858   0.677
 5455SOL    HW217265   6.387   2.828   0.783
 5456SOL     OW17266   3.001   0.277   6.941
 5456SOL    HW117267   3.041   0.246   7.027
 5456SOL    HW217268   2.954   0.201   6.897
 5457SOL     OW17269   6.452   2.376   6.694
 5457SOL    HW117270   6.408   2.458   6.730
 5457SOL    HW217271   6.389   2.327   6.634
 5458SOL     OW17272   0.982   4.423   0.334
 5458SOL    HW117273   1.060   4.473   0.296
 5458SOL    HW217274   1.016   4.350   0.393
 5459SOL     OW17275   2.064   3.961   0.085
 5459SOL    HW117276   2.080   3.867   0.054
 5459SOL    HW217277   1.969   3.985   0.069
 5460SOL     OW17278   3.508   0.870   3.040
 5460SOL    HW117279   3.457   0.870   2.954
 5460SOL    HW217280   3.600   0.907   3.024
 5461SOL     OW17281   5.838   0.251   5.307
 5461SOL    HW117282   5.863   0.175   5.367
 5461SOL    HW217283   5.914   0.316   5.304
 5462SOL     OW17284   0.899   6.870   6.565
 5462SOL    HW117285   0.876   6.776   6.589
 5462SOL    HW217286   0.944   6.871   6.475
 5463SOL     OW17287   6.815   2.378   0.433
 5463SOL    HW117288   6.722   2.413   0.431
 5463SOL    HW217289   6.814   2.279   0.447
 5464SOL     OW17290   1.169   1.412   4.062
 5464SOL    HW117291   1.100   1.483   4.081
 5464SOL    HW217292   1.191   1.364   4.146
 5465SOL     OW17293   3.696   6.123   3.267
 5465SOL    HW117294   3.669   6.027   3.257
 5465SOL    HW217295   3.647   6.178   3.199
 5466SOL     OW17296   5.393   3.509   5.562
 5466SOL    HW117297   5.474   3.478   5.513
 5466SOL    HW217298   5.367   3.600   5.530
 5467SOL     OW17299   4.999   2.745   3.049
 5467SOL    HW117300   4.934   2.819   3.065
 5467SOL    HW217301   5.000   2.683   3.127
 5468SOL     OW17302   5.739   2.565   4.630
 5468SOL    HW117303   5.689   2.480   4.613
 5468SOL    HW217304   5.837   2.547   4.629
 5469SOL     OW17305   4.300   5.790   6.449
 5469SOL    HW117306   4.205   5.770   6.471
 5469SOL    HW217307   4.357   5.770   6.529
 5470SOL     OW17308   3.261   6.205   2.530
 5470SOL    HW117309   3.295   6.286   2.578
 5470SOL    HW217310   3.161   6.209   2.526
 5471SOL     OW17311   4.995   6.919   2.572
 5471SOL    HW117312   5.041   6.967   2.647
 5471SOL    HW217313   4.990   6.980   2.493
 5472SOL     OW17314   4.484   3.428   6.034
 5472SOL    HW117315   4.510   3.333   6.052
 5472SOL    HW217316   4.493   3.481   6.118
 5473SOL     OW17317   0.040   3.194   2.640
 5473SOL    HW117318   6.978   3.201   2.597
 5473SOL    HW217319   0.110   3.222   2.575
 5474SOL     OW17320   1.793   4.706   4.504
 5474SOL    HW117321   1.883   4.722   4.545
 5474SOL    HW217322   1.722   4.746   4.563
 5475SOL     OW17323   2.685   3.070   1.589
 5475SOL    HW117324   2.673   3.169   1.597
 5475SOL    HW217325   2.774   3.051   1.548
 5476SOL     OW17326   1.945   4.334   5.510
 5476SOL    HW117327   1.897   4.383   5.583
 5476SOL    HW217328   2.004   4.397   5.460
 5477SOL     OW17329   2.525   4.804   3.325
 5477SOL    HW117330   2.590   4.756   3.384
 5477SOL    HW217331   2.549   4.901   3.321
 5478SOL     OW17332   3.869   5.330   4.797
 5478SOL    HW117333   3.791   5.284   4.839
 5478SOL    HW217334   3.901   5.403   4.857
 5479SOL     OW17335   4.885   1.501   6.179
 5479SOL    HW117336   4.874   1.479   6.276
 5479SOL    HW217337   4.844   1.429   6.123
 5480SOL     OW17338   6.401   4.301   3.232
 5480SOL    HW117339   6.338   4.356   3.178
 5480SOL    HW217340   6.445   4.233   3.172
 5481SOL     OW17341   4.500   1.608   4.349
 5481SOL    HW117342   4.424   1.549   4.324
 5481SOL    HW217343   4.480   1.654   4.436
 5482SOL     OW17344   3.311   5.194   1.470
 5482SOL    HW117345   3.263   5.167   1.387
 5482SOL    HW217346   3.400   5.234   1.446
 5483SOL     OW17347   0.313   2.009   5.534
 5483SOL    HW117348   0.323   2.028   5.436
 5483SOL    HW217349   0.403   2.000   5.575
 5484SOL     OW17350   4.258   1.508   4.739
 5484SOL    HW117351   4.305   1.530   4.825
 5484SOL    HW217352   4.314   1.539   4.662
 5485SOL     OW17353   4.623   0.389   5.796
 5485SOL    HW117354   4.601   0.354   5.705
 5485SOL    HW217355   4.686   0.326   5.842
 5486SOL     OW17356   2.695   5.720   5.495
 5486SOL    HW117357   2.761   5.706   5.421
 5486SOL    HW217358   2.608   5.677   5.471
 5487SOL     OW17359   4.075   3.025   6.824
 5487SOL    HW117360   4.005   3.082   6.782
 5487SOL    HW217361   4.157   3.025   6.767
 5488SOL     OW17362   5.722   0.279   1.031
 5488SOL    HW117363   5.788   0.269   0.957
 5488SOL    HW217364   5.639   0.323   0.996
 5489SOL     OW17365   0.051   3.753   1.378
 5489SOL    HW117366   0.086   3.815   1.449
 5489SOL    HW217367   7.005   3.797   1.329
 5490SOL     OW17368   2.659   0.416   2.589
 5490SOL    HW117369   2.654   0.364   2.675
 5490SOL    HW217370   2.608   0.501   2.599
 5491SOL     OW17371   0.850   2.907   0.136
 5491SOL    HW117372   0.799   2.846   0.197
 5491SOL    HW217373   0.907   2.853   0.075
 5492SOL     OW17374   0.590   3.183   6.720
 5492SOL    HW117375   0.659   3.252   6.743
 5492SOL    HW217376   0.569   3.189   6.622
 5493SOL     OW17377   4.102   3.551   3.377
 5493SOL    HW117378   4.059   3.523   3.463
 5493SOL    HW217379   4.110   3.651   3.375
 5494SOL     OW17380   6.658   3.456   5.424
 5494SOL    HW117381   6.738   3.517   5.418
 5494SOL    HW217382   6.682   3.375   5.478
 5495SOL     OW17383   5.869   0.651   1.505
 5495SOL    HW117384   5.936   0.576   1.504
 5495SOL    HW217385   5.894   0.718   1.435
 5496SOL     OW17386   4.546   0.734   3.897
 5496SOL    HW117387   4.611   0.745   3.972
 5496SOL    HW217388   4.495   0.648   3.909
 5497SOL     OW17389   0.573   1.054   5.157
 5497SOL    HW117390   0.591   1.077   5.252
 5497SOL    HW217391   0.532   0.963   5.152
 5498SOL     OW17392   0.096   5.045   2.194
 5498SOL    HW117393   0.132   5.119   2.138
 5498SOL    HW217394   0.115   4.957   2.149
 5499SOL     OW17395   0.672   0.682   4.019
 5499SOL    HW117396   0.685   0.593   3.975
 5499SOL    HW217397   0.663   0.753   3.949
 5500SOL     OW17398   0.744   1.055   6.354
 5500SOL    HW117399   0.722   0.999   6.274
 5500SOL    HW217400   0.836   1.093   6.343
 5501SOL     OW17401   3.596   1.912   0.681
 5501SOL    HW117402   3.635   2.003   0.691
 5501SOL    HW217403   3.647   1.848   0.738
 5502SOL     OW17404   5.760   3.208   6.211
 5502SOL    HW117405   5.673   3.162   6.225
 5502SOL    HW217406   5.798   3.237   6.299
 5503SOL     OW17407   0.105   4.163   0.772
 5503SOL    HW117408   0.108   4.145   0.870
 5503SOL    HW217409   0.019   4.127   0.734
 5504SOL     OW17410   4.939   1.220   5.234
 5504SOL    HW117411   4.949   1.241   5.137
 5504SOL    HW217412   4.934   1.306   5.286
 5505SOL     OW17413   2.217   5.045   3.200
 5505SOL    HW117414   2.268   4.978   3.147
 5505SOL    HW217415   2.196   5.007   3.290
 5506SOL     OW17416   0.194   3.057   0.509
 5506SOL    HW117417   0.207   2.973   0.458
 5506SOL    HW217418   0.226   3.045   0.603
 5507SOL     OW17419   3.464   0.678   5.216
 5507SOL    HW117420   3.415   0.765   5.216
 5507SOL    HW217421   3.534   0.678   5.145
 5508SOL     OW17422   1.191   0.556   0.427
 5508SOL    HW117423   1.201   0.469   0.475
 5508SOL    HW217424   1.266   0.565   0.360
 5509SOL     OW17425   0.849   5.989   0.555
 5509SOL    HW117426   0.795   5.938   0.488
 5509SOL    HW217427   0.840   5.946   0.645
 5510SOL     OW17428   4.350   5.169   6.764
 5510SOL    HW117429   4.334   5.245   6.827
 5510SOL    HW217430   4.384   5.205   6.677
 5511SOL     OW17431   1.430   0.878   5.283
 5511SOL    HW117432   1.348   0.923   5.321
 5511SOL    HW217433   1.488   0.947   5.240
 5512SOL     OW17434   3.483   1.403   0.688
 5512SOL    HW117435   3.575   1.369   0.669
 5512SOL    HW217436   3.487   1.472   0.761
 5513SOL     OW17437   3.484   5.318   5.777
 5513SOL    HW117438   3.413   5.284   5.838
 5513SOL    HW217439   3.457   5.407   5.741
 5514SOL     OW17440   3.400   0.413   4.875
 5514SOL    HW117441   3.498   0.403   4.894
 5514SOL    HW217442   3.354   0.453   4.954
 5515SOL     OW17443   1.619   5.564   1.794
 5515SOL    HW117444   1.611   5.631   1.868
 5515SOL    HW217445   1.685   5.597   1.726
 5516SOL     OW17446   2.244   2.837   4.695
 5516SOL    HW117447   2.280   2.803   4.782
 5516SOL    HW217448   2.319   2.843   4.629
 5517SOL     OW17449   2.064   3.677   1.909
 5517SOL    HW117450   2.043   3.726   1.994
 5517SOL    HW217451   2.152   3.629   1.919
 5518SOL     OW17452   6.195   4.997   5.739
 5518SOL    HW117453   6.200   4.945   5.654
 5518SOL    HW217454   6.146   5.083   5.723
 5519SOL     OW17455   5.873   3.348   3.271
 5519SOL    HW117456   5.880   3.259   3.317
 5519SOL    HW217457   5.793   3.348   3.212
 5520SOL     OW17458   5.211   6.623   2.481
 5520SOL    HW117459   5.229   6.525   2.473
 5520SOL    HW217460   5.203   6.648   2.577
 5521SOL     OW17461   5.976   6.119   1.823
 5521SOL    HW117462   6.051   6.071   1.777
 5521SOL    HW217463   5.917   6.162   1.755
 5522SOL     OW17464   6.552   5.344   1.193
 5522SOL    HW117465   6.641   5.313   1.159
 5522SOL    HW217466   6.564   5.428   1.246
 5523SOL     OW17467   4.588   1.023   2.224
 5523SOL    HW117468   4.666   1.081   2.201
 5523SOL    HW217469   4.581   1.014   2.323
 5524SOL     OW17470   3.355   0.011   4.631
 5524SOL    HW117471   3.428   0.077   4.614
 5524SOL    HW217472   3.268   0.048   4.599
 5525SOL     OW17473   1.043   2.311   0.300
 5525SOL    HW117474   1.012   2.230   0.249
 5525SOL    HW217475   1.124   2.349   0.256
 5526SOL     OW17476   4.995   4.797   3.009
 5526SOL    HW117477   4.937   4.751   2.942
 5526SOL    HW217478   5.061   4.855   2.962
 5527SOL     OW17479   4.926   3.941   3.116
 5527SOL    HW117480   4.878   3.996   3.185
 5527SOL    HW217481   4.994   3.997   3.070
 5528SOL     OW17482   1.973   0.549   1.116
 5528SOL    HW117483   1.917   0.632   1.114
 5528SOL    HW217484   1.926   0.478   1.167
 5529SOL     OW17485   3.073   7.022   3.945
 5529SOL    HW117486   3.115   6.982   4.026
 5529SOL    HW217487   3.093   0.092   3.942
 5530SOL     OW17488   6.142   2.149   1.314
 5530SOL    HW117489   6.138   2.107   1.405
 5530SOL    HW217490   6.237   2.152   1.283
 5531SOL     OW17491   3.801   3.599   1.517
 5531SOL    HW117492   3.716   3.578   1.566
 5531SOL    HW217493   3.876   3.544   1.555
 5532SOL     OW17494   1.587   2.999   0.605
 5532SOL    HW117495   1.618   2.977   0.698
 5532SOL    HW217496   1.530   3.081   0.608
 5533SOL     OW17497   5.032   1.367   3.994
 5533SOL    HW117498   5.117   1.421   3.999
 5533SOL    HW217499   4.974   1.404   3.921
 5534SOL     OW17500   1.034   1.093   6.400
 5534SOL    HW117501   1.049   1.118   6.496
 5534SOL    HW217502   1.117   1.050   6.364
 5535SOL     OW17503   0.839   1.242   2.710
 5535SOL    HW117504   0.782   1.161   2.703
 5535SOL    HW217505   0.933   1.215   2.733
 5536SOL     OW17506   4.256   0.604   4.668
 5536SOL    HW117507   4.165   0.643   4.655
 5536SOL    HW217508   4.271   0.529   4.603
 5537SOL     OW17509   3.717   1.436   2.512
 5537SOL    HW117510   3.816   1.426   2.522
 5537SOL    HW217511   3.679   1.476   2.596
 5538SOL     OW17512   3.660   6.303   4.845
 5538SOL    HW117513   3.658   6.308   4.944
 5538SOL    HW217514   3.641   6.210   4.815
 5539SOL     OW17515   1.649   3.801   1.665
 5539SOL    HW117516   1.691   3.727   1.614
 5539SOL    HW217517   1.553   3.810   1.638
 5540SOL     OW17518   4.864   4.495   3.852
 5540SOL    HW117519   4.793   4.427   3.872
 5540SOL    HW217520   4.868   4.562   3.926
 5541SOL     OW17521   5.025   0.644   6.511
 5541SOL    HW117522   5.061   0.597   6.430
 5541SOL    HW217523   5.077   0.728   6.527
 5542SOL     OW17524   4.219   3.382   6.415
 5542SOL    HW117525   4.162   3.410   6.337
 5542SOL    HW217526   4.170   3.400   6.500
 5543SOL     OW17527   5.599   3.811   6.484
 5543SOL    HW117528   5.549   3.851   6.408
 5543SOL    HW217529   5.634   3.721   6.458
 5544SOL     OW17530   5.127   6.973   6.353
 5544SOL    HW117531   5.155   7.011   6.441
 5544SOL    HW217532   5.086   0.018   6.298
 5545SOL     OW17533   4.168   1.933   2.958
 5545SOL    HW117534   4.152   1.926   3.057
 5545SOL    HW217535   4.231   1.862   2.929
 5546SOL     OW17536   1.241   5.627   5.613
 5546SOL    HW117537   1.250   5.537   5.569
 5546SOL    HW217538   1.159   5.672   5.579
 5547SOL     OW17539   2.896   6.386   4.806
 5547SOL    HW117540   2.881   6.362   4.902
 5547SOL    HW217541   2.818   6.358   4.751
 5548SOL     OW17542   6.479   3.539   6.099
 5548SOL    HW117543   6.553   3.589   6.055
 5548SOL    HW217544   6.431   3.601   6.162
 5549SOL     OW17545   3.537   4.570   0.072
 5549SOL    HW117546   3.528   4.578   0.171
 5549SOL    HW217547   3.627   4.532   0.050
 5550SOL     OW17548   2.438   5.677   1.985
 5550SOL    HW117549   2.485   5.743   1.927
 5550SOL    HW217550   2.488   5.668   2.071
 5551SOL     OW17551   1.575   0.714   3.076
 5551SOL    HW117552   1.615   0.630   3.113
 5551SOL    HW217553   1.502   0.691   3.011
 5552SOL     OW17554   6.740   1.352   0.269
 5552SOL    HW117555   6.690   1.388   0.191
 5552SOL    HW217556   6.833   1.389   0.268
 5553SOL     OW17557   4.241   6.961   6.924
 5553SOL    HW117558   4.268   6.870   6.893
 5553SOL    HW217559   4.296   0.002   6.877
 5554SOL     OW17560   2.930   2.415   5.625
 5554SOL    HW117561   3.000   2.346   5.604
 5554SOL    HW217562   2.853   2.405   5.563
 5555SOL     OW17563   0.515   5.646   3.395
 5555SOL    HW117564   0.585   5.592   3.349
 5555SOL    HW217565   0.483   5.597   3.476
 5556SOL     OW17566   0.990   2.389   4.835
 5556SOL    HW117567   1.073   2.367   4.784
 5556SOL    HW217568   0.924   2.433   4.773
 5557SOL     OW17569   2.713   5.865   3.796
 5557SOL    HW117570   2.720   5.775   3.752
 5557SOL    HW217571   2.762   5.932   3.741
 5558SOL     OW17572   5.359   2.718   4.989
 5558SOL    HW117573   5.304   2.643   4.951
 5558SOL    HW217574   5.302   2.799   5.000
 5559SOL     OW17575   2.351   0.293   1.067
 5559SOL    HW117576   2.450   0.289   1.051
 5559SOL    HW217577   2.313   0.201   1.060
 5560SOL     OW17578   0.245   0.636   3.005
 5560SOL    HW117579   0.281   0.547   3.032
 5560SOL    HW217580   0.178   0.625   2.933
 5561SOL     OW17581   1.215   3.092   3.915
 5561SOL    HW117582   1.203   3.114   3.818
 5561SOL    HW217583   1.312   3.077   3.934
 5562SOL     OW17584   1.902   2.596   6.246
 5562SOL    HW117585   1.812   2.561   6.216
 5562SOL    HW217586   1.969   2.578   6.174
 5563SOL     OW17587   4.525   6.362   2.315
 5563SOL    HW117588   4.592   6.327   2.380
 5563SOL    HW217589   4.439   6.381   2.362
 5564SOL     OW17590   5.134   3.914   1.853
 5564SOL    HW117591   5.083   3.875   1.929
 5564SOL    HW217592   5.111   3.866   1.769
 5565SOL     OW17593   4.291   2.378   5.634
 5565SOL    HW117594   4.296   2.402   5.731
 5565SOL    HW217595   4.338   2.447   5.580
 5566SOL     OW17596   1.638   5.768   0.824
 5566SOL    HW117597   1.608   5.674   0.806
 5566SOL    HW217598   1.569   5.815   0.878
 5567SOL     OW17599   1.722   5.698   1.142
 5567SOL    HW117600   1.745   5.606   1.172
 5567SOL    HW217601   1.625   5.702   1.119
 5568SOL     OW17602   4.601   1.905   0.647
 5568SOL    HW117603   4.628   1.992   0.606
 5568SOL    HW217604   4.537   1.922   0.722
 5569SOL     OW17605   4.111   1.633   1.758
 5569SOL    HW117606   4.189   1.693   1.775
 5569SOL    HW217607   4.141   1.537   1.761
 5570SOL     OW17608   5.955   4.807   5.349
 5570SOL    HW117609   6.015   4.883   5.325
 5570SOL    HW217610   5.989   4.763   5.432
 5571SOL     OW17611   0.293   5.779   0.593
 5571SOL    HW117612   0.246   5.818   0.514
 5571SOL    HW217613   0.229   5.722   0.644
 5572SOL     OW17614   4.452   2.208   6.425
 5572SOL    HW117615   4.375   2.251   6.472
 5572SOL    HW217616   4.537   2.243   6.462
 5573SOL     OW17617   1.242   3.991   0.579
 5573SOL    HW117618   1.209   3.901   0.605
 5573SOL    HW217619   1.281   4.037   0.659
 5574SOL     OW17620   0.629   6.699   4.866
 5574SOL    HW117621   0.724   6.699   4.835
 5574SOL    HW217622   0.600   6.792   4.886
 5575SOL     OW17623   1.678   0.910   0.899
 5575SOL    HW117624   1.581   0.886   0.898
 5575SOL    HW217625   1.729   0.839   0.948
 5576SOL     OW17626   5.913   5.532   0.557
 5576SOL    HW117627   5.874   5.624   0.561
 5576SOL    HW217628   5.842   5.467   0.528
 5577SOL     OW17629   2.298   3.267   5.589
 5577SOL    HW117630   2.204   3.231   5.584
 5577SOL    HW217631   2.343   3.254   5.500
 5578SOL     OW17632   4.091   2.138   0.212
 5578SOL    HW117633   4.083   2.057   0.154
 5578SOL    HW217634   4.180   2.180   0.199
 5579SOL     OW17635   4.997   3.586   7.017
 5579SOL    HW117636   4.989   3.492   6.983
 5579SOL    HW217637   5.009   3.649   6.940
 5580SOL     OW17638   5.135   1.233   0.560
 5580SOL    HW117639   5.186   1.290   0.624
 5580SOL    HW217640   5.117   1.144   0.602
 5581SOL     OW17641   1.946   0.417   6.788
 5581SOL    HW117642   2.027   0.451   6.837
 5581SOL    HW217643   1.909   0.490   6.730
 5582SOL     OW17644   3.587   3.437   4.118
 5582SOL    HW117645   3.615   3.507   4.053
 5582SOL    HW217646   3.505   3.391   4.084
 5583SOL     OW17647   3.253   0.016   1.957
 5583SOL    HW117648   3.352   0.029   1.964
 5583SOL    HW217649   3.219   6.997   2.038
 5584SOL     OW17650   6.170   4.020   3.184
 5584SOL    HW117651   6.254   4.074   3.175
 5584SOL    HW217652   6.191   3.934   3.230
 5585SOL     OW17653   6.684   0.753   3.626
 5585SOL    HW117654   6.744   0.690   3.674
 5585SOL    HW217655   6.718   0.847   3.637
 5586SOL     OW17656   2.590   1.429   6.036
 5586SOL    HW117657   2.513   1.464   5.981
 5586SOL    HW217658   2.645   1.506   6.068
 5587SOL     OW17659   4.084   0.584   3.515
 5587SOL    HW117660   4.010   0.651   3.503
 5587SOL    HW217661   4.072   0.509   3.451
 5588SOL     OW17662   2.243   0.089   5.262
 5588SOL    HW117663   2.232   0.171   5.205
 5588SOL    HW217664   2.293   0.019   5.211
 5589SOL     OW17665   4.921   2.398   6.495
 5589SOL    HW117666   4.994   2.415   6.560
 5589SOL    HW217667   4.954   2.414   6.402
 5590SOL     OW17668   6.627   6.086   4.508
 5590SOL    HW117669   6.530   6.063   4.513
 5590SOL    HW217670   6.641   6.157   4.439
 5591SOL     OW17671   5.885   0.843   0.025
 5591SOL    HW117672   5.833   0.785   0.087
 5591SOL    HW217673   5.902   0.795   6.967
 5592SOL     OW17674   1.371   3.982   2.551
 5592SOL    HW117675   1.397   4.078   2.565
 5592SOL    HW217676   1.282   3.965   2.593
 5593SOL     OW17677   1.079   2.968   5.814
 5593SOL    HW117678   1.091   2.869   5.815
 5593SOL    HW217679   1.095   3.003   5.722
 5594SOL     OW17680   2.276   0.181   0.242
 5594SOL    HW117681   2.262   0.083   0.257
 5594SOL    HW217682   2.358   0.194   0.186
 5595SOL     OW17683   6.430   1.168   5.611
 5595SOL    HW117684   6.388   1.092   5.660
 5595SOL    HW217685   6.379   1.252   5.628
 5596SOL     OW17686   5.181   0.501   2.210
 5596SOL    HW117687   5.094   0.472   2.171
 5596SOL    HW217688   5.185   0.475   2.306
 5597SOL     OW17689   5.868   1.049   6.397
 5597SOL    HW117690   5.955   1.003   6.412
 5597SOL    HW217691   5.848   1.109   6.475
 5598SOL     OW17692   5.602   1.758   3.780
 5598SOL    HW117693   5.693   1.795   3.792
 5598SOL    HW217694   5.588   1.732   3.685
 5599SOL     OW17695   5.057   4.185   1.849
 5599SOL    HW117696   5.079   4.092   1.821
 5599SOL    HW217697   4.958   4.198   1.849
 5600SOL     OW17698   1.965   0.523   2.705
 5600SOL    HW117699   2.051   0.574   2.713
 5600SOL    HW217700   1.889   0.583   2.731
 5601SOL     OW17701   5.107   3.019   5.881
 5601SOL    HW117702   5.070   3.071   5.958
 5601SOL    HW217703   5.194   3.060   5.852
 5602SOL     OW17704   0.757   2.488   3.548
 5602SOL    HW117705   0.705   2.408   3.579
 5602SOL    HW217706   0.855   2.467   3.552
 5603SOL     OW17707   4.387   2.478   4.766
 5603SOL    HW117708   4.365   2.408   4.699
 5603SOL    HW217709   4.313   2.487   4.832
 5604SOL     OW17710   1.016   0.348   4.057
 5604SOL    HW117711   0.938   0.386   4.106
 5604SOL    HW217712   1.001   0.358   3.958
 5605SOL     OW17713   2.168   6.934   4.185
 5605SOL    HW117714   2.184   6.944   4.087
 5605SOL    HW217715   2.189   6.841   4.214
 5606SOL     OW17716   4.776   2.116   0.538
 5606SOL    HW117717   4.873   2.107   0.563
 5606SOL    HW217718   4.769   2.148   0.443
 5607SOL     OW17719   6.184   2.419   2.456
 5607SOL    HW117720   6.255   2.450   2.520
 5607SOL    HW217721   6.102   2.475   2.468
 5608SOL     OW17722   5.439   1.056   3.972
 5608SOL    HW117723   5.484   0.968   3.982
 5608SOL    HW217724   5.437   1.104   4.060
 5609SOL     OW17725   5.993   6.758   1.374
 5609SOL    HW117726   6.068   6.770   1.308
 5609SOL    HW217727   5.972   6.847   1.415
 5610SOL     OW17728   5.537   4.570   6.891
 5610SOL    HW117729   5.536   4.660   6.848
 5610SOL    HW217730   5.525   4.580   6.990
 5611SOL     OW17731   0.563   5.126   1.492
 5611SOL    HW117732   0.540   5.223   1.492
 5611SOL    HW217733   0.480   5.072   1.482
 5612SOL     OW17734   2.871   1.234   0.725
 5612SOL    HW117735   2.926   1.187   0.793
 5612SOL    HW217736   2.847   1.170   0.651
 5613SOL     OW17737   7.028   5.021   4.882
 5613SOL    HW117738   0.022   4.963   4.803
 5613SOL    HW217739   6.943   5.070   4.864
 5614SOL     OW17740   5.778   2.186   4.813
 5614SOL    HW117741   5.751   2.103   4.764
 5614SOL    HW217742   5.697   2.230   4.852
 5615SOL     OW17743   6.776   2.536   2.318
 5615SOL    HW117744   6.686   2.496   2.301
 5615SOL    HW217745   6.829   2.476   2.378
 5616SOL     OW17746   1.589   3.388   3.445
 5616SOL    HW117747   1.663   3.394   3.513
 5616SOL    HW217748   1.501   3.398   3.491
 5617SOL     OW17749   2.338   5.540   5.879
 5617SOL    HW117750   2.360   5.607   5.808
 5617SOL    HW217751   2.418   5.483   5.897
 5618SOL     OW17752   6.808   5.599   4.114
 5618SOL    HW117753   6.784   5.638   4.203
 5618SOL    HW217754   6.815   5.499   4.122
 5619SOL     OW17755   3.604   3.339   4.770
 5619SOL    HW117756   3.654   3.403   4.828
 5619SOL    HW217757   3.516   3.378   4.745
 5620SOL     OW17758   4.019   4.473   5.602
 5620SOL    HW117759   4.010   4.424   5.515
 5620SOL    HW217760   4.017   4.571   5.585
 5621SOL     OW17761   1.711   3.078   4.799
 5621SOL    HW117762   1.693   3.042   4.707
 5621SOL    HW217763   1.754   3.168   4.791
 5622SOL     OW17764   4.568   5.456   4.811
 5622SOL    HW117765   4.656   5.452   4.763
 5622SOL    HW217766   4.503   5.394   4.767
 5623SOL     OW17767   4.473   6.226   4.121
 5623SOL    HW117768   4.476   6.239   4.220
 5623SOL    HW217769   4.390   6.176   4.096
 5624SOL     OW17770   6.979   5.859   4.237
 5624SOL    HW117771   6.960   5.876   4.140
 5624SOL    HW217772   6.892   5.858   4.288
 5625SOL     OW17773   1.408   5.875   4.692
 5625SOL    HW117774   1.363   5.886   4.603
 5625SOL    HW217775   1.501   5.839   4.678
 5626SOL     OW17776   2.132   3.964   4.241
 5626SOL    HW117777   2.129   3.893   4.171
 5626SOL    HW217778   2.181   3.930   4.321
 5627SOL     OW17779   1.472   5.942   0.499
 5627SOL    HW117780   1.392   5.934   0.558
 5627SOL    HW217781   1.446   5.922   0.405
 5628SOL     OW17782   3.101   2.617   0.356
 5628SOL    HW117783   3.160   2.603   0.276
 5628SOL    HW217784   3.147   2.582   0.437
 5629SOL     OW17785   4.930   3.986   1.208
 5629SOL    HW117786   4.857   3.921   1.227
 5629SOL    HW217787   5.011   3.963   1.262
 5630SOL     OW17788   1.757   3.992   6.429
 5630SOL    HW117789   1.702   3.980   6.511
 5630SOL    HW217790   1.780   3.902   6.390
 5631SOL     OW17791   4.334   0.832   1.942
 5631SOL    HW117792   4.296   0.757   1.888
 5631SOL    HW217793   4.293   0.918   1.913
 5632SOL     OW17794   5.980   0.251   5.974
 5632SOL    HW117795   5.943   0.158   5.968
 5632SOL    HW217796   5.905   0.316   5.987
 5633SOL     OW17797   0.636   4.598   5.839
 5633SOL    HW117798   0.704   4.552   5.783
 5633SOL    HW217799   0.594   4.673   5.788
 5634SOL     OW17800   2.917   6.148   6.346
 5634SOL    HW117801   2.909   6.241   6.382
 5634SOL    HW217802   2.829   6.101   6.353
 5635SOL     OW17803   2.682   6.783   6.592
 5635SOL    HW117804   2.631   6.840   6.528
 5635SOL    HW217805   2.744   6.723   6.542
 5636SOL     OW17806   6.302   0.772   5.367
 5636SOL    HW117807   6.350   0.814   5.444
 5636SOL    HW217808   6.311   0.830   5.286
 5637SOL     OW17809   5.138   5.928   4.508
 5637SOL    HW117810   5.116   5.866   4.433
 5637SOL    HW217811   5.129   5.880   4.595
 5638SOL     OW17812   5.402   6.108   1.121
 5638SOL    HW117813   5.403   6.115   1.021
 5638SOL    HW217814   5.307   6.113   1.153
 5639SOL     OW17815   1.366   0.312   1.606
 5639SOL    HW117816   1.356   0.371   1.686
 5639SOL    HW217817   1.286   0.322   1.547
 5640SOL     OW17818   2.543   6.017   2.983
 5640SOL    HW117819   2.575   6.054   3.071
 5640SOL    HW217820   2.505   6.091   2.928
 5641SOL     OW17821   1.379   5.044   4.579
 5641SOL    HW117822   1.338   4.968   4.528
 5641SOL    HW217823   1.404   5.013   4.671
 5642SOL     OW17824   1.234   4.775   6.533
 5642SOL    HW117825   1.254   4.685   6.495
 5642SOL    HW217826   1.144   4.805   6.502
 5643SOL     OW17827   3.766   1.955   4.286
 5643SOL    HW117828   3.715   1.985   4.367
 5643SOL    HW217829   3.860   1.989   4.291
 5644SOL     OW17830   5.363   1.474   5.384
 5644SOL    HW117831   5.272   1.501   5.353
 5644SOL    HW217832   5.427   1.549   5.369
 5645SOL     OW17833   5.057   5.292   2.291
 5645SOL    HW117834   5.036   5.241   2.208
 5645SOL    HW217835   4.974   5.336   2.325
 5646SOL     OW17836   0.171   5.815   3.605
 5646SOL    HW117837   0.076   5.842   3.588
 5646SOL    HW217838   0.224   5.827   3.522
 5647SOL     OW17839   6.454   5.994   0.087
 5647SOL    HW117840   6.478   5.949   0.173
 5647SOL    HW217841   6.392   6.070   0.105
 5648SOL     OW17842   2.021   1.831   3.141
 5648SOL    HW117843   2.108   1.780   3.141
 5648SOL    HW217844   1.995   1.850   3.046
 5649SOL     OW17845   1.784   0.276   4.537
 5649SOL    HW117846   1.693   0.311   4.514
 5649SOL    HW217847   1.842   0.351   4.568
 5650SOL     OW17848   6.978   4.790   0.839
 5650SOL    HW117849   6.881   4.787   0.865
 5650SOL    HW217850   0.005   4.752   0.913
 5651SOL     OW17851   0.224   1.129   1.813
 5651SOL    HW117852   0.177   1.049   1.776
 5651SOL    HW217853   0.297   1.156   1.750
 5652SOL     OW17854   5.504   5.789   1.586
 5652SOL    HW117855   5.503   5.883   1.620
 5652SOL    HW217856   5.599   5.756   1.582
 5653SOL     OW17857   6.541   6.173   5.720
 5653SOL    HW117858   6.637   6.146   5.715
 5653SOL    HW217859   6.517   6.193   5.815
 5654SOL     OW17860   0.221   0.397   6.022
 5654SOL    HW117861   0.308   0.354   6.046
 5654SOL    HW217862   0.199   0.375   5.927
 5655SOL     OW17863   1.214   3.425   3.841
 5655SOL    HW117864   1.163   3.509   3.824
 5655SOL    HW217865   1.159   3.363   3.897
 5656SOL     OW17866   2.755   4.093   0.615
 5656SOL    HW117867   2.812   4.090   0.697
 5656SOL    HW217868   2.803   4.048   0.540
 5657SOL     OW17869   4.719   7.015   1.311
 5657SOL    HW117870   4.709   0.031   1.400
 5657SOL    HW217871   4.719   6.916   1.322
 5658SOL     OW17872   3.052   6.737   5.517
 5658SOL    HW117873   3.101   6.693   5.442
 5658SOL    HW217874   3.078   6.694   5.604
 5659SOL     OW17875   2.948   3.399   2.997
 5659SOL    HW117876   3.027   3.443   2.956
 5659SOL    HW217877   2.975   3.310   3.034
 5660SOL     OW17878   5.345   0.344   0.333
 5660SOL    HW117879   5.309   0.322   0.424
 5660SOL    HW217880   5.294   0.292   0.264
 5661SOL     OW17881   0.188   6.124   5.363
 5661SOL    HW117882   0.210   6.028   5.379
 5661SOL    HW217883   0.111   6.130   5.299
 5662SOL     OW17884   2.597   4.613   3.702
 5662SOL    HW117885   2.607   4.710   3.726
 5662SOL    HW217886   2.521   4.603   3.637
 5663SOL     OW17887   1.066   4.192   0.477
 5663SOL    HW117888   1.158   4.173   0.512
 5663SOL    HW217889   1.015   4.107   0.471
 5664SOL     OW17890   0.130   4.811   3.154
 5664SOL    HW117891   0.118   4.766   3.066
 5664SOL    HW217892   0.190   4.756   3.212
 5665SOL     OW17893   1.930   2.445   6.485
 5665SOL    HW117894   1.994   2.370   6.500
 5665SOL    HW217895   1.958   2.496   6.403
 5666SOL     OW17896   4.784   5.705   1.021
 5666SOL    HW117897   4.802   5.651   1.103
 5666SOL    HW217898   4.825   5.796   1.031
 5667SOL     OW17899   0.104   5.063   3.233
 5667SOL    HW117900   0.127   4.974   3.194
 5667SOL    HW217901   0.178   5.092   3.295
 5668SOL     OW17902   4.729   1.438   6.427
 5668SOL    HW117903   4.685   1.498   6.360
 5668SOL    HW217904   4.671   1.359   6.444
 5669SOL     OW17905   0.120   5.130   5.720
 5669SOL    HW117906   0.104   5.125   5.818
 5669SOL    HW217907   0.101   5.224   5.688
 5670SOL     OW17908   0.488   3.304   3.407
 5670SOL    HW117909   0.446   3.383   3.450
 5670SOL    HW217910   0.423   3.263   3.342
 5671SOL     OW17911   2.458   6.646   6.257
 5671SOL    HW117912   2.516   6.699   6.195
 5671SOL    HW217913   2.370   6.629   6.214
 5672SOL     OW17914   4.904   3.635   6.337
 5672SOL    HW117915   4.843   3.683   6.400
 5672SOL    HW217916   4.879   3.657   6.243
 5673SOL     OW17917   0.526   0.648   2.605
 5673SOL    HW117918   0.509   0.674   2.700
 5673SOL    HW217919   0.439   0.636   2.557
 5674SOL     OW17920   0.239   3.897   1.735
 5674SOL    HW117921   0.169   3.922   1.669
 5674SOL    HW217922   0.210   3.815   1.785
 5675SOL     OW17923   4.584   2.678   5.292
 5675SOL    HW117924   4.665   2.730   5.263
 5675SOL    HW217925   4.555   2.710   5.382
 5676SOL     OW17926   1.799   0.759   1.142
 5676SOL    HW117927   1.785   0.843   1.194
 5676SOL    HW217928   1.729   0.692   1.168
 5677SOL     OW17929   6.766   2.164   3.593
 5677SOL    HW117930   6.686   2.170   3.653
 5677SOL    HW217931   6.748   2.213   3.508
 5678SOL     OW17932   3.641   6.289   2.531
 5678SOL    HW117933   3.733   6.252   2.524
 5678SOL    HW217934   3.577   6.229   2.482
 5679SOL     OW17935   1.405   6.734   4.698
 5679SOL    HW117936   1.409   6.643   4.738
 5679SOL    HW217937   1.309   6.761   4.684
 5680SOL     OW17938   1.815   5.292   6.734
 5680SOL    HW117939   1.870   5.209   6.724
 5680SOL    HW217940   1.787   5.325   6.644
 5681SOL     OW17941   0.798   3.021   6.469
 5681SOL    HW117942   0.719   3.082   6.467
 5681SOL    HW217943   0.876   3.069   6.508
 5682SOL     OW17944   1.384   2.991   5.505
 5682SOL    HW117945   1.400   2.980   5.407
 5682SOL    HW217946   1.303   3.047   5.520
 5683SOL     OW17947   3.688   2.468   6.669
 5683SOL    HW117948   3.740   2.446   6.587
 5683SOL    HW217949   3.662   2.565   6.666
 5684SOL     OW17950   3.870   3.524   4.480
 5684SOL    HW117951   3.841   3.430   4.465
 5684SOL    HW217952   3.857   3.549   4.576
 5685SOL     OW17953   0.691   4.782   2.095
 5685SOL    HW117954   0.721   4.809   2.187
 5685SOL    HW217955   0.624   4.708   2.102
 5686SOL     OW17956   3.682   0.075   0.407
 5686SOL    HW117957   3.690   0.145   0.478
 5686SOL    HW217958   3.704   0.116   0.318
 5687SOL     OW17959   6.371   4.260   4.605
 5687SOL    HW117960   6.434   4.183   4.594
 5687SOL    HW217961   6.377   4.319   4.524
 5688SOL     OW17962   6.076   1.822   0.870
 5688SOL    HW117963   6.003   1.884   0.843
 5688SOL    HW217964   6.161   1.873   0.881
 5689SOL     OW17965   4.492   1.285   0.265
 5689SOL    HW117966   4.553   1.215   0.229
 5689SOL    HW217967   4.490   1.279   0.365
 5690SOL     OW17968   3.658   6.080   0.641
 5690SOL    HW117969   3.670   6.110   0.547
 5690SOL    HW217970   3.658   6.160   0.702
 5691SOL     OW17971   3.096   6.193   2.189
 5691SOL    HW117972   3.021   6.259   2.195
 5691SOL    HW217973   3.182   6.238   2.212
 5692SOL     OW17974   6.560   2.132   6.073
 5692SOL    HW117975   6.534   2.036   6.077
 5692SOL    HW217976   6.515   2.176   5.995
 5693SOL     OW17977   4.901   2.712   2.194
 5693SOL    HW117978   4.869   2.790   2.248
 5693SOL    HW217979   4.873   2.723   2.099
 5694SOL     OW17980   0.407   1.251   3.431
 5694SOL    HW117981   0.429   1.316   3.358
 5694SOL    HW217982   0.357   1.298   3.503
 5695SOL     OW17983   1.442   2.573   3.670
 5695SOL    HW117984   1.396   2.536   3.751
 5695SOL    HW217985   1.426   2.513   3.592
 5696SOL     OW17986   3.259   1.295   4.857
 5696SOL    HW117987   3.202   1.368   4.820
 5696SOL    HW217988   3.239   1.209   4.811
 5697SOL     OW17989   7.022   2.251   0.787
 5697SOL    HW117990   6.943   2.252   0.848
 5697SOL    HW217991   0.074   2.216   0.836
 5698SOL     OW17992   0.181   2.353   2.345
 5698SOL    HW117993   0.211   2.402   2.263
 5698SOL    HW217994   0.109   2.405   2.390
 5699SOL     OW17995   6.345   1.540   3.947
 5699SOL    HW117996   6.277   1.468   3.960
 5699SOL    HW217997   6.345   1.600   4.027
 5700SOL     OW17998   0.899   6.471   4.551
 5700SOL    HW117999   0.961   6.408   4.503
 5700SOL    HW218000   0.851   6.527   4.485
 5701SOL     OW18001   0.484   5.816   2.993
 5701SOL    HW118002   0.521   5.890   3.049
 5701SOL    HW218003   0.386   5.807   3.011
 5702SOL     OW18004   1.642   0.062   5.812
 5702SOL    HW118005   1.730   0.096   5.845
 5702SOL    HW218006   1.655   0.016   5.724
 5703SOL     OW18007   4.883   4.926   6.753
 5703SOL    HW118008   4.794   4.967   6.775
 5703SOL    HW218009   4.931   4.903   6.837
 5704SOL     OW18010   4.477   5.665   3.174
 5704SOL    HW118011   4.561   5.625   3.136
 5704SOL    HW218012   4.440   5.732   3.109
 5705SOL     OW18013   6.002   1.026   1.053
 5705SOL    HW118014   6.093   1.041   1.015
 5705SOL    HW218015   5.960   1.113   1.076
 5706SOL     OW18016   1.750   1.698   0.166
 5706SOL    HW118017   1.759   1.715   0.265
 5706SOL    HW218018   1.664   1.737   0.134
 5707SOL     OW18019   1.200   6.906   6.660
 5707SOL    HW118020   1.166   6.841   6.592
 5707SOL    HW218021   1.128   6.973   6.681
 5708SOL     OW18022   5.457   0.137   2.316
 5708SOL    HW118023   5.542   0.095   2.348
 5708SOL    HW218024   5.379   0.097   2.364
 5709SOL     OW18025   0.484   6.364   3.072
 5709SOL    HW118026   0.387   6.389   3.082
 5709SOL    HW218027   0.534   6.393   3.154
 5710SOL     OW18028   2.808   3.631   5.822
 5710SOL    HW118029   2.899   3.644   5.782
 5710SOL    HW218030   2.742   3.614   5.749
 5711SOL     OW18031   4.910   0.842   3.975
 5711SOL    HW118032   4.871   0.890   3.896
 5711SOL    HW218033   4.967   0.905   4.027
 5712SOL     OW18034   0.571   0.115   5.570
 5712SOL    HW118035   0.579   0.186   5.500
 5712SOL    HW218036   0.515   0.148   5.645
 5713SOL     OW18037   0.295   2.439   1.721
 5713SOL    HW118038   0.366   2.481   1.665
 5713SOL    HW218039   0.314   2.341   1.731
 5714SOL     OW18040   1.279   6.862   6.952
 5714SOL    HW118041   1.322   6.909   0.001
 5714SOL    HW218042   1.269   6.927   6.876
 5715SOL     OW18043   1.182   6.152   3.323
 5715SOL    HW118044   1.164   6.100   3.240
 5715SOL    HW218045   1.124   6.118   3.397
 5716SOL     OW18046   1.406   4.142   5.797
 5716SOL    HW118047   1.408   4.217   5.730
 5716SOL    HW218048   1.464   4.167   5.875
 5717SOL     OW18049   1.662   4.778   0.811
 5717SOL    HW118050   1.665   4.823   0.900
 5717SOL    HW218051   1.609   4.833   0.747
 5718SOL     OW18052   1.659   4.289   6.973
 5718SOL    HW118053   1.697   4.381   6.961
 5718SOL    HW218054   1.560   4.292   6.959
 5719SOL     OW18055   2.609   1.017   5.865
 5719SOL    HW118056   2.692   0.973   5.829
 5719SOL    HW218057   2.530   0.958   5.851
 5720SOL     OW18058   0.347   5.283   4.924
 5720SOL    HW118059   0.376   5.215   4.856
 5720SOL    HW218060   0.247   5.287   4.926
 5721SOL     OW18061   1.001   3.610   7.021
 5721SOL    HW118062   0.996   3.634   6.924
 5721SOL    HW218063   0.992   3.511   0.003
 5722SOL     OW18064   5.468   0.964   5.142
 5722SOL    HW118065   5.501   1.051   5.107
 5722SOL    HW218066   5.470   0.896   5.069
 5723SOL     OW18067   4.222   4.691   0.984
 5723SOL    HW118068   4.229   4.666   0.887
 5723SOL    HW218069   4.313   4.705   1.022
 5724SOL     OW18070   3.991   2.219   5.902
 5724SOL    HW118071   3.946   2.277   5.971
 5724SOL    HW218072   3.945   2.130   5.898
 5725SOL     OW18073   5.258   5.639   3.650
 5725SOL    HW118074   5.294   5.567   3.710
 5725SOL    HW218075   5.218   5.597   3.569
 5726SOL     OW18076   6.314   3.848   4.791
 5726SOL    HW118077   6.341   3.920   4.855
 5726SOL    HW218078   6.215   3.833   4.798
 5727SOL     OW18079   5.617   2.915   3.156
 5727SOL    HW118080   5.528   2.952   3.180
 5727SOL    HW218081   5.616   2.883   3.061
 5728SOL     OW18082   5.616   1.142   6.289
 5728SOL    HW118083   5.620   1.242   6.279
 5728SOL    HW218084   5.705   1.108   6.320
 5729SOL     OW18085   0.270   1.742   0.437
 5729SOL    HW118086   0.321   1.671   0.484
 5729SOL    HW218087   0.216   1.701   0.363
 5730SOL     OW18088   3.773   5.740   5.299
 5730SOL    HW118089   3.872   5.754   5.303
 5730SOL    HW218090   3.750   5.652   5.338
 5731SOL     OW18091   1.419   6.625   3.968
 5731SOL    HW118092   1.432   6.545   3.910
 5731SOL    HW218093   1.440   6.708   3.915
 5732SOL     OW18094   6.178   5.124   4.261
 5732SOL    HW118095   6.122   5.201   4.292
 5732SOL    HW218096   6.270   5.156   4.241
 5733SOL     OW18097   3.563   0.804   6.503
 5733SOL    HW118098   3.617   0.821   6.585
 5733SOL    HW218099   3.510   0.721   6.514
 5734SOL     OW18100   1.259   6.850   5.283
 5734SOL    HW118101   1.176   6.901   5.258
 5734SOL    HW218102   1.287   6.878   5.375
 5735SOL     OW18103   3.981   1.248   2.095
 5735SOL    HW118104   3.956   1.338   2.130
 5735SOL    HW218105   3.912   1.181   2.122
 5736SOL     OW18106   5.232   4.420   6.249
 5736SOL    HW118107   5.158   4.488   6.249
 5736SOL    HW218108   5.210   4.347   6.184
 5737SOL     OW18109   5.191   6.333   1.254
 5737SOL    HW118110   5.123   6.407   1.255
 5737SOL    HW218111   5.176   6.275   1.334
 5738SOL     OW18112   3.694   1.138   6.368
 5738SOL    HW118113   3.687   1.163   6.271
 5738SOL    HW218114   3.683   1.219   6.424
 5739SOL     OW18115   1.793   6.688   5.576
 5739SOL    HW118116   1.858   6.613   5.587
 5739SOL    HW218117   1.731   6.691   5.654
 5740SOL     OW18118   4.608   3.472   0.898
 5740SOL    HW118119   4.682   3.407   0.917
 5740SOL    HW218120   4.585   3.470   0.801
 5741SOL     OW18121   0.760   3.744   3.526
 5741SOL    HW118122   0.727   3.706   3.612
 5741SOL    HW218123   0.749   3.676   3.453
 5742SOL     OW18124   3.819   6.740   3.662
 5742SOL    HW118125   3.901   6.702   3.704
 5742SOL    HW218126   3.746   6.744   3.731
 5743SOL     OW18127   3.691   4.713   6.043
 5743SOL    HW118128   3.737   4.738   5.958
 5743SOL    HW218129   3.607   4.663   6.023
 5744SOL     OW18130   6.084   0.822   3.171
 5744SOL    HW118131   6.142   0.899   3.195
 5744SOL    HW218132   6.140   0.745   3.141
 5745SOL     OW18133   2.692   2.217   3.460
 5745SOL    HW118134   2.662   2.182   3.549
 5745SOL    HW218135   2.791   2.231   3.462
 5746SOL     OW18136   4.144   0.142   3.667
 5746SOL    HW118137   4.078   0.080   3.625
 5746SOL    HW218138   4.224   0.090   3.696
 5747SOL     OW18139   0.905   6.113   2.078
 5747SOL    HW118140   0.985   6.116   2.018
 5747SOL    HW218141   0.912   6.185   2.147
 5748SOL     OW18142   0.489   6.774   0.815
 5748SOL    HW118143   0.436   6.798   0.734
 5748SOL    HW218144   0.572   6.726   0.787
 5749SOL     OW18145   2.144   6.642   4.773
 5749SOL    HW118146   2.176   6.643   4.678
 5749SOL    HW218147   2.059   6.693   4.781
 5750SOL     OW18148   6.868   4.524   4.932
 5750SOL    HW118149   6.829   4.496   4.845
 5750SOL    HW218150   6.836   4.463   5.005
 5751SOL     OW18151   1.437   3.587   4.808
 5751SOL    HW118152   1.461   3.684   4.796
 5751SOL    HW218153   1.477   3.534   4.733
 5752SOL     OW18154   5.790   0.335   1.486
 5752SOL    HW118155   5.749   0.244   1.493
 5752SOL    HW218156   5.871   0.331   1.427
 5753SOL     OW18157   3.081   4.127   5.218
 5753SOL    HW118158   3.007   4.171   5.268
 5753SOL    HW218159   3.048   4.096   5.129
 5754SOL     OW18160   1.495   5.911   2.150
 5754SOL    HW118161   1.410   5.958   2.126
 5754SOL    HW218162   1.510   5.918   2.249
 5755SOL     OW18163   1.686   1.860   5.968
 5755SOL    HW118164   1.746   1.912   6.028
 5755SOL    HW218165   1.685   1.765   5.996
 5756SOL     OW18166   6.678   0.163   2.278
 5756SOL    HW118167   6.669   0.071   2.315
 5756SOL    HW218168   6.766   0.171   2.231
 5757SOL     OW18169   0.255   5.578   4.040
 5757SOL    HW118170   0.162   5.611   4.023
 5757SOL    HW218171   0.268   5.563   4.138
 5758SOL     OW18172   2.482   0.161   3.560
 5758SOL    HW118173   2.541   0.153   3.479
 5758SOL    HW218174   2.426   0.243   3.553
 5759SOL     OW18175   4.836   6.697   1.835
 5759SOL    HW118176   4.793   6.612   1.867
 5759SOL    HW218177   4.765   6.760   1.804
 5760SOL     OW18178   6.703   3.332   2.268
 5760SOL    HW118179   6.795   3.355   2.236
 5760SOL    HW218180   6.663   3.265   2.207
 5761SOL     OW18181   5.023   5.945   4.969
 5761SOL    HW118182   5.090   5.882   5.009
 5761SOL    HW218183   4.933   5.927   5.008
 5762SOL     OW18184   4.428   4.410   0.569
 5762SOL    HW118185   4.500   4.346   0.546
 5762SOL    HW218186   4.407   4.467   0.489
 5763SOL     OW18187   5.522   6.365   0.467
 5763SOL    HW118188   5.586   6.354   0.391
 5763SOL    HW218189   5.436   6.404   0.433
 5764SOL     OW18190   4.362   5.279   3.381
 5764SOL    HW118191   4.269   5.269   3.346
 5764SOL    HW218192   4.365   5.354   3.447
 5765SOL     OW18193   6.653   3.829   0.591
 5765SOL    HW118194   6.619   3.736   0.578
 5765SOL    HW218195   6.661   3.848   0.689
 5766SOL     OW18196   2.375   2.007   4.629
 5766SOL    HW118197   2.399   2.093   4.584
 5766SOL    HW218198   2.276   2.000   4.636
 5767SOL     OW18199   2.388   0.227   6.923
 5767SOL    HW118200   2.444   0.176   6.858
 5767SOL    HW218201   2.292   0.222   6.897
 5768SOL     OW18202   0.006   6.936   3.636
 5768SOL    HW118203   0.006   7.013   3.572
 5768SOL    HW218204   6.953   6.879   3.620
 5769SOL     OW18205   2.626   5.201   5.458
 5769SOL    HW118206   2.628   5.131   5.387
 5769SOL    HW218207   2.651   5.290   5.418
 5770SOL     OW18208   0.219   6.248   6.898
 5770SOL    HW118209   0.181   6.161   6.927
 5770SOL    HW218210   0.148   6.304   6.855
 5771SOL     OW18211   1.632   0.301   4.172
 5771SOL    HW118212   1.705   0.369   4.163
 5771SOL    HW218213   1.544   0.343   4.150
 5772SOL     OW18214   4.673   1.554   1.532
 5772SOL    HW118215   4.698   1.506   1.616
 5772SOL    HW218216   4.698   1.650   1.540
 5773SOL     OW18217   4.113   0.776   2.489
 5773SOL    HW118218   4.164   0.829   2.422
 5773SOL    HW218219   4.091   0.686   2.452
 5774SOL     OW18220   1.713   0.797   4.527
 5774SOL    HW118221   1.654   0.739   4.582
 5774SOL    HW218222   1.791   0.743   4.494
 5775SOL     OW18223   1.227   6.191   2.949
 5775SOL    HW118224   1.152   6.249   2.918
 5775SOL    HW218225   1.194   6.129   3.021
 5776SOL     OW18226   1.216   0.479   3.445
 5776SOL    HW118227   1.178   0.465   3.354
 5776SOL    HW218228   1.261   0.568   3.449
 5777SOL     OW18229   0.935   0.726   3.484
 5777SOL    HW118230   0.899   0.672   3.408
 5777SOL    HW218231   0.867   0.793   3.514
 5778SOL     OW18232   1.782   0.614   0.232
 5778SOL    HW118233   1.783   0.690   0.297
 5778SOL    HW218234   1.743   0.645   0.145
 5779SOL     OW18235   4.748   2.590   0.124
 5779SOL    HW118236   4.682   2.560   0.194
 5779SOL    HW218237   4.707   2.579   0.034
 5780SOL     OW18238   5.091   6.299   4.882
 5780SOL    HW118239   5.080   6.283   4.980
 5780SOL    HW218240   5.171   6.248   4.849
 5781SOL     OW18241   6.532   4.485   4.772
 5781SOL    HW118242   6.578   4.543   4.705
 5781SOL    HW218243   6.434   4.484   4.753
 5782SOL     OW18244   1.376   1.486   0.398
 5782SOL    HW118245   1.353   1.458   0.305
 5782SOL    HW218246   1.294   1.482   0.456
 5783SOL     OW18247   1.029   0.712   2.533
 5783SOL    HW118248   1.112   0.664   2.506
 5783SOL    HW218249   0.997   0.769   2.457
 5784SOL     OW18250   0.814   6.551   6.274
 5784SOL    HW118251   0.786   6.605   6.353
 5784SOL    HW218252   0.783   6.596   6.190
 5785SOL     OW18253   1.458   2.114   6.971
 5785SOL    HW118254   1.363   2.123   7.000
 5785SOL    HW218255   1.467   2.146   6.876
 5786SOL     OW18256   6.841   4.332   0.599
 5786SOL    HW118257   6.745   4.354   0.578
 5786SOL    HW218258   6.847   4.236   0.628
 5787SOL     OW18259   2.312   2.264   5.171
 5787SOL    HW118260   2.280   2.198   5.103
 5787SOL    HW218261   2.392   2.226   5.218
 5788SOL     OW18262   2.924   1.427   2.538
 5788SOL    HW118263   2.970   1.403   2.453
 5788SOL    HW218264   2.989   1.423   2.614
 5789SOL     OW18265   3.406   4.442   6.825
 5789SOL    HW118266   3.343   4.497   6.771
 5789SOL    HW218267   3.404   4.473   6.920
 5790SOL     OW18268   1.830   3.819   3.993
 5790SOL    HW118269   1.853   3.723   4.010
 5790SOL    HW218270   1.882   3.853   3.914
 5791SOL     OW18271   4.183   0.612   1.822
 5791SOL    HW118272   4.215   0.591   1.730
 5791SOL    HW218273   4.083   0.612   1.824
 5792SOL     OW18274   6.667   2.520   2.684
 5792SOL    HW118275   6.731   2.509   2.609
 5792SOL    HW218276   6.694   2.599   2.740
 5793SOL     OW18277   5.345   0.839   3.726
 5793SOL    HW118278   5.332   0.923   3.778
 5793SOL    HW218279   5.298   0.847   3.638
 5794SOL     OW18280   3.867   2.302   0.763
 5794SOL    HW118281   3.779   2.255   0.752
 5794SOL    HW218282   3.905   2.323   0.673
 5795SOL     OW18283   6.533   5.210   6.477
 5795SOL    HW118284   6.633   5.211   6.471
 5795SOL    HW218285   6.506   5.179   6.568
 5796SOL     OW18286   3.768   0.526   6.674
 5796SOL    HW118287   3.813   0.581   6.604
 5796SOL    HW218288   3.835   0.498   6.743
 5797SOL     OW18289   4.388   1.839   5.282
 5797SOL    HW118290   4.367   1.801   5.373
 5797SOL    HW218291   4.469   1.896   5.288
 5798SOL     OW18292   0.751   4.644   5.119
 5798SOL    HW118293   0.742   4.600   5.029
 5798SOL    HW218294   0.833   4.701   5.120
 5799SOL     OW18295   5.296   1.569   3.352
 5799SOL    HW118296   5.290   1.498   3.423
 5799SOL    HW218297   5.220   1.557   3.288
 5800SOL     OW18298   5.836   6.130   0.969
 5800SOL    HW118299   5.778   6.207   0.997
 5800SOL    HW218300   5.801   6.046   1.009
 5801SOL     OW18301   1.350   2.429   4.497
 5801SOL    HW118302   1.330   2.494   4.423
 5801SOL    HW218303   1.447   2.404   4.493
 5802SOL     OW18304   1.113   4.334   1.064
 5802SOL    HW118305   1.014   4.345   1.058
 5802SOL    HW218306   1.145   4.278   0.988
 5803SOL     OW18307   1.073   4.242   2.087
 5803SOL    HW118308   1.104   4.173   2.021
 5803SOL    HW218309   1.028   4.317   2.037
 5804SOL     OW18310   6.771   5.017   3.952
 5804SOL    HW118311   6.755   4.966   3.868
 5804SOL    HW218312   6.752   5.114   3.936
 5805SOL     OW18313   2.985   3.274   6.061
 5805SOL    HW118314   2.910   3.334   6.032
 5805SOL    HW218315   2.969   3.182   6.024
 5806SOL     OW18316   6.827   6.392   5.616
 5806SOL    HW118317   6.878   6.314   5.652
 5806SOL    HW218318   6.876   6.430   5.537
 5807SOL     OW18319   1.290   3.672   1.837
 5807SOL    HW118320   1.206   3.618   1.831
 5807SOL    HW218321   1.321   3.696   1.745
 5808SOL     OW18322   6.124   4.100   3.887
 5808SOL    HW118323   6.163   4.031   3.946
 5808SOL    HW218324   6.099   4.181   3.941
 5809SOL     OW18325   0.196   2.423   4.776
 5809SOL    HW118326   0.132   2.444   4.850
 5809SOL    HW218327   0.188   2.327   4.751
 5810SOL     OW18328   3.479   1.417   4.293
 5810SOL    HW118329   3.454   1.438   4.198
 5810SOL    HW218330   3.400   1.431   4.352
 5811SOL     OW18331   2.744   0.198   5.550
 5811SOL    HW118332   2.715   0.138   5.476
 5811SOL    HW218333   2.830   0.164   5.588
 5812SOL     OW18334   5.941   1.080   4.200
 5812SOL    HW118335   5.983   1.059   4.112
 5812SOL    HW218336   6.010   1.117   4.262
 5813SOL     OW18337   1.496   1.330   0.607
 5813SOL    HW118338   1.424   1.260   0.600
 5813SOL    HW218339   1.497   1.385   0.523
 5814SOL     OW18340   6.475   4.987   1.112
 5814SOL    HW118341   6.515   5.001   1.022
 5814SOL    HW218342   6.385   4.945   1.103
 5815SOL     OW18343   4.656   2.470   3.873
 5815SOL    HW118344   4.740   2.432   3.836
 5815SOL    HW218345   4.619   2.409   3.943
 5816SOL     OW18346   4.791   5.607   0.077
 5816SOL    HW118347   4.744   5.570   0.157
 5816SOL    HW218348   4.729   5.604   7.026
 5817SOL     OW18349   5.253   3.390   5.773
 5817SOL    HW118350   5.274   3.355   5.864
 5817SOL    HW218351   5.332   3.440   5.737
 5818SOL     OW18352   6.394   6.304   4.855
 5818SOL    HW118353   6.324   6.327   4.787
 5818SOL    HW218354   6.477   6.273   4.809
 5819SOL     OW18355   4.508   0.162   6.345
 5819SOL    HW118356   4.425   0.218   6.345
 5819SOL    HW218357   4.489   0.073   6.385
 5820SOL     OW18358   4.468   6.123   3.684
 5820SOL    HW118359   4.482   6.088   3.591
 5820SOL    HW218360   4.395   6.071   3.728
 5821SOL     OW18361   0.462   0.039   2.598
 5821SOL    HW118362   0.542   0.033   2.658
 5821SOL    HW218363   0.384   0.074   2.650
 5822SOL     OW18364   0.228   2.525   2.632
 5822SOL    HW118365   0.325   2.537   2.607
 5822SOL    HW218366   0.222   2.498   2.728
 5823SOL     OW18367   0.674   0.912   6.000
 5823SOL    HW118368   0.770   0.902   6.026
 5823SOL    HW218369   0.619   0.843   6.047
 5824SOL     OW18370   6.839   5.580   2.527
 5824SOL    HW118371   6.872   5.496   2.571
 5824SOL    HW218372   6.917   5.630   2.490
 5825SOL     OW18373   2.553   2.192   5.305
 5825SOL    HW118374   2.613   2.235   5.238
 5825SOL    HW218375   2.523   2.103   5.271
 5826SOL     OW18376   6.904   5.007   5.222
 5826SOL    HW118377   6.970   5.009   5.146
 5826SOL    HW218378   6.942   4.951   5.296
 5827SOL     OW18379   2.309   4.967   4.589
 5827SOL    HW118380   2.303   4.889   4.651
 5827SOL    HW218381   2.231   5.028   4.603
 5828SOL     OW18382   6.772   3.061   1.625
 5828SOL    HW118383   6.858   3.067   1.574
 5828SOL    HW218384   6.749   2.965   1.641
 5829SOL     OW18385   2.295   1.497   3.076
 5829SOL    HW118386   2.202   1.528   3.057
 5829SOL    HW218387   2.341   1.563   3.135
 5830SOL     OW18388   4.442   0.024   5.857
 5830SOL    HW118389   4.475   0.059   5.768
 5830SOL    HW218390   4.501   6.977   5.887
 5831SOL     OW18391   0.043   0.425   4.108
 5831SOL    HW118392   6.981   0.381   4.105
 5831SOL    HW218393   0.079   0.433   4.015
 5832SOL     OW18394   3.731   4.598   5.715
 5832SOL    HW118395   3.631   4.589   5.710
 5832SOL    HW218396   3.773   4.507   5.709
 5833SOL     OW18397   4.075   3.107   5.221
 5833SOL    HW118398   3.975   3.103   5.212
 5833SOL    HW218399   4.111   3.176   5.158
 5834SOL     OW18400   6.074   2.782   0.504
 5834SOL    HW118401   6.001   2.752   0.442
 5834SOL    HW218402   6.042   2.774   0.599
 5835SOL     OW18403   4.888   3.695   3.234
 5835SOL    HW118404   4.798   3.689   3.190
 5835SOL    HW218405   4.932   3.781   3.208
 5836SOL     OW18406   2.684   6.725   2.744
 5836SOL    HW118407   2.608   6.679   2.790
 5836SOL    HW218408   2.649   6.769   2.660
 5837SOL     OW18409   4.373   5.081   5.994
 5837SOL    HW118410   4.424   5.065   6.078
 5837SOL    HW218411   4.431   5.129   5.928
 5838SOL     OW18412   2.840   1.314   5.899
 5838SOL    HW118413   2.747   1.344   5.921
 5838SOL    HW218414   2.904   1.386   5.925
 5839SOL     OW18415   0.202   2.203   2.835
 5839SOL    HW118416   0.157   2.162   2.755
 5839SOL    HW218417   0.300   2.189   2.829
 5840SOL     OW18418   1.222   5.279   6.954
 5840SOL    HW118419   1.256   5.190   6.925
 5840SOL    HW218420   1.245   5.348   6.885
 5841SOL     OW18421   5.229   1.700   2.627
 5841SOL    HW118422   5.190   1.791   2.612
 5841SOL    HW218423   5.313   1.691   2.574
 5842SOL     OW18424   4.573   3.051   1.409
 5842SOL    HW118425   4.526   3.091   1.330
 5842SOL    HW218426   4.648   2.992   1.377
 5843SOL     OW18427   2.161   3.958   2.226
 5843SOL    HW118428   2.147   3.953   2.324
 5843SOL    HW218429   2.085   3.913   2.179
 5844SOL     OW18430   1.083   6.623   5.826
 5844SOL    HW118431   1.023   6.696   5.793
 5844SOL    HW218432   1.033   6.536   5.825
 5845SOL     OW18433   0.823   0.279   2.711
 5845SOL    HW118434   0.808   0.331   2.795
 5845SOL    HW218435   0.817   0.341   2.632
 5846SOL     OW18436   6.372   3.175   3.832
 5846SOL    HW118437   6.364   3.174   3.932
 5846SOL    HW218438   6.448   3.116   3.804
 5847SOL     OW18439   1.944   1.960   2.167
 5847SOL    HW118440   2.033   1.980   2.127
 5847SOL    HW218441   1.892   2.045   2.177
 5848SOL     OW18442   2.475   5.091   2.950
 5848SOL    HW118443   2.462   4.995   2.976
 5848SOL    HW218444   2.405   5.118   2.884
 5849SOL     OW18445   0.069   0.462   6.818
 5849SOL    HW118446   7.005   0.471   6.780
 5849SOL    HW218447   0.109   0.376   6.788
 5850SOL     OW18448   0.746   3.827   2.012
 5850SOL    HW118449   0.768   3.748   2.069
 5850SOL    HW218450   0.816   3.839   1.942
 5851SOL     OW18451   4.885   3.023   2.887
 5851SOL    HW118452   4.985   3.029   2.878
 5851SOL    HW218453   4.860   3.027   2.983
 5852SOL     OW18454   4.823   6.716   3.114
 5852SOL    HW118455   4.865   6.628   3.093
 5852SOL    HW218456   4.740   6.702   3.168
 5853SOL     OW18457   3.176   5.375   4.141
 5853SOL    HW118458   3.181   5.290   4.090
 5853SOL    HW218459   3.201   5.359   4.236
 5854SOL     OW18460   5.977   4.426   5.542
 5854SOL    HW118461   5.908   4.387   5.482
 5854SOL    HW218462   5.940   4.435   5.634
 5855SOL     OW18463   0.309   0.363   5.074
 5855SOL    HW118464   0.340   0.269   5.090
 5855SOL    HW218465   0.351   0.424   5.141
 5856SOL     OW18466   2.029   6.355   3.918
 5856SOL    HW118467   2.022   6.299   3.836
 5856SOL    HW218468   2.102   6.321   3.976
 5857SOL     OW18469   5.930   2.968   5.265
 5857SOL    HW118470   5.933   2.885   5.321
 5857SOL    HW218471   5.944   3.048   5.323
 5858SOL     OW18472   2.609   2.365   2.092
 5858SOL    HW118473   2.553   2.294   2.050
 5858SOL    HW218474   2.705   2.352   2.068
 5859SOL     OW18475   5.286   6.759   1.503
 5859SOL    HW118476   5.317   6.745   1.409
 5859SOL    HW218477   5.199   6.809   1.502
 5860SOL     OW18478   1.785   3.393   1.989
 5860SOL    HW118479   1.771   3.471   1.928
 5860SOL    HW218480   1.876   3.355   1.975
 5861SOL     OW18481   4.870   1.734   4.421
 5861SOL    HW118482   4.883   1.658   4.358
 5861SOL    HW218483   4.860   1.699   4.514
 5862SOL     OW18484   5.099   5.070   3.361
 5862SOL    HW118485   5.016   5.102   3.406
 5862SOL    HW218486   5.147   5.006   3.422
 5863SOL     OW18487   2.881   1.035   4.534
 5863SOL    HW118488   2.910   1.093   4.457
 5863SOL    HW218489   2.958   0.978   4.563
 5864SOL     OW18490   3.915   3.516   1.892
 5864SOL    HW118491   3.906   3.470   1.803
 5864SOL    HW218492   3.965   3.456   1.955
 5865SOL     OW18493   5.871   0.099   4.605
 5865SOL    HW118494   5.945   0.136   4.549
 5865SOL    HW218495   5.881   0.132   4.699
 5866SOL     OW18496   4.482   5.760   6.663
 5866SOL    HW118497   4.456   5.847   6.705
 5866SOL    HW218498   4.559   5.776   6.600
 5867SOL     OW18499   0.033   3.997   0.987
 5867SOL    HW118500   6.995   3.923   0.977
 5867SOL    HW218501   0.096   3.975   1.062
 5868SOL     OW18502   0.314   0.751   5.634
 5868SOL    HW118503   0.297   0.793   5.545
 5868SOL    HW218504   0.233   0.763   5.692
 5869SOL     OW18505   2.827   5.589   3.133
 5869SOL    HW118506   2.820   5.515   3.066
 5869SOL    HW218507   2.735   5.619   3.158
 5870SOL     OW18508   5.030   5.793   4.750
 5870SOL    HW118509   5.015   5.862   4.821
 5870SOL    HW218510   5.031   5.702   4.791
 5871SOL     OW18511   4.221   3.240   0.225
 5871SOL    HW118512   4.205   3.153   0.180
 5871SOL    HW218513   4.318   3.249   0.248
 5872SOL     OW18514   3.954   5.284   6.869
 5872SOL    HW118515   3.988   5.354   6.932
 5872SOL    HW218516   3.990   5.195   6.897
 5873SOL     OW18517   2.234   2.600   0.855
 5873SOL    HW118518   2.278   2.565   0.937
 5873SOL    HW218519   2.169   2.532   0.820
 5874SOL     OW18520   2.940   3.150   1.074
 5874SOL    HW118521   2.861   3.138   1.134
 5874SOL    HW218522   3.021   3.110   1.117
 5875SOL     OW18523   3.596   1.002   1.304
 5875SOL    HW118524   3.512   1.056   1.293
 5875SOL    HW218525   3.650   1.041   1.378
 5876SOL     OW18526   2.658   3.106   0.227
 5876SOL    HW118527   2.689   3.052   0.306
 5876SOL    HW218528   2.686   3.201   0.239
 5877SOL     OW18529   6.988   0.027   1.226
 5877SOL    HW118530   6.952   0.007   1.135
 5877SOL    HW218531   6.920   0.003   1.295
 5878SOL     OW18532   5.125   5.144   3.089
 5878SOL    HW118533   5.124   5.138   3.189
 5878SOL    HW218534   5.138   5.053   3.050
 5879SOL     OW18535   2.569   3.560   6.156
 5879SOL    HW118536   2.500   3.631   6.142
 5879SOL    HW218537   2.526   3.480   6.200
 5880SOL     OW18538   4.582   4.269   6.668
 5880SOL    HW118539   4.682   4.272   6.677
 5880SOL    HW218540   4.556   4.301   6.577
 5881SOL     OW18541   1.620   0.195   2.091
 5881SOL    HW118542   1.558   0.270   2.117
 5881SOL    HW218543   1.566   0.120   2.053
 5882SOL     OW18544   0.889   6.183   5.902
 5882SOL    HW118545   0.929   6.259   5.852
 5882SOL    HW218546   0.807   6.213   5.950
 5883SOL     OW18547   0.294   1.408   0.470
 5883SOL    HW118548   0.329   1.353   0.545
 5883SOL    HW218549   0.327   1.371   0.383
 5884SOL     OW18550   5.928   1.206   4.966
 5884SOL    HW118551   5.840   1.234   4.928
 5884SOL    HW218552   5.927   1.216   5.065
 5885SOL     OW18553   1.177   5.614   1.203
 5885SOL    HW118554   1.258   5.580   1.251
 5885SOL    HW218555   1.142   5.694   1.252
 5886SOL     OW18556   0.830   3.104   3.255
 5886SOL    HW118557   0.920   3.062   3.240
 5886SOL    HW218558   0.804   3.092   3.351
 5887SOL     OW18559   2.628   2.179   1.794
 5887SOL    HW118560   2.552   2.165   1.857
 5887SOL    HW218561   2.711   2.140   1.832
 5888SOL     OW18562   2.436   6.876   1.069
 5888SOL    HW118563   2.462   6.806   1.002
 5888SOL    HW218564   2.416   6.961   1.021
 5889SOL     OW18565   6.580   1.089   0.606
 5889SOL    HW118566   6.629   1.088   0.518
 5889SOL    HW218567   6.630   1.146   0.671
 5890SOL     OW18568   1.635   6.562   2.927
 5890SOL    HW118569   1.680   6.563   2.837
 5890SOL    HW218570   1.544   6.602   2.920
 5891SOL     OW18571   2.084   4.121   0.307
 5891SOL    HW118572   2.095   4.049   0.239
 5891SOL    HW218573   1.992   4.115   0.347
 5892SOL     OW18574   0.220   5.071   1.876
 5892SOL    HW118575   0.212   5.148   1.939
 5892SOL    HW218576   0.308   5.026   1.889
 5893SOL     OW18577   1.529   4.638   1.399
 5893SOL    HW118578   1.562   4.623   1.306
 5893SOL    HW218579   1.597   4.607   1.465
 5894SOL     OW18580   0.704   5.692   5.144
 5894SOL    HW118581   0.718   5.783   5.184
 5894SOL    HW218582   0.680   5.701   5.048
 5895SOL     OW18583   6.563   3.631   3.525
 5895SOL    HW118584   6.518   3.720   3.534
 5895SOL    HW218585   6.495   3.562   3.500
 5896SOL     OW18586   5.305   1.254   1.010
 5896SOL    HW118587   5.214   1.241   1.048
 5896SOL    HW218588   5.333   1.170   0.962
 5897SOL     OW18589   3.883   1.268   1.627
 5897SOL    HW118590   3.817   1.336   1.595
 5897SOL    HW218591   3.836   1.181   1.643
 5898SOL     OW18592   2.157   1.498   5.433
 5898SOL    HW118593   2.137   1.479   5.530
 5898SOL    HW218594   2.249   1.535   5.425
 5899SOL     OW18595   6.975   5.673   6.064
 5899SOL    HW118596   6.919   5.712   6.138
 5899SOL    HW218597   0.044   5.690   6.083
 5900SOL     OW18598   6.555   5.221   3.643
 5900SOL    HW118599   6.645   5.239   3.682
 5900SOL    HW218600   6.488   5.214   3.717
 5901SOL     OW18601   1.758   1.332   0.697
 5901SOL    HW118602   1.766   1.280   0.782
 5901SOL    HW218603   1.662   1.334   0.669
 5902SOL     OW18604   5.587   3.422   5.387
 5902SOL    HW118605   5.655   3.478   5.341
 5902SOL    HW218606   5.616   3.326   5.385
 5903SOL     OW18607   5.436   3.014   6.777
 5903SOL    HW118608   5.356   2.982   6.726
 5903SOL    HW218609   5.483   2.935   6.818
 5904SOL     OW18610   1.189   4.157   0.879
 5904SOL    HW118611   1.264   4.216   0.850
 5904SOL    HW218612   1.225   4.079   0.929
 5905SOL     OW18613   5.708   1.195   3.732
 5905SOL    HW118614   5.626   1.195   3.674
 5905SOL    HW218615   5.763   1.114   3.711
 5906SOL     OW18616   5.265   1.795   5.053
 5906SOL    HW118617   5.174   1.825   5.025
 5906SOL    HW218618   5.271   1.696   5.051
 5907SOL     OW18619   1.410   6.842   0.386
 5907SOL    HW118620   1.390   6.760   0.333
 5907SOL    HW218621   1.508   6.847   0.406
 5908SOL     OW18622   5.467   3.914   0.139
 5908SOL    HW118623   5.385   3.899   0.084
 5908SOL    HW218624   5.443   3.964   0.223
 5909SOL     OW18625   0.816   4.679   6.029
 5909SOL    HW118626   0.738   4.643   5.977
 5909SOL    HW218627   0.895   4.619   6.017
 5910SOL     OW18628   1.057   4.850   0.066
 5910SOL    HW118629   1.017   4.915   0.131
 5910SOL    HW218630   1.155   4.844   0.080
 5911SOL     OW18631   0.516   5.722   6.040
 5911SOL    HW118632   0.577   5.651   6.078
 5911SOL    HW218633   0.457   5.681   5.971
 5912SOL     OW18634   6.211   3.368   6.676
 5912SOL    HW118635   6.277   3.345   6.604
 5912SOL    HW218636   6.141   3.297   6.682
 5913SOL     OW18637   1.985   2.992   5.759
 5913SOL    HW118638   1.959   3.075   5.711
 5913SOL    HW218639   1.905   2.954   5.806
 5914SOL     OW18640   2.924   5.627   6.793
 5914SOL    HW118641   2.993   5.671   6.850
 5914SOL    HW218642   2.860   5.577   6.852
 5915SOL     OW18643   5.712   3.580   2.221
 5915SOL    HW118644   5.644   3.622   2.160
 5915SOL    HW218645   5.704   3.481   2.215
 5916SOL     OW18646   4.322   0.497   5.749
 5916SOL    HW118647   4.260   0.465   5.821
 5916SOL    HW218648   4.405   0.441   5.749
 5917SOL     OW18649   3.691   3.468   3.542
 5917SOL    HW118650   3.771   3.409   3.530
 5917SOL    HW218651   3.709   3.534   3.615
 5918SOL     OW18652   2.151   3.602   4.794
 5918SOL    HW118653   2.089   3.668   4.752
 5918SOL    HW218654   2.168   3.627   4.889
 5919SOL     OW18655   3.305   2.070   6.690
 5919SOL    HW118656   3.393   2.042   6.652
 5919SOL    HW218657   3.233   2.054   6.622
 5920SOL     OW18658   3.984   6.923   0.249
 5920SOL    HW118659   3.926   6.886   0.177
 5920SOL    HW218660   3.934   6.920   0.336
 5921SOL     OW18661   3.577   4.978   5.521
 5921SOL    HW118662   3.591   4.945   5.614
 5921SOL    HW218663   3.660   5.025   5.490
 5922SOL     OW18664   6.283   4.981   3.485
 5922SOL    HW118665   6.374   5.021   3.475
 5922SOL    HW218666   6.242   4.970   3.395
 5923SOL     OW18667   6.406   1.177   2.702
 5923SOL    HW118668   6.458   1.092   2.708
 5923SOL    HW218669   6.328   1.173   2.765
 5924SOL     OW18670   5.780   3.143   5.105
 5924SOL    HW118671   5.858   3.205   5.099
 5924SOL    HW218672   5.808   3.059   5.153
 5925SOL     OW18673   4.420   6.774   3.047
 5925SOL    HW118674   4.426   6.873   3.034
 5925SOL    HW218675   4.363   6.734   2.975
 5926SOL     OW18676   3.209   5.091   1.988
 5926SOL    HW118677   3.216   4.993   1.969
 5926SOL    HW218678   3.232   5.143   1.906
 5927SOL     OW18679   2.163   4.500   2.253
 5927SOL    HW118680   2.259   4.510   2.279
 5927SOL    HW218681   2.157   4.438   2.174
 5928SOL     OW18682   2.876   0.537   2.948
 5928SOL    HW118683   2.872   0.477   3.027
 5928SOL    HW218684   2.935   0.496   2.878
 5929SOL     OW18685   0.706   6.365   6.005
 5929SOL    HW118686   0.745   6.457   6.010
 5929SOL    HW218687   0.606   6.371   6.012
 5930SOL     OW18688   6.467   1.562   3.499
 5930SOL    HW118689   6.509   1.628   3.562
 5930SOL    HW218690   6.371   1.585   3.486
 5931SOL     OW18691   5.405   4.748   2.542
 5931SOL    HW118692   5.408   4.653   2.512
 5931SOL    HW218693   5.498   4.784   2.550
 5932SOL     OW18694   2.819   6.334   0.920
 5932SOL    HW118695   2.759   6.288   0.854
 5932SOL    HW218696   2.764   6.367   0.997
 5933SOL     OW18697   6.675   5.096   2.331
 5933SOL    HW118698   6.628   5.023   2.282
 5933SOL    HW218699   6.627   5.116   2.416
 5934SOL     OW18700   3.341   3.787   3.662
 5934SOL    HW118701   3.397   3.724   3.608
 5934SOL    HW218702   3.320   3.868   3.608
 5935SOL     OW18703   4.050   3.193   4.668
 5935SOL    HW118704   4.029   3.215   4.573
 5935SOL    HW218705   4.122   3.253   4.702
 5936SOL     OW18706   4.578   3.490   6.555
 5936SOL    HW118707   4.672   3.466   6.530
 5936SOL    HW218708   4.540   3.418   6.613
 5937SOL     OW18709   0.733   4.344   2.019
 5937SOL    HW118710   0.662   4.371   1.954
 5937SOL    HW218711   0.802   4.417   2.025
 5938SOL     OW18712   1.377   5.219   4.063
 5938SOL    HW118713   1.310   5.278   4.109
 5938SOL    HW218714   1.454   5.202   4.123
 5939SOL     OW18715   3.282   0.277   3.258
 5939SOL    HW118716   3.221   0.206   3.292
 5939SOL    HW218717   3.240   0.321   3.178
 5940SOL     OW18718   4.330   6.685   2.358
 5940SOL    HW118719   4.333   6.774   2.403
 5940SOL    HW218720   4.360   6.695   2.263
 5941SOL     OW18721   6.067   4.512   2.063
 5941SOL    HW118722   6.034   4.452   2.136
 5941SOL    HW218723   6.134   4.462   2.008
 5942SOL     OW18724   4.953   2.312   6.864
 5942SOL    HW118725   4.998   2.399   6.881
 5942SOL    HW218726   5.021   2.239   6.857
 5943SOL     OW18727   3.158   5.577   0.116
 5943SOL    HW118728   3.133   5.622   0.031
 5943SOL    HW218729   3.205   5.642   0.176
 5944SOL     OW18730   5.888   1.679   1.690
 5944SOL    HW118731   5.844   1.617   1.754
 5944SOL    HW218732   5.820   1.739   1.648
 5945SOL     OW18733   0.095   5.370   5.586
 5945SOL    HW118734   0.186   5.411   5.591
 5945SOL    HW218735   0.061   5.375   5.492
 5946SOL     OW18736   3.304   3.408   5.705
 5946SOL    HW118737   3.228   3.347   5.684
 5946SOL    HW218738   3.358   3.369   5.780
 5947SOL     OW18739   3.929   3.092   2.056
 5947SOL    HW118740   3.992   3.095   1.979
 5947SOL    HW218741   3.971   3.137   2.136
 5948SOL     OW18742   4.151   5.231   3.016
 5948SOL    HW118743   4.156   5.223   2.917
 5948SOL    HW218744   4.116   5.322   3.040
 5949SOL     OW18745   3.978   3.974   0.850
 5949SOL    HW118746   3.931   3.893   0.815
 5949SOL    HW218747   4.028   3.950   0.933
 5950SOL     OW18748   5.091   3.313   5.255
 5950SOL    HW118749   5.180   3.350   5.283
 5950SOL    HW218750   5.101   3.215   5.234
 5951SOL     OW18751   0.704   6.394   4.957
 5951SOL    HW118752   0.689   6.488   4.924
 5951SOL    HW218753   0.620   6.360   5.000
 5952SOL     OW18754   6.068   6.529   3.986
 5952SOL    HW118755   6.099   6.453   4.044
 5952SOL    HW218756   5.975   6.510   3.955
 5953SOL     OW18757   6.939   2.770   5.725
 5953SOL    HW118758   6.874   2.833   5.769
 5953SOL    HW218759   0.004   2.795   5.751
 5954SOL     OW18760   0.130   4.474   5.496
 5954SOL    HW118761   0.096   4.557   5.453
 5954SOL    HW218762   0.054   4.422   5.535
 5955SOL     OW18763   6.434   6.015   2.342
 5955SOL    HW118764   6.457   6.112   2.330
 5955SOL    HW218765   6.514   5.959   2.319
 5956SOL     OW18766   3.208   1.840   0.665
 5956SOL    HW118767   3.278   1.769   0.659
 5956SOL    HW218768   3.121   1.804   0.632
 5957SOL     OW18769   4.728   0.172   5.918
 5957SOL    HW118770   4.650   0.118   5.948
 5957SOL    HW218771   4.772   0.126   5.840
 5958SOL     OW18772   5.686   6.842   3.162
 5958SOL    HW118773   5.663   6.770   3.096
 5958SOL    HW218774   5.784   6.861   3.158
 5959SOL     OW18775   3.399   1.855   5.643
 5959SOL    HW118776   3.314   1.874   5.595
 5959SOL    HW218777   3.384   1.858   5.742
 5960SOL     OW18778   3.472   6.710   4.328
 5960SOL    HW118779   3.423   6.741   4.409
 5960SOL    HW218780   3.524   6.627   4.350
 5961SOL     OW18781   4.602   1.267   4.048
 5961SOL    HW118782   4.595   1.228   4.140
 5961SOL    HW218783   4.590   1.194   3.981
 5962SOL     OW18784   5.181   6.054   2.036
 5962SOL    HW118785   5.188   6.083   1.941
 5962SOL    HW218786   5.089   6.019   2.054
 5963SOL     OW18787   3.770   2.965   4.572
 5963SOL    HW118788   3.856   3.011   4.598
 5963SOL    HW218789   3.726   2.930   4.654
 5964SOL     OW18790   0.401   5.331   6.066
 5964SOL    HW118791   0.478   5.383   6.030
 5964SOL    HW218792   0.426   5.291   6.154
 5965SOL     OW18793   1.979   2.016   5.765
 5965SOL    HW118794   1.907   2.084   5.776
 5965SOL    HW218795   2.007   1.981   5.855
 5966SOL     OW18796   2.731   5.080   5.957
 5966SOL    HW118797   2.647   5.117   5.996
 5966SOL    HW218798   2.724   5.078   5.858
 5967SOL     OW18799   4.229   6.175   2.218
 5967SOL    HW118800   4.226   6.184   2.118
 5967SOL    HW218801   4.139   6.149   2.252
 5968SOL     OW18802   6.012   1.779   3.178
 5968SOL    HW118803   5.991   1.870   3.215
 5968SOL    HW218804   6.074   1.788   3.101
 5969SOL     OW18805   6.438   1.832   5.435
 5969SOL    HW118806   6.516   1.822   5.373
 5969SOL    HW218807   6.354   1.840   5.381
 5970SOL     OW18808   0.250   4.770   2.617
 5970SOL    HW118809   0.196   4.688   2.634
 5970SOL    HW218810   0.279   4.772   2.522
 5971SOL     OW18811   2.337   0.313   3.218
 5971SOL    HW118812   2.260   0.375   3.204
 5971SOL    HW218813   2.378   0.289   3.130
 5972SOL     OW18814   4.550   6.366   0.572
 5972SOL    HW118815   4.575   6.272   0.549
 5972SOL    HW218816   4.577   6.386   0.666
 5973SOL     OW18817   2.002   5.084   2.746
 5973SOL    HW118818   1.988   5.097   2.844
 5973SOL    HW218819   1.968   4.993   2.720
 5974SOL     OW18820   5.468   3.968   6.291
 5974SOL    HW118821   5.533   4.014   6.230
 5974SOL    HW218822   5.406   4.036   6.331
 5975SOL     OW18823   3.613   2.217   0.742
 5975SOL    HW118824   3.536   2.257   0.692
 5975SOL    HW218825   3.579   2.168   0.822
 5976SOL     OW18826   2.859   3.578   5.408
 5976SOL    HW118827   2.770   3.540   5.432
 5976SOL    HW218828   2.849   3.671   5.375
 5977SOL     OW18829   1.777   4.869   1.578
 5977SOL    HW118830   1.773   4.942   1.646
 5977SOL    HW218831   1.869   4.865   1.538
 5978SOL     OW18832   5.362   4.997   3.225
 5978SOL    HW118833   5.364   5.033   3.318
 5978SOL    HW218834   5.284   4.934   3.216
 5979SOL     OW18835   6.851   0.634   2.989
 5979SOL    HW118836   6.918   0.597   2.925
 5979SOL    HW218837   6.759   0.610   2.959
 5980SOL     OW18838   3.720   3.631   6.505
 5980SOL    HW118839   3.741   3.534   6.494
 5980SOL    HW218840   3.621   3.643   6.515
 5981SOL     OW18841   6.548   1.816   2.159
 5981SOL    HW118842   6.647   1.804   2.149
 5981SOL    HW218843   6.524   1.822   2.256
 5982SOL     OW18844   6.050   2.012   6.632
 5982SOL    HW118845   5.952   2.015   6.653
 5982SOL    HW218846   6.065   2.042   6.538
 5983SOL     OW18847   2.636   1.678   4.442
 5983SOL    HW118848   2.735   1.686   4.453
 5983SOL    HW218849   2.591   1.699   4.528
 5984SOL     OW18850   0.274   6.960   4.646
 5984SOL    HW118851   0.365   6.920   4.639
 5984SOL    HW218852   0.256   7.017   4.566
 5985SOL     OW18853   5.229   3.059   4.774
 5985SOL    HW118854   5.172   3.122   4.721
 5985SOL    HW218855   5.325   3.071   4.749
 5986SOL     OW18856   3.086   3.223   4.357
 5986SOL    HW118857   3.185   3.227   4.365
 5986SOL    HW218858   3.046   3.204   4.447
 5987SOL     OW18859   4.263   1.653   5.033
 5987SOL    HW118860   4.325   1.730   5.017
 5987SOL    HW218861   4.268   1.625   5.129
 5988SOL     OW18862   4.551   5.742   5.025
 5988SOL    HW118863   4.568   5.737   4.927
 5988SOL    HW218864   4.475   5.805   5.043
 5989SOL     OW18865   2.590   6.342   6.576
 5989SOL    HW118866   2.531   6.335   6.656
 5989SOL    HW218867   2.543   6.303   6.497
 5990SOL     OW18868   3.622   4.153   0.606
 5990SOL    HW118869   3.626   4.215   0.528
 5990SOL    HW218870   3.696   4.085   0.598
 5991SOL     OW18871   4.575   4.656   5.135
 5991SOL    HW118872   4.540   4.727   5.196
 5991SOL    HW218873   4.500   4.616   5.083
 5992SOL     OW18874   3.842   0.555   4.002
 5992SOL    HW118875   3.870   0.595   4.089
 5992SOL    HW218876   3.917   0.501   3.964
 5993SOL     OW18877   3.938   6.918   6.000
 5993SOL    HW118878   3.983   6.831   5.979
 5993SOL    HW218879   3.983   6.960   6.079
 5994SOL     OW18880   6.234   2.362   1.829
 5994SOL    HW118881   6.291   2.280   1.840
 5994SOL    HW218882   6.264   2.431   1.895
 5995SOL     OW18883   6.503   5.224   1.903
 5995SOL    HW118884   6.427   5.261   1.849
 5995SOL    HW218885   6.493   5.126   1.913
 5996SOL     OW18886   0.723   5.586   0.002
 5996SOL    HW118887   0.821   5.599   7.012
 5996SOL    HW218888   0.686   5.669   0.044
 5997SOL     OW18889   0.857   6.406   2.818
 5997SOL    HW118890   0.875   6.489   2.765
 5997SOL    HW218891   0.767   6.413   2.860
 5998SOL     OW18892   5.658   3.017   2.198
 5998SOL    HW118893   5.589   2.969   2.143
 5998SOL    HW218894   5.749   2.985   2.173
 5999SOL     OW18895   0.960   2.313   2.645
 5999SOL    HW118896   0.886   2.246   2.645
 5999SOL    HW218897   0.961   2.362   2.733
 6000SOL     OW18898   4.329   5.713   1.762
 6000SOL    HW118899   4.271   5.697   1.682
 6000SOL    HW218900   4.279   5.691   1.845
 6001SOL     OW18901   0.499   4.235   6.340
 6001SOL    HW118902   0.526   4.228   6.244
 6001SOL    HW218903   0.580   4.249   6.397
 6002SOL     OW18904   0.388   6.430   1.480
 6002SOL    HW118905   0.400   6.464   1.386
 6002SOL    HW218906   0.381   6.508   1.542
 6003SOL     OW18907   6.304   2.503   4.871
 6003SOL    HW118908   6.311   2.599   4.901
 6003SOL    HW218909   6.313   2.499   4.772
 6004SOL     OW18910   0.241   4.426   3.406
 6004SOL    HW118911   0.286   4.420   3.317
 6004SOL    HW218912   0.250   4.338   3.453
 6005SOL     OW18913   4.058   5.131   4.684
 6005SOL    HW118914   4.023   5.037   4.690
 6005SOL    HW218915   3.988   5.194   4.718
 6006SOL     OW18916   4.036   6.590   6.927
 6006SOL    HW118917   3.941   6.589   6.958
 6006SOL    HW218918   4.097   6.584   7.006
 6007SOL     OW18919   4.903   3.125   3.634
 6007SOL    HW118920   4.835   3.139   3.706
 6007SOL    HW218921   4.959   3.045   3.657
 6008SOL     OW18922   2.357   5.534   6.227
 6008SOL    HW118923   2.432   5.598   6.215
 6008SOL    HW218924   2.377   5.473   6.304
 6009SOL     OW18925   3.063   1.377   4.620
 6009SOL    HW118926   3.077   1.468   4.582
 6009SOL    HW218927   3.062   1.309   4.546
 6010SOL     OW18928   2.415   4.431   1.921
 6010SOL    HW118929   2.485   4.473   1.979
 6010SOL    HW218930   2.451   4.418   1.829
 6011SOL     OW18931   5.099   2.514   2.184
 6011SOL    HW118932   5.079   2.428   2.138
 6011SOL    HW218933   5.014   2.566   2.195
 6012SOL     OW18934   6.738   2.068   0.265
 6012SOL    HW118935   6.665   2.000   0.266
 6012SOL    HW218936   6.821   2.029   0.303
 6013SOL     OW18937   5.085   1.913   2.985
 6013SOL    HW118938   5.065   2.011   2.988
 6013SOL    HW218939   5.017   1.864   3.040
 6014SOL     OW18940   4.762   1.331   0.437
 6014SOL    HW118941   4.780   1.428   0.421
 6014SOL    HW218942   4.804   1.303   0.523
 6015SOL     OW18943   5.876   2.278   5.829
 6015SOL    HW118944   5.778   2.256   5.823
 6015SOL    HW218945   5.888   2.363   5.879
 6016SOL     OW18946   0.431   1.410   6.755
 6016SOL    HW118947   0.438   1.505   6.785
 6016SOL    HW218948   0.384   1.356   6.825
 6017SOL     OW18949   6.275   5.166   2.631
 6017SOL    HW118950   6.276   5.223   2.713
 6017SOL    HW218951   6.185   5.124   2.622
 6018SOL     OW18952   3.734   2.866   0.231
 6018SOL    HW118953   3.705   2.788   0.177
 6018SOL    HW218954   3.722   2.950   0.178
 6019SOL     OW18955   4.994   1.812   4.043
 6019SOL    HW118956   4.955   1.903   4.032
 6019SOL    HW218957   4.921   1.746   4.058
 6020SOL     OW18958   1.573   6.393   2.351
 6020SOL    HW118959   1.620   6.381   2.264
 6020SOL    HW218960   1.537   6.486   2.358
 6021SOL     OW18961   4.201   6.948   2.432
 6021SOL    HW118962   4.283   7.002   2.413
 6021SOL    HW218963   4.190   6.939   2.531
 6022SOL     OW18964   4.331   0.716   4.936
 6022SOL    HW118965   4.323   0.648   4.863
 6022SOL    HW218966   4.278   0.797   4.913
 6023SOL     OW18967   5.690   1.549   3.018
 6023SOL    HW118968   5.713   1.643   2.991
 6023SOL    HW218969   5.753   1.519   3.090
 6024SOL     OW18970   0.481   4.457   2.919
 6024SOL    HW118971   0.484   4.548   2.878
 6024SOL    HW218972   0.475   4.388   2.847
 6025SOL     OW18973   4.094   0.515   2.397
 6025SOL    HW118974   4.011   0.480   2.439
 6025SOL    HW218975   4.127   0.450   2.328
 6026SOL     OW18976   0.304   4.394   4.233
 6026SOL    HW118977   0.320   4.323   4.301
 6026SOL    HW218978   0.319   4.356   4.141
 6027SOL     OW18979   2.008   4.045   5.268
 6027SOL    HW118980   2.065   4.065   5.348
 6027SOL    HW218981   2.031   4.107   5.193
 6028SOL     OW18982   1.210   3.959   0.295
 6028SOL    HW118983   1.148   3.884   0.272
 6028SOL    HW218984   1.204   3.977   0.393
 6029SOL     OW18985   2.329   6.570   6.718
 6029SOL    HW118986   2.290   6.532   6.635
 6029SOL    HW218987   2.268   6.553   6.795
 6030SOL     OW18988   2.700   0.175   3.388
 6030SOL    HW118989   2.795   0.158   3.361
 6030SOL    HW218990   2.677   0.271   3.370
 6031SOL     OW18991   4.438   5.251   4.384
 6031SOL    HW118992   4.364   5.194   4.420
 6031SOL    HW218993   4.429   5.258   4.284
 6032SOL     OW18994   1.756   3.499   2.293
 6032SOL    HW118995   1.840   3.538   2.255
 6032SOL    HW218996   1.723   3.426   2.233
 6033SOL     OW18997   2.346   2.618   2.707
 6033SOL    HW118998   2.418   2.608   2.777
 6033SOL    HW218999   2.257   2.611   2.751
 6034SOL     OW19000   2.083   5.435   4.547
 6034SOL    HW119001   2.157   5.389   4.498
 6034SOL    HW219002   2.038   5.501   4.487
 6035SOL     OW19003   6.289   1.667   4.167
 6035SOL    HW119004   6.382   1.696   4.186
 6035SOL    HW219005   6.270   1.582   4.217
 6036SOL     OW19006   7.005   6.606   4.337
 6036SOL    HW119007   6.922   6.614   4.282
 6036SOL    HW219008   0.042   6.677   4.309
 6037SOL     OW19009   4.871   5.286   6.046
 6037SOL    HW119010   4.801   5.354   6.027
 6037SOL    HW219011   4.917   5.309   6.132
 6038SOL     OW19012   1.190   3.291   6.325
 6038SOL    HW119013   1.187   3.373   6.269
 6038SOL    HW219014   1.210   3.211   6.268
 6039SOL     OW19015   3.254   2.970   3.225
 6039SOL    HW119016   3.237   2.909   3.303
 6039SOL    HW219017   3.343   2.948   3.185
 6040SOL     OW19018   0.541   1.895   6.079
 6040SOL    HW119019   0.624   1.950   6.069
 6040SOL    HW219020   0.465   1.954   6.106
 6041SOL     OW19021   1.972   1.352   6.298
 6041SOL    HW119022   2.069   1.331   6.309
 6041SOL    HW219023   1.961   1.426   6.231
 6042SOL     OW19024   5.685   5.423   1.805
 6042SOL    HW119025   5.648   5.410   1.897
 6042SOL    HW219026   5.768   5.479   1.809
 6043SOL     OW19027   1.114   5.179   4.973
 6043SOL    HW119028   1.017   5.203   4.960
 6043SOL    HW219029   1.134   5.096   4.921
 6044SOL     OW19030   0.672   2.043   0.862
 6044SOL    HW119031   0.692   2.019   0.957
 6044SOL    HW219032   0.633   1.963   0.815
 6045SOL     OW19033   5.917   5.509   1.035
 6045SOL    HW119034   5.896   5.593   1.086
 6045SOL    HW219035   5.861   5.506   0.953
 6046SOL     OW19036   2.647   2.107   0.668
 6046SOL    HW119037   2.681   2.087   0.577
 6046SOL    HW219038   2.664   2.203   0.691
 6047SOL     OW19039   6.373   1.929   3.468
 6047SOL    HW119040   6.345   1.847   3.419
 6047SOL    HW219041   6.297   1.960   3.527
 6048SOL     OW19042   4.593   6.661   3.244
 6048SOL    HW119043   4.540   6.598   3.301
 6048SOL    HW219044   4.538   6.688   3.165
 6049SOL     OW19045   5.175   3.602   6.417
 6049SOL    HW119046   5.189   3.680   6.479
 6049SOL    HW219047   5.078   3.595   6.393
 6050SOL     OW19048   3.745   3.630   5.949
 6050SOL    HW119049   3.774   3.583   5.865
 6050SOL    HW219050   3.824   3.675   5.991
 6051SOL     OW19051   2.614   1.952   3.394
 6051SOL    HW119052   2.666   2.038   3.394
 6051SOL    HW219053   2.578   1.935   3.303
 6052SOL     OW19054   6.703   6.722   0.567
 6052SOL    HW119055   6.768   6.661   0.520
 6052SOL    HW219056   6.694   6.694   0.662
 6053SOL     OW19057   3.745   0.248   6.473
 6053SOL    HW119058   3.664   0.191   6.465
 6053SOL    HW219059   3.797   0.222   6.555
 6054SOL     OW19060   2.281   4.221   0.821
 6054SOL    HW119061   2.314   4.256   0.909
 6054SOL    HW219062   2.359   4.189   0.767
 6055SOL     OW19063   5.969   0.786   6.253
 6055SOL    HW119064   5.875   0.808   6.276
 6055SOL    HW219065   6.019   0.870   6.232
 6056SOL     OW19066   5.080   2.298   4.800
 6056SOL    HW119067   5.077   2.280   4.702
 6056SOL    HW219068   5.114   2.217   4.848
 6057SOL     OW19069   4.762   2.242   4.569
 6057SOL    HW119070   4.687   2.277   4.513
 6057SOL    HW219071   4.763   2.290   4.657
 6058SOL     OW19072   5.421   2.405   3.040
 6058SOL    HW119073   5.407   2.415   2.941
 6058SOL    HW219074   5.438   2.495   3.080
 6059SOL     OW19075   4.588   5.141   5.792
 6059SOL    HW119076   4.676   5.125   5.836
 6059SOL    HW219077   4.597   5.125   5.694
 6060SOL     OW19078   3.309   3.808   5.502
 6060SOL    HW119079   3.348   3.886   5.550
 6060SOL    HW219080   3.347   3.723   5.539
 6061SOL     OW19081   3.939   2.670   0.653
 6061SOL    HW119082   3.999   2.723   0.594
 6061SOL    HW219083   3.992   2.597   0.697
 6062SOL     OW19084   2.370   1.359   4.812
 6062SOL    HW119085   2.327   1.270   4.796
 6062SOL    HW219086   2.438   1.350   4.885
 6063SOL     OW19087   4.315   1.719   6.569
 6063SOL    HW119088   4.402   1.692   6.609
 6063SOL    HW219089   4.243   1.718   6.639
 6064SOL     OW19090   2.354   5.485   2.962
 6064SOL    HW119091   2.444   5.441   2.965
 6064SOL    HW219092   2.286   5.425   3.005
 6065SOL     OW19093   5.750   6.936   1.721
 6065SOL    HW119094   5.680   6.932   1.792
 6065SOL    HW219095   5.757   6.846   1.677
 6066SOL     OW19096   4.171   1.488   0.643
 6066SOL    HW119097   4.155   1.403   0.591
 6066SOL    HW219098   4.238   1.544   0.595
 6067SOL     OW19099   5.975   1.755   6.530
 6067SOL    HW119100   6.010   1.828   6.589
 6067SOL    HW219101   5.908   1.792   6.467
 6068SOL     OW19102   6.082   3.639   4.716
 6068SOL    HW119103   6.081   3.546   4.679
 6068SOL    HW219104   6.087   3.704   4.641
 6069SOL     OW19105   0.334   3.531   5.841
 6069SOL    HW119106   0.310   3.450   5.894
 6069SOL    HW219107   0.321   3.613   5.897
 6070SOL     OW19108   2.915   1.609   5.943
 6070SOL    HW119109   2.906   1.672   5.867
 6070SOL    HW219110   3.009   1.574   5.946
 6071SOL     OW19111   4.933   5.839   5.637
 6071SOL    HW119112   5.012   5.876   5.587
 6071SOL    HW219113   4.964   5.791   5.718
 6072SOL     OW19114   0.921   1.142   2.413
 6072SOL    HW119115   0.907   1.196   2.496
 6072SOL    HW219116   1.010   1.164   2.373
 6073SOL     OW19117   6.314   3.662   0.504
 6073SOL    HW119118   6.301   3.610   0.420
 6073SOL    HW219119   6.402   3.636   0.545
 6074SOL     OW19120   1.143   6.769   4.616
 6074SOL    HW119121   1.051   6.765   4.656
 6074SOL    HW219122   1.141   6.829   4.536
 6075SOL     OW19123   6.899   2.275   6.261
 6075SOL    HW119124   6.935   2.353   6.311
 6075SOL    HW219125   6.802   2.290   6.240
 6076SOL     OW19126   2.347   6.942   5.069
 6076SOL    HW119127   2.344   6.965   4.972
 6076SOL    HW219128   2.432   6.895   5.091
 6077SOL     OW19129   5.062   5.681   2.278
 6077SOL    HW119130   5.131   5.611   2.261
 6077SOL    HW219131   5.011   5.659   2.361
 6078SOL     OW19132   3.788   4.883   2.361
 6078SOL    HW119133   3.876   4.858   2.400
 6078SOL    HW219134   3.733   4.800   2.347
 6079SOL     OW19135   2.899   3.342   6.338
 6079SOL    HW119136   2.994   3.353   6.368
 6079SOL    HW219137   2.897   3.300   6.247
 6080SOL     OW19138   0.076   1.614   1.462
 6080SOL    HW119139   0.049   1.638   1.555
 6080SOL    HW219140   0.007   1.554   1.421
 6081SOL     OW19141   6.713   3.585   4.588
 6081SOL    HW119142   6.768   3.629   4.517
 6081SOL    HW219143   6.631   3.640   4.605
 6082SOL     OW19144   3.863   1.034   3.285
 6082SOL    HW119145   3.794   0.973   3.323
 6082SOL    HW219146   3.941   1.040   3.348
 6083SOL     OW19147   1.238   5.519   6.216
 6083SOL    HW119148   1.219   5.606   6.171
 6083SOL    HW219149   1.293   5.536   6.298
 6084SOL     OW19150   0.009   5.669   3.967
 6084SOL    HW119151   6.961   5.610   3.994
 6084SOL    HW219152   7.009   5.765   3.974
 6085SOL     OW19153   0.138   4.100   0.382
 6085SOL    HW119154   0.070   4.106   0.308
 6085SOL    HW219155   0.186   4.187   0.389
 6086SOL     OW19156   3.353   1.530   5.142
 6086SOL    HW119157   3.436   1.484   5.110
 6086SOL    HW219158   3.336   1.611   5.085
 6087SOL     OW19159   5.050   6.836   0.180
 6087SOL    HW119160   5.134   6.869   0.137
 6087SOL    HW219161   5.055   6.851   0.279
 6088SOL     OW19162   0.058   6.317   4.218
 6088SOL    HW119163   0.140   6.292   4.269
 6088SOL    HW219164   0.008   6.388   4.268
 6089SOL     OW19165   0.114   3.980   1.510
 6089SOL    HW119166   0.070   4.063   1.544
 6089SOL    HW219167   0.181   4.004   1.440
 6090SOL     OW19168   1.177   6.188   6.341
 6090SOL    HW119169   1.255   6.181   6.278
 6090SOL    HW219170   1.097   6.144   6.299
 6091SOL     OW19171   1.015   1.596   2.290
 6091SOL    HW119172   0.956   1.643   2.224
 6091SOL    HW219173   0.964   1.577   2.373
 6092SOL     OW19174   2.933   0.429   3.429
 6092SOL    HW119175   2.898   0.430   3.523
 6092SOL    HW219176   3.024   0.470   3.427
 6093SOL     OW19177   1.579   2.479   2.480
 6093SOL    HW119178   1.643   2.495   2.555
 6093SOL    HW219179   1.523   2.560   2.466
 6094SOL     OW19180   2.575   1.021   1.021
 6094SOL    HW119181   2.606   0.954   1.088
 6094SOL    HW219182   2.475   1.026   1.022
 6095SOL     OW19183   4.676   2.384   6.944
 6095SOL    HW119184   4.691   2.453   6.872
 6095SOL    HW219185   4.761   2.335   6.962
 6096SOL     OW19186   5.770   0.843   4.200
 6096SOL    HW119187   5.690   0.814   4.147
 6096SOL    HW219188   5.792   0.938   4.179
 6097SOL     OW19189   1.797   0.164   2.910
 6097SOL    HW119190   1.789   0.068   2.883
 6097SOL    HW219191   1.725   0.217   2.866
 6098SOL     OW19192   1.579   2.002   5.486
 6098SOL    HW119193   1.524   2.084   5.506
 6098SOL    HW219194   1.618   1.967   5.572
 6099SOL     OW19195   5.659   5.914   5.846
 6099SOL    HW119196   5.593   5.953   5.782
 6099SOL    HW219197   5.663   5.815   5.833
 6100SOL     OW19198   6.053   3.050   6.393
 6100SOL    HW119199   6.004   3.019   6.474
 6100SOL    HW219200   6.151   3.041   6.408
 6101SOL     OW19201   6.552   1.866   5.833
 6101SOL    HW119202   6.458   1.863   5.799
 6101SOL    HW219203   6.614   1.829   5.764
 6102SOL     OW19204   3.690   0.929   4.408
 6102SOL    HW119205   3.662   1.025   4.412
 6102SOL    HW219206   3.781   0.919   4.448
 6103SOL     OW19207   6.999   0.979   4.057
 6103SOL    HW119208   6.913   0.953   4.012
 6103SOL    HW219209   0.040   0.908   4.042
 6104SOL     OW19210   6.690   1.831   6.389
 6104SOL    HW119211   6.773   1.872   6.352
 6104SOL    HW219212   6.625   1.903   6.415
 6105SOL     OW19213   3.329   6.431   5.674
 6105SOL    HW119214   3.368   6.339   5.680
 6105SOL    HW219215   3.396   6.498   5.707
 6106SOL     OW19216   2.204   4.709   6.388
 6106SOL    HW119217   2.113   4.709   6.431
 6106SOL    HW219218   2.260   4.637   6.430
 6107SOL     OW19219   2.672   5.592   4.348
 6107SOL    HW119220   2.753   5.581   4.290
 6107SOL    HW219221   2.689   5.549   4.437
 6108SOL     OW19222   0.632   2.108   3.029
 6108SOL    HW119223   0.661   2.201   3.051
 6108SOL    HW219224   0.593   2.065   3.111
 6109SOL     OW19225   5.061   2.818   6.892
 6109SOL    HW119226   5.041   2.905   6.845
 6109SOL    HW219227   5.076   2.835   6.989
 6110SOL     OW19228   2.843   2.795   6.784
 6110SOL    HW119229   2.768   2.857   6.759
 6110SOL    HW219230   2.805   2.714   6.828
 6111SOL     OW19231   1.210   5.007   2.584
 6111SOL    HW119232   1.245   4.920   2.550
 6111SOL    HW219233   1.110   5.000   2.595
 6112SOL     OW19234   2.407   2.210   3.030
 6112SOL    HW119235   2.417   2.162   2.943
 6112SOL    HW219236   2.344   2.287   3.018
 6113SOL     OW19237   0.210   0.871   6.361
 6113SOL    HW119238   0.300   0.885   6.403
 6113SOL    HW219239   0.143   0.855   6.433
 6114SOL     OW19240   5.147   5.532   1.156
 6114SOL    HW119241   5.071   5.482   1.197
 6114SOL    HW219242   5.152   5.624   1.197
 6115SOL     OW19243   5.276   5.601   3.176
 6115SOL    HW119244   5.264   5.523   3.114
 6115SOL    HW219245   5.367   5.598   3.216
 6116SOL     OW19246   2.647   1.293   1.493
 6116SOL    HW119247   2.746   1.307   1.484
 6116SOL    HW219248   2.599   1.369   1.450
 6117SOL     OW19249   0.017   0.144   5.190
 6117SOL    HW119250   0.080   0.167   5.117
 6117SOL    HW219251   0.053   0.066   5.242
 6118SOL     OW19252   0.121   2.036   1.281
 6118SOL    HW119253   0.193   2.078   1.225
 6118SOL    HW219254   0.102   2.095   1.359
 6119SOL     OW19255   0.271   4.554   4.481
 6119SOL    HW119256   0.308   4.492   4.412
 6119SOL    HW219257   0.346   4.609   4.520
 6120SOL     OW19258   3.204   6.828   3.762
 6120SOL    HW119259   3.237   6.848   3.854
 6120SOL    HW219260   3.105   6.818   3.763
 6121SOL     OW19261   6.659   2.734   4.961
 6121SOL    HW119262   6.584   2.761   5.022
 6121SOL    HW219263   6.691   2.814   4.910
 6122SOL     OW19264   3.380   6.712   2.006
 6122SOL    HW119265   3.327   6.628   2.001
 6122SOL    HW219266   3.418   6.733   1.916
 6123SOL     OW19267   6.843   0.741   1.348
 6123SOL    HW119268   6.802   0.712   1.261
 6123SOL    HW219269   6.932   0.784   1.330
 6124SOL     OW19270   3.254   6.705   5.296
 6124SOL    HW119271   3.231   6.656   5.212
 6124SOL    HW219272   3.272   6.801   5.275
 6125SOL     OW19273   2.428   5.529   1.383
 6125SOL    HW119274   2.373   5.575   1.453
 6125SOL    HW219275   2.423   5.580   1.297
 6126SOL     OW19276   5.136   6.051   3.886
 6126SOL    HW119277   5.226   6.067   3.845
 6126SOL    HW219278   5.070   6.116   3.849
 6127SOL     OW19279   2.349   6.940   1.355
 6127SOL    HW119280   2.264   6.888   1.367
 6127SOL    HW219281   2.375   6.939   1.258
 6128SOL     OW19282   6.484   3.034   0.298
 6128SOL    HW119283   6.576   3.010   0.331
 6128SOL    HW219284   6.445   2.956   0.249
 6129SOL     OW19285   6.444   4.056   3.135
 6129SOL    HW119286   6.504   4.025   3.061
 6129SOL    HW219287   6.492   4.046   3.223
 6130SOL     OW19288   6.680   3.002   4.880
 6130SOL    HW119289   6.670   3.032   4.785
 6130SOL    HW219290   6.775   3.011   4.908
 6131SOL     OW19291   7.012   1.669   5.472
 6131SOL    HW119292   6.930   1.612   5.478
 6131SOL    HW219293   0.056   1.629   5.530
 6132SOL     OW19294   3.627   0.705   0.683
 6132SOL    HW119295   3.615   0.800   0.711
 6132SOL    HW219296   3.636   0.647   0.764
 6133SOL     OW19297   0.362   2.582   2.885
 6133SOL    HW119298   0.374   2.653   2.954
 6133SOL    HW219299   0.271   2.541   2.895
 6134SOL     OW19300   4.364   3.166   6.406
 6134SOL    HW119301   4.323   3.257   6.418
 6134SOL    HW219302   4.382   3.151   6.309
 6135SOL     OW19303   5.833   0.106   2.239
 6135SOL    HW119304   5.896   0.054   2.182
 6135SOL    HW219305   5.861   0.203   2.240
 6136SOL     OW19306   0.865   1.526   2.660
 6136SOL    HW119307   0.960   1.559   2.658
 6136SOL    HW219308   0.865   1.428   2.678
 6137SOL     OW19309   3.985   1.023   5.660
 6137SOL    HW119310   4.033   1.094   5.711
 6137SOL    HW219311   3.911   0.986   5.716
 6138SOL     OW19312   3.336   6.749   2.433
 6138SOL    HW119313   3.424   6.739   2.386
 6138SOL    HW219314   3.263   6.711   2.375
 6139SOL     OW19315   2.085   3.345   4.724
 6139SOL    HW119316   2.107   3.440   4.744
 6139SOL    HW219317   2.140   3.285   4.782
 6140SOL     OW19318   0.603   6.678   1.797
 6140SOL    HW119319   0.610   6.755   1.859
 6140SOL    HW219320   0.532   6.615   1.828
 6141SOL     OW19321   6.093   5.938   4.739
 6141SOL    HW119322   6.036   5.972   4.664
 6141SOL    HW219323   6.036   5.923   4.820
 6142SOL     OW19324   0.074   5.052   0.425
 6142SOL    HW119325   0.022   5.052   0.511
 6142SOL    HW219326   0.027   5.111   0.359
 6143SOL     OW19327   5.609   4.145   6.754
 6143SOL    HW119328   5.636   4.105   6.842
 6143SOL    HW219329   5.657   4.232   6.741
 6144SOL     OW19330   6.283   4.998   2.384
 6144SOL    HW119331   6.368   4.945   2.377
 6144SOL    HW219332   6.292   5.065   2.458
 6145SOL     OW19333   4.743   6.024   3.666
 6145SOL    HW119334   4.779   6.072   3.746
 6145SOL    HW219335   4.649   6.053   3.649
 6146SOL     OW19336   4.486   0.931   3.450
 6146SOL    HW119337   4.423   0.857   3.424
 6146SOL    HW219338   4.539   0.903   3.530
 6147SOL     OW19339   1.578   4.969   3.398
 6147SOL    HW119340   1.632   4.924   3.470
 6147SOL    HW219341   1.630   4.969   3.313
 6148SOL     OW19342   0.123   6.881   4.252
 6148SOL    HW119343   0.124   6.959   4.190
 6148SOL    HW219344   0.159   6.800   4.205
 6149SOL     OW19345   3.602   5.181   2.922
 6149SOL    HW119346   3.670   5.248   2.894
 6149SOL    HW219347   3.604   5.102   2.860
 6150SOL     OW19348   4.290   4.912   6.762
 6150SOL    HW119349   4.291   4.869   6.852
 6150SOL    HW219350   4.305   5.011   6.772
 6151SOL     OW19351   6.465   3.772   4.591
 6151SOL    HW119352   6.386   3.788   4.650
 6151SOL    HW219353   6.433   3.751   4.498
 6152SOL     OW19354   4.914   4.445   5.769
 6152SOL    HW119355   4.815   4.456   5.765
 6152SOL    HW219356   4.958   4.534   5.775
 6153SOL     OW19357   4.716   3.902   1.722
 6153SOL    HW119358   4.720   3.808   1.688
 6153SOL    HW219359   4.624   3.938   1.710
 6154SOL     OW19360   5.165   1.322   1.903
 6154SOL    HW119361   5.080   1.296   1.949
 6154SOL    HW219362   5.176   1.422   1.908
 6155SOL     OW19363   1.500   3.042   3.977
 6155SOL    HW119364   1.491   3.027   3.878
 6155SOL    HW219365   1.594   3.024   4.004
 6156SOL     OW19366   4.777   5.340   2.375
 6156SOL    HW119367   4.777   5.406   2.300
 6156SOL    HW219368   4.706   5.365   2.441
 6157SOL     OW19369   1.091   2.036   3.663
 6157SOL    HW119370   1.137   2.125   3.670
 6157SOL    HW219371   1.132   1.983   3.590
 6158SOL     OW19372   4.769   0.645   6.622
 6158SOL    HW119373   4.846   0.623   6.563
 6158SOL    HW219374   4.684   0.641   6.569
 6159SOL     OW19375   4.845   1.263   6.946
 6159SOL    HW119376   4.750   1.295   6.958
 6159SOL    HW219377   4.906   1.342   6.944
 6160SOL     OW19378   5.946   5.928   0.706
 6160SOL    HW119379   5.855   5.889   0.718
 6160SOL    HW219380   5.938   6.027   0.694
 6161SOL     OW19381   5.945   2.352   6.376
 6161SOL    HW119382   5.873   2.312   6.320
 6161SOL    HW219383   6.026   2.368   6.319
 6162SOL     OW19384   0.903   5.362   4.638
 6162SOL    HW119385   0.928   5.280   4.689
 6162SOL    HW219386   0.966   5.437   4.662
 6163SOL     OW19387   5.667   5.560   0.779
 6163SOL    HW119388   5.618   5.514   0.853
 6163SOL    HW219389   5.679   5.497   0.703
 6164SOL     OW19390   2.010   2.867   1.750
 6164SOL    HW119391   1.912   2.848   1.746
 6164SOL    HW219392   2.040   2.905   1.663
 6165SOL     OW19393   3.947   5.925   0.043
 6165SOL    HW119394   3.944   5.838   7.023
 6165SOL    HW219395   3.982   5.996   7.009
 6166SOL     OW19396   3.363   1.187   5.428
 6166SOL    HW119397   3.420   1.174   5.509
 6166SOL    HW219398   3.316   1.275   5.434
 6167SOL     OW19399   0.582   4.899   2.359
 6167SOL    HW119400   0.593   4.996   2.339
 6167SOL    HW219401   0.498   4.865   2.316
 6168SOL     OW19402   0.280   3.862   0.860
 6168SOL    HW119403   0.185   3.892   0.869
 6168SOL    HW219404   0.283   3.762   0.860
 6169SOL     OW19405   1.459   2.944   1.836
 6169SOL    HW119406   1.381   2.983   1.788
 6169SOL    HW219407   1.496   3.012   1.900
 6170SOL     OW19408   0.498   3.134   5.180
 6170SOL    HW119409   0.475   3.040   5.206
 6170SOL    HW219410   0.562   3.172   5.248
 6171SOL     OW19411   0.035   1.404   0.545
 6171SOL    HW119412   0.002   1.315   0.576
 6171SOL    HW219413   0.133   1.398   0.522
 6172SOL     OW19414   0.580   2.433   2.772
 6172SOL    HW119415   0.515   2.481   2.831
 6172SOL    HW219416   0.672   2.467   2.789
 6173SOL     OW19417   6.594   5.726   3.063
 6173SOL    HW119418   6.651   5.717   2.981
 6173SOL    HW219419   6.617   5.811   3.111
 6174SOL     OW19420   4.848   5.082   3.469
 6174SOL    HW119421   4.795   4.997   3.470
 6174SOL    HW219422   4.823   5.138   3.549
 6175SOL     OW19423   3.319   0.782   4.871
 6175SOL    HW119424   3.389   0.847   4.901
 6175SOL    HW219425   3.362   0.704   4.826
 6176SOL     OW19426   4.491   3.653   5.337
 6176SOL    HW119427   4.559   3.614   5.274
 6176SOL    HW219428   4.404   3.605   5.326
 6177SOL     OW19429   5.152   2.158   1.716
 6177SOL    HW119430   5.200   2.154   1.629
 6177SOL    HW219431   5.211   2.122   1.788
 6178SOL     OW19432   4.879   3.850   2.017
 6178SOL    HW119433   4.862   3.843   1.919
 6178SOL    HW219434   4.884   3.758   2.057
 6179SOL     OW19435   6.791   4.557   1.537
 6179SOL    HW119436   6.776   4.649   1.498
 6179SOL    HW219437   6.888   4.535   1.534
 6180SOL     OW19438   3.142   4.871   0.856
 6180SOL    HW119439   3.233   4.897   0.824
 6180SOL    HW219440   3.126   4.774   0.835
 6181SOL     OW19441   5.173   5.791   6.149
 6181SOL    HW119442   5.242   5.760   6.084
 6181SOL    HW219443   5.198   5.882   6.183
 6182SOL     OW19444   4.334   2.370   0.145
 6182SOL    HW119445   4.389   2.329   0.073
 6182SOL    HW219446   4.393   2.393   0.223
 6183SOL     OW19447   1.807   2.027   1.486
 6183SOL    HW119448   1.778   2.081   1.407
 6183SOL    HW219449   1.860   1.948   1.456
 6184SOL     OW19450   2.571   0.495   6.645
 6184SOL    HW119451   2.566   0.577   6.703
 6184SOL    HW219452   2.654   0.500   6.589
 6185SOL     OW19453   2.895   4.003   5.847
 6185SOL    HW119454   2.939   3.918   5.818
 6185SOL    HW219455   2.812   3.981   5.899
 6186SOL     OW19456   6.840   1.829   1.814
 6186SOL    HW119457   6.761   1.865   1.765
 6186SOL    HW219458   6.810   1.772   1.890
 6187SOL     OW19459   4.819   2.755   4.876
 6187SOL    HW119460   4.808   2.830   4.810
 6187SOL    HW219461   4.886   2.690   4.841
 6188SOL     OW19462   1.535   1.550   5.318
 6188SOL    HW119463   1.545   1.612   5.241
 6188SOL    HW219464   1.550   1.456   5.288
 6189SOL     OW19465   4.103   5.588   2.335
 6189SOL    HW119466   4.109   5.506   2.392
 6189SOL    HW219467   4.167   5.656   2.369
 6190SOL     OW19468   6.473   3.796   5.770
 6190SOL    HW119469   6.528   3.877   5.749
 6190SOL    HW219470   6.393   3.824   5.824
 6191SOL     OW19471   2.220   2.899   5.542
 6191SOL    HW119472   2.302   2.862   5.585
 6191SOL    HW219473   2.189   2.836   5.470
 6192SOL     OW19474   2.166   1.749   6.228
 6192SOL    HW119475   2.186   1.828   6.286
 6192SOL    HW219476   2.238   1.681   6.239
 6193SOL     OW19477   5.075   5.421   0.484
 6193SOL    HW119478   5.086   5.393   0.389
 6193SOL    HW219479   5.087   5.520   0.492
 6194SOL     OW19480   6.878   0.942   6.745
 6194SOL    HW119481   6.825   1.013   6.699
 6194SOL    HW219482   6.830   0.854   6.737
 6195SOL     OW19483   5.472   6.976   4.832
 6195SOL    HW119484   5.519   6.990   4.746
 6195SOL    HW219485   5.516   6.903   4.883
 6196SOL     OW19486   5.688   4.619   3.130
 6196SOL    HW119487   5.712   4.605   3.225
 6196SOL    HW219488   5.624   4.696   3.123
 6197SOL     OW19489   2.284   5.171   2.759
 6197SOL    HW119490   2.209   5.106   2.774
 6197SOL    HW219491   2.247   5.257   2.725
 6198SOL     OW19492   5.904   6.059   6.463
 6198SOL    HW119493   5.959   5.999   6.521
 6198SOL    HW219494   5.880   6.141   6.514
 6199SOL     OW19495   0.593   0.783   0.606
 6199SOL    HW119496   0.499   0.764   0.633
 6199SOL    HW219497   0.602   0.772   0.506
 6200SOL     OW19498   1.174   1.026   2.478
 6200SOL    HW119499   1.228   1.102   2.441
 6200SOL    HW219500   1.193   0.943   2.425
 6201SOL     OW19501   0.462   4.726   4.176
 6201SOL    HW119502   0.497   4.641   4.136
 6201SOL    HW219503   0.531   4.798   4.167
 6202SOL     OW19504   6.221   1.775   3.010
 6202SOL    HW119505   6.314   1.811   3.015
 6202SOL    HW219506   6.178   1.807   2.926
 6203SOL     OW19507   6.264   5.576   1.778
 6203SOL    HW119508   6.287   5.480   1.763
 6203SOL    HW219509   6.285   5.601   1.872
 6204SOL     OW19510   1.031   5.983   4.801
 6204SOL    HW119511   1.084   6.021   4.725
 6204SOL    HW219512   1.046   5.884   4.807
 6205SOL     OW19513   4.689   5.013   2.065
 6205SOL    HW119514   4.741   4.989   2.147
 6205SOL    HW219515   4.690   4.935   2.002
 6206SOL     OW19516   4.702   2.104   3.716
 6206SOL    HW119517   4.751   2.017   3.710
 6206SOL    HW219518   4.657   2.123   3.629
 6207SOL     OW19519   1.690   6.284   4.172
 6207SOL    HW119520   1.660   6.204   4.120
 6207SOL    HW219521   1.733   6.350   4.110
 6208SOL     OW19522   3.718   2.375   6.172
 6208SOL    HW119523   3.710   2.405   6.267
 6208SOL    HW219524   3.704   2.277   6.167
 6209SOL     OW19525   3.562   4.192   1.022
 6209SOL    HW119526   3.493   4.150   0.963
 6209SOL    HW219527   3.633   4.234   0.966
 6210SOL     OW19528   5.240   3.787   3.062
 6210SOL    HW119529   5.176   3.848   3.016
 6210SOL    HW219530   5.318   3.769   3.001
 6211SOL     OW19531   4.620   5.465   5.869
 6211SOL    HW119532   4.544   5.516   5.831
 6211SOL    HW219533   4.616   5.370   5.839
 6212SOL     OW19534   2.531   4.887   4.456
 6212SOL    HW119535   2.459   4.951   4.483
 6212SOL    HW219536   2.517   4.799   4.501
 6213SOL     OW19537   4.926   6.311   0.564
 6213SOL    HW119538   5.012   6.321   0.513
 6213SOL    HW219539   4.860   6.260   0.508
 6214SOL     OW19540   5.568   5.415   5.542
 6214SOL    HW119541   5.614   5.329   5.561
 6214SOL    HW219542   5.478   5.396   5.502
 6215SOL     OW19543   5.182   3.220   6.588
 6215SOL    HW119544   5.211   3.124   6.591
 6215SOL    HW219545   5.202   3.264   6.675
 6216SOL     OW19546   6.038   2.964   3.183
 6216SOL    HW119547   6.114   2.900   3.171
 6216SOL    HW219548   6.026   3.017   3.100
 6217SOL     OW19549   0.469   4.588   2.114
 6217SOL    HW119550   0.396   4.604   2.046
 6217SOL    HW219551   0.481   4.490   2.128
 6218SOL     OW19552   4.933   5.837   0.146
 6218SOL    HW119553   4.921   5.870   0.240
 6218SOL    HW219554   4.864   5.768   0.126
 6219SOL     OW19555   1.788   0.721   5.292
 6219SOL    HW119556   1.779   0.704   5.194
 6219SOL    HW219557   1.825   0.813   5.307
 6220SOL     OW19558   3.442   0.563   0.075
 6220SOL    HW119559   3.480   0.605   7.020
 6220SOL    HW219560   3.349   0.597   0.089
 6221SOL     OW19561   6.751   6.295   6.328
 6221SOL    HW119562   6.805   6.216   6.358
 6221SOL    HW219563   6.790   6.332   6.244
 6222SOL     OW19564   5.889   1.503   2.348
 6222SOL    HW119565   5.878   1.430   2.281
 6222SOL    HW219566   5.985   1.511   2.374
 6223SOL     OW19567   0.520   5.490   3.960
 6223SOL    HW119568   0.572   5.449   4.035
 6223SOL    HW219569   0.434   5.528   3.996
 6224SOL     OW19570   4.220   1.028   6.172
 6224SOL    HW119571   4.307   1.074   6.190
 6224SOL    HW219572   4.222   0.988   6.080
 6225SOL     OW19573   3.985   1.329   6.417
 6225SOL    HW119574   4.005   1.415   6.369
 6225SOL    HW219575   3.899   1.292   6.383
 6226SOL     OW19576   1.545   1.498   3.835
 6226SOL    HW119577   1.626   1.552   3.811
 6226SOL    HW219578   1.464   1.543   3.800
 6227SOL     OW19579   3.179   4.471   5.311
 6227SOL    HW119580   3.097   4.486   5.255
 6227SOL    HW219581   3.229   4.556   5.320
 6228SOL     OW19582   1.598   2.457   3.945
 6228SOL    HW119583   1.636   2.523   3.880
 6228SOL    HW219584   1.560   2.379   3.894
 6229SOL     OW19585   7.014   3.369   4.680
 6229SOL    HW119586   7.016   3.326   4.589
 6229SOL    HW219587   6.927   3.347   4.725
 6230SOL     OW19588   0.285   1.599   2.838
 6230SOL    HW119589   0.273   1.678   2.779
 6230SOL    HW219590   0.200   1.546   2.841
 6231SOL     OW19591   5.580   4.252   0.284
 6231SOL    HW119592   5.569   4.184   0.357
 6231SOL    HW219593   5.590   4.205   0.197
 6232SOL     OW19594   5.937   0.502   0.578
 6232SOL    HW119595   5.912   0.407   0.598
 6232SOL    HW219596   5.865   0.545   0.522
 6233SOL     OW19597   0.537   3.335   1.743
 6233SOL    HW119598   0.476   3.257   1.755
 6233SOL    HW219599   0.624   3.304   1.704
 6234SOL     OW19600   0.170   0.061   4.435
 6234SOL    HW119601   0.141   7.011   4.380
 6234SOL    HW219602   0.125   0.144   4.402
 6235SOL     OW19603   0.057   0.625   2.015
 6235SOL    HW119604   0.053   0.534   2.056
 6235SOL    HW219605   6.997   0.648   1.974
 6236SOL     OW19606   0.451   3.812   0.502
 6236SOL    HW119607   0.494   3.730   0.463
 6236SOL    HW219608   0.418   3.870   0.428
 6237SOL     OW19609   3.795   6.902   0.589
 6237SOL    HW119610   3.769   6.963   0.514
 6237SOL    HW219611   3.734   6.918   0.667
 6238SOL     OW19612   3.194   6.405   3.438
 6238SOL    HW119613   3.244   6.475   3.388
 6238SOL    HW219614   3.118   6.371   3.381
 6239SOL     OW19615   3.635   6.983   2.314
 6239SOL    HW119616   3.673   6.975   2.406
 6239SOL    HW219617   3.648   0.048   2.281
 6240SOL     OW19618   2.996   3.984   4.994
 6240SOL    HW119619   2.945   3.899   5.003
 6240SOL    HW219620   3.015   4.000   4.897
 6241SOL     OW19621   3.896   7.009   3.647
 6241SOL    HW119622   3.828   0.030   3.701
 6241SOL    HW219623   3.871   6.912   3.643
 6242SOL     OW19624   2.443   2.017   2.818
 6242SOL    HW119625   2.542   2.004   2.816
 6242SOL    HW219626   2.399   1.931   2.847
 6243SOL     OW19627   6.396   0.643   6.064
 6243SOL    HW119628   6.389   0.560   6.009
 6243SOL    HW219629   6.492   0.667   6.076
 6244SOL     OW19630   4.755   4.377   2.702
 6244SOL    HW119631   4.734   4.371   2.605
 6244SOL    HW219632   4.759   4.285   2.741
 6245SOL     OW19633   0.639   4.600   2.477
 6245SOL    HW119634   0.553   4.548   2.471
 6245SOL    HW219635   0.619   4.698   2.480
 6246SOL     OW19636   1.413   6.994   4.604
 6246SOL    HW119637   1.366   6.995   4.515
 6246SOL    HW219638   1.436   6.900   4.628
 6247SOL     OW19639   6.840   5.272   3.784
 6247SOL    HW119640   6.905   5.200   3.808
 6247SOL    HW219641   6.816   5.324   3.865
 6248SOL     OW19642   4.313   3.103   6.661
 6248SOL    HW119643   4.308   3.119   6.562
 6248SOL    HW219644   4.380   3.167   6.701
 6249SOL     OW19645   6.950   2.985   1.421
 6249SOL    HW119646   6.883   3.026   1.360
 6249SOL    HW219647   6.959   2.888   1.399
 6250SOL     OW19648   0.128   0.120   0.824
 6250SOL    HW119649   0.152   0.138   0.729
 6250SOL    HW219650   0.174   0.037   0.856
 6251SOL     OW19651   3.409   6.760   4.604
 6251SOL    HW119652   3.364   6.716   4.682
 6251SOL    HW219653   3.393   6.858   4.608
 6252SOL     OW19654   2.975   5.182   6.793
 6252SOL    HW119655   3.021   5.098   6.821
 6252SOL    HW219656   2.880   5.162   6.769
 6253SOL     OW19657   3.178   4.867   4.578
 6253SOL    HW119658   3.136   4.834   4.493
 6253SOL    HW219659   3.132   4.950   4.608
 6254SOL     OW19660   0.394   5.673   0.997
 6254SOL    HW119661   0.485   5.662   0.957
 6254SOL    HW219662   0.325   5.669   0.925
 6255SOL     OW19663   2.061   2.042   0.943
 6255SOL    HW119664   1.982   2.059   0.885
 6255SOL    HW219665   2.133   2.108   0.921
 6256SOL     OW19666   5.113   5.961   2.462
 6256SOL    HW119667   5.173   5.889   2.498
 6256SOL    HW219668   5.020   5.926   2.456
 6257SOL     OW19669   4.308   3.752   0.757
 6257SOL    HW119670   4.322   3.782   0.663
 6257SOL    HW219671   4.213   3.723   0.769
 6258SOL     OW19672   4.007   6.886   6.342
 6258SOL    HW119673   4.025   6.802   6.291
 6258SOL    HW219674   4.051   6.963   6.295
 6259SOL     OW19675   1.788   6.980   5.625
 6259SOL    HW119676   1.796   6.881   5.610
 6259SOL    HW219677   1.843   7.028   5.557
 6260SOL     OW19678   1.539   0.618   0.482
 6260SOL    HW119679   1.472   0.590   0.414
 6260SOL    HW219680   1.577   0.707   0.457
 6261SOL     OW19681   4.692   0.152   1.526
 6261SOL    HW119682   4.701   0.114   1.618
 6261SOL    HW219683   4.753   0.230   1.516
 6262SOL     OW19684   6.757   6.066   2.747
 6262SOL    HW119685   6.785   6.129   2.820
 6262SOL    HW219686   6.660   6.044   2.759
 6263SOL     OW19687   6.780   6.634   4.123
 6263SOL    HW119688   6.778   6.583   4.038
 6263SOL    HW219689   6.733   6.583   4.195
 6264SOL     OW19690   0.534   0.009   1.365
 6264SOL    HW119691   0.511   7.010   1.272
 6264SOL    HW219692   0.535   6.956   1.425
 6265SOL     OW19693   3.534   3.081   0.894
 6265SOL    HW119694   3.542   3.176   0.866
 6265SOL    HW219695   3.585   3.066   0.979
 6266SOL     OW19696   3.394   5.822   3.111
 6266SOL    HW119697   3.306   5.775   3.110
 6266SOL    HW219698   3.426   5.838   3.018
 6267SOL     OW19699   1.131   6.025   5.273
 6267SOL    HW119700   1.126   6.055   5.178
 6267SOL    HW219701   1.121   6.104   5.334
 6268SOL     OW19702   3.919   0.560   1.788
 6268SOL    HW119703   3.834   0.537   1.837
 6268SOL    HW219704   3.937   0.488   1.720
 6269SOL     OW19705   5.489   6.463   1.564
 6269SOL    HW119706   5.518   6.497   1.654
 6269SOL    HW219707   5.568   6.452   1.505
 6270SOL     OW19708   1.090   6.512   0.221
 6270SOL    HW119709   0.991   6.520   0.232
 6270SOL    HW219710   1.121   6.426   0.261
 6271SOL     OW19711   5.924   2.869   7.023
 6271SOL    HW119712   5.978   2.822   6.953
 6271SOL    HW219713   5.961   2.961   0.008
 6272SOL     OW19714   6.837   0.548   6.650
 6272SOL    HW119715   6.849   0.565   6.552
 6272SOL    HW219716   6.752   0.592   6.681
 6273SOL     OW19717   0.241   6.775   2.427
 6273SOL    HW119718   0.311   6.791   2.496
 6273SOL    HW219719   0.254   6.839   2.351
 6274SOL     OW19720   3.226   6.564   5.024
 6274SOL    HW119721   3.239   6.469   4.995
 6274SOL    HW219722   3.237   6.625   4.945
 6275SOL     OW19723   2.637   6.421   0.609
 6275SOL    HW119724   2.648   6.331   0.649
 6275SOL    HW219725   2.638   6.414   0.509
 6276SOL     OW19726   3.307   5.500   3.194
 6276SOL    HW119727   3.377   5.431   3.176
 6276SOL    HW219728   3.306   5.566   3.119
 6277SOL     OW19729   4.954   1.906   1.688
 6277SOL    HW119730   5.010   1.835   1.731
 6277SOL    HW219731   4.997   1.995   1.703
 6278SOL     OW19732   3.393   0.015   5.769
 6278SOL    HW119733   3.388   6.950   5.733
 6278SOL    HW219734   3.475   0.026   5.824
 6279SOL     OW19735   3.141   5.331   0.832
 6279SOL    HW119736   3.224   5.387   0.827
 6279SOL    HW219737   3.128   5.284   0.745
 6280SOL     OW19738   6.345   1.887   6.631
 6280SOL    HW119739   6.249   1.914   6.630
 6280SOL    HW219740   6.387   1.917   6.717
 6281SOL     OW19741   6.310   3.943   4.154
 6281SOL    HW119742   6.241   3.901   4.214
 6281SOL    HW219743   6.364   4.009   4.207
 6282SOL     OW19744   0.000   4.064   5.878
 6282SOL    HW119745   6.931   4.047   5.860
 6282SOL    HW219746   0.046   4.085   5.791
 6283SOL     OW19747   0.767   5.948   5.287
 6283SOL    HW119748   0.851   5.963   5.338
 6283SOL    HW219749   0.762   6.011   5.210
 6284SOL     OW19750   1.696   4.565   6.900
 6284SOL    HW119751   1.639   4.618   6.964
 6284SOL    HW219752   1.722   4.622   6.823
 6285SOL     OW19753   1.761   3.884   3.066
 6285SOL    HW119754   1.855   3.879   3.033
 6285SOL    HW219755   1.716   3.795   3.053
 6286SOL     OW19756   0.420   3.572   4.822
 6286SOL    HW119757   0.405   3.544   4.917
 6286SOL    HW219758   0.333   3.568   4.773
 6287SOL     OW19759   4.277   4.644   5.355
 6287SOL    HW119760   4.279   4.580   5.279
 6287SOL    HW219761   4.210   4.615   5.422
 6288SOL     OW19762   4.174   3.493   6.738
 6288SOL    HW119763   4.090   3.445   6.711
 6288SOL    HW219764   4.182   3.492   6.838
 6289SOL     OW19765   2.410   4.167   6.707
 6289SOL    HW119766   2.389   4.134   6.615
 6289SOL    HW219767   2.468   4.249   6.701
 6290SOL     OW19768   6.174   5.241   6.287
 6290SOL    HW119769   6.185   5.251   6.386
 6290SOL    HW219770   6.261   5.256   6.242
 6291SOL     OW19771   3.227   3.480   2.982
 6291SOL    HW119772   3.230   3.396   3.037
 6291SOL    HW219773   3.252   3.458   2.888
 6292SOL     OW19774   2.034   2.364   4.243
 6292SOL    HW119775   1.994   2.452   4.267
 6292SOL    HW219776   2.109   2.377   4.178
 6293SOL     OW19777   5.088   1.339   0.302
 6293SOL    HW119778   5.181   1.370   0.282
 6293SOL    HW219779   5.085   1.297   0.393
 6294SOL     OW19780   3.665   0.726   3.889
 6294SOL    HW119781   3.731   0.662   3.929
 6294SOL    HW219782   3.654   0.804   3.950
 6295SOL     OW19783   5.358   5.129   4.809
 6295SOL    HW119784   5.316   5.100   4.723
 6295SOL    HW219785   5.377   5.049   4.866
 6296SOL     OW19786   0.586   3.414   6.076
 6296SOL    HW119787   0.500   3.418   6.125
 6296SOL    HW219788   0.662   3.418   6.141
 6297SOL     OW19789   6.106   0.254   4.500
 6297SOL    HW119790   6.058   0.298   4.424
 6297SOL    HW219791   6.203   0.246   4.478
 6298SOL     OW19792   5.664   4.051   6.998
 6298SOL    HW119793   5.597   4.019   0.037
 6298SOL    HW219794   5.757   4.036   0.005
 6299SOL     OW19795   5.075   2.475   2.876
 6299SOL    HW119796   5.075   2.479   2.976
 6299SOL    HW219797   5.092   2.567   2.840
 6300SOL     OW19798   4.236   1.248   6.481
 6300SOL    HW119799   4.211   1.155   6.504
 6300SOL    HW219800   4.157   1.296   6.442
 6301SOL     OW19801   3.442   6.413   6.851
 6301SOL    HW119802   3.348   6.428   6.882
 6301SOL    HW219803   3.447   6.324   6.805
 6302SOL     OW19804   2.380   1.669   5.464
 6302SOL    HW119805   2.440   1.620   5.401
 6302SOL    HW219806   2.433   1.705   5.541
 6303SOL     OW19807   1.250   6.277   5.651
 6303SOL    HW119808   1.290   6.186   5.658
 6303SOL    HW219809   1.322   6.343   5.628
 6304SOL     OW19810   4.293   0.734   3.424
 6304SOL    HW119811   4.289   0.717   3.325
 6304SOL    HW219812   4.216   0.688   3.468
 6305SOL     OW19813   6.632   5.632   5.715
 6305SOL    HW119814   6.559   5.700   5.711
 6305SOL    HW219815   6.673   5.631   5.806
 6306SOL     OW19816   0.751   4.025   3.936
 6306SOL    HW119817   0.821   3.954   3.945
 6306SOL    HW219818   0.759   4.088   4.013
 6307SOL     OW19819   4.025   3.827   3.962
 6307SOL    HW119820   3.959   3.891   4.000
 6307SOL    HW219821   4.103   3.818   4.025
 6308SOL     OW19822   0.388   2.300   5.617
 6308SOL    HW119823   0.329   2.333   5.691
 6308SOL    HW219824   0.333   2.287   5.534
 6309SOL     OW19825   0.878   6.849   4.255
 6309SOL    HW119826   0.927   6.845   4.168
 6309SOL    HW219827   0.834   6.761   4.272
 6310SOL     OW19828   1.548   6.886   3.363
 6310SOL    HW119829   1.639   6.884   3.323
 6310SOL    HW219830   1.499   6.968   3.330
 6311SOL     OW19831   5.137   0.870   6.534
 6311SOL    HW119832   5.201   0.900   6.605
 6311SOL    HW219833   5.187   0.853   6.449
 6312SOL     OW19834   2.914   6.805   6.772
 6312SOL    HW119835   2.814   6.801   6.771
 6312SOL    HW219836   2.951   6.712   6.773
 6313SOL     OW19837   5.353   6.186   3.426
 6313SOL    HW119838   5.304   6.272   3.413
 6313SOL    HW219839   5.294   6.109   3.402
 6314SOL     OW19840   2.859   0.298   1.614
 6314SOL    HW119841   2.928   0.285   1.544
 6314SOL    HW219842   2.900   0.342   1.694
 6315SOL     OW19843   1.658   2.556   4.188
 6315SOL    HW119844   1.632   2.505   4.107
 6315SOL    HW219845   1.747   2.598   4.175
 6316SOL     OW19846   4.877   1.973   5.617
 6316SOL    HW119847   4.859   1.894   5.558
 6316SOL    HW219848   4.942   2.034   5.571
 6317SOL     OW19849   5.088   4.477   2.205
 6317SOL    HW119850   5.185   4.453   2.210
 6317SOL    HW219851   5.055   4.498   2.297
 6318SOL     OW19852   6.537   0.149   6.723
 6318SOL    HW119853   6.611   0.201   6.680
 6318SOL    HW219854   6.449   0.189   6.697
 6319SOL     OW19855   5.600   2.761   5.126
 6319SOL    HW119856   5.512   2.740   5.084
 6319SOL    HW219857   5.673   2.742   5.060
 6320SOL     OW19858   0.603   1.153   3.989
 6320SOL    HW119859   0.562   1.238   4.024
 6320SOL    HW219860   0.684   1.175   3.935
 6321SOL     OW19861   5.319   2.478   0.528
 6321SOL    HW119862   5.395   2.426   0.488
 6321SOL    HW219863   5.242   2.415   0.546
 6322SOL     OW19864   2.062   1.260   0.634
 6322SOL    HW119865   2.024   1.331   0.693
 6322SOL    HW219866   2.050   1.171   0.677
 6323SOL     OW19867   2.757   2.857   1.241
 6323SOL    HW119868   2.852   2.834   1.220
 6323SOL    HW219869   2.704   2.773   1.254
 6324SOL     OW19870   4.793   1.444   0.799
 6324SOL    HW119871   4.716   1.470   0.857
 6324SOL    HW219872   4.875   1.492   0.828
 6325SOL     OW19873   1.393   2.312   2.195
 6325SOL    HW119874   1.382   2.366   2.112
 6325SOL    HW219875   1.490   2.289   2.207
 6326SOL     OW19876   4.637   4.882   6.019
 6326SOL    HW119877   4.585   4.947   6.073
 6326SOL    HW219878   4.710   4.929   5.969
 6327SOL     OW19879   0.260   1.981   3.751
 6327SOL    HW119880   0.299   1.997   3.660
 6327SOL    HW219881   0.203   2.059   3.777
 6328SOL     OW19882   4.541   3.728   5.892
 6328SOL    HW119883   4.565   3.633   5.912
 6328SOL    HW219884   4.485   3.764   5.967
 6329SOL     OW19885   1.046   2.747   5.176
 6329SOL    HW119886   1.075   2.676   5.112
 6329SOL    HW219887   1.054   2.712   5.269
 6330SOL     OW19888   5.992   1.167   3.201
 6330SOL    HW119889   5.950   1.122   3.279
 6330SOL    HW219890   6.010   1.263   3.224
 6331SOL     OW19891   6.577   3.091   4.633
 6331SOL    HW119892   6.494   3.059   4.588
 6331SOL    HW219893   6.573   3.191   4.643
 6332SOL     OW19894   1.764   1.687   1.495
 6332SOL    HW119895   1.855   1.721   1.469
 6332SOL    HW219896   1.772   1.594   1.531
 6333SOL     OW19897   4.730   6.877   0.527
 6333SOL    HW119898   4.723   6.976   0.536
 6333SOL    HW219899   4.657   6.844   0.467
 6334SOL     OW19900   2.738   1.673   2.119
 6334SOL    HW119901   2.788   1.760   2.122
 6334SOL    HW219902   2.799   1.599   2.150
 6335SOL     OW19903   5.188   0.770   0.971
 6335SOL    HW119904   5.223   0.692   1.023
 6335SOL    HW219905   5.095   0.791   0.999
 6336SOL     OW19906   0.077   4.564   5.928
 6336SOL    HW119907   0.069   4.658   5.895
 6336SOL    HW219908   0.163   4.524   5.896
 6337SOL     OW19909   4.318   5.882   5.035
 6337SOL    HW119910   4.347   5.958   4.977
 6337SOL    HW219911   4.293   5.804   4.978
 6338SOL     OW19912   3.334   2.134   4.223
 6338SOL    HW119913   3.429   2.147   4.195
 6338SOL    HW219914   3.274   2.152   4.145
 6339SOL     OW19915   0.643   3.675   2.392
 6339SOL    HW119916   0.613   3.767   2.416
 6339SOL    HW219917   0.738   3.662   2.422
 6340SOL     OW19918   2.570   3.989   1.306
 6340SOL    HW119919   2.583   3.935   1.389
 6340SOL    HW219920   2.493   4.052   1.319
 6341SOL     OW19921   1.489   4.192   3.653
 6341SOL    HW119922   1.516   4.223   3.562
 6341SOL    HW219923   1.400   4.145   3.648
 6342SOL     OW19924   2.060   0.951   1.986
 6342SOL    HW119925   2.039   0.937   2.083
 6342SOL    HW219926   2.016   1.035   1.954
 6343SOL     OW19927   3.598   6.123   0.054
 6343SOL    HW119928   3.507   6.162   0.069
 6343SOL    HW219929   3.606   6.092   6.987
 6344SOL     OW19930   5.806   2.644   3.975
 6344SOL    HW119931   5.832   2.553   3.943
 6344SOL    HW219932   5.835   2.713   3.909
 6345SOL     OW19933   5.017   3.327   1.915
 6345SOL    HW119934   4.944   3.359   1.855
 6345SOL    HW219935   4.981   3.316   2.008
 6346SOL     OW19936   0.224   4.153   5.742
 6346SOL    HW119937   0.201   4.101   5.660
 6346SOL    HW219938   0.323   4.164   5.748
 6347SOL     OW19939   2.591   2.356   2.404
 6347SOL    HW119940   2.577   2.377   2.307
 6347SOL    HW219941   2.528   2.410   2.460
 6348SOL     OW19942   0.272   1.764   5.750
 6348SOL    HW119943   0.197   1.698   5.748
 6348SOL    HW219944   0.351   1.723   5.796
 6349SOL     OW19945   1.227   0.214   0.038
 6349SOL    HW119946   1.276   0.176   6.987
 6349SOL    HW219947   1.188   0.139   0.091
 6350SOL     OW19948   0.911   4.823   2.607
 6350SOL    HW119949   0.944   4.736   2.570
 6350SOL    HW219950   0.915   4.820   2.707
 6351SOL     OW19951   6.604   3.709   3.238
 6351SOL    HW119952   6.611   3.667   3.328
 6351SOL    HW219953   6.675   3.673   3.178
 6352SOL     OW19954   2.510   0.884   4.107
 6352SOL    HW119955   2.551   0.839   4.186
 6352SOL    HW219956   2.497   0.818   4.033
 6353SOL     OW19957   2.744   5.467   6.930
 6353SOL    HW119958   2.753   5.368   6.920
 6353SOL    HW219959   2.651   5.489   6.961
 6354SOL     OW19960   4.876   5.149   2.796
 6354SOL    HW119961   4.777   5.159   2.791
 6354SOL    HW219962   4.902   5.116   2.887
 6355SOL     OW19963   2.383   4.997   0.365
 6355SOL    HW119964   2.350   4.975   0.457
 6355SOL    HW219965   2.469   5.047   0.371
 6356SOL     OW19966   5.132   4.972   6.617
 6356SOL    HW119967   5.159   4.881   6.650
 6356SOL    HW219968   5.040   4.993   6.650
 6357SOL     OW19969   5.862   2.147   1.215
 6357SOL    HW119970   5.859   2.049   1.195
 6357SOL    HW219971   5.956   2.176   1.227
 6358SOL     OW19972   0.695   1.581   6.514
 6358SOL    HW119973   0.682   1.581   6.415
 6358SOL    HW219974   0.651   1.500   6.553
 6359SOL     OW19975   6.019   6.806   0.928
 6359SOL    HW119976   5.950   6.734   0.917
 6359SOL    HW219977   6.109   6.770   0.904
 6360SOL     OW19978   6.850   2.723   3.905
 6360SOL    HW119979   6.755   2.719   3.872
 6360SOL    HW219980   6.901   2.645   3.869
 6361SOL     OW19981   0.024   0.765   0.124
 6361SOL    HW119982   0.004   0.773   0.222
 6361SOL    HW219983   0.051   0.854   0.088
 6362SOL     OW19984   1.121   5.840   6.411
 6362SOL    HW119985   1.151   5.821   6.317
 6362SOL    HW219986   1.043   5.902   6.409
 6363SOL     OW19987   2.717   5.043   3.595
 6363SOL    HW119988   2.695   5.102   3.673
 6363SOL    HW219989   2.736   5.100   3.515
 6364SOL     OW19990   2.449   2.653   4.760
 6364SOL    HW119991   2.391   2.645   4.841
 6364SOL    HW219992   2.512   2.574   4.757
 6365SOL     OW19993   6.204   5.703   4.707
 6365SOL    HW119994   6.189   5.789   4.756
 6365SOL    HW219995   6.158   5.706   4.619
 6366SOL     OW19996   5.600   6.714   4.895
 6366SOL    HW119997   5.528   6.645   4.902
 6366SOL    HW219998   5.665   6.702   4.970
 6367SOL     OW19999   3.022   1.999   2.870
 6367SOL    HW120000   2.930   2.004   2.832
 6367SOL    HW220001   3.084   2.057   2.817
 6368SOL     OW20002   4.674   4.240   3.800
 6368SOL    HW120003   4.708   4.173   3.733
 6368SOL    HW220004   4.673   4.199   3.891
 6369SOL     OW20005   3.188   6.247   5.907
 6369SOL    HW120006   3.277   6.220   5.944
 6369SOL    HW220007   3.135   6.165   5.884
 6370SOL     OW20008   5.142   3.889   3.320
 6370SOL    HW120009   5.230   3.910   3.364
 6370SOL    HW220010   5.159   3.845   3.232
 6371SOL     OW20011   5.403   3.976   1.889
 6371SOL    HW120012   5.314   3.932   1.890
 6371SOL    HW220013   5.428   3.999   1.795
 6372SOL     OW20014   0.152   1.288   2.729
 6372SOL    HW120015   0.215   1.251   2.797
 6372SOL    HW220016   0.146   1.225   2.652
 6373SOL     OW20017   5.715   4.280   1.339
 6373SOL    HW120018   5.672   4.371   1.344
 6373SOL    HW220019   5.701   4.233   1.426
 6374SOL     OW20020   4.954   3.107   0.030
 6374SOL    HW120021   4.952   3.109   6.958
 6374SOL    HW220022   5.035   3.156   0.062
 6375SOL     OW20023   0.159   2.744   2.198
 6375SOL    HW120024   0.202   2.783   2.116
 6375SOL    HW220025   0.167   2.810   2.273
 6376SOL     OW20026   4.614   0.593   5.490
 6376SOL    HW120027   4.583   0.664   5.554
 6376SOL    HW220028   4.713   0.583   5.498
 6377SOL     OW20029   6.869   0.582   0.079
 6377SOL    HW120030   6.909   0.490   0.074
 6377SOL    HW220031   6.941   0.648   0.101
 6378SOL     OW20032   5.237   5.763   2.593
 6378SOL    HW120033   5.262   5.787   2.687
 6378SOL    HW220034   5.158   5.702   2.594
 6379SOL     OW20035   2.124   5.401   6.087
 6379SOL    HW120036   2.217   5.435   6.071
 6379SOL    HW220037   2.122   5.352   6.174
 6380SOL     OW20038   0.432   3.463   5.079
 6380SOL    HW120039   0.469   3.460   5.172
 6380SOL    HW220040   0.472   3.389   5.025
 6381SOL     OW20041   3.984   3.267   0.585
 6381SOL    HW120042   3.923   3.188   0.594
 6381SOL    HW220043   4.079   3.237   0.587
 6382SOL     OW20044   2.710   1.751   1.173
 6382SOL    HW120045   2.747   1.778   1.261
 6382SOL    HW220046   2.785   1.725   1.112
 6383SOL     OW20047   1.980   2.798   2.716
 6383SOL    HW120048   2.057   2.858   2.696
 6383SOL    HW220049   1.913   2.848   2.771
 6384SOL     OW20050   6.189   2.629   1.992
 6384SOL    HW120051   6.107   2.572   1.995
 6384SOL    HW220052   6.174   2.707   1.931
 6385SOL     OW20053   7.005   3.551   1.014
 6385SOL    HW120054   6.958   3.635   0.987
 6385SOL    HW220055   0.001   3.555   1.110
 6386SOL     OW20056   2.034   3.750   0.471
 6386SOL    HW120057   1.939   3.742   0.440
 6386SOL    HW220058   2.047   3.838   0.517
 6387SOL     OW20059   6.072   0.960   0.181
 6387SOL    HW120060   5.997   0.905   0.145
 6387SOL    HW220061   6.083   1.042   0.125
 6388SOL     OW20062   6.555   5.191   2.958
 6388SOL    HW120063   6.635   5.167   3.014
 6388SOL    HW220064   6.574   5.169   2.863
 6389SOL     OW20065   1.734   6.835   0.129
 6389SOL    HW120066   1.749   6.759   0.191
 6389SOL    HW220067   1.687   6.804   0.047
 6390SOL     OW20068   5.733   0.592   0.380
 6390SOL    HW120069   5.751   0.690   0.392
 6390SOL    HW220070   5.652   0.581   0.323
 6391SOL     OW20071   0.980   1.135   5.583
 6391SOL    HW120072   1.058   1.195   5.603
 6391SOL    HW220073   0.942   1.158   5.494
 6392SOL     OW20074   3.740   5.637   3.389
 6392SOL    HW120075   3.771   5.555   3.341
 6392SOL    HW220076   3.764   5.631   3.485
 6393SOL     OW20077   5.528   6.924   1.905
 6393SOL    HW120078   5.494   6.863   1.977
 6393SOL    HW220079   5.484   6.902   1.818
 6394SOL     OW20080   0.879   4.623   0.912
 6394SOL    HW120081   0.944   4.566   0.861
 6394SOL    HW220082   0.796   4.635   0.858
 6395SOL     OW20083   0.424   3.918   2.912
 6395SOL    HW120084   0.499   3.966   2.959
 6395SOL    HW220085   0.462   3.846   2.854
 6396SOL     OW20086   6.506   3.512   0.047
 6396SOL    HW120087   6.456   3.541   0.129
 6396SOL    HW220088   6.441   3.496   7.001
 6397SOL     OW20089   6.174   2.417   2.840
 6397SOL    HW120090   6.222   2.376   2.763
 6397SOL    HW220091   6.238   2.436   2.914
 6398SOL     OW20092   1.073   6.033   1.530
 6398SOL    HW120093   1.042   5.990   1.614
 6398SOL    HW220094   1.099   5.963   1.464
 6399SOL     OW20095   2.151   0.022   6.644
 6399SOL    HW120096   2.198   0.023   6.556
 6399SOL    HW220097   2.193   6.980   6.703
 6400SOL     OW20098   1.449   6.065   3.268
 6400SOL    HW120099   1.493   6.013   3.195
 6400SOL    HW220100   1.418   6.153   3.231
 6401SOL     OW20101   4.426   5.057   2.803
 6401SOL    HW120102   4.469   5.003   2.875
 6401SOL    HW220103   4.404   4.998   2.725
 6402SOL     OW20104   1.891   4.389   3.809
 6402SOL    HW120105   1.838   4.467   3.775
 6402SOL    HW220106   1.956   4.421   3.878
 6403SOL     OW20107   5.522   6.386   5.167
 6403SOL    HW120108   5.491   6.424   5.254
 6403SOL    HW220109   5.488   6.442   5.092
 6404SOL     OW20110   3.735   0.978   2.607
 6404SOL    HW120111   3.820   0.941   2.644
 6404SOL    HW220112   3.689   1.033   2.676
 6405SOL     OW20113   5.411   1.115   3.271
 6405SOL    HW120114   5.449   1.190   3.217
 6405SOL    HW220115   5.446   1.028   3.237
 6406SOL     OW20116   1.044   2.554   2.793
 6406SOL    HW120117   1.085   2.619   2.857
 6406SOL    HW220118   1.017   2.601   2.709
 6407SOL     OW20119   2.095   6.475   3.546
 6407SOL    HW120120   2.014   6.498   3.491
 6407SOL    HW220121   2.096   6.377   3.565
 6408SOL     OW20122   6.772   0.445   0.862
 6408SOL    HW120123   6.742   0.538   0.843
 6408SOL    HW220124   6.707   0.401   0.923
 6409SOL     OW20125   6.458   4.961   4.025
 6409SOL    HW120126   6.550   4.983   4.056
 6409SOL    HW220127   6.392   5.016   4.076
 6410SOL     OW20128   2.558   1.265   5.449
 6410SOL    HW120129   2.566   1.296   5.354
 6410SOL    HW220130   2.573   1.167   5.454
 6411SOL     OW20131   0.163   3.275   1.951
 6411SOL    HW120132   0.237   3.339   1.933
 6411SOL    HW220133   0.117   3.252   1.865
 6412SOL     OW20134   3.397   0.606   6.572
 6412SOL    HW120135   3.357   0.600   6.481
 6412SOL    HW220136   3.325   0.622   6.639
 6413SOL     OW20137   4.240   4.843   4.362
 6413SOL    HW120138   4.160   4.803   4.317
 6413SOL    HW220139   4.319   4.784   4.347
 6414SOL     OW20140   0.691   6.767   6.911
 6414SOL    HW120141   0.644   6.779   6.824
 6414SOL    HW220142   0.683   6.851   6.965
 6415SOL     OW20143   1.397   3.475   2.969
 6415SOL    HW120144   1.359   3.438   3.053
 6415SOL    HW220145   1.496   3.486   2.978
 6416SOL     OW20146   3.063   6.869   6.548
 6416SOL    HW120147   3.149   6.830   6.517
 6416SOL    HW220148   3.046   6.842   6.642
 6417SOL     OW20149   4.835   1.872   0.782
 6417SOL    HW120150   4.761   1.874   0.714
 6417SOL    HW220151   4.799   1.897   0.872
 6418SOL     OW20152   4.289   4.842   1.427
 6418SOL    HW120153   4.275   4.747   1.399
 6418SOL    HW220154   4.300   4.846   1.526
 6419SOL     OW20155   0.990   6.161   6.746
 6419SOL    HW120156   0.899   6.188   6.716
 6419SOL    HW220157   1.010   6.204   6.834
 6420SOL     OW20158   1.611   3.353   4.145
 6420SOL    HW120159   1.573   3.431   4.095
 6420SOL    HW220160   1.541   3.313   4.203
 6421SOL     OW20161   5.426   0.005   1.424
 6421SOL    HW120162   5.500   0.046   1.477
 6421SOL    HW220163   5.423   6.935   1.442
 6422SOL     OW20164   0.252   2.616   5.387
 6422SOL    HW120165   0.154   2.597   5.390
 6422SOL    HW220166   0.300   2.534   5.358
 6423SOL     OW20167   2.820   5.960   4.323
 6423SOL    HW120168   2.762   5.900   4.269
 6423SOL    HW220169   2.914   5.958   4.287
 6424SOL     OW20170   0.342   3.123   4.766
 6424SOL    HW120171   0.351   3.107   4.668
 6424SOL    HW220172   0.421   3.084   4.814
 6425SOL     OW20173   0.042   5.525   3.163
 6425SOL    HW120174   0.035   5.447   3.102
 6425SOL    HW220175   0.106   5.504   3.237
 6426SOL     OW20176   4.494   4.548   4.773
 6426SOL    HW120177   4.434   4.620   4.738
 6426SOL    HW220178   4.450   4.503   4.851
 6427SOL     OW20179   3.304   3.687   3.136
 6427SOL    HW120180   3.280   3.608   3.078
 6427SOL    HW220181   3.222   3.739   3.157
 6428SOL     OW20182   4.964   2.369   0.388
 6428SOL    HW120183   5.022   2.355   0.468
 6428SOL    HW220184   4.883   2.422   0.414
 6429SOL     OW20185   1.899   0.786   5.049
 6429SOL    HW120186   1.847   0.858   5.095
 6429SOL    HW220187   1.875   0.784   4.952
 6430SOL     OW20188   0.178   0.766   5.136
 6430SOL    HW120189   0.126   0.683   5.155
 6430SOL    HW220190   0.171   0.788   5.038
 6431SOL     OW20191   4.969   5.815   2.895
 6431SOL    HW120192   4.911   5.863   2.829
 6431SOL    HW220193   4.916   5.793   2.976
 6432SOL     OW20194   3.428   3.696   6.474
 6432SOL    HW120195   3.405   3.781   6.521
 6432SOL    HW220196   3.345   3.654   6.438
 6433SOL     OW20197   3.133   5.765   6.928
 6433SOL    HW120198   3.083   5.852   6.935
 6433SOL    HW220199   3.212   5.777   6.869
 6434SOL     OW20200   3.171   6.232   6.262
 6434SOL    HW120201   3.179   6.312   6.204
 6434SOL    HW220202   3.078   6.225   6.298
 6435SOL     OW20203   5.451   6.885   6.910
 6435SOL    HW120204   5.429   6.980   6.929
 6435SOL    HW220205   5.402   6.855   6.828
 6436SOL     OW20206   1.040   4.260   3.701
 6436SOL    HW120207   1.076   4.324   3.770
 6436SOL    HW220208   0.943   4.278   3.687
 6437SOL     OW20209   0.864   1.178   5.306
 6437SOL    HW120210   0.795   1.245   5.280
 6437SOL    HW220211   0.924   1.158   5.228
 6438SOL     OW20212   0.610   5.606   6.784
 6438SOL    HW120213   0.668   5.568   6.856
 6438SOL    HW220214   0.526   5.552   6.777
 6439SOL     OW20215   6.373   1.108   4.200
 6439SOL    HW120216   6.438   1.070   4.266
 6439SOL    HW220217   6.422   1.141   4.120
 6440SOL     OW20218   2.013   0.311   6.325
 6440SOL    HW120219   1.942   0.242   6.341
 6440SOL    HW220220   2.053   0.296   6.235
 6441SOL     OW20221   0.455   0.469   3.525
 6441SOL    HW120222   0.486   0.462   3.431
 6441SOL    HW220223   0.451   0.565   3.552
 6442SOL     OW20224   2.297   2.075   4.931
 6442SOL    HW120225   2.298   1.976   4.920
 6442SOL    HW220226   2.391   2.110   4.930
 6443SOL     OW20227   3.906   1.996   0.787
 6443SOL    HW120228   3.981   1.968   0.846
 6443SOL    HW220229   3.933   2.076   0.733
 6444SOL     OW20230   6.959   2.510   5.317
 6444SOL    HW120231   6.955   2.583   5.249
 6444SOL    HW220232   6.870   2.466   5.324
 6445SOL     OW20233   3.385   3.331   3.613
 6445SOL    HW120234   3.415   3.250   3.663
 6445SOL    HW220235   3.465   3.385   3.587
 6446SOL     OW20236   1.842   1.807   6.243
 6446SOL    HW120237   1.881   1.898   6.254
 6446SOL    HW220238   1.902   1.740   6.286
 6447SOL     OW20239   6.512   4.621   1.191
 6447SOL    HW120240   6.469   4.567   1.119
 6447SOL    HW220241   6.499   4.577   1.279
 6448SOL     OW20242   4.559   5.376   1.839
 6448SOL    HW120243   4.460   5.371   1.847
 6448SOL    HW220244   4.591   5.310   1.771
 6449SOL     OW20245   2.569   5.881   1.391
 6449SOL    HW120246   2.514   5.946   1.443
 6449SOL    HW220247   2.640   5.842   1.450
 6450SOL     OW20248   0.740   4.005   1.121
 6450SOL    HW120249   0.762   3.942   1.046
 6450SOL    HW220250   0.651   3.982   1.159
 6451SOL     OW20251   3.595   1.931   0.110
 6451SOL    HW120252   3.554   2.021   0.099
 6451SOL    HW220253   3.669   1.936   0.178
 6452SOL     OW20254   5.509   3.689   3.004
 6452SOL    HW120255   5.447   3.627   2.958
 6452SOL    HW220256   5.603   3.669   2.976
 6453SOL     OW20257   3.700   0.263   1.054
 6453SOL    HW120258   3.678   0.346   1.106
 6453SOL    HW220259   3.757   0.204   1.111
 6454SOL     OW20260   6.867   2.021   2.861
 6454SOL    HW120261   6.860   2.016   2.961
 6454SOL    HW220262   6.861   1.928   2.823
 6455SOL     OW20263   6.773   4.518   3.102
 6455SOL    HW120264   6.840   4.591   3.085
 6455SOL    HW220265   6.741   4.524   3.196
 6456SOL     OW20266   0.460   1.344   2.645
 6456SOL    HW120267   0.362   1.361   2.652
 6456SOL    HW220268   0.475   1.250   2.614
 6457SOL     OW20269   4.962   6.880   1.507
 6457SOL    HW120270   4.931   6.792   1.543
 6457SOL    HW220271   4.981   6.942   1.583
 6458SOL     OW20272   1.281   4.789   4.486
 6458SOL    HW120273   1.330   4.704   4.507
 6458SOL    HW220274   1.189   4.785   4.526
 6459SOL     OW20275   5.871   2.706   3.270
 6459SOL    HW120276   5.876   2.699   3.369
 6459SOL    HW220277   5.910   2.794   3.241
 6460SOL     OW20278   6.745   5.346   5.077
 6460SOL    HW120279   6.673   5.415   5.067
 6460SOL    HW220280   6.704   5.261   5.112
 6461SOL     OW20281   3.141   4.567   0.939
 6461SOL    HW120282   3.048   4.534   0.925
 6461SOL    HW220283   3.150   4.604   1.031
 6462SOL     OW20284   1.894   3.548   4.456
 6462SOL    HW120285   1.835   3.483   4.502
 6462SOL    HW220286   1.859   3.641   4.469
 6463SOL     OW20287   4.941   0.804   1.040
 6463SOL    HW120288   4.897   0.741   0.976
 6463SOL    HW220289   4.901   0.895   1.030
 6464SOL     OW20290   1.108   6.383   4.711
 6464SOL    HW120291   1.166   6.312   4.671
 6464SOL    HW220292   1.060   6.432   4.638
 6465SOL     OW20293   5.816   2.705   2.088
 6465SOL    HW120294   5.868   2.626   2.056
 6465SOL    HW220295   5.745   2.675   2.152
 6466SOL     OW20296   6.869   3.103   6.389
 6466SOL    HW120297   6.889   3.143   6.479
 6466SOL    HW220298   6.816   3.168   6.335
 6467SOL     OW20299   3.178   0.759   0.669
 6467SOL    HW120300   3.273   0.778   0.645
 6467SOL    HW220301   3.118   0.818   0.616
 6468SOL     OW20302   4.047   6.413   0.341
 6468SOL    HW120303   4.092   6.503   0.342
 6468SOL    HW220304   4.065   6.368   0.254
 6469SOL     OW20305   3.169   2.191   3.976
 6469SOL    HW120306   3.090   2.170   4.034
 6469SOL    HW220307   3.139   2.246   3.898
 6470SOL     OW20308   6.784   2.601   0.175
 6470SOL    HW120309   6.798   2.574   0.080
 6470SOL    HW220310   6.695   2.567   0.206
 6471SOL     OW20311   0.412   6.431   5.079
 6471SOL    HW120312   0.399   6.357   5.144
 6471SOL    HW220313   0.332   6.492   5.080
 6472SOL     OW20314   6.875   6.489   2.620
 6472SOL    HW120315   6.853   6.415   2.556
 6472SOL    HW220316   6.830   6.471   2.708
 6473SOL     OW20317   1.822   1.490   4.304
 6473SOL    HW120318   1.819   1.391   4.289
 6473SOL    HW220319   1.903   1.528   4.259
 6474SOL     OW20320   4.418   4.836   5.255
 6474SOL    HW120321   4.374   4.922   5.229
 6474SOL    HW220322   4.356   4.782   5.312
 6475SOL     OW20323   5.702   5.375   3.297
 6475SOL    HW120324   5.794   5.364   3.260
 6475SOL    HW220325   5.638   5.318   3.244
 6476SOL     OW20326   3.962   2.296   6.879
 6476SOL    HW120327   3.983   2.393   6.877
 6476SOL    HW220328   3.863   2.283   6.885
 6477SOL     OW20329   0.099   5.898   1.117
 6477SOL    HW120330   0.172   5.955   1.079
 6477SOL    HW220331   0.014   5.951   1.120
 6478SOL     OW20332   2.727   6.104   1.592
 6478SOL    HW120333   2.771   6.025   1.636
 6478SOL    HW220334   2.651   6.073   1.535
 6479SOL     OW20335   3.628   6.010   4.111
 6479SOL    HW120336   3.540   6.054   4.094
 6479SOL    HW220337   3.681   6.008   4.026
 6480SOL     OW20338   2.361   0.850   6.417
 6480SOL    HW120339   2.387   0.941   6.384
 6480SOL    HW220340   2.284   0.815   6.362
 6481SOL     OW20341   3.071   2.266   1.679
 6481SOL    HW120342   3.017   2.312   1.749
 6481SOL    HW220343   3.164   2.252   1.713
 6482SOL     OW20344   6.859   2.512   5.652
 6482SOL    HW120345   6.799   2.472   5.722
 6482SOL    HW220346   6.888   2.603   5.680
 6483SOL     OW20347   1.262   5.614   4.322
 6483SOL    HW120348   1.315   5.686   4.276
 6483SOL    HW220349   1.218   5.556   4.254
 6484SOL     OW20350   3.155   1.265   2.995
 6484SOL    HW120351   3.156   1.221   3.085
 6484SOL    HW220352   3.123   1.359   3.004
 6485SOL     OW20353   2.308   6.588   4.989
 6485SOL    HW120354   2.403   6.614   4.975
 6485SOL    HW220355   2.257   6.601   4.903
 6486SOL     OW20356   0.913   4.867   2.896
 6486SOL    HW120357   0.881   4.815   2.976
 6486SOL    HW220358   0.954   4.953   2.926
 6487SOL     OW20359   1.186   5.239   4.564
 6487SOL    HW120360   1.262   5.204   4.618
 6487SOL    HW220361   1.165   5.332   4.593
 6488SOL     OW20362   4.800   5.431   4.681
 6488SOL    HW120363   4.857   5.366   4.632
 6488SOL    HW220364   4.837   5.523   4.671
 6489SOL     OW20365   3.804   2.920   6.469
 6489SOL    HW120366   3.845   2.879   6.388
 6489SOL    HW220367   3.732   2.984   6.441
 6490SOL     OW20368   1.515   1.610   6.568
 6490SOL    HW120369   1.513   1.645   6.661
 6490SOL    HW220370   1.575   1.667   6.512
 6491SOL     OW20371   2.066   0.161   0.852
 6491SOL    HW120372   1.967   0.164   0.869
 6491SOL    HW220373   2.092   0.234   0.790
 6492SOL     OW20374   3.438   4.090   4.380
 6492SOL    HW120375   3.451   4.105   4.478
 6492SOL    HW220376   3.519   4.121   4.331
 6493SOL     OW20377   1.708   4.475   6.155
 6493SOL    HW120378   1.699   4.395   6.214
 6493SOL    HW220379   1.792   4.467   6.101
 6494SOL     OW20380   5.802   6.544   2.370
 6494SOL    HW120381   5.707   6.514   2.372
 6494SOL    HW220382   5.846   6.521   2.457
 6495SOL     OW20383   6.613   0.072   4.450
 6495SOL    HW120384   6.576   0.047   4.361
 6495SOL    HW220385   6.713   0.061   4.448
 6496SOL     OW20386   4.766   6.443   1.879
 6496SOL    HW120387   4.864   6.429   1.863
 6496SOL    HW220388   4.726   6.359   1.915
 6497SOL     OW20389   0.187   1.732   1.098
 6497SOL    HW120390   0.115   1.783   1.145
 6497SOL    HW220391   0.234   1.672   1.163
 6498SOL     OW20392   0.930   4.754   4.615
 6498SOL    HW120393   0.940   4.699   4.532
 6498SOL    HW220394   0.978   4.710   4.690
 6499SOL     OW20395   5.470   4.043   4.048
 6499SOL    HW120396   5.466   4.141   4.067
 6499SOL    HW220397   5.555   4.022   4.001
 6500SOL     OW20398   0.502   3.539   1.927
 6500SOL    HW120399   0.530   3.630   1.897
 6500SOL    HW220400   0.541   3.470   1.865
 6501SOL     OW20401   6.970   1.581   0.784
 6501SOL    HW120402   6.914   1.640   0.727
 6501SOL    HW220403   7.028   1.523   0.725
 6502SOL     OW20404   6.381   3.520   1.374
 6502SOL    HW120405   6.300   3.490   1.323
 6502SOL    HW220406   6.378   3.619   1.386
 6503SOL     OW20407   6.615   2.733   5.967
 6503SOL    HW120408   6.706   2.772   5.981
 6503SOL    HW220409   6.612   2.684   5.880
 6504SOL     OW20410   4.777   6.414   6.407
 6504SOL    HW120411   4.867   6.455   6.422
 6504SOL    HW220412   4.724   6.472   6.344
 6505SOL     OW20413   6.050   6.194   0.287
 6505SOL    HW120414   6.064   6.101   0.252
 6505SOL    HW220415   5.964   6.198   0.337
 6506SOL     OW20416   6.899   3.342   3.569
 6506SOL    HW120417   6.833   3.270   3.545
 6506SOL    HW220418   6.850   3.421   3.605
 6507SOL     OW20419   3.574   5.596   6.445
 6507SOL    HW120420   3.582   5.501   6.473
 6507SOL    HW220421   3.484   5.631   6.470
 6508SOL     OW20422   1.330   6.744   2.168
 6508SOL    HW120423   1.386   6.693   2.234
 6508SOL    HW220424   1.332   6.696   2.079
 6509SOL     OW20425   3.744   1.442   5.330
 6509SOL    HW120426   3.755   1.540   5.313
 6509SOL    HW220427   3.818   1.410   5.390
 6510SOL     OW20428   4.527   5.948   5.842
 6510SOL    HW120429   4.567   5.879   5.782
 6510SOL    HW220430   4.555   5.931   5.936
 6511SOL     OW20431   4.307   1.401   5.528
 6511SOL    HW120432   4.398   1.405   5.569
 6511SOL    HW220433   4.238   1.397   5.600
 6512SOL     OW20434   2.997   0.190   2.327
 6512SOL    HW120435   3.000   0.173   2.229
 6512SOL    HW220436   3.002   0.288   2.345
 6513SOL     OW20437   2.809   5.890   4.661
 6513SOL    HW120438   2.890   5.910   4.607
 6513SOL    HW220439   2.728   5.893   4.603
 6514SOL     OW20440   6.034   0.630   5.519
 6514SOL    HW120441   6.004   0.535   5.531
 6514SOL    HW220442   6.029   0.656   5.423
 6515SOL     OW20443   2.022   4.737   2.211
 6515SOL    HW120444   2.071   4.650   2.218
 6515SOL    HW220445   1.923   4.718   2.209
 6516SOL     OW20446   6.948   3.362   2.081
 6516SOL    HW120447   0.011   3.333   2.050
 6516SOL    HW220448   6.884   3.360   2.004
 6517SOL     OW20449   6.526   1.906   0.344
 6517SOL    HW120450   6.538   1.822   0.397
 6517SOL    HW220451   6.433   1.940   0.355
 6518SOL     OW20452   6.921   0.721   2.362
 6518SOL    HW120453   6.842   0.767   2.322
 6518SOL    HW220454   7.005   0.769   2.334
 6519SOL     OW20455   0.539   1.035   2.924
 6519SOL    HW120456   0.580   1.094   2.993
 6519SOL    HW220457   0.567   1.065   2.833
 6520SOL     OW20458   6.801   5.701   6.863
 6520SOL    HW120459   6.787   5.780   6.804
 6520SOL    HW220460   6.749   5.713   6.948
 6521SOL     OW20461   1.578   3.400   3.159
 6521SOL    HW120462   1.573   3.362   3.251
 6521SOL    HW220463   1.548   3.495   3.160
 6522SOL     OW20464   2.938   4.144   5.601
 6522SOL    HW120465   2.842   4.169   5.592
 6522SOL    HW220466   2.952   4.096   5.688
 6523SOL     OW20467   5.373   0.093   0.013
 6523SOL    HW120468   5.444   0.137   6.985
 6523SOL    HW220469   5.296   0.067   6.982
 6524SOL     OW20470   2.706   2.482   1.764
 6524SOL    HW120471   2.798   2.488   1.805
 6524SOL    HW220472   2.687   2.388   1.738
 6525SOL     OW20473   1.730   5.334   3.973
 6525SOL    HW120474   1.720   5.238   3.947
 6525SOL    HW220475   1.762   5.386   3.894
 6526SOL     OW20476   0.009   0.285   1.288
 6526SOL    HW120477   6.967   0.341   1.244
 6526SOL    HW220478   7.026   0.189   1.261
 6527SOL     OW20479   0.405   2.631   0.476
 6527SOL    HW120480   0.430   2.536   0.458
 6527SOL    HW220481   0.487   2.686   0.487
 6528SOL     OW20482   6.360   1.542   6.187
 6528SOL    HW120483   6.297   1.576   6.257
 6528SOL    HW220484   6.362   1.442   6.189
 6529SOL     OW20485   0.626   1.108   2.341
 6529SOL    HW120486   0.720   1.144   2.342
 6529SOL    HW220487   0.562   1.183   2.356
 6530SOL     OW20488   0.370   2.577   2.113
 6530SOL    HW120489   0.322   2.655   2.153
 6530SOL    HW220490   0.460   2.568   2.155
 6531SOL     OW20491   3.892   3.258   5.619
 6531SOL    HW120492   3.920   3.187   5.555
 6531SOL    HW220493   3.970   3.314   5.644
 6532SOL     OW20494   1.787   1.175   0.479
 6532SOL    HW120495   1.818   1.080   0.488
 6532SOL    HW220496   1.807   1.224   0.564
 6533SOL     OW20497   4.674   5.573   0.324
 6533SOL    HW120498   4.718   5.610   0.405
 6533SOL    HW220499   4.575   5.570   0.338
 6534SOL     OW20500   5.335   4.943   1.884
 6534SOL    HW120501   5.343   5.037   1.851
 6534SOL    HW220502   5.392   4.931   1.965
 6535SOL     OW20503   5.842   4.011   4.661
 6535SOL    HW120504   5.759   4.041   4.709
 6535SOL    HW220505   5.895   4.091   4.633
 6536SOL     OW20506   0.646   2.209   4.730
 6536SOL    HW120507   0.725   2.208   4.669
 6536SOL    HW220508   0.565   2.177   4.681
 6537SOL     OW20509   6.038   4.762   4.931
 6537SOL    HW120510   6.041   4.844   4.987
 6537SOL    HW220511   6.094   4.690   4.973
 6538SOL     OW20512   2.057   3.545   5.587
 6538SOL    HW120513   1.991   3.580   5.521
 6538SOL    HW220514   2.030   3.453   5.615
 6539SOL     OW20515   5.477   0.768   6.905
 6539SOL    HW120516   5.443   0.850   6.952
 6539SOL    HW220517   5.519   0.706   6.972
 6540SOL     OW20518   2.998   2.651   5.965
 6540SOL    HW120519   3.042   2.657   5.875
 6540SOL    HW220520   2.900   2.667   5.955
 6541SOL     OW20521   5.474   2.552   6.022
 6541SOL    HW120522   5.542   2.621   6.047
 6541SOL    HW220523   5.437   2.574   5.932
 6542SOL     OW20524   1.198   3.925   4.670
 6542SOL    HW120525   1.144   3.846   4.640
 6542SOL    HW220526   1.282   3.893   4.714
 6543SOL     OW20527   3.406   2.192   5.230
 6543SOL    HW120528   3.419   2.220   5.325
 6543SOL    HW220529   3.327   2.240   5.192
 6544SOL     OW20530   0.302   6.945   2.220
 6544SOL    HW120531   0.377   7.001   2.253
 6544SOL    HW220532   0.218   7.000   2.216
 6545SOL     OW20533   4.305   6.859   1.022
 6545SOL    HW120534   4.362   6.931   1.062
 6545SOL    HW220535   4.256   6.811   1.094
 6546SOL     OW20536   4.130   4.599   6.827
 6546SOL    HW120537   4.086   4.649   6.754
 6546SOL    HW220538   4.171   4.663   6.892
 6547SOL     OW20539   5.300   6.879   6.035
 6547SOL    HW120540   5.303   6.948   6.108
 6547SOL    HW220541   5.391   6.840   6.024
 6548SOL     OW20542   0.798   2.624   6.369
 6548SOL    HW120543   0.878   2.684   6.359
 6548SOL    HW220544   0.724   2.657   6.310
 6549SOL     OW20545   4.795   0.022   1.782
 6549SOL    HW120546   4.756   6.958   1.790
 6549SOL    HW220547   4.895   0.015   1.780
 6550SOL     OW20548   6.511   0.603   3.466
 6550SOL    HW120549   6.571   0.666   3.516
 6550SOL    HW220550   6.546   0.510   3.474
 6551SOL     OW20551   2.821   3.412   1.664
 6551SOL    HW120552   2.731   3.418   1.707
 6551SOL    HW220553   2.810   3.406   1.565
 6552SOL     OW20554   2.138   6.576   0.884
 6552SOL    HW120555   2.220   6.571   0.827
 6552SOL    HW220556   2.063   6.526   0.841
 6553SOL     OW20557   0.562   1.573   2.865
 6553SOL    HW120558   0.464   1.588   2.850
 6553SOL    HW220559   0.608   1.567   2.777
 6554SOL     OW20560   2.691   1.007   5.198
 6554SOL    HW120561   2.736   1.062   5.269
 6554SOL    HW220562   2.760   0.965   5.140
 6555SOL     OW20563   6.268   2.120   4.303
 6555SOL    HW120564   6.194   2.054   4.299
 6555SOL    HW220565   6.237   2.203   4.349
 6556SOL     OW20566   6.361   3.427   2.603
 6556SOL    HW120567   6.300   3.362   2.649
 6556SOL    HW220568   6.422   3.469   2.670
 6557SOL     OW20569   2.001   0.050   2.683
 6557SOL    HW120570   2.051   0.109   2.619
 6557SOL    HW220571   2.007   0.089   2.775
 6558SOL     OW20572   5.672   5.046   7.014
 6558SOL    HW120573   5.603   4.976   6.995
 6558SOL    HW220574   5.723   5.065   6.930
 6559SOL     OW20575   6.990   3.437   6.771
 6559SOL    HW120576   0.017   3.445   6.688
 6559SOL    HW220577   6.933   3.519   6.782
 6560SOL     OW20578   3.965   4.689   0.458
 6560SOL    HW120579   3.958   4.752   0.535
 6560SOL    HW220580   3.900   4.715   0.387
 6561SOL     OW20581   4.149   4.955   0.786
 6561SOL    HW120582   4.151   5.053   0.764
 6561SOL    HW220583   4.066   4.915   0.748
 6562SOL     OW20584   5.490   2.814   1.216
 6562SOL    HW120585   5.547   2.732   1.221
 6562SOL    HW220586   5.397   2.792   1.246
 6563SOL     OW20587   4.920   0.421   6.177
 6563SOL    HW120588   4.832   0.450   6.215
 6563SOL    HW220589   4.916   0.424   6.077
 6564SOL     OW20590   6.224   4.073   1.999
 6564SOL    HW120591   6.167   4.089   2.080
 6564SOL    HW220592   6.292   4.003   2.019
 6565SOL     OW20593   6.121   6.873   2.942
 6565SOL    HW120594   6.072   6.922   3.014
 6565SOL    HW220595   6.160   6.789   2.979
 6566SOL     OW20596   2.937   5.733   2.430
 6566SOL    HW120597   2.894   5.806   2.483
 6566SOL    HW220598   2.909   5.740   2.335
 6567SOL     OW20599   3.934   0.824   1.699
 6567SOL    HW120600   3.932   0.894   1.770
 6567SOL    HW220601   3.912   0.735   1.738
 6568SOL     OW20602   4.739   1.406   2.725
 6568SOL    HW120603   4.709   1.422   2.631
 6568SOL    HW220604   4.836   1.382   2.725
 6569SOL     OW20605   0.616   2.883   6.259
 6569SOL    HW120606   0.663   2.923   6.338
 6569SOL    HW220607   0.640   2.935   6.177
 6570SOL     OW20608   3.969   0.867   2.694
 6570SOL    HW120609   4.024   0.816   2.627
 6570SOL    HW220610   3.973   0.821   2.782
 6571SOL     OW20611   2.522   5.074   3.382
 6571SOL    HW120612   2.500   5.092   3.478
 6571SOL    HW220613   2.487   5.149   3.326
 6572SOL     OW20614   0.870   4.393   4.397
 6572SOL    HW120615   0.952   4.447   4.412
 6572SOL    HW220616   0.894   4.308   4.351
 6573SOL     OW20617   1.614   0.995   3.410
 6573SOL    HW120618   1.547   1.049   3.359
 6573SOL    HW220619   1.672   1.056   3.464
 6574SOL     OW20620   2.736   6.608   3.601
 6574SOL    HW120621   2.733   6.704   3.629
 6574SOL    HW220622   2.808   6.596   3.532
 6575SOL     OW20623   0.046   6.997   2.732
 6575SOL    HW120624   0.131   6.967   2.776
 6575SOL    HW220625   0.019   6.931   2.662
 6576SOL     OW20626   3.491   4.984   0.246
 6576SOL    HW120627   3.553   4.977   0.168
 6576SOL    HW220628   3.538   4.956   0.329
 6577SOL     OW20629   1.884   2.796   3.271
 6577SOL    HW120630   1.943   2.731   3.319
 6577SOL    HW220631   1.869   2.876   3.329
 6578SOL     OW20632   1.112   6.114   1.882
 6578SOL    HW120633   1.127   6.197   1.829
 6578SOL    HW220634   1.079   6.041   1.822
 6579SOL     OW20635   0.296   1.776   4.200
 6579SOL    HW120636   0.308   1.862   4.151
 6579SOL    HW220637   0.203   1.769   4.234
 6580SOL     OW20638   1.130   0.816   0.823
 6580SOL    HW120639   1.047   0.783   0.779
 6580SOL    HW220640   1.209   0.792   0.767
 6581SOL     OW20641   1.336   1.111   0.489
 6581SOL    HW120642   1.399   1.033   0.495
 6581SOL    HW220643   1.330   1.142   0.394
 6582SOL     OW20644   7.026   0.497   2.589
 6582SOL    HW120645   0.042   0.408   2.576
 6582SOL    HW220646   6.929   0.490   2.566
 6583SOL     OW20647   5.026   6.559   5.393
 6583SOL    HW120648   4.937   6.537   5.433
 6583SOL    HW220649   5.049   6.655   5.412
 6584SOL     OW20650   3.730   2.765   0.811
 6584SOL    HW120651   3.811   2.719   0.774
 6584SOL    HW220652   3.694   2.828   0.743
 6585SOL     OW20653   0.111   6.542   0.215
 6585SOL    HW120654   0.090   6.565   0.310
 6585SOL    HW220655   0.075   6.451   0.194
 6586SOL     OW20656   6.258   2.148   6.100
 6586SOL    HW120657   6.210   2.108   6.178
 6586SOL    HW220658   6.270   2.078   6.029
 6587SOL     OW20659   1.619   4.589   5.794
 6587SOL    HW120660   1.533   4.564   5.748
 6587SOL    HW220661   1.599   4.651   5.870
 6588SOL     OW20662   0.821   3.092   0.515
 6588SOL    HW120663   0.903   3.054   0.473
 6588SOL    HW220664   0.740   3.050   0.475
 6589SOL     OW20665   5.520   0.819   1.913
 6589SOL    HW120666   5.460   0.860   1.844
 6589SOL    HW220667   5.465   0.768   1.979
 6590SOL     OW20668   0.778   0.156   5.332
 6590SOL    HW120669   0.722   0.214   5.391
 6590SOL    HW220670   0.722   0.118   5.259
 6591SOL     OW20671   5.198   5.701   4.067
 6591SOL    HW120672   5.179   5.603   4.076
 6591SOL    HW220673   5.145   5.737   3.990
 6592SOL     OW20674   5.130   0.309   2.759
 6592SOL    HW120675   5.206   0.305   2.693
 6592SOL    HW220676   5.121   0.402   2.794
 6593SOL     OW20677   2.816   2.229   2.301
 6593SOL    HW120678   2.748   2.275   2.359
 6593SOL    HW220679   2.846   2.292   2.229
 6594SOL     OW20680   3.345   1.842   5.913
 6594SOL    HW120681   3.391   1.861   6.000
 6594SOL    HW220682   3.259   1.894   5.909
 6595SOL     OW20683   1.093   3.048   4.819
 6595SOL    HW120684   1.138   2.976   4.765
 6595SOL    HW220685   1.090   3.020   4.915
 6596SOL     OW20686   4.331   5.832   2.967
 6596SOL    HW120687   4.305   5.832   2.871
 6596SOL    HW220688   4.321   5.924   3.005
 6597SOL     OW20689   1.325   5.245   1.737
 6597SOL    HW120690   1.362   5.153   1.752
 6597SOL    HW220691   1.244   5.258   1.795
 6598SOL     OW20692   2.034   4.269   3.344
 6598SOL    HW120693   2.073   4.336   3.281
 6598SOL    HW220694   2.107   4.220   3.390
 6599SOL     OW20695   5.569   5.736   6.729
 6599SOL    HW120696   5.615   5.823   6.749
 6599SOL    HW220697   5.475   5.740   6.760
 6600SOL     OW20698   4.321   7.014   4.848
 6600SOL    HW120699   4.408   7.024   4.897
 6600SOL    HW220700   4.269   6.938   4.887
 6601SOL     OW20701   0.666   2.837   3.010
 6601SOL    HW120702   0.723   2.805   3.086
 6601SOL    HW220703   0.652   2.935   3.018
 6602SOL     OW20704   2.641   0.202   1.443
 6602SOL    HW120705   2.713   0.235   1.504
 6602SOL    HW220706   2.678   0.130   1.384
 6603SOL     OW20707   0.647   3.102   3.492
 6603SOL    HW120708   0.579   3.046   3.538
 6603SOL    HW220709   0.602   3.179   3.448
 6604SOL     OW20710   2.103   0.423   1.420
 6604SOL    HW120711   2.008   0.447   1.399
 6604SOL    HW220712   2.124   0.333   1.382
 6605SOL     OW20713   5.765   5.712   1.922
 6605SOL    HW120714   5.754   5.810   1.934
 6605SOL    HW220715   5.709   5.681   1.845
 6606SOL     OW20716   0.155   3.993   3.072
 6606SOL    HW120717   0.241   4.041   3.088
 6606SOL    HW220718   0.174   3.901   3.037
 6607SOL     OW20719   6.256   4.722   4.057
 6607SOL    HW120720   6.318   4.647   4.032
 6607SOL    HW220721   6.309   4.797   4.096
 6608SOL     OW20722   6.721   0.284   0.591
 6608SOL    HW120723   6.758   0.324   0.675
 6608SOL    HW220724   6.686   0.357   0.532
 6609SOL     OW20725   4.889   0.866   6.342
 6609SOL    HW120726   4.934   0.806   6.275
 6609SOL    HW220727   4.946   0.872   6.424
 6610SOL     OW20728   2.804   5.939   0.146
 6610SOL    HW120729   2.804   6.033   0.182
 6610SOL    HW220730   2.728   5.889   0.187
 6611SOL     OW20731   5.058   2.754   3.663
 6611SOL    HW120732   5.114   2.823   3.709
 6611SOL    HW220733   5.016   2.695   3.731
 6612SOL     OW20734   6.636   2.377   6.199
 6612SOL    HW120735   6.582   2.296   6.177
 6612SOL    HW220736   6.577   2.458   6.192
 6613SOL     OW20737   5.690   6.778   6.453
 6613SOL    HW120738   5.787   6.765   6.473
 6613SOL    HW220739   5.673   6.873   6.426
 6614SOL     OW20740   4.740   6.577   1.098
 6614SOL    HW120741   4.705   6.550   1.009
 6614SOL    HW220742   4.704   6.666   1.124
 6615SOL     OW20743   1.847   5.391   0.479
 6615SOL    HW120744   1.776   5.335   0.521
 6615SOL    HW220745   1.896   5.336   0.410
 6616SOL     OW20746   4.262   6.678   5.752
 6616SOL    HW120747   4.245   6.773   5.777
 6616SOL    HW220748   4.197   6.650   5.682
 6617SOL     OW20749   3.924   6.823   3.427
 6617SOL    HW120750   3.854   6.800   3.359
 6617SOL    HW220751   3.895   6.791   3.517
 6618SOL     OW20752   0.549   1.303   2.965
 6618SOL    HW120753   0.453   1.274   2.963
 6618SOL    HW220754   0.557   1.395   2.925
 6619SOL     OW20755   4.528   6.821   3.776
 6619SOL    HW120756   4.434   6.788   3.761
 6619SOL    HW220757   4.583   6.747   3.815
 6620SOL     OW20758   1.996   3.541   3.735
 6620SOL    HW120759   2.047   3.456   3.725
 6620SOL    HW220760   1.898   3.521   3.734
 6621SOL     OW20761   3.843   3.111   5.089
 6621SOL    HW120762   3.788   3.029   5.077
 6621SOL    HW220763   3.859   3.154   4.999
 6622SOL     OW20764   6.013   6.009   1.222
 6622SOL    HW120765   5.967   6.079   1.276
 6622SOL    HW220766   6.110   6.007   1.246
 6623SOL     OW20767   3.754   4.101   4.967
 6623SOL    HW120768   3.667   4.140   4.998
 6623SOL    HW220769   3.765   4.010   5.006
 6624SOL     OW20770   0.726   3.234   5.547
 6624SOL    HW120771   0.785   3.164   5.586
 6624SOL    HW220772   0.741   3.320   5.594
 6625SOL     OW20773   6.135   2.317   5.587
 6625SOL    HW120774   6.080   2.392   5.624
 6625SOL    HW220775   6.183   2.271   5.661
 6626SOL     OW20776   3.467   0.222   5.476
 6626SOL    HW120777   3.466   0.127   5.447
 6626SOL    HW220778   3.546   0.269   5.436
 6627SOL     OW20779   1.797   6.494   4.021
 6627SOL    HW120780   1.799   6.429   3.946
 6627SOL    HW220781   1.887   6.535   4.033
 6628SOL     OW20782   5.373   5.390   3.824
 6628SOL    HW120783   5.429   5.461   3.781
 6628SOL    HW220784   5.409   5.370   3.915
 6629SOL     OW20785   4.578   4.883   6.505
 6629SOL    HW120786   4.494   4.935   6.494
 6629SOL    HW220787   4.657   4.943   6.489
 6630SOL     OW20788   3.840   1.753   1.753
 6630SOL    HW120789   3.840   1.786   1.847
 6630SOL    HW220790   3.920   1.695   1.738
 6631SOL     OW20791   2.422   5.235   4.720
 6631SOL    HW120792   2.469   5.255   4.806
 6631SOL    HW220793   2.323   5.246   4.732
 6632SOL     OW20794   1.557   1.203   0.892
 6632SOL    HW120795   1.510   1.126   0.849
 6632SOL    HW220796   1.490   1.263   0.934
 6633SOL     OW20797   3.180   4.731   5.958
 6633SOL    HW120798   3.208   4.694   6.046
 6633SOL    HW220799   3.134   4.659   5.905
 6634SOL     OW20800   4.807   2.400   5.073
 6634SOL    HW120801   4.887   2.433   5.123
 6634SOL    HW220802   4.726   2.409   5.131
 6635SOL     OW20803   4.783   4.120   2.782
 6635SOL    HW120804   4.826   4.063   2.712
 6635SOL    HW220805   4.723   4.063   2.838
 6636SOL     OW20806   3.119   0.729   2.416
 6636SOL    HW120807   3.205   0.778   2.406
 6636SOL    HW220808   3.047   0.779   2.367
 6637SOL     OW20809   2.757   0.455   0.445
 6637SOL    HW120810   2.707   0.419   0.366
 6637SOL    HW220811   2.800   0.542   0.419
 6638SOL     OW20812   3.099   3.502   3.320
 6638SOL    HW120813   3.182   3.549   3.289
 6638SOL    HW220814   3.020   3.561   3.308
 6639SOL     OW20815   3.849   3.113   6.708
 6639SOL    HW120816   3.769   3.152   6.753
 6639SOL    HW220817   3.824   3.076   6.619
 6640SOL     OW20818   6.698   2.297   5.591
 6640SOL    HW120819   6.753   2.380   5.590
 6640SOL    HW220820   6.757   2.217   5.591
 6641SOL     OW20821   3.563   1.750   0.474
 6641SOL    HW120822   3.470   1.766   0.441
 6641SOL    HW220823   3.583   1.811   0.551
 6642SOL     OW20824   2.431   5.144   6.693
 6642SOL    HW120825   2.431   5.069   6.759
 6642SOL    HW220826   2.443   5.107   6.601
 6643SOL     OW20827   6.668   6.721   0.837
 6643SOL    HW120828   6.748   6.694   0.890
 6643SOL    HW220829   6.602   6.646   0.835
 6644SOL     OW20830   1.640   6.430   3.344
 6644SOL    HW120831   1.623   6.395   3.436
 6644SOL    HW220832   1.553   6.440   3.296
 6645SOL     OW20833   5.518   2.906   0.483
 6645SOL    HW120834   5.482   2.966   0.411
 6645SOL    HW220835   5.530   2.959   0.567
 6646SOL     OW20836   4.158   0.750   6.210
 6646SOL    HW120837   4.133   0.846   6.198
 6646SOL    HW220838   4.123   0.697   6.133
 6647SOL     OW20839   4.278   6.449   0.894
 6647SOL    HW120840   4.227   6.443   0.980
 6647SOL    HW220841   4.225   6.503   0.828
 6648SOL     OW20842   3.604   5.706   4.678
 6648SOL    HW120843   3.550   5.649   4.616
 6648SOL    HW220844   3.651   5.777   4.625
 6649SOL     OW20845   6.101   3.130   6.770
 6649SOL    HW120846   6.024   3.086   6.724
 6649SOL    HW220847   6.183   3.073   6.759
 6650SOL     OW20848   3.757   1.503   4.769
 6650SOL    HW120849   3.746   1.477   4.865
 6650SOL    HW220850   3.852   1.532   4.754
 6651SOL     OW20851   1.486   1.806   0.061
 6651SOL    HW120852   1.482   1.892   0.010
 6651SOL    HW220853   1.403   1.796   0.116
 6652SOL     OW20854   0.636   4.599   0.217
 6652SOL    HW120855   0.626   4.650   0.131
 6652SOL    HW220856   0.695   4.520   0.203
 6653SOL     OW20857   4.928   3.166   0.899
 6653SOL    HW120858   4.829   3.164   0.883
 6653SOL    HW220859   4.960   3.074   0.921
 6654SOL     OW20860   0.025   5.175   2.744
 6654SOL    HW120861   0.012   5.189   2.842
 6654SOL    HW220862   0.109   5.124   2.728
 6655SOL     OW20863   0.322   6.262   2.098
 6655SOL    HW120864   0.288   6.290   2.008
 6655SOL    HW220865   0.404   6.314   2.121
 6656SOL     OW20866   4.656   1.784   2.715
 6656SOL    HW120867   4.663   1.725   2.634
 6656SOL    HW220868   4.566   1.827   2.717
 6657SOL     OW20869   6.085   2.812   4.664
 6657SOL    HW120870   5.991   2.780   4.656
 6657SOL    HW220871   6.146   2.733   4.669
 6658SOL     OW20872   6.646   0.330   5.401
 6658SOL    HW120873   6.592   0.402   5.357
 6658SOL    HW220874   6.744   0.352   5.393
 6659SOL     OW20875   1.247   4.218   1.759
 6659SOL    HW120876   1.313   4.156   1.717
 6659SOL    HW220877   1.258   4.310   1.721
 6660SOL     OW20878   1.789   5.061   1.787
 6660SOL    HW120879   1.776   5.005   1.869
 6660SOL    HW220880   1.723   5.136   1.787
 6661SOL     OW20881   2.796   0.602   4.683
 6661SOL    HW120882   2.786   0.681   4.623
 6661SOL    HW220883   2.739   0.613   4.764
 6662SOL     OW20884   2.222   0.526   0.963
 6662SOL    HW120885   2.276   0.445   0.988
 6662SOL    HW220886   2.157   0.547   1.036
 6663SOL     OW20887   1.192   5.943   5.665
 6663SOL    HW120888   1.160   5.883   5.591
 6663SOL    HW220889   1.280   5.983   5.639
 6664SOL     OW20890   2.183   0.684   1.330
 6664SOL    HW120891   2.139   0.595   1.319
 6664SOL    HW220892   2.213   0.696   1.425
 6665SOL     OW20893   2.094   6.301   6.026
 6665SOL    HW120894   2.071   6.377   5.965
 6665SOL    HW220895   2.104   6.217   5.973
 6666SOL     OW20896   6.575   5.567   4.992
 6666SOL    HW120897   6.528   5.652   4.968
 6666SOL    HW220898   6.545   5.494   4.930
 6667SOL     OW20899   6.972   6.646   5.872
 6667SOL    HW120900   6.969   6.692   5.961
 6667SOL    HW220901   6.893   6.586   5.863
 6668SOL     OW20902   6.909   6.037   1.208
 6668SOL    HW120903   6.815   6.011   1.186
 6668SOL    HW220904   6.935   6.116   1.153
 6669SOL     OW20905   3.832   2.260   1.451
 6669SOL    HW120906   3.893   2.260   1.530
 6669SOL    HW220907   3.784   2.348   1.445
 6670SOL     OW20908   3.118   1.112   6.688
 6670SOL    HW120909   3.056   1.098   6.766
 6670SOL    HW220910   3.091   1.051   6.613
 6671SOL     OW20911   5.718   6.700   0.625
 6671SOL    HW120912   5.711   6.725   0.528
 6671SOL    HW220913   5.651   6.629   0.646
 6672SOL     OW20914   1.576   2.233   0.451
 6672SOL    HW120915   1.558   2.264   0.357
 6672SOL    HW220916   1.538   2.142   0.464
 6673SOL     OW20917   5.048   4.054   3.755
 6673SOL    HW120918   5.004   4.091   3.673
 6673SOL    HW220919   5.045   3.954   3.753
 6674SOL     OW20920   0.108   3.047   6.798
 6674SOL    HW120921   0.090   2.950   6.814
 6674SOL    HW220922   0.175   3.057   6.724
 6675SOL     OW20923   4.963   2.298   0.147
 6675SOL    HW120924   4.964   2.356   0.065
 6675SOL    HW220925   4.992   2.352   0.225
 6676SOL     OW20926   1.033   3.631   2.585
 6676SOL    HW120927   1.066   3.604   2.676
 6676SOL    HW220928   1.033   3.730   2.577
 6677SOL     OW20929   0.882   0.631   6.655
 6677SOL    HW120930   0.917   0.657   6.565
 6677SOL    HW220931   0.821   0.702   6.689
 6678SOL     OW20932   2.026   4.247   1.021
 6678SOL    HW120933   2.047   4.158   1.063
 6678SOL    HW220934   2.060   4.248   0.927
 6679SOL     OW20935   4.012   0.852   3.884
 6679SOL    HW120936   4.021   0.759   3.846
 6679SOL    HW220937   3.947   0.850   3.960
 6680SOL     OW20938   4.481   6.288   6.557
 6680SOL    HW120939   4.512   6.193   6.543
 6680SOL    HW220940   4.553   6.351   6.528
 6681SOL     OW20941   4.952   5.652   1.716
 6681SOL    HW120942   4.902   5.565   1.719
 6681SOL    HW220943   4.891   5.724   1.682
 6682SOL     OW20944   2.414   4.727   6.749
 6682SOL    HW120945   2.472   4.721   6.667
 6682SOL    HW220946   2.433   4.813   6.796
 6683SOL     OW20947   5.819   3.190   5.940
 6683SOL    HW120948   5.789   3.192   6.036
 6683SOL    HW220949   5.911   3.230   5.933
 6684SOL     OW20950   3.566   6.728   2.224
 6684SOL    HW120951   3.521   6.724   2.135
 6684SOL    HW220952   3.591   6.822   2.244
 6685SOL     OW20953   4.787   2.706   6.665
 6685SOL    HW120954   4.717   2.723   6.596
 6685SOL    HW220955   4.743   2.688   6.753
 6686SOL     OW20956   6.333   5.889   3.353
 6686SOL    HW120957   6.237   5.874   3.380
 6686SOL    HW220958   6.358   5.983   3.374
 6687SOL     OW20959   0.534   2.739   1.668
 6687SOL    HW120960   0.607   2.722   1.602
 6687SOL    HW220961   0.567   2.717   1.760
 6688SOL     OW20962   3.873   4.469   0.831
 6688SOL    HW120963   3.831   4.379   0.841
 6688SOL    HW220964   3.959   4.471   0.881
 6689SOL     OW20965   4.099   3.474   6.203
 6689SOL    HW120966   4.140   3.517   6.123
 6689SOL    HW220967   4.028   3.534   6.240
 6690SOL     OW20968   1.380   6.573   0.045
 6690SOL    HW120969   1.412   6.569   0.140
 6690SOL    HW220970   1.370   6.480   0.010
 6691SOL     OW20971   1.281   0.392   2.688
 6691SOL    HW120972   1.236   0.438   2.611
 6691SOL    HW220973   1.372   0.363   2.660
 6692SOL     OW20974   4.120   3.907   1.722
 6692SOL    HW120975   4.149   3.827   1.775
 6692SOL    HW220976   4.027   3.932   1.749
 6693SOL     OW20977   4.733   1.824   4.968
 6693SOL    HW120978   4.674   1.890   4.921
 6693SOL    HW220979   4.719   1.831   5.067
 6694SOL     OW20980   4.522   5.933   1.221
 6694SOL    HW120981   4.449   5.993   1.189
 6694SOL    HW220982   4.483   5.854   1.267
 6695SOL     OW20983   2.597   1.800   6.901
 6695SOL    HW120984   2.549   1.717   6.929
 6695SOL    HW220985   2.631   1.788   6.807
 6696SOL     OW20986   4.015   3.748   3.104
 6696SOL    HW120987   3.997   3.782   3.196
 6696SOL    HW220988   4.047   3.654   3.109
 6697SOL     OW20989   4.761   2.398   3.013
 6697SOL    HW120990   4.670   2.428   3.044
 6697SOL    HW220991   4.758   2.385   2.913
 6698SOL     OW20992   3.052   3.616   1.338
 6698SOL    HW120993   2.968   3.587   1.384
 6698SOL    HW220994   3.073   3.553   1.264
 6699SOL     OW20995   2.434   6.414   5.382
 6699SOL    HW120996   2.372   6.337   5.373
 6699SOL    HW220997   2.474   6.436   5.293
 6700SOL     OW20998   5.545   0.817   1.098
 6700SOL    HW120999   5.507   0.777   1.182
 6700SOL    HW221000   5.592   0.746   1.046
 6701SOL     OW21001   5.544   6.501   2.377
 6701SOL    HW121002   5.480   6.472   2.449
 6701SOL    HW221003   5.499   6.492   2.288
 6702SOL     OW21004   2.038   2.429   1.990
 6702SOL    HW121005   2.089   2.435   2.075
 6702SOL    HW221006   1.987   2.514   1.976
 6703SOL     OW21007   1.001   1.226   0.117
 6703SOL    HW121008   0.942   1.214   0.036
 6703SOL    HW221009   0.960   1.178   0.194
 6704SOL     OW21010   4.057   1.847   4.593
 6704SOL    HW121011   4.142   1.898   4.602
 6704SOL    HW221012   3.979   1.911   4.594
 6705SOL     OW21013   6.226   2.510   1.140
 6705SOL    HW121014   6.216   2.584   1.074
 6705SOL    HW221015   6.273   2.543   1.221
 6706SOL     OW21016   1.533   6.263   0.729
 6706SOL    HW121017   1.621   6.309   0.743
 6706SOL    HW221018   1.520   6.244   0.632
 6707SOL     OW21019   5.345   0.202   3.360
 6707SOL    HW121020   5.342   0.103   3.371
 6707SOL    HW221021   5.335   0.226   3.264
 6708SOL     OW21022   6.051   5.423   1.262
 6708SOL    HW121023   6.005   5.466   1.184
 6708SOL    HW221024   6.130   5.372   1.231
 6709SOL     OW21025   0.286   5.018   2.735
 6709SOL    HW121026   0.350   4.999   2.809
 6709SOL    HW221027   0.277   4.937   2.677
 6710SOL     OW21028   4.568   1.538   1.043
 6710SOL    HW121029   4.512   1.481   0.982
 6710SOL    HW221030   4.539   1.523   1.138
 6711SOL     OW21031   4.828   6.643   5.635
 6711SOL    HW121032   4.734   6.651   5.666
 6711SOL    HW221033   4.850   6.546   5.621
 6712SOL     OW21034   6.053   3.328   1.380
 6712SOL    HW121035   6.092   3.390   1.448
 6712SOL    HW221036   6.030   3.241   1.424
 6713SOL     OW21037   1.258   1.336   3.371
 6713SOL    HW121038   1.274   1.269   3.299
 6713SOL    HW221039   1.327   1.409   3.365
 6714SOL     OW21040   5.652   0.906   0.794
 6714SOL    HW121041   5.617   0.817   0.765
 6714SOL    HW221042   5.751   0.901   0.804
 6715SOL     OW21043   1.603   0.907   1.328
 6715SOL    HW121044   1.534   0.843   1.296
 6715SOL    HW221045   1.607   0.904   1.428
 6716SOL     OW21046   6.793   5.717   2.892
 6716SOL    HW121047   6.845   5.636   2.918
 6716SOL    HW221048   6.773   5.714   2.794
 6717SOL     OW21049   2.704   2.277   6.207
 6717SOL    HW121050   2.747   2.350   6.155
 6717SOL    HW221051   2.771   2.235   6.268
 6718SOL     OW21052   3.743   0.980   1.076
 6718SOL    HW121053   3.672   0.978   1.006
 6718SOL    HW221054   3.701   0.990   1.166
 6719SOL     OW21055   2.068   6.715   0.271
 6719SOL    HW121056   1.979   6.702   0.313
 6719SOL    HW221057   2.102   6.627   0.236
 6720SOL     OW21058   2.665   1.368   4.858
 6720SOL    HW121059   2.664   1.322   4.769
 6720SOL    HW221060   2.754   1.411   4.871
 6721SOL     OW21061   6.836   7.025   0.590
 6721SOL    HW121062   6.814   6.928   0.578
 6721SOL    HW221063   6.781   0.034   0.664
 6722SOL     OW21064   0.149   2.171   0.544
 6722SOL    HW121065   0.106   2.226   0.616
 6722SOL    HW221066   0.182   2.085   0.583
 6723SOL     OW21067   1.667   6.987   6.137
 6723SOL    HW121068   1.593   7.000   6.071
 6723SOL    HW221069   1.754   6.981   6.089
 6724SOL     OW21070   2.250   2.127   6.058
 6724SOL    HW121071   2.349   2.120   6.048
 6724SOL    HW221072   2.227   2.136   6.155
 6725SOL     OW21073   6.803   2.802   2.383
 6725SOL    HW121074   6.806   2.707   2.350
 6725SOL    HW221075   6.708   2.831   2.393
 6726SOL     OW21076   0.527   1.763   4.394
 6726SOL    HW121077   0.440   1.780   4.348
 6726SOL    HW221078   0.547   1.839   4.457
 6727SOL     OW21079   0.500   4.127   5.750
 6727SOL    HW121080   0.542   4.198   5.694
 6727SOL    HW221081   0.572   4.068   5.789
 6728SOL     OW21082   3.225   1.338   3.492
 6728SOL    HW121083   3.252   1.338   3.589
 6728SOL    HW221084   3.131   1.305   3.485
 6729SOL     OW21085   6.907   1.923   0.086
 6729SOL    HW121086   6.864   2.009   0.058
 6729SOL    HW221087   6.930   1.927   0.183
 6730SOL     OW21088   1.823   0.417   1.325
 6730SOL    HW121089   1.794   0.323   1.342
 6730SOL    HW221090   1.754   0.480   1.359
 6731SOL     OW21091   1.845   6.817   1.055
 6731SOL    HW121092   1.789   6.794   0.976
 6731SOL    HW221093   1.796   6.883   1.112
 6732SOL     OW21094   5.210   4.036   4.251
 6732SOL    HW121095   5.114   4.054   4.228
 6732SOL    HW221096   5.269   4.082   4.185
 6733SOL     OW21097   3.858   5.310   6.290
 6733SOL    HW121098   3.915   5.233   6.318
 6733SOL    HW221099   3.775   5.275   6.247
 6734SOL     OW21100   5.289   2.180   6.188
 6734SOL    HW121101   5.221   2.127   6.239
 6734SOL    HW221102   5.356   2.118   6.148
 6735SOL     OW21103   5.192   3.545   4.317
 6735SOL    HW121104   5.109   3.549   4.372
 6735SOL    HW221105   5.170   3.567   4.222
 6736SOL     OW21106   3.199   3.496   6.448
 6736SOL    HW121107   3.196   3.530   6.354
 6736SOL    HW221108   3.165   3.567   6.510
 6737SOL     OW21109   1.359   3.158   1.249
 6737SOL    HW121110   1.348   3.257   1.259
 6737SOL    HW221111   1.310   3.111   1.322
 6738SOL     OW21112   1.348   5.553   3.945
 6738SOL    HW121113   1.353   5.592   3.853
 6738SOL    HW221114   1.265   5.496   3.952
 6739SOL     OW21115   6.423   6.086   3.565
 6739SOL    HW121116   6.504   6.031   3.587
 6739SOL    HW221117   6.362   6.088   3.644
 6740SOL     OW21118   6.623   0.089   4.893
 6740SOL    HW121119   6.670   0.005   4.917
 6740SOL    HW221120   6.618   0.149   4.974
 6741SOL     OW21121   3.751   2.081   6.215
 6741SOL    HW121122   3.842   2.084   6.257
 6741SOL    HW221123   3.682   2.068   6.285
 6742SOL     OW21124   5.724   5.506   3.909
 6742SOL    HW121125   5.742   5.408   3.909
 6742SOL    HW221126   5.680   5.531   3.823
 6743SOL     OW21127   3.545   3.877   6.266
 6743SOL    HW121128   3.495   3.804   6.311
 6743SOL    HW221129   3.636   3.845   6.239
 6744SOL     OW21130   0.454   6.425   6.095
 6744SOL    HW121131   0.479   6.463   6.184
 6744SOL    HW221132   0.380   6.479   6.055
 6745SOL     OW21133   6.861   6.474   3.501
 6745SOL    HW121134   6.952   6.432   3.505
 6745SOL    HW221135   6.801   6.430   3.568
 6746SOL     OW21136   1.798   0.518   3.450
 6746SOL    HW121137   1.799   0.618   3.439
 6746SOL    HW221138   1.717   0.491   3.502
 6747SOL     OW21139   6.394   0.275   0.159
 6747SOL    HW121140   6.491   0.286   0.183
 6747SOL    HW221141   6.379   0.313   0.068
 6748SOL     OW21142   3.023   1.955   3.468
 6748SOL    HW121143   3.068   1.876   3.427
 6748SOL    HW221144   3.064   2.040   3.434
 6749SOL     OW21145   3.612   4.275   1.296
 6749SOL    HW121146   3.540   4.273   1.226
 6749SOL    HW221147   3.699   4.250   1.254
 6750SOL     OW21148   3.298   1.746   4.159
 6750SOL    HW121149   3.269   1.755   4.064
 6750SOL    HW221150   3.221   1.715   4.214
 6751SOL     OW21151   4.972   0.848   3.272
 6751SOL    HW121152   5.036   0.780   3.310
 6751SOL    HW221153   4.886   0.803   3.248
 6752SOL     OW21154   2.060   0.412   3.396
 6752SOL    HW121155   1.977   0.468   3.406
 6752SOL    HW221156   2.068   0.350   3.474
 6753SOL     OW21157   3.229   2.106   5.746
 6753SOL    HW121158   3.188   2.128   5.834
 6753SOL    HW221159   3.321   2.144   5.741
 6754SOL     OW21160   6.397   1.332   0.760
 6754SOL    HW121161   6.314   1.278   0.744
 6754SOL    HW221162   6.379   1.400   0.831
 6755SOL     OW21163   4.038   3.943   1.137
 6755SOL    HW121164   4.105   3.871   1.159
 6755SOL    HW221165   3.947   3.913   1.163
 6756SOL     OW21166   3.745   0.273   5.412
 6756SOL    HW121167   3.774   0.250   5.505
 6756SOL    HW221168   3.812   0.239   5.347
 6757SOL     OW21169   3.460   2.109   0.985
 6757SOL    HW121170   3.470   2.014   1.013
 6757SOL    HW221171   3.376   2.120   0.931
 6758SOL     OW21172   6.159   3.238   1.683
 6758SOL    HW121173   6.228   3.304   1.653
 6758SOL    HW221174   6.154   3.239   1.783
 6759SOL     OW21175   0.021   2.972   2.785
 6759SOL    HW121176   0.069   2.899   2.737
 6759SOL    HW221177   0.035   3.059   2.737
 6760SOL     OW21178   6.243   3.989   2.422
 6760SOL    HW121179   6.308   3.918   2.397
 6760SOL    HW221180   6.255   4.011   2.519
 6761SOL     OW21181   5.796   3.040   4.815
 6761SOL    HW121182   5.837   3.088   4.892
 6761SOL    HW221183   5.790   3.101   4.737
 6762SOL     OW21184   0.848   4.952   4.437
 6762SOL    HW121185   0.847   4.877   4.504
 6762SOL    HW221186   0.760   4.957   4.391
 6763SOL     OW21187   5.157   5.521   4.413
 6763SOL    HW121188   5.234   5.558   4.465
 6763SOL    HW221189   5.083   5.589   4.410
 6764SOL     OW21190   2.097   5.204   1.845
 6764SOL    HW121191   2.186   5.180   1.806
 6764SOL    HW221192   2.053   5.273   1.788
 6765SOL     OW21193   5.662   4.486   2.580
 6765SOL    HW121194   5.578   4.493   2.526
 6765SOL    HW221195   5.696   4.578   2.599
 6766SOL     OW21196   5.122   6.629   5.773
 6766SOL    HW121197   5.165   6.561   5.714
 6766SOL    HW221198   5.024   6.633   5.754
 6767SOL     OW21199   3.398   0.446   1.373
 6767SOL    HW121200   3.463   0.509   1.415
 6767SOL    HW221201   3.356   0.489   1.293
 6768SOL     OW21202   1.965   0.391   5.695
 6768SOL    HW121203   2.041   0.341   5.653
 6768SOL    HW221204   1.930   0.458   5.630
 6769SOL     OW21205   3.293   1.513   0.533
 6769SOL    HW121206   3.207   1.467   0.556
 6769SOL    HW221207   3.367   1.473   0.586
 6770SOL     OW21208   6.862   1.221   1.894
 6770SOL    HW121209   6.876   1.126   1.920
 6770SOL    HW221210   6.931   1.278   1.938
 6771SOL     OW21211   4.729   2.355   3.333
 6771SOL    HW121212   4.670   2.434   3.319
 6771SOL    HW221213   4.712   2.287   3.261
 6772SOL     OW21214   3.502   1.279   3.427
 6772SOL    HW121215   3.501   1.180   3.413
 6772SOL    HW221216   3.411   1.310   3.455
 6773SOL     OW21217   0.088   5.425   1.828
 6773SOL    HW121218   0.049   5.485   1.758
 6773SOL    HW221219   0.024   5.351   1.849
 6774SOL     OW21220   0.372   2.085   5.246
 6774SOL    HW121221   0.462   2.129   5.252
 6774SOL    HW221222   0.372   2.020   5.170
 6775SOL     OW21223   2.661   2.821   1.682
 6775SOL    HW121224   2.751   2.777   1.690
 6775SOL    HW221225   2.673   2.916   1.654
 6776SOL     OW21226   4.092   4.816   0.084
 6776SOL    HW121227   4.174   4.870   0.102
 6776SOL    HW221228   4.111   4.719   0.100
 6777SOL     OW21229   4.170   3.812   0.032
 6777SOL    HW121230   4.224   3.835   6.979
 6777SOL    HW221231   4.079   3.781   0.003
 6778SOL     OW21232   5.769   4.842   2.164
 6778SOL    HW121233   5.766   4.744   2.142
 6778SOL    HW221234   5.864   4.871   2.177
 6779SOL     OW21235   6.875   5.106   6.261
 6779SOL    HW121236   6.902   5.011   6.245
 6779SOL    HW221237   6.848   5.117   6.357
 6780SOL     OW21238   1.366   2.471   1.963
 6780SOL    HW121239   1.457   2.504   1.939
 6780SOL    HW221240   1.303   2.549   1.971
 6781SOL     OW21241   6.369   0.101   4.925
 6781SOL    HW121242   6.466   0.094   4.901
 6781SOL    HW221243   6.361   0.127   5.021
 6782SOL     OW21244   0.044   0.252   3.560
 6782SOL    HW121245   7.001   0.282   3.497
 6782SOL    HW221246   0.044   0.311   3.641
 6783SOL     OW21247   6.319   1.178   5.886
 6783SOL    HW121248   6.249   1.142   5.825
 6783SOL    HW221249   6.368   1.253   5.840
 6784SOL     OW21250   2.369   3.813   0.696
 6784SOL    HW121251   2.452   3.861   0.665
 6784SOL    HW221252   2.289   3.854   0.651
 6785SOL     OW21253   5.216   4.908   3.531
 6785SOL    HW121254   5.291   4.912   3.597
 6785SOL    HW221255   5.225   4.826   3.475
 6786SOL     OW21256   1.301   2.103   0.322
 6786SOL    HW121257   1.368   2.071   0.388
 6786SOL    HW221258   1.226   2.037   0.316
 6787SOL     OW21259   1.563   2.468   1.268
 6787SOL    HW121260   1.621   2.514   1.335
 6787SOL    HW221261   1.542   2.532   1.193
 6788SOL     OW21262   2.535   3.496   1.185
 6788SOL    HW121263   2.613   3.438   1.205
 6788SOL    HW221264   2.484   3.458   1.107
 6789SOL     OW21265   6.688   6.200   3.040
 6789SOL    HW121266   6.589   6.207   3.024
 6789SOL    HW221267   6.705   6.197   3.138
 6790SOL     OW21268   1.154   3.884   1.011
 6790SOL    HW121269   1.095   3.941   1.068
 6790SOL    HW221270   1.105   3.802   0.982
 6791SOL     OW21271   4.106   2.809   1.651
 6791SOL    HW121272   4.020   2.763   1.674
 6791SOL    HW221273   4.149   2.844   1.734
 6792SOL     OW21274   6.507   6.079   5.478
 6792SOL    HW121275   6.434   6.011   5.467
 6792SOL    HW221276   6.498   6.123   5.567
 6793SOL     OW21277   0.866   1.632   0.347
 6793SOL    HW121278   0.891   1.723   0.382
 6793SOL    HW221279   0.772   1.611   0.374
 6794SOL     OW21280   5.158   1.480   6.563
 6794SOL    HW121281   5.246   1.450   6.525
 6794SOL    HW221282   5.090   1.407   6.552
 6795SOL     OW21283   2.609   6.315   1.107
 6795SOL    HW121284   2.547   6.386   1.140
 6795SOL    HW221285   2.565   6.225   1.115
 6796SOL     OW21286   6.495   0.922   2.090
 6796SOL    HW121287   6.512   1.010   2.135
 6796SOL    HW221288   6.541   0.922   2.001
 6797SOL     OW21289   5.353   3.106   1.856
 6797SOL    HW121290   5.297   3.024   1.866
 6797SOL    HW221291   5.296   3.183   1.827
 6798SOL     OW21292   5.104   6.715   2.728
 6798SOL    HW121293   5.077   6.789   2.666
 6798SOL    HW221294   5.154   6.753   2.805
 6799SOL     OW21295   6.575   6.387   1.050
 6799SOL    HW121296   6.655   6.377   1.109
 6799SOL    HW221297   6.503   6.326   1.082
 6800SOL     OW21298   2.498   3.997   1.042
 6800SOL    HW121299   2.419   3.939   1.023
 6800SOL    HW221300   2.533   3.977   1.133
 6801SOL     OW21301   0.839   0.428   2.945
 6801SOL    HW121302   0.802   0.509   2.991
 6801SOL    HW221303   0.936   0.441   2.927
 6802SOL     OW21304   3.406   5.988   0.698
 6802SOL    HW121305   3.504   6.005   0.693
 6802SOL    HW221306   3.366   6.003   0.607
 6803SOL     OW21307   5.007   2.457   6.244
 6803SOL    HW121308   5.083   2.396   6.223
 6803SOL    HW221309   5.040   2.551   6.252
 6804SOL     OW21310   3.370   5.405   3.819
 6804SOL    HW121311   3.427   5.487   3.823
 6804SOL    HW221312   3.343   5.387   3.724
 6805SOL     OW21313   6.122   4.979   6.240
 6805SOL    HW121314   6.125   5.077   6.262
 6805SOL    HW221315   6.134   4.967   6.141
 6806SOL     OW21316   5.962   0.525   3.527
 6806SOL    HW121317   5.885   0.482   3.480
 6806SOL    HW221318   6.048   0.490   3.490
 6807SOL     OW21319   3.551   2.755   0.408
 6807SOL    HW121320   3.621   2.794   0.349
 6807SOL    HW221321   3.477   2.822   0.421
 6808SOL     OW21322   0.123   1.614   5.006
 6808SOL    HW121323   0.189   1.552   4.965
 6808SOL    HW221324   0.135   1.706   4.966
 6809SOL     OW21325   1.161   3.020   1.454
 6809SOL    HW121326   1.206   2.937   1.422
 6809SOL    HW221327   1.202   3.048   1.541
 6810SOL     OW21328   2.043   6.888   1.736
 6810SOL    HW121329   2.056   6.986   1.724
 6810SOL    HW221330   2.132   6.842   1.733
 6811SOL     OW21331   4.808   4.127   0.676
 6811SOL    HW121332   4.851   4.040   0.651
 6811SOL    HW221333   4.752   4.115   0.757
 6812SOL     OW21334   3.036   3.154   3.124
 6812SOL    HW121335   3.014   3.199   3.211
 6812SOL    HW221336   3.094   3.075   3.142
 6813SOL     OW21337   4.837   1.983   2.630
 6813SOL    HW121338   4.761   1.924   2.659
 6813SOL    HW221339   4.820   2.016   2.537
 6814SOL     OW21340   3.456   1.839   6.914
 6814SOL    HW121341   3.367   1.873   6.943
 6814SOL    HW221342   3.527   1.877   6.974
 6815SOL     OW21343   2.729   0.090   1.814
 6815SOL    HW121344   2.744   0.185   1.786
 6815SOL    HW221345   2.807   0.058   1.868
 6816SOL     OW21346   0.572   6.826   6.647
 6816SOL    HW121347   0.550   6.919   6.677
 6816SOL    HW221348   0.494   6.766   6.664
 6817SOL     OW21349   1.323   2.285   4.018
 6817SOL    HW121350   1.421   2.267   4.024
 6817SOL    HW221351   1.274   2.199   3.998
 6818SOL     OW21352   3.061   4.963   1.619
 6818SOL    HW121353   3.084   5.057   1.643
 6818SOL    HW221354   3.083   4.902   1.695
 6819SOL     OW21355   5.305   0.892   4.605
 6819SOL    HW121356   5.300   0.980   4.652
 6819SOL    HW221357   5.213   0.865   4.574
 6820SOL     OW21358   1.658   5.708   3.323
 6820SOL    HW121359   1.722   5.661   3.383
 6820SOL    HW221360   1.600   5.769   3.376
 6821SOL     OW21361   3.220   1.032   4.748
 6821SOL    HW121362   3.221   0.959   4.817
 6821SOL    HW221363   3.268   1.002   4.666
 6822SOL     OW21364   5.769   2.355   6.639
 6822SOL    HW121365   5.865   2.329   6.624
 6822SOL    HW221366   5.720   2.352   6.552
 6823SOL     OW21367   3.419   3.288   3.975
 6823SOL    HW121368   3.468   3.252   3.895
 6823SOL    HW221369   3.360   3.218   4.013
 6824SOL     OW21370   1.134   2.622   6.162
 6824SOL    HW121371   1.035   2.614   6.149
 6824SOL    HW221372   1.174   2.530   6.162
 6825SOL     OW21373   4.804   6.727   2.488
 6825SOL    HW121374   4.714   6.727   2.532
 6825SOL    HW221375   4.862   6.795   2.533
 6826SOL     OW21376   2.123   4.283   2.109
 6826SOL    HW121377   2.190   4.210   2.125
 6826SOL    HW221378   2.032   4.252   2.137
 6827SOL     OW21379   4.601   5.417   6.486
 6827SOL    HW121380   4.522   5.478   6.479
 6827SOL    HW221381   4.682   5.463   6.450
 6828SOL     OW21382   2.396   2.193   1.641
 6828SOL    HW121383   2.324   2.213   1.707
 6828SOL    HW221384   2.484   2.189   1.688
 6829SOL     OW21385   4.635   6.592   4.421
 6829SOL    HW121386   4.548   6.606   4.469
 6829SOL    HW221387   4.671   6.679   4.390
 6830SOL     OW21388   5.208   1.450   4.307
 6830SOL    HW121389   5.236   1.543   4.283
 6830SOL    HW221390   5.164   1.407   4.229
 6831SOL     OW21391   1.186   0.341   6.761
 6831SOL    HW121392   1.286   0.334   6.762
 6831SOL    HW221393   1.159   0.425   6.809
 6832SOL     OW21394   2.262   3.813   0.978
 6832SOL    HW121395   2.305   3.837   0.891
 6832SOL    HW221396   2.202   3.734   0.964
 6833SOL     OW21397   3.967   3.772   6.009
 6833SOL    HW121398   3.974   3.810   5.917
 6833SOL    HW221399   4.049   3.718   6.029
 6834SOL     OW21400   5.411   6.748   1.266
 6834SOL    HW121401   5.503   6.752   1.228
 6834SOL    HW221402   5.344   6.773   1.195
 6835SOL     OW21403   3.629   0.619   4.808
 6835SOL    HW121404   3.696   0.545   4.806
 6835SOL    HW221405   3.653   0.683   4.881
 6836SOL     OW21406   3.006   5.394   0.523
 6836SOL    HW121407   3.098   5.408   0.486
 6836SOL    HW221408   2.954   5.479   0.513
 6837SOL     OW21409   1.848   1.739   2.305
 6837SOL    HW121410   1.749   1.737   2.319
 6837SOL    HW221411   1.871   1.814   2.243
 6838SOL     OW21412   2.895   6.558   0.676
 6838SOL    HW121413   2.809   6.511   0.656
 6838SOL    HW221414   2.958   6.496   0.724
 6839SOL     OW21415   5.351   0.310   6.546
 6839SOL    HW121416   5.436   0.320   6.597
 6839SOL    HW221417   5.279   0.365   6.590
 6840SOL     OW21418   2.864   0.894   5.008
 6840SOL    HW121419   2.887   0.975   4.953
 6840SOL    HW221420   2.942   0.831   5.010
 6841SOL     OW21421   4.789   4.112   6.358
 6841SOL    HW121422   4.798   4.212   6.356
 6841SOL    HW221423   4.875   4.070   6.329
 6842SOL     OW21424   3.151   4.368   1.413
 6842SOL    HW121425   3.069   4.324   1.449
 6842SOL    HW221426   3.135   4.465   1.400
 6843SOL     OW21427   5.863   6.560   0.865
 6843SOL    HW121428   5.923   6.513   0.801
 6843SOL    HW221429   5.785   6.598   0.815
 6844SOL     OW21430   5.851   1.220   4.543
 6844SOL    HW121431   5.839   1.128   4.505
 6844SOL    HW221432   5.947   1.234   4.567
 6845SOL     OW21433   6.358   3.823   3.486
 6845SOL    HW121434   6.289   3.866   3.544
 6845SOL    HW221435   6.315   3.789   3.402
 6846SOL     OW21436   3.718   3.709   0.453
 6846SOL    HW121437   3.755   3.794   0.416
 6846SOL    HW221438   3.760   3.690   0.542
 6847SOL     OW21439   6.838   3.667   5.328
 6847SOL    HW121440   6.907   3.615   5.278
 6847SOL    HW221441   6.880   3.712   5.407
 6848SOL     OW21442   5.120   4.636   3.412
 6848SOL    HW121443   5.159   4.547   3.434
 6848SOL    HW221444   5.049   4.659   3.479
 6849SOL     OW21445   4.357   4.024   5.682
 6849SOL    HW121446   4.354   3.997   5.586
 6849SOL    HW221447   4.441   3.990   5.724
 6850SOL     OW21448   5.179   3.022   2.846
 6850SOL    HW121449   5.266   3.072   2.843
 6850SOL    HW221450   5.184   2.949   2.914
 6851SOL     OW21451   0.470   2.207   2.850
 6851SOL    HW121452   0.519   2.286   2.814
 6851SOL    HW221453   0.527   2.159   2.916
 6852SOL     OW21454   2.573   4.674   1.185
 6852SOL    HW121455   2.649   4.716   1.235
 6852SOL    HW221456   2.593   4.577   1.170
 6853SOL     OW21457   5.278   4.098   6.405
 6853SOL    HW121458   5.308   4.057   6.491
 6853SOL    HW221459   5.198   4.156   6.422
 6854SOL     OW21460   5.278   0.153   5.790
 6854SOL    HW121461   5.245   0.221   5.725
 6854SOL    HW221462   5.369   0.122   5.762
 6855SOL     OW21463   4.288   5.496   3.530
 6855SOL    HW121464   4.260   5.519   3.623
 6855SOL    HW221465   4.334   5.574   3.489
 6856SOL     OW21466   0.625   2.597   4.500
 6856SOL    HW121467   0.572   2.531   4.446
 6856SOL    HW221468   0.563   2.654   4.553
 6857SOL     OW21469   1.225   2.935   6.434
 6857SOL    HW121470   1.255   3.021   6.473
 6857SOL    HW221471   1.289   2.862   6.458
 6858SOL     OW21472   3.891   4.016   1.841
 6858SOL    HW121473   3.857   4.049   1.753
 6858SOL    HW221474   3.819   4.028   1.910
 6859SOL     OW21475   0.745   1.032   1.135
 6859SOL    HW121476   0.829   1.085   1.140
 6859SOL    HW221477   0.758   0.954   1.074
 6860SOL     OW21478   0.035   4.845   1.424
 6860SOL    HW121479   7.017   4.914   1.481
 6860SOL    HW221480   0.039   4.878   1.329
 6861SOL     OW21481   5.081   3.827   6.566
 6861SOL    HW121482   5.117   3.911   6.606
 6861SOL    HW221483   5.030   3.848   6.483
 6862SOL     OW21484   0.058   5.819   5.842
 6862SOL    HW121485   0.006   5.809   5.757
 6862SOL    HW221486   0.004   5.782   5.918
 6863SOL     OW21487   6.718   6.542   5.810
 6863SOL    HW121488   6.741   6.485   5.731
 6863SOL    HW221489   6.620   6.533   5.829
 6864SOL     OW21490   2.049   4.914   5.178
 6864SOL    HW121491   2.106   4.926   5.260
 6864SOL    HW221492   1.953   4.910   5.205
 6865SOL     OW21493   0.675   0.017   5.103
 6865SOL    HW121494   0.606   7.014   5.037
 6865SOL    HW221495   0.751   6.980   5.105
 6866SOL     OW21496   5.338   4.616   3.070
 6866SOL    HW121497   5.268   4.671   3.115
 6866SOL    HW221498   5.420   4.672   3.056
 6867SOL     OW21499   2.195   3.333   1.662
 6867SOL    HW121500   2.244   3.380   1.736
 6867SOL    HW221501   2.162   3.245   1.695
 6868SOL     OW21502   2.193   6.719   5.181
 6868SOL    HW121503   2.238   6.807   5.166
 6868SOL    HW221504   2.221   6.655   5.109
 6869SOL     OW21505   5.126   0.698   5.880
 6869SOL    HW121506   5.119   0.796   5.899
 6869SOL    HW221507   5.213   0.680   5.834
 6870SOL     OW21508   0.607   4.254   1.071
 6870SOL    HW121509   0.589   4.280   0.976
 6870SOL    HW221510   0.668   4.175   1.073
 6871SOL     OW21511   6.135   4.300   2.790
 6871SOL    HW121512   6.043   4.328   2.760
 6871SOL    HW221513   6.131   4.272   2.886
 6872SOL     OW21514   0.090   3.052   1.604
 6872SOL    HW121515   0.028   3.012   1.537
 6872SOL    HW221516   0.185   3.030   1.580
 6873SOL     OW21517   1.199   3.899   3.860
 6873SOL    HW121518   1.185   3.814   3.810
 6873SOL    HW221519   1.213   3.974   3.795
 6874SOL     OW21520   6.412   4.937   3.773
 6874SOL    HW121521   6.417   4.944   3.873
 6874SOL    HW221522   6.330   4.984   3.740
 6875SOL     OW21523   2.326   1.713   2.268
 6875SOL    HW121524   2.308   1.793   2.212
 6875SOL    HW221525   2.381   1.647   2.216
 6876SOL     OW21526   3.608   6.730   3.859
 6876SOL    HW121527   3.523   6.781   3.863
 6876SOL    HW221528   3.645   6.718   3.952
 6877SOL     OW21529   3.346   4.166   1.838
 6877SOL    HW121530   3.314   4.140   1.928
 6877SOL    HW221531   3.275   4.220   1.791
 6878SOL     OW21532   2.818   1.734   3.514
 6878SOL    HW121533   2.910   1.772   3.521
 6878SOL    HW221534   2.761   1.794   3.458
 6879SOL     OW21535   2.233   2.401   0.120
 6879SOL    HW121536   2.201   2.392   0.026
 6879SOL    HW221537   2.330   2.374   0.124
 6880SOL     OW21538   1.091   5.976   5.928
 6880SOL    HW121539   1.015   6.040   5.924
 6880SOL    HW221540   1.133   5.967   5.838
 6881SOL     OW21541   1.584   3.064   1.091
 6881SOL    HW121542   1.505   3.120   1.115
 6881SOL    HW221543   1.615   3.013   1.172
 6882SOL     OW21544   3.121   0.486   0.656
 6882SOL    HW121545   3.133   0.582   0.683
 6882SOL    HW221546   3.037   0.450   0.697
 6883SOL     OW21547   5.421   1.433   0.023
 6883SOL    HW121548   5.372   1.409   6.967
 6883SOL    HW221549   5.513   1.394   0.021
 6884SOL     OW21550   0.902   4.343   3.101
 6884SOL    HW121551   0.980   4.347   3.039
 6884SOL    HW221552   0.896   4.252   3.142
 6885SOL     OW21553   4.529   5.053   3.327
 6885SOL    HW121554   4.609   4.998   3.303
 6885SOL    HW221555   4.543   5.147   3.297
 6886SOL     OW21556   6.918   1.432   4.838
 6886SOL    HW121557   6.988   1.364   4.861
 6886SOL    HW221558   6.962   1.511   4.796
 6887SOL     OW21559   4.874   5.670   6.697
 6887SOL    HW121560   4.957   5.697   6.745
 6887SOL    HW221561   4.814   5.620   6.759
 6888SOL     OW21562   5.576   4.741   6.419
 6888SOL    HW121563   5.645   4.734   6.491
 6888SOL    HW221564   5.545   4.649   6.393
 6889SOL     OW21565   1.792   2.849   5.942
 6889SOL    HW121566   1.709   2.850   5.996
 6889SOL    HW221567   1.813   2.756   5.912
 6890SOL     OW21568   3.874   5.903   2.233
 6890SOL    HW121569   3.911   5.953   2.155
 6890SOL    HW221570   3.828   5.820   2.201
 6891SOL     OW21571   2.276   3.354   1.390
 6891SOL    HW121572   2.210   3.423   1.364
 6891SOL    HW221573   2.284   3.351   1.490
 6892SOL     OW21574   3.706   1.414   4.465
 6892SOL    HW121575   3.657   1.374   4.543
 6892SOL    HW221576   3.645   1.418   4.386
 6893SOL     OW21577   5.199   3.908   7.020
 6893SOL    HW121578   5.161   3.855   6.944
 6893SOL    HW221579   5.127   3.928   0.058
 6894SOL     OW21580   6.261   5.265   1.186
 6894SOL    HW121581   6.358   5.284   1.168
 6894SOL    HW221582   6.219   5.227   1.103
 6895SOL     OW21583   1.777   5.175   1.268
 6895SOL    HW121584   1.819   5.087   1.251
 6895SOL    HW221585   1.691   5.181   1.217
 6896SOL     OW21586   2.997   2.244   3.741
 6896SOL    HW121587   2.958   2.269   3.652
 6896SOL    HW221588   3.020   2.147   3.741
 6897SOL     OW21589   4.797   3.358   5.276
 6897SOL    HW121590   4.755   3.434   5.227
 6897SOL    HW221591   4.894   3.376   5.289
 6898SOL     OW21592   3.487   1.484   1.708
 6898SOL    HW121593   3.433   1.441   1.636
 6898SOL    HW221594   3.519   1.573   1.677
 6899SOL     OW21595   4.813   5.931   2.377
 6899SOL    HW121596   4.856   6.021   2.378
 6899SOL    HW221597   4.750   5.923   2.454
 6900SOL     OW21598   0.089   4.335   5.240
 6900SOL    HW121599   0.008   4.278   5.230
 6900SOL    HW221600   0.123   4.329   5.334
 6901SOL     OW21601   5.576   5.716   6.172
 6901SOL    HW121602   5.655   5.775   6.189
 6901SOL    HW221603   5.596   5.623   6.202
 6902SOL     OW21604   6.804   5.469   5.993
 6902SOL    HW121605   6.797   5.436   5.899
 6902SOL    HW221606   6.869   5.545   5.997
 6903SOL     OW21607   3.199   5.029   5.130
 6903SOL    HW121608   3.259   5.017   5.050
 6903SOL    HW221609   3.175   4.939   5.166
 6904SOL     OW21610   6.209   7.005   5.994
 6904SOL    HW121611   6.290   0.020   6.033
 6904SOL    HW221612   6.227   6.908   5.978
 6905SOL     OW21613   5.438   5.345   6.626
 6905SOL    HW121614   5.517   5.406   6.626
 6905SOL    HW221615   5.355   5.397   6.607
 6906SOL     OW21616   3.720   1.023   3.961
 6906SOL    HW121617   3.774   0.985   4.036
 6906SOL    HW221618   3.769   1.101   3.921
 6907SOL     OW21619   6.219   2.452   1.534
 6907SOL    HW121620   6.250   2.422   1.625
 6907SOL    HW221621   6.139   2.398   1.506
 6908SOL     OW21622   2.354   4.939   6.467
 6908SOL    HW121623   2.312   4.870   6.525
 6908SOL    HW221624   2.325   4.925   6.372
 6909SOL     OW21625   4.657   3.983   0.928
 6909SOL    HW121626   4.631   4.000   1.023
 6909SOL    HW221627   4.701   3.894   0.922
 6910SOL     OW21628   1.189   2.802   2.856
 6910SOL    HW121629   1.109   2.853   2.823
 6910SOL    HW221630   1.266   2.818   2.794
 6911SOL     OW21631   4.236   0.015   4.378
 6911SOL    HW121632   4.223   6.944   4.380
 6911SOL    HW221633   4.267   0.042   4.287
 6912SOL     OW21634   2.883   3.070   6.637
 6912SOL    HW121635   2.851   3.074   6.543
 6912SOL    HW221636   2.930   2.983   6.652
 6913SOL     OW21637   5.104   6.257   5.130
 6913SOL    HW121638   5.168   6.289   5.199
 6913SOL    HW221639   5.030   6.206   5.174
 6914SOL     OW21640   5.501   4.729   3.951
 6914SOL    HW121641   5.596   4.725   3.983
 6914SOL    HW221642   5.444   4.668   4.007
 6915SOL     OW21643   0.197   2.359   1.968
 6915SOL    HW121644   0.213   2.418   1.889
 6915SOL    HW221645   0.124   2.397   2.024
 6916SOL     OW21646   5.652   0.368   6.778
 6916SOL    HW121647   5.650   0.461   6.813
 6916SOL    HW221648   5.709   0.364   6.696
 6917SOL     OW21649   4.189   6.219   1.913
 6917SOL    HW121650   4.245   6.267   1.846
 6917SOL    HW221651   4.201   6.121   1.903
 6918SOL     OW21652   0.001   2.807   4.075
 6918SOL    HW121653   6.999   2.891   4.122
 6918SOL    HW221654   6.958   2.779   4.010
 6919SOL     OW21655   6.653   5.932   3.590
 6919SOL    HW121656   6.751   5.937   3.575
 6919SOL    HW221657   6.628   5.839   3.619
 6920SOL     OW21658   4.505   0.006   5.344
 6920SOL    HW121659   4.464   0.097   5.348
 6920SOL    HW221660   4.454   6.971   5.402
 6921SOL     OW21661   4.222   6.776   3.420
 6921SOL    HW121662   4.315   6.809   3.405
 6921SOL    HW221663   4.165   6.797   3.341
 6922SOL     OW21664   1.727   6.092   5.513
 6922SOL    HW121665   1.789   6.019   5.542
 6922SOL    HW221666   1.707   6.083   5.416
 6923SOL     OW21667   5.466   6.033   2.704
 6923SOL    HW121668   5.392   6.051   2.768
 6923SOL    HW221669   5.516   5.952   2.732
 6924SOL     OW21670   2.970   4.246   0.051
 6924SOL    HW121671   2.877   4.235   0.014
 6924SOL    HW221672   3.013   4.157   0.059
 6925SOL     OW21673   4.796   5.493   4.986
 6925SOL    HW121674   4.710   5.501   4.936
 6925SOL    HW221675   4.867   5.548   4.941
 6926SOL     OW21676   2.127   1.696   0.418
 6926SOL    HW121677   2.092   1.602   0.424
 6926SOL    HW221678   2.206   1.707   0.479
 6927SOL     OW21679   3.675   1.600   6.537
 6927SOL    HW121680   3.589   1.650   6.542
 6927SOL    HW221681   3.714   1.608   6.446
 6928SOL     OW21682   5.852   6.213   0.689
 6928SOL    HW121683   5.910   6.295   0.688
 6928SOL    HW221684   5.809   6.203   0.779
 6929SOL     OW21685   5.359   6.082   2.425
 6929SOL    HW121686   5.411   6.064   2.509
 6929SOL    HW221687   5.261   6.071   2.443
 6930SOL     OW21688   1.161   0.957   1.162
 6930SOL    HW121689   1.141   0.947   1.259
 6930SOL    HW221690   1.143   0.871   1.115
 6931SOL     OW21691   1.482   2.004   2.255
 6931SOL    HW121692   1.390   2.007   2.216
 6931SOL    HW221693   1.494   2.079   2.320
 6932SOL     OW21694   4.539   6.130   0.931
 6932SOL    HW121695   4.625   6.081   0.937
 6932SOL    HW221696   4.557   6.229   0.929
 6933SOL     OW21697   3.386   6.797   5.657
 6933SOL    HW121698   3.443   6.716   5.673
 6933SOL    HW221699   3.291   6.768   5.646
 6934SOL     OW21700   4.440   3.551   6.324
 6934SOL    HW121701   4.358   3.513   6.366
 6934SOL    HW221702   4.517   3.543   6.387
 6935SOL     OW21703   4.077   5.782   2.668
 6935SOL    HW121704   4.073   5.881   2.661
 6935SOL    HW221705   3.984   5.745   2.671
 6936SOL     OW21706   6.711   2.629   4.690
 6936SOL    HW121707   6.753   2.707   4.644
 6936SOL    HW221708   6.696   2.650   4.786
 6937SOL     OW21709   6.347   6.261   0.733
 6937SOL    HW121710   6.283   6.309   0.674
 6937SOL    HW221711   6.299   6.228   0.814
 6938SOL     OW21712   0.305   2.577   4.558
 6938SOL    HW121713   0.343   2.664   4.589
 6938SOL    HW221714   0.271   2.526   4.637
 6939SOL     OW21715   6.910   5.317   2.562
 6939SOL    HW121716   6.926   5.291   2.467
 6939SOL    HW221717   6.982   5.277   2.620
 6940SOL     OW21718   4.503   6.648   0.067
 6940SOL    HW121719   4.467   6.742   0.077
 6940SOL    HW221720   4.602   6.652   0.053
 6941SOL     OW21721   3.055   3.650   1.958
 6941SOL    HW121722   3.067   3.591   1.878
 6941SOL    HW221723   3.034   3.594   2.038
 6942SOL     OW21724   5.713   6.772   2.712
 6942SOL    HW121725   5.665   6.853   2.680
 6942SOL    HW221726   5.728   6.709   2.636
 6943SOL     OW21727   3.662   5.340   0.764
 6943SOL    HW121728   3.744   5.398   0.764
 6943SOL    HW221729   3.631   5.326   0.670
 6944SOL     OW21730   1.347   5.105   6.079
 6944SOL    HW121731   1.256   5.126   6.043
 6944SOL    HW221732   1.341   5.025   6.140
 6945SOL     OW21733   6.709   2.171   1.510
 6945SOL    HW121734   6.620   2.142   1.545
 6945SOL    HW221735   6.740   2.105   1.441
 6946SOL     OW21736   4.188   6.404   1.516
 6946SOL    HW121737   4.256   6.417   1.588
 6946SOL    HW221738   4.108   6.459   1.536
 6947SOL     OW21739   4.219   5.287   6.335
 6947SOL    HW121740   4.226   5.325   6.242
 6947SOL    HW221741   4.156   5.209   6.335
 6948SOL     OW21742   0.892   5.974   1.146
 6948SOL    HW121743   0.801   5.964   1.106
 6948SOL    HW221744   0.919   6.070   1.145
 6949SOL     OW21745   2.310   1.250   3.625
 6949SOL    HW121746   2.286   1.172   3.567
 6949SOL    HW221747   2.230   1.310   3.635
 6950SOL     OW21748   1.333   0.688   4.935
 6950SOL    HW121749   1.234   0.676   4.938
 6950SOL    HW221750   1.373   0.653   5.020
 6951SOL     OW21751   0.317   6.007   6.580
 6951SOL    HW121752   0.327   5.935   6.649
 6951SOL    HW221753   0.404   6.021   6.535
 6952SOL     OW21754   1.351   5.106   3.376
 6952SOL    HW121755   1.382   5.195   3.341
 6952SOL    HW221756   1.430   5.045   3.386
 6953SOL     OW21757   5.261   0.012   0.332
 6953SOL    HW121758   5.341   7.002   0.380
 6953SOL    HW221759   5.289   0.042   0.241
 6954SOL     OW21760   1.001   4.280   1.354
 6954SOL    HW121761   0.954   4.269   1.442
 6954SOL    HW221762   0.944   4.334   1.293
 6955SOL     OW21763   4.645   1.148   3.072
 6955SOL    HW121764   4.714   1.076   3.077
 6955SOL    HW221765   4.686   1.235   3.097
 6956SOL     OW21766   4.859   5.973   3.200
 6956SOL    HW121767   4.844   5.878   3.176
 6956SOL    HW221768   4.901   5.979   3.291
 6957SOL     OW21769   5.915   5.433   0.054
 6957SOL    HW121770   5.944   5.439   6.986
 6957SOL    HW221771   5.872   5.519   0.081
 6958SOL     OW21772   4.086   3.329   5.030
 6958SOL    HW121773   4.162   3.380   4.989
 6958SOL    HW221774   4.022   3.301   4.958
 6959SOL     OW21775   1.741   3.940   3.334
 6959SOL    HW121776   1.755   4.035   3.363
 6959SOL    HW221777   1.743   3.935   3.234
 6960SOL     OW21778   1.863   4.003   0.735
 6960SOL    HW121779   1.902   4.093   0.755
 6960SOL    HW221780   1.920   3.932   0.777
 6961SOL     OW21781   5.723   1.305   4.777
 6961SOL    HW121782   5.783   1.294   4.698
 6961SOL    HW221783   5.736   1.396   4.817
 6962SOL     OW21784   4.319   5.942   0.957
 6962SOL    HW121785   4.347   5.847   0.976
 6962SOL    HW221786   4.400   5.999   0.947
 6963SOL     OW21787   5.458   5.041   0.882
 6963SOL    HW121788   5.533   5.105   0.865
 6963SOL    HW221789   5.471   4.997   0.971
 6964SOL     OW21790   3.379   0.573   6.286
 6964SOL    HW121791   3.346   0.487   6.249
 6964SOL    HW221792   3.448   0.612   6.225
 6965SOL     OW21793   1.825   1.718   6.811
 6965SOL    HW121794   1.840   1.639   6.751
 6965SOL    HW221795   1.727   1.740   6.813
 6966SOL     OW21796   0.230   0.647   2.526
 6966SOL    HW121797   0.138   0.633   2.563
 6966SOL    HW221798   0.238   0.601   2.438
 6967SOL     OW21799   3.231   1.454   5.385
 6967SOL    HW121800   3.268   1.496   5.467
 6967SOL    HW221801   3.285   1.481   5.306
 6968SOL     OW21802   2.646   1.090   3.787
 6968SOL    HW121803   2.626   1.177   3.742
 6968SOL    HW221804   2.670   1.022   3.717
 6969SOL     OW21805   2.886   1.857   1.400
 6969SOL    HW121806   2.838   1.922   1.459
 6969SOL    HW221807   2.893   1.895   1.307
 6970SOL     OW21808   4.259   3.546   5.390
 6970SOL    HW121809   4.194   3.505   5.327
 6970SOL    HW221810   4.214   3.618   5.442
 6971SOL     OW21811   5.989   4.834   1.199
 6971SOL    HW121812   6.085   4.826   1.169
 6971SOL    HW221813   5.929   4.800   1.126
 6972SOL     OW21814   5.309   3.951   2.424
 6972SOL    HW121815   5.323   3.856   2.452
 6972SOL    HW221816   5.294   4.007   2.506
 6973SOL     OW21817   0.456   2.521   3.677
 6973SOL    HW121818   0.418   2.449   3.619
 6973SOL    HW221819   0.452   2.492   3.773
 6974SOL     OW21820   3.065   3.854   3.120
 6974SOL    HW121821   3.073   3.877   3.023
 6974SOL    HW221822   3.009   3.772   3.130
 6975SOL     OW21823   1.668   6.694   4.501
 6975SOL    HW121824   1.731   6.757   4.455
 6975SOL    HW221825   1.574   6.715   4.473
 6976SOL     OW21826   6.271   4.330   6.064
 6976SOL    HW121827   6.310   4.359   5.976
 6976SOL    HW221828   6.345   4.318   6.130
 6977SOL     OW21829   3.284   3.270   1.045
 6977SOL    HW121830   3.373   3.308   1.069
 6977SOL    HW221831   3.296   3.197   0.979
 6978SOL     OW21832   5.474   2.459   1.680
 6978SOL    HW121833   5.480   2.440   1.582
 6978SOL    HW221834   5.562   2.494   1.713
 6979SOL     OW21835   0.856   3.401   1.195
 6979SOL    HW121836   0.902   3.473   1.246
 6979SOL    HW221837   0.853   3.426   1.098
 6980SOL     OW21838   1.661   1.332   3.349
 6980SOL    HW121839   1.676   1.268   3.424
 6980SOL    HW221840   1.747   1.375   3.324
 6981SOL     OW21841   3.800   2.939   6.178
 6981SOL    HW121842   3.742   2.990   6.114
 6981SOL    HW221843   3.885   2.990   6.193
 6982SOL     OW21844   0.732   1.100   4.248
 6982SOL    HW121845   0.654   1.064   4.197
 6982SOL    HW221846   0.809   1.115   4.185
 6983SOL     OW21847   5.133   1.535   5.277
 6983SOL    HW121848   5.153   1.556   5.182
 6983SOL    HW221849   5.038   1.560   5.297
 6984SOL     OW21850   1.836   1.749   2.733
 6984SOL    HW121851   1.768   1.702   2.788
 6984SOL    HW221852   1.808   1.748   2.637
 6985SOL     OW21853   6.585   5.378   0.813
 6985SOL    HW121854   6.614   5.473   0.816
 6985SOL    HW221855   6.636   5.329   0.743
 6986SOL     OW21856   3.601   6.627   6.637
 6986SOL    HW121857   3.691   6.663   6.664
 6986SOL    HW221858   3.543   6.617   6.717
 6987SOL     OW21859   6.836   1.590   6.297
 6987SOL    HW121860   6.804   1.666   6.353
 6987SOL    HW221861   6.758   1.549   6.249
 6988SOL     OW21862   1.716   6.673   5.973
 6988SOL    HW121863   1.617   6.691   5.975
 6988SOL    HW221864   1.731   6.575   5.962
 6989SOL     OW21865   0.055   4.448   2.853
 6989SOL    HW121866   0.140   4.398   2.835
 6989SOL    HW221867   0.048   4.469   2.950
 6990SOL     OW21868   3.963   2.709   1.403
 6990SOL    HW121869   3.979   2.766   1.323
 6990SOL    HW221870   3.976   2.763   1.486
 6991SOL     OW21871   5.465   4.438   3.259
 6991SOL    HW121872   5.423   4.501   3.193
 6991SOL    HW221873   5.527   4.490   3.318
 6992SOL     OW21874   6.594   6.512   6.573
 6992SOL    HW121875   6.547   6.440   6.521
 6992SOL    HW221876   6.656   6.470   6.639
 6993SOL     OW21877   6.285   0.708   1.574
 6993SOL    HW121878   6.303   0.732   1.670
 6993SOL    HW221879   6.270   0.792   1.521
 6994SOL     OW21880   1.172   1.222   4.297
 6994SOL    HW121881   1.101   1.284   4.330
 6994SOL    HW221882   1.157   1.130   4.334
 6995SOL     OW21883   6.985   3.872   6.928
 6995SOL    HW121884   7.018   3.943   6.866
 6995SOL    HW221885   0.035   3.821   6.965
 6996SOL     OW21886   1.426   0.461   0.238
 6996SOL    HW121887   1.427   0.476   0.139
 6996SOL    HW221888   1.479   0.379   0.259
 6997SOL     OW21889   0.432   4.901   5.236
 6997SOL    HW121890   0.403   4.806   5.227
 6997SOL    HW221891   0.500   4.909   5.310
 6998SOL     OW21892   1.265   1.596   1.247
 6998SOL    HW121893   1.340   1.660   1.229
 6998SOL    HW221894   1.302   1.507   1.273
 6999SOL     OW21895   1.969   2.060   6.232
 6999SOL    HW121896   2.024   2.027   6.155
 6999SOL    HW221897   2.030   2.092   6.305
 7000SOL     OW21898   6.108   0.581   2.495
 7000SOL    HW121899   6.143   0.549   2.407
 7000SOL    HW221900   6.050   0.510   2.535
 7001SOL     OW21901   1.129   2.573   4.985
 7001SOL    HW121902   1.202   2.539   4.924
 7001SOL    HW221903   1.042   2.532   4.958
 7002SOL     OW21904   2.130   4.965   4.043
 7002SOL    HW121905   2.220   4.942   4.005
 7002SOL    HW221906   2.120   5.064   4.046
 7003SOL     OW21907   4.771   5.851   1.586
 7003SOL    HW121908   4.774   5.949   1.606
 7003SOL    HW221909   4.681   5.815   1.610
 7004SOL     OW21910   0.604   6.200   0.652
 7004SOL    HW121911   0.670   6.236   0.586
 7004SOL    HW221912   0.590   6.102   0.634
 7005SOL     OW21913   0.978   0.635   0.629
 7005SOL    HW121914   1.029   0.597   0.551
 7005SOL    HW221915   0.901   0.575   0.649
 7006SOL     OW21916   5.618   5.736   3.544
 7006SOL    HW121917   5.683   5.758   3.617
 7006SOL    HW221918   5.575   5.821   3.511
 7007SOL     OW21919   4.005   0.668   4.579
 7007SOL    HW121920   4.000   0.762   4.547
 7007SOL    HW221921   3.924   0.647   4.634
 7008SOL     OW21922   0.626   4.528   4.410
 7008SOL    HW121923   0.613   4.579   4.325
 7008SOL    HW221924   0.714   4.481   4.407
 7009SOL     OW21925   3.967   6.883   2.003
 7009SOL    HW121926   4.036   6.894   2.074
 7009SOL    HW221927   3.919   6.796   2.016
 7010SOL     OW21928   5.815   4.621   3.609
 7010SOL    HW121929   5.839   4.524   3.612
 7010SOL    HW221930   5.803   4.656   3.702
 7011SOL     OW21931   4.035   6.890   0.728
 7011SOL    HW121932   4.119   6.942   0.715
 7011SOL    HW221933   3.964   6.926   0.666
 7012SOL     OW21934   0.708   1.921   1.131
 7012SOL    HW121935   0.713   1.823   1.152
 7012SOL    HW221936   0.635   1.963   1.184
 7013SOL     OW21937   1.695   6.862   6.704
 7013SOL    HW121938   1.612   6.914   6.686
 7013SOL    HW221939   1.682   6.806   6.786
 7014SOL     OW21940   5.602   3.404   0.596
 7014SOL    HW121941   5.541   3.433   0.523
 7014SOL    HW221942   5.548   3.375   0.675
 7015SOL     OW21943   5.528   4.764   1.808
 7015SOL    HW121944   5.603   4.828   1.826
 7015SOL    HW221945   5.441   4.807   1.834
 7016SOL     OW21946   3.971   5.210   1.454
 7016SOL    HW121947   3.917   5.215   1.539
 7016SOL    HW221948   4.000   5.116   1.438
 7017SOL     OW21949   2.899   5.081   3.051
 7017SOL    HW121950   2.857   5.087   2.960
 7017SOL    HW221951   2.984   5.134   3.053
 7018SOL     OW21952   5.253   4.032   4.526
 7018SOL    HW121953   5.230   4.022   4.430
 7018SOL    HW221954   5.197   4.104   4.567
 7019SOL     OW21955   4.087   4.954   1.653
 7019SOL    HW121956   4.073   4.953   1.752
 7019SOL    HW221957   4.044   4.874   1.612
 7020SOL     OW21958   0.359   4.056   6.048
 7020SOL    HW121959   0.434   4.121   6.052
 7020SOL    HW221960   0.273   4.105   6.036
 7021SOL     OW21961   1.749   2.994   4.082
 7021SOL    HW121962   1.804   3.027   4.005
 7021SOL    HW221963   1.806   2.987   4.164
 7022SOL     OW21964   4.924   6.943   6.983
 7022SOL    HW121965   4.836   6.990   6.992
 7022SOL    HW221966   4.939   6.885   0.035
 7023SOL     OW21967   0.335   2.658   1.075
 7023SOL    HW121968   0.245   2.659   1.032
 7023SOL    HW221969   0.351   2.569   1.118
 7024SOL     OW21970   3.573   3.479   4.394
 7024SOL    HW121971   3.548   3.480   4.297
 7024SOL    HW221972   3.664   3.439   4.405
 7025SOL     OW21973   3.562   0.895   0.872
 7025SOL    HW121974   3.463   0.910   0.878
 7025SOL    HW221975   3.605   0.971   0.823
 7026SOL     OW21976   3.831   2.049   2.153
 7026SOL    HW121977   3.764   2.101   2.100
 7026SOL    HW221978   3.795   2.032   2.245
 7027SOL     OW21979   2.263   6.064   3.874
 7027SOL    HW121980   2.184   6.004   3.879
 7027SOL    HW221981   2.276   6.109   3.963
 7028SOL     OW21982   3.765   0.277   3.874
 7028SOL    HW121983   3.742   0.220   3.953
 7028SOL    HW221984   3.683   0.291   3.818
 7029SOL     OW21985   4.436   3.411   5.587
 7029SOL    HW121986   4.441   3.461   5.501
 7029SOL    HW221987   4.511   3.441   5.647
 7030SOL     OW21988   0.546   1.000   4.461
 7030SOL    HW121989   0.626   1.041   4.417
 7030SOL    HW221990   0.486   0.961   4.391
 7031SOL     OW21991   4.151   6.028   0.213
 7031SOL    HW121992   4.146   6.128   0.213
 7031SOL    HW221993   4.079   5.991   0.154
 7032SOL     OW21994   4.055   1.068   3.474
 7032SOL    HW121995   4.035   1.142   3.538
 7032SOL    HW221996   4.119   1.004   3.517
 7033SOL     OW21997   1.343   3.122   3.359
 7033SOL    HW121998   1.281   3.154   3.288
 7033SOL    HW221999   1.379   3.200   3.410
 7034SOL     OW22000   6.784   2.285   3.095
 7034SOL    HW122001   6.780   2.185   3.099
 7034SOL    HW222002   6.708   2.319   3.040
 7035SOL     OW22003   1.786   0.120   0.915
 7035SOL    HW122004   1.722   0.175   0.861
 7035SOL    HW222005   1.742   0.088   0.998
 7036SOL     OW22006   6.757   2.037   2.148
 7036SOL    HW122007   6.747   1.970   2.075
 7036SOL    HW222008   6.827   2.006   2.213
 7037SOL     OW22009   0.586   1.211   6.144
 7037SOL    HW122010   0.540   1.173   6.064
 7037SOL    HW222011   0.538   1.182   6.227
 7038SOL     OW22012   2.348   4.524   4.903
 7038SOL    HW122013   2.388   4.497   4.990
 7038SOL    HW222014   2.315   4.443   4.854
 7039SOL     OW22015   0.215   6.421   3.722
 7039SOL    HW122016   0.145   6.363   3.681
 7039SOL    HW222017   0.270   6.462   3.649
 7040SOL     OW22018   4.874   2.588   5.724
 7040SOL    HW122019   4.919   2.677   5.737
 7040SOL    HW222020   4.832   2.585   5.634
 7041SOL     OW22021   0.457   1.976   3.183
 7041SOL    HW122022   0.444   1.926   3.268
 7041SOL    HW222023   0.373   2.026   3.161
 7042SOL     OW22024   4.623   5.994   4.229
 7042SOL    HW122025   4.582   6.082   4.204
 7042SOL    HW222026   4.715   5.989   4.190
 7043SOL     OW22027   3.167   4.958   3.554
 7043SOL    HW122028   3.200   4.909   3.474
 7043SOL    HW222029   3.155   5.054   3.532
 7044SOL     OW22030   4.777   6.599   5.095
 7044SOL    HW122031   4.737   6.650   5.171
 7044SOL    HW222032   4.875   6.587   5.111
 7045SOL     OW22033   5.335   5.825   2.242
 7045SOL    HW122034   5.242   5.789   2.240
 7045SOL    HW222035   5.381   5.794   2.326
 7046SOL     OW22036   3.248   1.727   3.891
 7046SOL    HW122037   3.191   1.683   3.822
 7046SOL    HW222038   3.299   1.802   3.849
 7047SOL     OW22039   0.051   0.927   1.352
 7047SOL    HW122040   0.064   0.908   1.255
 7047SOL    HW222041   0.080   1.021   1.372
 7048SOL     OW22042   5.749   6.342   4.724
 7048SOL    HW122043   5.778   6.258   4.770
 7048SOL    HW222044   5.652   6.335   4.700
 7049SOL     OW22045   3.251   1.813   2.363
 7049SOL    HW122046   3.158   1.821   2.399
 7049SOL    HW222047   3.252   1.837   2.266
 7050SOL     OW22048   3.864   4.333   1.161
 7050SOL    HW122049   3.839   4.331   1.065
 7050SOL    HW222050   3.945   4.277   1.176
 7051SOL     OW22051   6.836   6.361   1.152
 7051SOL    HW122052   6.864   6.438   1.210
 7051SOL    HW222053   6.914   6.332   1.096
 7052SOL     OW22054   5.511   0.531   3.614
 7052SOL    HW122055   5.445   0.529   3.688
 7052SOL    HW222056   5.517   0.441   3.571
 7053SOL     OW22057   1.875   4.021   4.273
 7053SOL    HW122058   1.847   4.117   4.270
 7053SOL    HW222059   1.963   4.011   4.227
 7054SOL     OW22060   0.296   6.842   1.698
 7054SOL    HW122061   0.218   6.786   1.727
 7054SOL    HW222062   0.315   6.911   1.767
 7055SOL     OW22063   3.081   6.934   0.335
 7055SOL    HW122064   3.046   7.025   0.360
 7055SOL    HW222065   3.046   6.866   0.399
 7056SOL     OW22066   0.082   5.607   1.236
 7056SOL    HW122067   0.116   5.696   1.205
 7056SOL    HW222068   0.131   5.534   1.187
 7057SOL     OW22069   3.055   5.921   4.096
 7057SOL    HW122070   3.097   5.940   4.008
 7057SOL    HW222071   3.097   5.977   4.167
 7058SOL     OW22072   5.369   1.863   6.502
 7058SOL    HW122073   5.394   1.886   6.596
 7058SOL    HW222074   5.282   1.814   6.502
 7059SOL     OW22075   1.317   0.894   4.101
 7059SOL    HW122076   1.395   0.917   4.158
 7059SOL    HW222077   1.339   0.913   4.005
 7060SOL     OW22078   3.782   6.497   1.515
 7060SOL    HW122079   3.738   6.457   1.596
 7060SOL    HW222080   3.864   6.546   1.543
 7061SOL     OW22081   0.426   2.747   3.081
 7061SOL    HW122082   0.384   2.808   3.149
 7061SOL    HW222083   0.522   2.770   3.070
 7062SOL     OW22084   3.948   2.026   5.187
 7062SOL    HW122085   4.028   1.966   5.196
 7062SOL    HW222086   3.900   2.004   5.102
 7063SOL     OW22087   0.944   0.390   1.863
 7063SOL    HW122088   0.853   0.365   1.830
 7063SOL    HW222089   0.999   0.422   1.786
 7064SOL     OW22090   4.561   1.682   6.357
 7064SOL    HW122091   4.497   1.758   6.356
 7064SOL    HW222092   4.595   1.668   6.450
 7065SOL     OW22093   3.838   4.194   5.276
 7065SOL    HW122094   3.866   4.126   5.208
 7065SOL    HW222095   3.750   4.233   5.250
 7066SOL     OW22096   4.507   0.391   6.077
 7066SOL    HW122097   4.527   0.398   5.980
 7066SOL    HW222098   4.578   0.439   6.129
 7067SOL     OW22099   1.309   3.185   6.566
 7067SOL    HW122100   1.256   3.241   6.502
 7067SOL    HW222101   1.406   3.195   6.546
 7068SOL     OW22102   5.650   4.296   4.210
 7068SOL    HW122103   5.694   4.366   4.154
 7068SOL    HW222104   5.721   4.245   4.260
 7069SOL     OW22105   5.862   1.996   5.434
 7069SOL    HW122106   5.868   2.003   5.533
 7069SOL    HW222107   5.863   2.088   5.394
 7070SOL     OW22108   1.186   6.663   4.117
 7070SOL    HW122109   1.107   6.712   4.081
 7070SOL    HW222110   1.261   6.665   4.050
 7071SOL     OW22111   4.688   6.107   6.611
 7071SOL    HW122112   4.740   6.041   6.555
 7071SOL    HW222113   4.752   6.163   6.663
 7072SOL     OW22114   2.049   4.905   6.996
 7072SOL    HW122115   2.050   4.830   0.034
 7072SOL    HW222116   1.989   4.978   0.001
 7073SOL     OW22117   3.685   0.036   3.119
 7073SOL    HW122118   3.703   0.089   3.201
 7073SOL    HW222119   3.770   7.026   3.084
 7074SOL     OW22120   6.403   3.416   3.416
 7074SOL    HW122121   6.418   3.451   3.323
 7074SOL    HW222122   6.316   3.367   3.419
 7075SOL     OW22123   3.071   5.082   4.688
 7075SOL    HW122124   3.001   5.071   4.759
 7075SOL    HW222125   3.149   5.132   4.727
 7076SOL     OW22126   5.801   2.827   0.978
 7076SOL    HW122127   5.832   2.919   1.001
 7076SOL    HW222128   5.707   2.832   0.941
 7077SOL     OW22129   2.277   4.335   2.679
 7077SOL    HW122130   2.259   4.277   2.600
 7077SOL    HW222131   2.369   4.374   2.671
 7078SOL     OW22132   6.103   6.257   0.999
 7078SOL    HW122133   6.086   6.353   1.018
 7078SOL    HW222134   6.018   6.205   1.011
 7079SOL     OW22135   1.176   0.181   4.200
 7079SOL    HW122136   1.214   0.116   4.134
 7079SOL    HW222137   1.121   0.249   4.152
 7080SOL     OW22138   3.870   1.870   4.033
 7080SOL    HW122139   3.923   1.788   4.055
 7080SOL    HW222140   3.844   1.917   4.117
 7081SOL     OW22141   1.156   6.311   0.409
 7081SOL    HW122142   1.080   6.260   0.448
 7081SOL    HW222143   1.241   6.285   0.454
 7082SOL     OW22144   6.817   3.920   1.295
 7082SOL    HW122145   6.718   3.928   1.279
 7082SOL    HW222146   6.859   4.011   1.289
 7083SOL     OW22147   0.225   1.851   2.775
 7083SOL    HW122148   0.308   1.892   2.738
 7083SOL    HW222149   0.157   1.923   2.793
 7084SOL     OW22150   0.660   5.609   5.596
 7084SOL    HW122151   0.672   5.550   5.517
 7084SOL    HW222152   0.642   5.703   5.566
 7085SOL     OW22153   6.398   2.516   2.607
 7085SOL    HW122154   6.484   2.522   2.657
 7085SOL    HW222155   6.352   2.605   2.609
 7086SOL     OW22156   5.857   0.420   6.544
 7086SOL    HW122157   5.906   0.507   6.549
 7086SOL    HW222158   5.822   0.407   6.451
 7087SOL     OW22159   5.343   3.454   2.310
 7087SOL    HW122160   5.354   3.413   2.401
 7087SOL    HW222161   5.331   3.381   2.243
 7088SOL     OW22162   5.180   2.275   5.910
 7088SOL    HW122163   5.082   2.255   5.916
 7088SOL    HW222164   5.225   2.245   5.994
 7089SOL     OW22165   2.625   4.834   2.449
 7089SOL    HW122166   2.589   4.816   2.358
 7089SOL    HW222167   2.653   4.930   2.455
 7090SOL     OW22168   2.322   1.851   0.843
 7090SOL    HW122169   2.251   1.785   0.821
 7090SOL    HW222170   2.353   1.895   0.759
 7091SOL     OW22171   0.895   1.007   1.548
 7091SOL    HW122172   0.934   0.939   1.610
 7091SOL    HW222173   0.903   1.097   1.589
 7092SOL     OW22174   3.828   2.666   6.260
 7092SOL    HW122175   3.806   2.750   6.210
 7092SOL    HW222176   3.845   2.592   6.195
 7093SOL     OW22177   3.581   3.519   1.684
 7093SOL    HW122178   3.549   3.550   1.774
 7093SOL    HW222179   3.598   3.421   1.687
 7094SOL     OW22180   1.536   6.797   5.272
 7094SOL    HW122181   1.487   6.769   5.355
 7094SOL    HW222182   1.628   6.758   5.272
 7095SOL     OW22183   3.670   5.058   5.789
 7095SOL    HW122184   3.612   5.056   5.871
 7095SOL    HW222185   3.690   5.153   5.765
 7096SOL     OW22186   6.809   0.487   2.266
 7096SOL    HW122187   6.846   0.555   2.329
 7096SOL    HW222188   6.884   0.437   2.223
 7097SOL     OW22189   4.865   0.600   2.121
 7097SOL    HW122190   4.861   0.571   2.025
 7097SOL    HW222191   4.779   0.643   2.147
 7098SOL     OW22192   1.615   6.184   5.786
 7098SOL    HW122193   1.689   6.120   5.807
 7098SOL    HW222194   1.608   6.253   5.857
 7099SOL     OW22195   3.536   1.835   4.114
 7099SOL    HW122196   3.453   1.816   4.167
 7099SOL    HW222197   3.616   1.820   4.171
 7100SOL     OW22198   6.703   3.212   0.893
 7100SOL    HW122199   6.670   3.225   0.799
 7100SOL    HW222200   6.716   3.301   0.937
 7101SOL     OW22201   2.679   0.421   5.352
 7101SOL    HW122202   2.619   0.389   5.279
 7101SOL    HW222203   2.700   0.345   5.414
 7102SOL     OW22204   5.420   0.407   1.543
 7102SOL    HW122205   5.490   0.434   1.609
 7102SOL    HW222206   5.452   0.328   1.491
 7103SOL     OW22207   4.872   5.261   1.934
 7103SOL    HW122208   4.891   5.243   1.837
 7103SOL    HW222209   4.834   5.179   1.976
 7104SOL     OW22210   5.396   3.699   2.578
 7104SOL    HW122211   5.444   3.614   2.597
 7104SOL    HW222212   5.323   3.712   2.645
 7105SOL     OW22213   3.878   4.014   4.360
 7105SOL    HW122214   3.811   3.963   4.415
 7105SOL    HW222215   3.933   3.950   4.307
 7106SOL     OW22216   3.051   2.829   0.850
 7106SOL    HW122217   3.001   2.748   0.821
 7106SOL    HW222218   3.091   2.813   0.941
 7107SOL     OW22219   3.841   0.376   0.271
 7107SOL    HW122220   3.760   0.399   0.324
 7107SOL    HW222221   3.827   0.289   0.224
 7108SOL     OW22222   2.827   6.371   2.135
 7108SOL    HW122223   2.806   6.273   2.141
 7108SOL    HW222224   2.788   6.409   2.051
 7109SOL     OW22225   1.601   0.730   6.501
 7109SOL    HW122226   1.672   0.743   6.432
 7109SOL    HW222227   1.511   0.744   6.459
 7110SOL     OW22228   3.443   6.365   4.167
 7110SOL    HW122229   3.502   6.423   4.224
 7110SOL    HW222230   3.451   6.393   4.071
 7111SOL     OW22231   1.560   1.766   3.982
 7111SOL    HW122232   1.496   1.693   3.959
 7111SOL    HW222233   1.649   1.748   3.940
 7112SOL     OW22234   2.247   4.254   4.779
 7112SOL    HW122235   2.264   4.190   4.854
 7112SOL    HW222236   2.295   4.223   4.697
 7113SOL     OW22237   3.277   4.725   5.341
 7113SOL    HW122238   3.189   4.759   5.307
 7113SOL    HW222239   3.351   4.769   5.291
 7114SOL     OW22240   4.226   5.697   1.295
 7114SOL    HW122241   4.306   5.664   1.245
 7114SOL    HW222242   4.178   5.620   1.336
 7115SOL     OW22243   5.592   3.666   6.947
 7115SOL    HW122244   5.502   3.633   6.920
 7115SOL    HW222245   5.592   3.686   0.017
 7116SOL     OW22246   5.759   4.057   3.527
 7116SOL    HW122247   5.768   3.985   3.459
 7116SOL    HW222248   5.763   4.017   3.619
 7117SOL     OW22249   6.844   0.052   3.930
 7117SOL    HW122250   6.787   7.001   3.951
 7117SOL    HW222251   6.888   0.038   3.841
 7118SOL     OW22252   4.025   4.373   5.334
 7118SOL    HW122253   4.085   4.396   5.258
 7118SOL    HW222254   3.959   4.303   5.306
 7119SOL     OW22255   5.202   0.755   5.032
 7119SOL    HW122256   5.296   0.768   5.001
 7119SOL    HW222257   5.193   0.666   5.077
 7120SOL     OW22258   5.065   1.380   1.338
 7120SOL    HW122259   5.154   1.417   1.365
 7120SOL    HW222260   5.000   1.455   1.323
 7121SOL     OW22261   0.531   6.062   3.112
 7121SOL    HW122262   0.516   6.137   3.049
 7121SOL    HW222263   0.598   6.090   3.181
 7122SOL     OW22264   1.997   0.001   5.799
 7122SOL    HW122265   1.985   0.098   5.819
 7122SOL    HW222266   1.920   6.996   5.745
 7123SOL     OW22267   6.857   4.910   4.170
 7123SOL    HW122268   6.826   4.976   4.102
 7123SOL    HW222269   6.948   4.878   4.146
 7124SOL     OW22270   0.635   2.168   1.469
 7124SOL    HW122271   0.734   2.157   1.461
 7124SOL    HW222272   0.612   2.193   1.564
 7125SOL     OW22273   1.229   0.998   1.445
 7125SOL    HW122274   1.243   0.994   1.544
 7125SOL    HW222275   1.243   1.092   1.413
 7126SOL     OW22276   4.152   6.033   0.517
 7126SOL    HW122277   4.072   5.975   0.532
 7126SOL    HW222278   4.169   6.041   0.419
 7127SOL     OW22279   2.901   6.327   5.792
 7127SOL    HW122280   2.847   6.245   5.777
 7127SOL    HW222281   2.995   6.312   5.762
 7128SOL     OW22282   3.840   4.036   6.953
 7128SOL    HW122283   3.906   4.111   6.961
 7128SOL    HW222284   3.858   3.984   6.870
 7129SOL     OW22285   0.719   1.305   1.432
 7129SOL    HW122286   0.796   1.284   1.372
 7129SOL    HW222287   0.659   1.226   1.439
 7130SOL     OW22288   3.780   0.077   4.475
 7130SOL    HW122289   3.709   0.020   4.434
 7130SOL    HW222290   3.831   0.023   4.542
 7131SOL     OW22291   3.425   1.355   2.198
 7131SOL    HW122292   3.397   1.378   2.105
 7131SOL    HW222293   3.428   1.438   2.254
 7132SOL     OW22294   5.286   4.309   0.098
 7132SOL    HW122295   5.251   4.245   0.166
 7132SOL    HW222296   5.356   4.367   0.140
 7133SOL     OW22297   4.357   5.018   4.165
 7133SOL    HW122298   4.297   4.998   4.243
 7133SOL    HW222299   4.367   4.936   4.109
 7134SOL     OW22300   5.410   6.289   1.906
 7134SOL    HW122301   5.455   6.342   1.834
 7134SOL    HW222302   5.459   6.203   1.920
 7135SOL     OW22303   2.239   2.988   2.411
 7135SOL    HW122304   2.331   2.991   2.371
 7135SOL    HW222305   2.171   3.003   2.339
 7136SOL     OW22306   2.111   1.620   1.305
 7136SOL    HW122307   2.174   1.664   1.242
 7136SOL    HW222308   2.125   1.521   1.302
 7137SOL     OW22309   2.996   1.459   0.586
 7137SOL    HW122310   2.986   1.548   0.630
 7137SOL    HW222311   2.935   1.393   0.630
 7138SOL     OW22312   2.143   1.125   1.643
 7138SOL    HW122313   2.158   1.187   1.720
 7138SOL    HW222314   2.231   1.086   1.615
 7139SOL     OW22315   5.068   4.922   1.810
 7139SOL    HW122316   5.167   4.923   1.823
 7139SOL    HW222317   5.047   4.933   1.713
 7140SOL     OW22318   6.181   4.726   0.923
 7140SOL    HW122319   6.234   4.791   0.977
 7140SOL    HW222320   6.094   4.709   0.967
 7141SOL     OW22321   4.358   6.697   1.316
 7141SOL    HW122322   4.264   6.700   1.283
 7141SOL    HW222323   4.358   6.669   1.412
 7142SOL     OW22324   3.589   0.384   4.112
 7142SOL    HW122325   3.673   0.417   4.069
 7142SOL    HW222326   3.538   0.461   4.150
 7143SOL     OW22327   1.566   3.978   6.629
 7143SOL    HW122328   1.543   3.943   6.720
 7143SOL    HW222329   1.506   4.055   6.607
 7144SOL     OW22330   0.241   1.099   4.315
 7144SOL    HW122331   0.236   1.160   4.395
 7144SOL    HW222332   0.214   1.150   4.233
 7145SOL     OW22333   4.583   0.930   6.812
 7145SOL    HW122334   4.526   0.848   6.814
 7145SOL    HW222335   4.548   0.996   6.878
 7146SOL     OW22336   2.194   1.654   5.827
 7146SOL    HW122337   2.179   1.586   5.756
 7146SOL    HW222338   2.130   1.638   5.902
 7147SOL     OW22339   6.070   5.602   3.539
 7147SOL    HW122340   5.992   5.653   3.505
 7147SOL    HW222341   6.043   5.551   3.621
 7148SOL     OW22342   6.268   5.620   1.331
 7148SOL    HW122343   6.223   5.534   1.307
 7148SOL    HW222344   6.202   5.695   1.321
 7149SOL     OW22345   6.683   4.969   3.681
 7149SOL    HW122346   6.685   4.902   3.607
 7149SOL    HW222347   6.591   4.975   3.718
 7150SOL     OW22348   4.508   3.282   0.246
 7150SOL    HW122349   4.515   3.218   0.323
 7150SOL    HW222350   4.590   3.339   0.242
 7151SOL     OW22351   3.316   6.874   0.694
 7151SOL    HW122352   3.255   6.881   0.773
 7151SOL    HW222353   3.289   6.797   0.637
 7152SOL     OW22354   6.392   0.751   6.465
 7152SOL    HW122355   6.446   0.777   6.384
 7152SOL    HW222356   6.451   0.704   6.530
 7153SOL     OW22357   3.437   5.231   2.098
 7153SOL    HW122358   3.534   5.208   2.103
 7153SOL    HW222359   3.388   5.159   2.049
 7154SOL     OW22360   3.988   0.829   2.977
 7154SOL    HW122361   4.078   0.874   2.984
 7154SOL    HW222362   3.916   0.898   2.975
 7155SOL     OW22363   2.764   2.480   0.996
 7155SOL    HW122364   2.738   2.440   1.084
 7155SOL    HW222365   2.745   2.414   0.923
 7156SOL     OW22366   5.011   3.589   2.406
 7156SOL    HW122367   4.957   3.633   2.333
 7156SOL    HW222368   5.108   3.589   2.380
 7157SOL     OW22369   6.408   4.487   0.971
 7157SOL    HW122370   6.330   4.482   1.033
 7157SOL    HW222371   6.378   4.524   0.883
 7158SOL     OW22372   6.466   0.707   3.805
 7158SOL    HW122373   6.521   0.741   3.730
 7158SOL    HW222374   6.424   0.619   3.779
 7159SOL     OW22375   0.688   4.866   4.202
 7159SOL    HW122376   0.708   4.962   4.186
 7159SOL    HW222377   0.771   4.811   4.187
 7160SOL     OW22378   5.866   6.522   2.650
 7160SOL    HW122379   5.864   6.431   2.693
 7160SOL    HW222380   5.942   6.575   2.688
 7161SOL     OW22381   3.703   3.725   2.952
 7161SOL    HW122382   3.675   3.629   2.958
 7161SOL    HW222383   3.788   3.732   2.899
 7162SOL     OW22384   0.049   4.456   0.523
 7162SOL    HW122385   7.000   4.410   0.567
 7162SOL    HW222386   0.134   4.409   0.548
 7163SOL     OW22387   1.756   1.063   2.731
 7163SOL    HW122388   1.813   0.981   2.729
 7163SOL    HW222389   1.806   1.140   2.694
 7164SOL     OW22390   1.848   1.386   5.078
 7164SOL    HW122391   1.932   1.378   5.132
 7164SOL    HW222392   1.857   1.332   4.994
 7165SOL     OW22393   6.197   6.278   1.312
 7165SOL    HW122394   6.283   6.235   1.282
 7165SOL    HW222395   6.137   6.290   1.233
 7166SOL     OW22396   5.538   0.193   6.207
 7166SOL    HW122397   5.524   0.286   6.243
 7166SOL    HW222398   5.454   0.161   6.164
 7167SOL     OW22399   5.404   2.137   5.848
 7167SOL    HW122400   5.395   2.039   5.867
 7167SOL    HW222401   5.314   2.181   5.855
 7168SOL     OW22402   3.124   1.321   2.700
 7168SOL    HW122403   3.128   1.235   2.649
 7168SOL    HW222404   3.128   1.302   2.798
 7169SOL     OW22405   1.350   4.138   5.349
 7169SOL    HW122406   1.252   4.118   5.344
 7169SOL    HW222407   1.381   4.178   5.263
 7170SOL     OW22408   4.436   0.030   2.388
 7170SOL    HW122409   4.500   0.105   2.372
 7170SOL    HW222410   4.450   7.021   2.480
 7171SOL     OW22411   5.942   4.639   1.012
 7171SOL    HW122412   5.934   4.558   1.070
 7171SOL    HW222413   5.862   4.646   0.953
 7172SOL     OW22414   1.840   1.735   5.236
 7172SOL    HW122415   1.835   1.829   5.271
 7172SOL    HW222416   1.807   1.672   5.306
 7173SOL     OW22417   6.220   5.258   6.561
 7173SOL    HW122418   6.280   5.186   6.595
 7173SOL    HW222419   6.249   5.346   6.600
 7174SOL     OW22420   6.732   4.735   1.325
 7174SOL    HW122421   6.658   4.687   1.277
 7174SOL    HW222422   6.703   4.829   1.343
 7175SOL     OW22423   6.438   4.013   5.458
 7175SOL    HW122424   6.338   4.017   5.453
 7175SOL    HW222425   6.471   3.935   5.406
 7176SOL     OW22426   0.681   1.358   4.352
 7176SOL    HW122427   0.695   1.269   4.308
 7176SOL    HW222428   0.651   1.425   4.284
 7177SOL     OW22429   2.130   5.758   5.641
 7177SOL    HW122430   2.227   5.759   5.664
 7177SOL    HW222431   2.093   5.666   5.658
 7178SOL     OW22432   0.576   0.736   5.762
 7178SOL    HW122433   0.633   0.814   5.734
 7178SOL    HW222434   0.494   0.732   5.705
 7179SOL     OW22435   2.482   4.454   5.161
 7179SOL    HW122436   2.405   4.394   5.179
 7179SOL    HW222437   2.518   4.489   5.248
 7180SOL     OW22438   2.439   4.490   0.869
 7180SOL    HW122439   2.476   4.455   0.955
 7180SOL    HW222440   2.340   4.499   0.876
 7181SOL     OW22441   2.216   1.022   6.205
 7181SOL    HW122442   2.211   1.073   6.119
 7181SOL    HW222443   2.312   1.017   6.235
 7182SOL     OW22444   1.232   4.075   3.642
 7182SOL    HW122445   1.226   4.056   3.545
 7182SOL    HW222446   1.159   4.138   3.668
 7183SOL     OW22447   1.919   5.886   1.980
 7183SOL    HW122448   1.934   5.980   2.013
 7183SOL    HW222449   1.973   5.871   1.898
 7184SOL     OW22450   5.655   1.373   3.372
 7184SOL    HW122451   5.606   1.298   3.417
 7184SOL    HW222452   5.603   1.404   3.292
 7185SOL     OW22453   5.356   1.051   5.402
 7185SOL    HW122454   5.381   1.008   5.316
 7185SOL    HW222455   5.257   1.065   5.405
 7186SOL     OW22456   0.358   0.954   0.850
 7186SOL    HW122457   0.309   0.881   0.803
 7186SOL    HW222458   0.379   0.926   0.943
 7187SOL     OW22459   3.233   3.786   5.233
 7187SOL    HW122460   3.169   3.852   5.192
 7187SOL    HW222461   3.230   3.794   5.333
 7188SOL     OW22462   5.017   4.012   0.198
 7188SOL    HW122463   5.034   4.098   0.245
 7188SOL    HW222464   4.919   3.990   0.201
 7189SOL     OW22465   6.231   3.563   5.541
 7189SOL    HW122466   6.309   3.501   5.549
 7189SOL    HW222467   6.236   3.633   5.612
 7190SOL     OW22468   6.025   5.871   0.979
 7190SOL    HW122469   6.004   5.948   1.039
 7190SOL    HW222470   5.993   5.891   0.886
 7191SOL     OW22471   0.166   4.080   3.484
 7191SOL    HW122472   0.146   3.983   3.472
 7191SOL    HW222473   0.224   4.092   3.564
 7192SOL     OW22474   1.932   4.403   6.020
 7192SOL    HW122475   1.933   4.342   5.941
 7192SOL    HW222476   2.004   4.376   6.084
 7193SOL     OW22477   2.736   1.539   2.887
 7193SOL    HW122478   2.686   1.486   2.956
 7193SOL    HW222479   2.834   1.527   2.901
 7194SOL     OW22480   1.895   2.192   6.986
 7194SOL    HW122481   1.930   2.115   6.932
 7194SOL    HW222482   1.801   2.174   7.014
 7195SOL     OW22483   6.551   4.179   6.690
 7195SOL    HW122484   6.632   4.198   6.634
 7195SOL    HW222485   6.519   4.263   6.732
 7196SOL     OW22486   3.252   3.888   2.465
 7196SOL    HW122487   3.155   3.874   2.447
 7196SOL    HW222488   3.286   3.964   2.409
 7197SOL     OW22489   0.877   3.990   5.394
 7197SOL    HW122490   0.964   3.971   5.348
 7197SOL    HW222491   0.876   3.944   5.483
 7198SOL     OW22492   0.378   0.681   0.170
 7198SOL    HW122493   0.468   0.661   0.132
 7198SOL    HW222494   0.308   0.634   0.116
 7199SOL     OW22495   1.204   7.024   2.422
 7199SOL    HW122496   1.205   0.051   2.505
 7199SOL    HW222497   1.236   0.052   2.345
 7200SOL     OW22498   2.066   3.200   1.044
 7200SOL    HW122499   1.976   3.241   1.059
 7200SOL    HW222500   2.065   3.148   0.959
 7201SOL     OW22501   0.004   5.667   4.423
 7201SOL    HW122502   7.009   5.743   4.362
 7201SOL    HW222503   6.962   5.659   4.494
 7202SOL     OW22504   5.237   0.340   5.611
 7202SOL    HW122505   5.315   0.396   5.582
 7202SOL    HW222506   5.171   0.335   5.536
 7203SOL     OW22507   1.026   0.836   1.691
 7203SOL    HW122508   1.104   0.899   1.700
 7203SOL    HW222509   1.038   0.781   1.609
 7204SOL     OW22510   5.843   1.394   0.241
 7204SOL    HW122511   5.885   1.468   0.293
 7204SOL    HW222512   5.899   1.311   0.249
 7205SOL     OW22513   1.216   3.294   4.514
 7205SOL    HW122514   1.117   3.293   4.511
 7205SOL    HW222515   1.248   3.229   4.583
 7206SOL     OW22516   0.959   1.432   1.199
 7206SOL    HW122517   0.954   1.348   1.145
 7206SOL    HW222518   0.999   1.505   1.144
 7207SOL     OW22519   2.793   1.470   3.691
 7207SOL    HW122520   2.712   1.492   3.746
 7207SOL    HW222521   2.830   1.554   3.651
 7208SOL     OW22522   4.636   0.017   3.929
 7208SOL    HW122523   4.638   6.956   3.883
 7208SOL    HW222524   4.718   0.027   3.985
 7209SOL     OW22525   2.145   2.448   2.223
 7209SOL    HW122526   2.058   2.445   2.273
 7209SOL    HW222527   2.196   2.529   2.251
 7210SOL     OW22528   3.781   1.736   3.288
 7210SOL    HW122529   3.821   1.668   3.227
 7210SOL    HW222530   3.717   1.793   3.237
 7211SOL     OW22531   3.117   6.041   5.327
 7211SOL    HW122532   3.059   6.006   5.400
 7211SOL    HW222533   3.061   6.059   5.246
 7212SOL     OW22534   7.027   6.654   6.408
 7212SOL    HW122535   6.938   6.698   6.395
 7212SOL    HW222536   0.056   6.710   6.468
 7213SOL     OW22537   3.854   6.346   6.643
 7213SOL    HW122538   3.867   6.420   6.576
 7213SOL    HW222539   3.835   6.261   6.594
 7214SOL     OW22540   0.128   0.898   5.844
 7214SOL    HW122541   0.049   0.863   5.793
 7214SOL    HW222542   0.131   0.997   5.837
 7215SOL     OW22543   6.381   2.819   4.283
 7215SOL    HW122544   6.281   2.817   4.290
 7215SOL    HW222545   6.415   2.907   4.317
 7216SOL     OW22546   3.204   6.071   1.967
 7216SOL    HW122547   3.163   6.115   2.047
 7216SOL    HW222548   3.148   6.090   1.886
 7217SOL     OW22549   1.816   4.182   3.440
 7217SOL    HW122550   1.829   4.175   3.539
 7217SOL    HW222551   1.893   4.230   3.399
 7218SOL     OW22552   0.146   3.271   3.522
 7218SOL    HW122553   0.050   3.300   3.526
 7218SOL    HW222554   0.165   3.210   3.598
 7219SOL     OW22555   3.233   0.017   1.481
 7219SOL    HW122556   3.218   7.000   1.569
 7219SOL    HW222557   3.331   0.016   1.459
 7220SOL     OW22558   6.675   4.498   4.157
 7220SOL    HW122559   6.733   4.555   4.215
 7220SOL    HW222560   6.732   4.432   4.108
 7221SOL     OW22561   3.256   5.899   4.793
 7221SOL    HW122562   3.315   5.888   4.873
 7221SOL    HW222563   3.251   5.996   4.769
 7222SOL     OW22564   5.367   0.252   3.085
 7222SOL    HW122565   5.285   0.199   3.063
 7222SOL    HW222566   5.394   0.306   3.006
 7223SOL     OW22567   2.788   1.025   0.580
 7223SOL    HW122568   2.702   1.016   0.529
 7223SOL    HW222569   2.794   0.952   0.648
 7224SOL     OW22570   4.573   2.275   4.378
 7224SOL    HW122571   4.539   2.343   4.442
 7224SOL    HW222572   4.500   2.209   4.357
 7225SOL     OW22573   1.916   6.564   1.118
 7225SOL    HW122574   1.993   6.539   1.058
 7225SOL    HW222575   1.872   6.647   1.083
 7226SOL     OW22576   6.052   0.467   1.255
 7226SOL    HW122577   5.974   0.528   1.241
 7226SOL    HW222578   6.128   0.519   1.292
 7227SOL     OW22579   2.844   1.391   1.835
 7227SOL    HW122580   2.934   1.416   1.801
 7227SOL    HW222581   2.782   1.469   1.826
 7228SOL     OW22582   0.795   1.534   3.413
 7228SOL    HW122583   0.790   1.559   3.316
 7228SOL    HW222584   0.890   1.523   3.440
 7229SOL     OW22585   6.926   6.770   4.672
 7229SOL    HW122586   6.975   6.843   4.719
 7229SOL    HW222587   6.992   6.705   4.633
 7230SOL     OW22588   2.720   5.343   3.492
 7230SOL    HW122589   2.795   5.405   3.513
 7230SOL    HW222590   2.747   5.280   3.419
 7231SOL     OW22591   4.003   0.661   0.891
 7231SOL    HW122592   3.905   0.640   0.887
 7231SOL    HW222593   4.050   0.613   0.817
 7232SOL     OW22594   4.534   6.231   2.587
 7232SOL    HW122595   4.575   6.140   2.586
 7232SOL    HW222596   4.592   6.293   2.640
 7233SOL     OW22597   1.035   1.004   5.161
 7233SOL    HW122598   1.071   1.007   5.254
 7233SOL    HW222599   1.109   1.017   5.096
 7234SOL     OW22600   5.481   3.081   2.907
 7234SOL    HW122601   5.558   3.107   2.965
 7234SOL    HW222602   5.514   3.055   2.816
 7235SOL     OW22603   6.588   5.062   1.540
 7235SOL    HW122604   6.657   5.045   1.610
 7235SOL    HW222605   6.557   5.157   1.546
 7236SOL     OW22606   2.083   2.644   2.897
 7236SOL    HW122607   2.042   2.697   2.822
 7236SOL    HW222608   2.011   2.609   2.956
 7237SOL     OW22609   4.090   6.805   6.594
 7237SOL    HW122610   4.188   6.806   6.611
 7237SOL    HW222611   4.073   6.826   6.497
 7238SOL     OW22612   4.685   2.261   6.559
 7238SOL    HW122613   4.725   2.196   6.624
 7238SOL    HW222614   4.755   2.327   6.530
 7239SOL     OW22615   1.078   2.825   2.053
 7239SOL    HW122616   1.024   2.754   2.098
 7239SOL    HW222617   1.167   2.789   2.028
 7240SOL     OW22618   6.893   1.429   6.975
 7240SOL    HW122619   6.885   1.333   7.002
 7240SOL    HW222620   6.850   1.486   0.017
 7241SOL     OW22621   2.487   6.940   0.593
 7241SOL    HW122622   2.414   6.988   0.642
 7241SOL    HW222623   2.562   7.003   0.574
 7242SOL     OW22624   0.028   5.377   5.320
 7242SOL    HW122625   6.965   5.417   5.332
 7242SOL    HW222626   0.018   5.284   5.284
 7243SOL     OW22627   0.211   4.508   6.420
 7243SOL    HW122628   0.124   4.478   6.459
 7243SOL    HW222629   0.215   4.480   6.324
 7244SOL     OW22630   0.205   0.559   0.995
 7244SOL    HW122631   0.139   0.496   0.954
 7244SOL    HW222632   0.265   0.596   0.923
 7245SOL     OW22633   1.467   2.381   5.087
 7245SOL    HW122634   1.471   2.281   5.097
 7245SOL    HW222635   1.435   2.422   5.172
 7246SOL     OW22636   1.764   0.753   3.726
 7246SOL    HW122637   1.670   0.771   3.753
 7246SOL    HW222638   1.784   0.655   3.735
 7247SOL     OW22639   2.863   2.116   5.439
 7247SOL    HW122640   2.838   2.040   5.380
 7247SOL    HW222641   2.807   2.114   5.522
 7248SOL     OW22642   3.278   0.787   3.399
 7248SOL    HW122643   3.183   0.802   3.373
 7248SOL    HW222644   3.327   0.743   3.324
 7249SOL     OW22645   4.381   5.058   1.906
 7249SOL    HW122646   4.456   4.996   1.880
 7249SOL    HW222647   4.349   5.107   1.824
 7250SOL     OW22648   5.062   5.017   5.759
 7250SOL    HW122649   5.135   4.968   5.807
 7250SOL    HW222650   5.098   5.101   5.719
 7251SOL     OW22651   1.073   0.349   5.097
 7251SOL    HW122652   1.075   0.447   5.077
 7251SOL    HW222653   1.151   0.325   5.154
 7252SOL     OW22654   3.083   3.482   1.748
 7252SOL    HW122655   3.141   3.501   1.669
 7252SOL    HW222656   2.990   3.459   1.717
 7253SOL     OW22657   2.043   6.009   6.648
 7253SOL    HW122658   2.128   5.971   6.609
 7253SOL    HW222659   1.981   5.935   6.671
 7254SOL     OW22660   5.354   5.589   4.583
 7254SOL    HW122661   5.422   5.517   4.571
 7254SOL    HW222662   5.326   5.592   4.679
 7255SOL     OW22663   4.445   3.600   7.000
 7255SOL    HW122664   4.374   3.530   6.999
 7255SOL    HW222665   4.406   3.689   6.976
 7256SOL     OW22666   3.703   6.323   5.485
 7256SOL    HW122667   3.614   6.362   5.460
 7256SOL    HW222668   3.694   6.225   5.500
 7257SOL     OW22669   0.758   2.050   3.977
 7257SOL    HW122670   0.667   2.012   3.964
 7257SOL    HW222671   0.826   1.992   3.931
 7258SOL     OW22672   5.539   2.093   2.939
 7258SOL    HW122673   5.443   2.094   2.967
 7258SOL    HW222674   5.548   2.041   2.854
 7259SOL     OW22675   1.609   3.224   2.272
 7259SOL    HW122676   1.574   3.172   2.350
 7259SOL    HW222677   1.533   3.254   2.215
 7260SOL     OW22678   5.478   1.764   1.888
 7260SOL    HW122679   5.469   1.832   1.814
 7260SOL    HW222680   5.574   1.755   1.914
 7261SOL     OW22681   0.849   4.420   1.094
 7261SOL    HW122682   0.757   4.382   1.085
 7261SOL    HW222683   0.860   4.497   1.031
 7262SOL     OW22684   5.337   1.846   6.781
 7262SOL    HW122685   5.408   1.779   6.761
 7262SOL    HW222686   5.253   1.800   6.808
 7263SOL     OW22687   0.580   6.177   0.176
 7263SOL    HW122688   0.510   6.237   0.139
 7263SOL    HW222689   0.544   6.128   0.255
 7264SOL     OW22690   5.315   0.582   0.796
 7264SOL    HW122691   5.256   0.650   0.840
 7264SOL    HW222692   5.258   0.518   0.744
 7265SOL     OW22693   5.645   4.590   5.458
 7265SOL    HW122694   5.633   4.491   5.450
 7265SOL    HW222695   5.675   4.626   5.369
 7266SOL     OW22696   6.325   1.481   3.186
 7266SOL    HW122697   6.268   1.468   3.105
 7266SOL    HW222698   6.272   1.461   3.268
 7267SOL     OW22699   6.432   6.881   4.747
 7267SOL    HW122700   6.392   6.848   4.833
 7267SOL    HW222701   6.401   6.974   4.729
 7268SOL     OW22702   6.838   6.166   4.217
 7268SOL    HW122703   6.813   6.139   4.124
 7268SOL    HW222704   6.938   6.176   4.223
 7269SOL     OW22705   2.074   6.256   6.296
 7269SOL    HW122706   2.070   6.273   6.197
 7269SOL    HW222707   1.985   6.222   6.326
 7270SOL     OW22708   0.317   2.847   5.048
 7270SOL    HW122709   0.339   2.771   4.987
 7270SOL    HW222710   0.284   2.924   4.995
 7271SOL     OW22711   1.610   4.884   4.215
 7271SOL    HW122712   1.619   4.788   4.240
 7271SOL    HW222713   1.584   4.938   4.295
 7272SOL     OW22714   5.963   5.831   2.441
 7272SOL    HW122715   6.060   5.854   2.447
 7272SOL    HW222716   5.921   5.840   2.532
 7273SOL     OW22717   6.051   4.028   0.594
 7273SOL    HW122718   6.050   4.082   0.510
 7273SOL    HW222719   5.965   4.040   0.643
 7274SOL     OW22720   0.305   4.839   6.826
 7274SOL    HW122721   0.220   4.792   6.851
 7274SOL    HW222722   0.306   4.855   6.728
 7275SOL     OW22723   0.229   5.954   2.714
 7275SOL    HW122724   0.145   5.993   2.675
 7275SOL    HW222725   0.217   5.942   2.812
 7276SOL     OW22726   5.247   0.848   3.475
 7276SOL    HW122727   5.290   0.865   3.386
 7276SOL    HW222728   5.201   0.760   3.473
 7277SOL     OW22729   5.476   0.389   4.453
 7277SOL    HW122730   5.536   0.342   4.518
 7277SOL    HW222731   5.484   0.346   4.363
 7278SOL     OW22732   3.513   3.137   1.628
 7278SOL    HW122733   3.585   3.206   1.637
 7278SOL    HW222734   3.475   3.142   1.536
 7279SOL     OW22735   4.380   4.792   6.247
 7279SOL    HW122736   4.331   4.712   6.213
 7279SOL    HW222737   4.442   4.764   6.321
 7280SOL     OW22738   0.153   1.201   3.767
 7280SOL    HW122739   0.181   1.288   3.726
 7280SOL    HW222740   0.087   1.156   3.708
 7281SOL     OW22741   3.113   1.790   6.996
 7281SOL    HW122742   3.135   1.887   6.993
 7281SOL    HW222743   3.190   1.739   0.006
 7282SOL     OW22744   5.782   4.730   2.685
 7282SOL    HW122745   5.839   4.740   2.604
 7282SOL    HW222746   5.833   4.682   2.757
 7283SOL     OW22747   3.937   1.523   3.173
 7283SOL    HW122748   3.913   1.445   3.231
 7283SOL    HW222749   4.036   1.538   3.175
 7284SOL     OW22750   0.981   3.264   6.499
 7284SOL    HW122751   1.042   3.286   6.423
 7284SOL    HW222752   0.946   3.349   6.539
 7285SOL     OW22753   5.198   3.430   2.697
 7285SOL    HW122754   5.256   3.380   2.633
 7285SOL    HW222755   5.113   3.379   2.712
 7286SOL     OW22756   2.833   0.993   0.258
 7286SOL    HW122757   2.756   1.007   0.320
 7286SOL    HW222758   2.899   1.068   0.270
 7287SOL     OW22759   0.233   2.445   5.820
 7287SOL    HW122760   0.183   2.438   5.907
 7287SOL    HW222761   0.171   2.427   5.744
 7288SOL     OW22762   3.094   0.455   0.346
 7288SOL    HW122763   3.102   0.436   0.444
 7288SOL    HW222764   3.006   0.421   0.312
 7289SOL     OW22765   5.217   2.151   4.354
 7289SOL    HW122766   5.151   2.178   4.424
 7289SOL    HW222767   5.279   2.082   4.390
 7290SOL     OW22768   3.467   0.519   5.692
 7290SOL    HW122769   3.401   0.445   5.698
 7290SOL    HW222770   3.507   0.521   5.600
 7291SOL     OW22771   1.708   6.498   0.684
 7291SOL    HW122772   1.802   6.462   0.685
 7291SOL    HW222773   1.685   6.525   0.591
 7292SOL     OW22774   2.897   1.288   3.442
 7292SOL    HW122775   2.825   1.352   3.414
 7292SOL    HW222776   2.893   1.207   3.384
 7293SOL     OW22777   1.479   2.145   5.249
 7293SOL    HW122778   1.561   2.090   5.263
 7293SOL    HW222779   1.398   2.086   5.247
 7294SOL     OW22780   2.362   4.939   6.916
 7294SOL    HW122781   2.385   4.893   7.002
 7294SOL    HW222782   2.264   4.958   6.914
 7295SOL     OW22783   0.750   2.296   0.368
 7295SOL    HW122784   0.835   2.306   0.316
 7295SOL    HW222785   0.768   2.314   0.464
 7296SOL     OW22786   2.601   5.252   1.349
 7296SOL    HW122787   2.658   5.206   1.418
 7296SOL    HW222788   2.567   5.338   1.386
 7297SOL     OW22789   3.464   6.384   1.267
 7297SOL    HW122790   3.455   6.412   1.171
 7297SOL    HW222791   3.385   6.328   1.293
 7298SOL     OW22792   4.750   4.307   5.355
 7298SOL    HW122793   4.707   4.221   5.327
 7298SOL    HW222794   4.782   4.356   5.274
 7299SOL     OW22795   0.150   1.654   0.201
 7299SOL    HW122796   0.167   1.750   0.178
 7299SOL    HW222797   0.177   1.597   0.123
 7300SOL     OW22798   6.602   5.663   2.654
 7300SOL    HW122799   6.681   5.633   2.601
 7300SOL    HW222800   6.517   5.635   2.608
 7301SOL     OW22801   5.852   1.512   4.902
 7301SOL    HW122802   5.806   1.585   4.853
 7301SOL    HW222803   5.908   1.551   4.976
 7302SOL     OW22804   0.493   2.005   5.785
 7302SOL    HW122805   0.402   2.042   5.808
 7302SOL    HW222806   0.534   1.965   5.867
 7303SOL     OW22807   4.571   0.294   0.014
 7303SOL    HW122808   4.473   0.276   0.016
 7303SOL    HW222809   4.616   0.224   6.986
 7304SOL     OW22810   3.884   4.871   0.636
 7304SOL    HW122811   3.806   4.822   0.673
 7304SOL    HW222812   3.852   4.937   0.568
 7305SOL     OW22813   4.848   0.575   0.134
 7305SOL    HW122814   4.867   0.630   0.216
 7305SOL    HW222815   4.928   0.576   0.075
 7306SOL     OW22816   4.899   2.523   1.815
 7306SOL    HW122817   4.958   2.570   1.748
 7306SOL    HW222818   4.846   2.590   1.866
 7307SOL     OW22819   2.147   6.989   2.449
 7307SOL    HW122820   2.112   6.957   2.537
 7307SOL    HW222821   2.242   7.019   2.460
 7308SOL     OW22822   7.019   3.708   5.996
 7308SOL    HW122823   7.006   3.685   5.900
 7308SOL    HW222824   6.982   3.636   6.053
 7309SOL     OW22825   4.802   5.671   1.373
 7309SOL    HW122826   4.797   5.731   1.453
 7309SOL    HW222827   4.898   5.652   1.352
 7310SOL     OW22828   2.270   3.680   1.549
 7310SOL    HW122829   2.254   3.734   1.466
 7310SOL    HW222830   2.187   3.628   1.571
 7311SOL     OW22831   3.599   1.933   1.917
 7311SOL    HW122832   3.596   2.029   1.947
 7311SOL    HW222833   3.669   1.922   1.847
 7312SOL     OW22834   0.248   3.681   5.589
 7312SOL    HW122835   0.218   3.606   5.647
 7312SOL    HW222836   0.292   3.752   5.645
 7313SOL     OW22837   2.972   1.491   6.339
 7313SOL    HW122838   3.055   1.515   6.389
 7313SOL    HW222839   2.912   1.437   6.398
 7314SOL     OW22840   6.844   5.410   5.708
 7314SOL    HW122841   6.855   5.317   5.675
 7314SOL    HW222842   6.911   5.469   5.664
 7315SOL     OW22843   6.574   0.431   2.454
 7315SOL    HW122844   6.557   0.528   2.435
 7315SOL    HW222845   6.638   0.395   2.387
 7316SOL     OW22846   3.078   4.774   6.636
 7316SOL    HW122847   2.998   4.782   6.576
 7316SOL    HW222848   3.132   4.694   6.610
 7317SOL     OW22849   4.986   0.966   2.784
 7317SOL    HW122850   5.021   0.974   2.877
 7317SOL    HW222851   5.022   1.040   2.727
 7318SOL     OW22852   1.413   0.936   0.875
 7318SOL    HW122853   1.395   0.866   0.806
 7318SOL    HW222854   1.327   0.980   0.902
 7319SOL     OW22855   6.797   4.506   6.321
 7319SOL    HW122856   6.842   4.470   6.239
 7319SOL    HW222857   6.867   4.540   6.385
 7320SOL     OW22858   6.395   3.874   2.078
 7320SOL    HW122859   6.387   3.868   2.178
 7320SOL    HW222860   6.478   3.827   2.049
 7321SOL     OW22861   2.294   0.012   5.531
 7321SOL    HW122862   2.386   7.006   5.548
 7321SOL    HW222863   2.273   0.007   5.434
 7322SOL     OW22864   6.543   2.482   3.754
 7322SOL    HW122865   6.457   2.440   3.728
 7322SOL    HW222866   6.583   2.430   3.830
 7323SOL     OW22867   2.241   1.890   2.064
 7323SOL    HW122868   2.274   1.878   1.970
 7323SOL    HW222869   2.233   1.987   2.085
 7324SOL     OW22870   4.868   6.200   2.370
 7324SOL    HW122871   4.889   6.280   2.426
 7324SOL    HW222872   4.883   6.222   2.273
 7325SOL     OW22873   3.430   6.380   0.590
 7325SOL    HW122874   3.459   6.319   0.663
 7325SOL    HW222875   3.462   6.473   0.609
 7326SOL     OW22876   3.168   6.078   5.622
 7326SOL    HW122877   3.260   6.117   5.627
 7326SOL    HW222878   3.171   5.982   5.650
 7327SOL     OW22879   6.066   2.108   6.372
 7327SOL    HW122880   5.994   2.155   6.322
 7327SOL    HW222881   6.066   2.011   6.347
 7328SOL     OW22882   3.384   0.250   6.277
 7328SOL    HW122883   3.362   0.305   6.197
 7328SOL    HW222884   3.310   0.259   6.344
 7329SOL     OW22885   5.936   4.460   1.223
 7329SOL    HW122886   5.907   4.453   1.318
 7329SOL    HW222887   5.881   4.398   1.167
 7330SOL     OW22888   2.559   2.203   6.934
 7330SOL    HW122889   2.486   2.236   6.993
 7330SOL    HW222890   2.607   2.127   6.979
 7331SOL     OW22891   5.672   6.975   2.379
 7331SOL    HW122892   5.688   6.975   2.478
 7331SOL    HW222893   5.740   0.005   2.334
 7332SOL     OW22894   2.208   6.021   0.697
 7332SOL    HW122895   2.262   5.989   0.620
 7332SOL    HW222896   2.159   5.944   0.738
 7333SOL     OW22897   0.475   2.521   2.537
 7333SOL    HW122898   0.546   2.477   2.593
 7333SOL    HW222899   0.506   2.527   2.442
 7334SOL     OW22900   3.332   5.558   6.657
 7334SOL    HW122901   3.254   5.499   6.677
 7334SOL    HW222902   3.323   5.595   6.565
 7335SOL     OW22903   1.536   2.840   2.738
 7335SOL    HW122904   1.587   2.832   2.653
 7335SOL    HW222905   1.517   2.936   2.757
 7336SOL     OW22906   1.509   6.825   3.064
 7336SOL    HW122907   1.589   6.822   3.124
 7336SOL    HW222908   1.518   6.901   3.000
 7337SOL     OW22909   0.088   3.513   1.289
 7337SOL    HW122910   0.169   3.504   1.231
 7337SOL    HW222911   0.074   3.609   1.312
 7338SOL     OW22912   6.407   2.538   1.350
 7338SOL    HW122913   6.344   2.487   1.408
 7338SOL    HW222914   6.493   2.488   1.342
 7339SOL     OW22915   5.575   6.690   3.448
 7339SOL    HW122916   5.562   6.771   3.505
 7339SOL    HW222917   5.542   6.609   3.497
 7340SOL     OW22918   2.423   0.711   1.025
 7340SOL    HW122919   2.467   0.751   0.944
 7340SOL    HW222920   2.331   0.679   1.000
 7341SOL     OW22921   6.741   2.991   6.737
 7341SOL    HW122922   6.694   3.050   6.802
 7341SOL    HW222923   6.819   3.040   6.698
 7342SOL     OW22924   6.820   1.496   1.481
 7342SOL    HW122925   6.862   1.534   1.563
 7342SOL    HW222926   6.720   1.507   1.486
 7343SOL     OW22927   5.500   3.514   0.372
 7343SOL    HW122928   5.481   3.596   0.426
 7343SOL    HW222929   5.537   3.540   0.283
 7344SOL     OW22930   0.309   1.017   6.758
 7344SOL    HW122931   0.341   0.923   6.770
 7344SOL    HW222932   0.318   1.043   6.662
 7345SOL     OW22933   4.449   3.895   5.425
 7345SOL    HW122934   4.506   3.900   5.507
 7345SOL    HW222935   4.448   3.801   5.391
 7346SOL     OW22936   4.294   5.787   2.172
 7346SOL    HW122937   4.370   5.729   2.198
 7346SOL    HW222938   4.251   5.825   2.254
 7347SOL     OW22939   0.996   1.607   0.801
 7347SOL    HW122940   0.898   1.590   0.814
 7347SOL    HW222941   1.032   1.655   0.881
 7348SOL     OW22942   1.424   4.487   3.455
 7348SOL    HW122943   1.459   4.521   3.542
 7348SOL    HW222944   1.470   4.401   3.432
 7349SOL     OW22945   4.253   0.365   1.928
 7349SOL    HW122946   4.218   0.445   1.879
 7349SOL    HW222947   4.193   0.346   2.006
 7350SOL     OW22948   2.702   2.409   5.464
 7350SOL    HW122949   2.654   2.493   5.488
 7350SOL    HW222950   2.651   2.361   5.392
 7351SOL     OW22951   5.984   5.500   3.803
 7351SOL    HW122952   6.051   5.531   3.871
 7351SOL    HW222953   5.894   5.536   3.825
 7352SOL     OW22954   1.419   1.817   2.654
 7352SOL    HW122955   1.469   1.736   2.687
 7352SOL    HW222956   1.418   1.816   2.554
 7353SOL     OW22957   0.211   0.218   6.829
 7353SOL    HW122958   0.282   0.232   6.899
 7353SOL    HW222959   0.135   0.166   6.869
 7354SOL     OW22960   1.112   1.881   5.376
 7354SOL    HW122961   1.198   1.880   5.325
 7354SOL    HW222962   1.131   1.884   5.474
 7355SOL     OW22963   1.423   0.863   0.303
 7355SOL    HW122964   1.425   0.802   0.224
 7355SOL    HW222965   1.516   0.875   0.339
 7356SOL     OW22966   3.973   3.353   6.645
 7356SOL    HW122967   3.912   3.361   6.567
 7356SOL    HW222968   3.946   3.275   6.701
 7357SOL     OW22969   3.289   5.830   2.117
 7357SOL    HW122970   3.328   5.795   2.031
 7357SOL    HW222971   3.265   5.926   2.106
 7358SOL     OW22972   6.272   3.546   2.386
 7358SOL    HW122973   6.305   3.506   2.472
 7358SOL    HW222974   6.179   3.514   2.368
 7359SOL     OW22975   4.572   2.380   5.197
 7359SOL    HW122976   4.504   2.306   5.187
 7359SOL    HW222977   4.630   2.361   5.277
 7360SOL     OW22978   2.778   3.097   5.596
 7360SOL    HW122979   2.741   3.031   5.661
 7360SOL    HW222980   2.738   3.080   5.506
 7361SOL     OW22981   5.418   0.595   2.357
 7361SOL    HW122982   5.360   0.577   2.278
 7361SOL    HW222983   5.512   0.607   2.327
 7362SOL     OW22984   1.606   5.769   6.426
 7362SOL    HW122985   1.611   5.756   6.327
 7362SOL    HW222986   1.694   5.744   6.467
 7363SOL     OW22987   4.580   1.765   1.300
 7363SOL    HW122988   4.619   1.733   1.386
 7363SOL    HW222989   4.652   1.768   1.230
 7364SOL     OW22990   4.244   0.892   2.212
 7364SOL    HW122991   4.255   0.861   2.118
 7364SOL    HW222992   4.275   0.987   2.220
 7365SOL     OW22993   0.734   6.260   1.934
 7365SOL    HW122994   0.672   6.194   1.890
 7365SOL    HW222995   0.810   6.212   1.976
 7366SOL     OW22996   2.159   6.815   5.659
 7366SOL    HW122997   2.198   6.890   5.607
 7366SOL    HW222998   2.167   6.730   5.606
 7367SOL     OW22999   4.792   2.554   0.513
 7367SOL    HW123000   4.785   2.546   0.612
 7367SOL    HW223001   4.863   2.620   0.489
 7368SOL     OW23002   3.700   2.962   2.274
 7368SOL    HW123003   3.608   2.983   2.306
 7368SOL    HW223004   3.695   2.910   2.189
 7369SOL     OW23005   3.013   2.392   1.065
 7369SOL    HW123006   2.978   2.299   1.054
 7369SOL    HW223007   2.937   2.457   1.063
 7370SOL     OW23008   2.847   1.117   6.344
 7370SOL    HW123009   2.829   1.176   6.423
 7370SOL    HW223010   2.786   1.140   6.269
 7371SOL     OW23011   2.613   6.638   3.213
 7371SOL    HW123012   2.712   6.650   3.206
 7371SOL    HW223013   2.581   6.674   3.301
 7372SOL     OW23014   4.697   6.874   4.868
 7372SOL    HW123015   4.667   6.904   4.959
 7372SOL    HW223016   4.634   6.804   4.834
 7373SOL     OW23017   6.198   1.729   4.811
 7373SOL    HW123018   6.290   1.765   4.828
 7373SOL    HW223019   6.141   1.802   4.774
 7374SOL     OW23020   2.512   2.339   4.783
 7374SOL    HW123021   2.559   2.292   4.858
 7374SOL    HW223022   2.414   2.339   4.801
 7375SOL     OW23023   2.420   2.548   2.011
 7375SOL    HW123024   2.501   2.495   2.036
 7375SOL    HW223025   2.380   2.589   2.093
 7376SOL     OW23026   1.287   1.951   1.483
 7376SOL    HW123027   1.249   2.016   1.549
 7376SOL    HW223028   1.374   1.916   1.518
 7377SOL     OW23029   5.027   5.048   0.381
 7377SOL    HW123030   5.118   5.067   0.342
 7377SOL    HW223031   5.035   5.038   0.480
 7378SOL     OW23032   1.406   0.824   4.387
 7378SOL    HW123033   1.375   0.882   4.463
 7378SOL    HW223034   1.500   0.847   4.363
 7379SOL     OW23035   3.321   1.067   2.168
 7379SOL    HW123036   3.303   1.061   2.070
 7379SOL    HW223037   3.389   1.139   2.185
 7380SOL     OW23038   0.219   4.760   4.302
 7380SOL    HW123039   0.296   4.738   4.243
 7380SOL    HW223040   0.194   4.681   4.357
 7381SOL     OW23041   3.799   3.470   0.620
 7381SOL    HW123042   3.744   3.446   0.541
 7381SOL    HW223043   3.886   3.419   0.617
 7382SOL     OW23044   6.723   1.208   5.302
 7382SOL    HW123045   6.754   1.154   5.223
 7382SOL    HW223046   6.787   1.284   5.317
 7383SOL     OW23047   2.903   6.170   1.116
 7383SOL    HW123048   2.849   6.233   1.060
 7383SOL    HW223049   2.898   6.198   1.212
 7384SOL     OW23050   6.448   6.869   2.561
 7384SOL    HW123051   6.384   6.934   2.521
 7384SOL    HW223052   6.539   6.881   2.520
 7385SOL     OW23053   2.926   5.333   2.669
 7385SOL    HW123054   2.967   5.423   2.682
 7385SOL    HW223055   2.993   5.271   2.628
 7386SOL     OW23056   6.937   3.191   6.647
 7386SOL    HW123057   7.009   3.129   6.677
 7386SOL    HW223058   6.943   3.277   6.698
 7387SOL     OW23059   6.653   5.093   5.092
 7387SOL    HW123060   6.724   5.038   5.049
 7387SOL    HW223061   6.642   5.066   5.188
 7388SOL     OW23062   1.312   4.783   2.439
 7388SOL    HW123063   1.311   4.778   2.339
 7388SOL    HW223064   1.238   4.727   2.476
 7389SOL     OW23065   6.891   3.626   6.476
 7389SOL    HW123066   6.951   3.550   6.448
 7389SOL    HW223067   6.947   3.701   6.511
 7390SOL     OW23068   2.601   1.796   2.516
 7390SOL    HW123069   2.694   1.827   2.537
 7390SOL    HW223070   2.578   1.718   2.575
 7391SOL     OW23071   3.779   2.917   3.211
 7391SOL    HW123072   3.754   2.829   3.173
 7391SOL    HW223073   3.801   2.907   3.308
 7392SOL     OW23074   3.916   5.929   6.686
 7392SOL    HW123075   3.985   5.956   6.754
 7392SOL    HW223076   3.962   5.883   6.610
 7393SOL     OW23077   6.393   4.656   2.952
 7393SOL    HW123078   6.347   4.733   2.908
 7393SOL    HW223079   6.481   4.639   2.908
 7394SOL     OW23080   1.574   2.917   6.072
 7394SOL    HW123081   1.597   2.958   6.160
 7394SOL    HW223082   1.496   2.855   6.083
 7395SOL     OW23083   2.093   3.480   1.114
 7395SOL    HW123084   2.131   3.401   1.066
 7395SOL    HW223085   2.059   3.546   1.046
 7396SOL     OW23086   2.175   6.724   1.297
 7396SOL    HW123087   2.168   6.772   1.210
 7396SOL    HW223088   2.098   6.661   1.307
 7397SOL     OW23089   5.246   5.048   4.576
 7397SOL    HW123090   5.256   5.115   4.502
 7397SOL    HW223091   5.151   5.019   4.582
 7398SOL     OW23092   0.884   5.611   3.061
 7398SOL    HW123093   0.856   5.602   2.966
 7398SOL    HW223094   0.933   5.528   3.090
 7399SOL     OW23095   6.995   3.265   4.387
 7399SOL    HW123096   0.047   3.257   4.327
 7399SOL    HW223097   6.962   3.359   4.387
 7400SOL     OW23098   4.161   2.823   6.209
 7400SOL    HW123099   4.129   2.808   6.303
 7400SOL    HW223100   4.086   2.807   6.145
 7401SOL     OW23101   1.410   3.071   2.819
 7401SOL    HW123102   1.486   3.120   2.860
 7401SOL    HW223103   1.327   3.087   2.872
 7402SOL     OW23104   3.130   4.230   5.982
 7402SOL    HW123105   3.126   4.132   5.963
 7402SOL    HW223106   3.077   4.280   5.914
 7403SOL     OW23107   1.168   3.530   2.843
 7403SOL    HW123108   1.135   3.440   2.816
 7403SOL    HW223109   1.251   3.521   2.898
 7404SOL     OW23110   2.785   4.782   1.739
 7404SOL    HW123111   2.872   4.798   1.691
 7404SOL    HW223112   2.799   4.716   1.812
 7405SOL     OW23113   3.326   4.992   4.238
 7405SOL    HW123114   3.259   4.918   4.242
 7405SOL    HW223115   3.295   5.067   4.298
 7406SOL     OW23116   0.866   1.595   4.606
 7406SOL    HW123117   0.952   1.569   4.649
 7406SOL    HW223118   0.791   1.579   4.670
 7407SOL     OW23119   1.513   6.429   5.660
 7407SOL    HW123120   1.541   6.375   5.739
 7407SOL    HW223121   1.575   6.411   5.584
 7408SOL     OW23122   3.884   4.142   5.959
 7408SOL    HW123123   3.855   4.050   5.934
 7408SOL    HW223124   3.817   4.208   5.924
 7409SOL     OW23125   5.545   4.217   0.782
 7409SOL    HW123126   5.639   4.235   0.751
 7409SOL    HW223127   5.543   4.216   0.882
 7410SOL     OW23128   0.359   1.074   0.394
 7410SOL    HW123129   0.408   1.141   0.338
 7410SOL    HW223130   0.357   1.105   0.489
 7411SOL     OW23131   1.822   0.560   6.560
 7411SOL    HW123132   1.793   0.466   6.538
 7411SOL    HW223133   1.745   0.622   6.546
 7412SOL     OW23134   4.128   6.638   0.757
 7412SOL    HW123135   4.206   6.628   0.695
 7412SOL    HW223136   4.092   6.731   0.752
 7413SOL     OW23137   4.446   4.957   3.765
 7413SOL    HW123138   4.421   5.040   3.816
 7413SOL    HW223139   4.372   4.932   3.703
 7414SOL     OW23140   2.309   1.107   3.161
 7414SOL    HW123141   2.401   1.114   3.199
 7414SOL    HW223142   2.250   1.175   3.204
 7415SOL     OW23143   2.086   4.814   4.910
 7415SOL    HW123144   2.183   4.826   4.892
 7415SOL    HW223145   2.066   4.841   5.004
 7416SOL     OW23146   2.006   0.752   2.426
 7416SOL    HW123147   2.049   0.682   2.368
 7416SOL    HW223148   2.077   0.806   2.471
 7417SOL     OW23149   1.850   2.241   1.902
 7417SOL    HW123150   1.900   2.259   1.817
 7417SOL    HW223151   1.905   2.272   1.980
 7418SOL     OW23152   1.709   4.750   6.686
 7418SOL    HW123153   1.659   4.828   6.647
 7418SOL    HW223154   1.781   4.783   6.747
 7419SOL     OW23155   6.683   4.181   3.797
 7419SOL    HW123156   6.746   4.151   3.726
 7419SOL    HW223157   6.658   4.277   3.781
 7420SOL     OW23158   0.128   6.539   0.960
 7420SOL    HW123159   0.059   6.601   0.998
 7420SOL    HW223160   0.111   6.527   0.862
 7421SOL     OW23161   4.069   3.550   1.296
 7421SOL    HW123162   4.084   3.622   1.228
 7421SOL    HW223163   4.055   3.591   1.386
 7422SOL     OW23164   6.715   4.122   2.072
 7422SOL    HW123165   6.631   4.125   2.017
 7422SOL    HW223166   6.691   4.119   2.169
 7423SOL     OW23167   6.191   2.966   5.505
 7423SOL    HW123168   6.229   2.996   5.418
 7423SOL    HW223169   6.142   3.041   5.549
 7424SOL     OW23170   7.011   1.938   5.502
 7424SOL    HW123171   6.915   1.964   5.487
 7424SOL    HW223172   7.027   1.847   5.464
 7425SOL     OW23173   5.075   6.893   0.460
 7425SOL    HW123174   5.142   6.964   0.436
 7425SOL    HW223175   5.000   6.934   0.513
 7426SOL     OW23176   3.527   1.915   5.413
 7426SOL    HW123177   3.623   1.887   5.405
 7426SOL    HW223178   3.492   1.889   5.503
 7427SOL     OW23179   5.121   0.944   4.400
 7427SOL    HW123180   5.171   1.021   4.441
 7427SOL    HW223181   5.169   0.912   4.319
 7428SOL     OW23182   4.097   0.016   5.550
 7428SOL    HW123183   4.093   6.952   5.588
 7428SOL    HW223184   4.121   0.011   5.453
 7429SOL     OW23185   0.965   6.367   3.563
 7429SOL    HW123186   0.888   6.306   3.584
 7429SOL    HW223187   1.028   6.321   3.501
 7430SOL     OW23188   6.714   3.499   0.988
 7430SOL    HW123189   6.729   3.485   1.086
 7430SOL    HW223190   6.801   3.524   0.944
 7431SOL     OW23191   0.724   2.352   3.069
 7431SOL    HW123192   0.752   2.431   3.014
 7431SOL    HW223193   0.672   2.383   3.148
 7432SOL     OW23194   2.083   0.821   3.385
 7432SOL    HW123195   1.991   0.789   3.362
 7432SOL    HW223196   2.124   0.760   3.453
 7433SOL     OW23197   4.339   6.287   6.239
 7433SOL    HW123198   4.312   6.203   6.286
 7433SOL    HW223199   4.353   6.360   6.307
 7434SOL     OW23200   5.643   5.110   5.587
 7434SOL    HW123201   5.679   5.021   5.614
 7434SOL    HW223202   5.543   5.109   5.595
 7435SOL     OW23203   4.669   6.410   1.571
 7435SOL    HW123204   4.670   6.387   1.473
 7435SOL    HW223205   4.629   6.335   1.622
 7436SOL     OW23206   4.399   4.241   6.169
 7436SOL    HW123207   4.456   4.182   6.224
 7436SOL    HW223208   4.358   4.188   6.094
 7437SOL     OW23209   3.335   5.159   0.363
 7437SOL    HW123210   3.283   5.221   0.303
 7437SOL    HW223211   3.369   5.082   0.310
 7438SOL     OW23212   1.435   0.057   6.869
 7438SOL    HW123213   1.465   0.054   6.773
 7438SOL    HW223214   1.515   0.067   6.928
 7439SOL     OW23215   1.729   6.363   5.501
 7439SOL    HW123216   1.825   6.384   5.519
 7439SOL    HW223217   1.714   6.264   5.509
 7440SOL     OW23218   6.674   2.994   4.040
 7440SOL    HW123219   6.662   2.903   4.078
 7440SOL    HW223220   6.675   2.989   3.940
 7441SOL     OW23221   5.747   0.117   4.119
 7441SOL    HW123222   5.807   0.053   4.072
 7441SOL    HW223223   5.730   0.084   4.212
 7442SOL     OW23224   5.599   1.227   0.307
 7442SOL    HW123225   5.580   1.316   0.349
 7442SOL    HW223226   5.697   1.217   0.294
 7443SOL     OW23227   6.637   5.593   2.210
 7443SOL    HW123228   6.617   5.496   2.196
 7443SOL    HW223229   6.736   5.607   2.209
 7444SOL     OW23230   5.713   0.798   6.364
 7444SOL    HW123231   5.615   0.793   6.382
 7444SOL    HW223232   5.747   0.888   6.389
 7445SOL     OW23233   3.184   0.622   1.622
 7445SOL    HW123234   3.145   0.613   1.530
 7445SOL    HW223235   3.208   0.531   1.657
 7446SOL     OW23236   5.029   2.064   0.596
 7446SOL    HW123237   5.055   2.011   0.677
 7446SOL    HW223238   5.029   2.005   0.516
 7447SOL     OW23239   6.425   4.636   5.950
 7447SOL    HW123240   6.422   4.724   5.904
 7447SOL    HW223241   6.373   4.641   6.036
 7448SOL     OW23242   5.576   6.658   4.638
 7448SOL    HW123243   5.657   6.643   4.581
 7448SOL    HW223244   5.605   6.688   4.729
 7449SOL     OW23245   0.766   5.887   0.794
 7449SOL    HW123246   0.689   5.824   0.798
 7449SOL    HW223247   0.849   5.841   0.824
 7450SOL     OW23248   5.261   2.564   5.239
 7450SOL    HW123249   5.255   2.663   5.239
 7450SOL    HW223250   5.259   2.530   5.145
 7451SOL     OW23251   5.824   5.544   2.330
 7451SOL    HW123252   5.782   5.608   2.395
 7451SOL    HW223253   5.854   5.593   2.249
 7452SOL     OW23254   6.060   5.750   4.484
 7452SOL    HW123255   5.969   5.775   4.452
 7452SOL    HW223256   6.126   5.820   4.454
 7453SOL     OW23257   4.246   5.024   5.193
 7453SOL    HW123258   4.187   4.979   5.127
 7453SOL    HW223259   4.266   5.118   5.163
 7454SOL     OW23260   2.573   1.492   0.845
 7454SOL    HW123261   2.603   1.396   0.846
 7454SOL    HW223262   2.511   1.508   0.922
 7455SOL     OW23263   6.616   3.697   2.126
 7455SOL    HW123264   6.693   3.667   2.069
 7455SOL    HW223265   6.639   3.685   2.223
 7456SOL     OW23266   2.193   1.137   4.998
 7456SOL    HW123267   2.274   1.178   5.039
 7456SOL    HW223268   2.149   1.203   4.937
 7457SOL     OW23269   3.224   0.453   4.372
 7457SOL    HW123270   3.155   0.503   4.425
 7457SOL    HW223271   3.306   0.439   4.429
 7458SOL     OW23272   1.424   0.031   5.950
 7458SOL    HW123273   1.345   0.065   5.900
 7458SOL    HW223274   1.506   0.041   5.894
 7459SOL     OW23275   6.124   1.374   2.455
 7459SOL    HW123276   6.164   1.414   2.537
 7459SOL    HW223277   6.042   1.323   2.479
 7460SOL     OW23278   1.444   5.977   0.234
 7460SOL    HW123279   1.477   6.072   0.232
 7460SOL    HW223280   1.408   5.953   0.144
 7461SOL     OW23281   5.862   6.100   5.788
 7461SOL    HW123282   5.782   6.040   5.801
 7461SOL    HW223283   5.831   6.194   5.776
 7462SOL     OW23284   2.178   4.521   1.818
 7462SOL    HW123285   2.103   4.564   1.869
 7462SOL    HW223286   2.247   4.489   1.881
 7463SOL     OW23287   3.272   3.861   0.287
 7463SOL    HW123288   3.353   3.837   0.233
 7463SOL    HW223289   3.190   3.832   0.239
 7464SOL     OW23290   5.954   6.845   5.238
 7464SOL    HW123291   6.025   6.915   5.233
 7464SOL    HW223292   5.968   6.788   5.319
 7465SOL     OW23293   2.734   4.918   6.956
 7465SOL    HW123294   2.705   4.828   6.922
 7465SOL    HW223295   2.833   4.927   6.944
 7466SOL     OW23296   6.982   0.612   6.124
 7466SOL    HW123297   0.012   0.554   6.182
 7466SOL    HW223298   7.016   0.705   6.126
 7467SOL     OW23299   0.671   2.263   5.683
 7467SOL    HW123300   0.672   2.172   5.724
 7467SOL    HW223301   0.580   2.284   5.648
 7468SOL     OW23302   4.876   2.954   4.361
 7468SOL    HW123303   4.892   3.053   4.364
 7468SOL    HW223304   4.890   2.915   4.452
 7469SOL     OW23305   6.142   1.427   0.261
 7469SOL    HW123306   6.178   1.336   0.239
 7469SOL    HW223307   6.119   1.431   0.358
 7470SOL     OW23308   5.242   4.406   3.405
 7470SOL    HW123309   5.184   4.325   3.394
 7470SOL    HW223310   5.325   4.395   3.351
 7471SOL     OW23311   5.266   6.053   6.237
 7471SOL    HW123312   5.290   6.127   6.300
 7471SOL    HW223313   5.350   6.017   6.195
 7472SOL     OW23314   6.658   1.292   5.666
 7472SOL    HW123315   6.720   1.245   5.728
 7472SOL    HW223316   6.574   1.239   5.656
 7473SOL     OW23317   5.434   6.062   4.061
 7473SOL    HW123318   5.386   6.060   3.973
 7473SOL    HW223319   5.439   5.970   4.099
 7474SOL     OW23320   6.799   2.069   6.531
 7474SOL    HW123321   6.706   2.097   6.554
 7474SOL    HW223322   6.809   2.062   6.432
 7475SOL     OW23323   4.589   2.514   2.032
 7475SOL    HW123324   4.574   2.486   1.937
 7475SOL    HW223325   4.528   2.462   2.092
 7476SOL     OW23326   2.271   1.738   3.236
 7476SOL    HW123327   2.256   1.717   3.333
 7476SOL    HW223328   2.342   1.808   3.228
 7477SOL     OW23329   6.983   3.060   5.322
 7477SOL    HW123330   6.885   3.070   5.303
 7477SOL    HW223331   7.000   2.970   5.361
 7478SOL     OW23332   5.879   3.590   5.348
 7478SOL    HW123333   5.822   3.576   5.266
 7478SOL    HW223334   5.856   3.520   5.416
 7479SOL     OW23335   5.120   2.566   1.596
 7479SOL    HW123336   5.156   2.659   1.595
 7479SOL    HW223337   5.190   2.503   1.561
 7480SOL     OW23338   1.844   4.441   2.360
 7480SOL    HW123339   1.823   4.346   2.384
 7480SOL    HW223340   1.926   4.470   2.410
 7481SOL     OW23341   6.467   4.827   0.118
 7481SOL    HW123342   6.391   4.890   0.101
 7481SOL    HW223343   6.438   4.733   0.099
 7482SOL     OW23344   4.454   2.398   2.267
 7482SOL    HW123345   4.507   2.462   2.323
 7482SOL    HW223346   4.361   2.434   2.255
 7483SOL     OW23347   4.780   2.904   4.659
 7483SOL    HW123348   4.787   2.837   4.584
 7483SOL    HW223349   4.687   2.938   4.664
 7484SOL     OW23350   1.814   5.273   4.621
 7484SOL    HW123351   1.911   5.258   4.605
 7484SOL    HW223352   1.760   5.220   4.556
 7485SOL     OW23353   2.452   0.607   4.608
 7485SOL    HW123354   2.408   0.529   4.563
 7485SOL    HW223355   2.434   0.603   4.706
 7486SOL     OW23356   0.713   6.366   0.439
 7486SOL    HW123357   0.802   6.349   0.481
 7486SOL    HW223358   0.726   6.402   0.347
 7487SOL     OW23359   3.468   0.360   3.424
 7487SOL    HW123360   3.463   0.454   3.458
 7487SOL    HW223361   3.388   0.340   3.368
 7488SOL     OW23362   2.135   6.155   4.487
 7488SOL    HW123363   2.191   6.086   4.442
 7488SOL    HW223364   2.115   6.229   4.423
 7489SOL     OW23365   6.016   3.147   0.022
 7489SOL    HW123366   6.037   3.136   6.952
 7489SOL    HW223367   6.001   3.244   0.042
 7490SOL     OW23368   1.785   0.747   2.821
 7490SOL    HW123369   1.849   0.796   2.880
 7490SOL    HW223370   1.694   0.747   2.863
 7491SOL     OW23371   4.955   3.097   6.808
 7491SOL    HW123372   5.021   3.171   6.792
 7491SOL    HW223373   4.940   3.048   6.722
 7492SOL     OW23374   1.802   1.232   4.274
 7492SOL    HW123375   1.771   1.160   4.336
 7492SOL    HW223376   1.832   1.192   4.188
 7493SOL     OW23377   6.637   3.182   5.898
 7493SOL    HW123378   6.638   3.226   5.809
 7493SOL    HW223379   6.564   3.221   5.954
 7494SOL     OW23380   5.900   1.376   3.813
 7494SOL    HW123381   5.863   1.290   3.778
 7494SOL    HW223382   5.876   1.450   3.750
 7495SOL     OW23383   0.970   2.930   5.405
 7495SOL    HW123384   1.037   2.857   5.419
 7495SOL    HW223385   0.958   2.944   5.306
 7496SOL     OW23386   5.386   3.606   4.527
 7496SOL    HW123387   5.332   3.597   4.443
 7496SOL    HW223388   5.374   3.525   4.584
 7497SOL     OW23389   1.796   5.459   1.245
 7497SOL    HW123390   1.782   5.361   1.257
 7497SOL    HW223391   1.865   5.491   1.311
 7498SOL     OW23392   3.263   1.025   4.047
 7498SOL    HW123393   3.200   1.078   4.104
 7498SOL    HW223394   3.210   0.965   3.986
 7499SOL     OW23395   4.591   2.173   3.486
 7499SOL    HW123396   4.520   2.141   3.423
 7499SOL    HW223397   4.662   2.220   3.434
 7500SOL     OW23398   3.429   5.729   2.620
 7500SOL    HW123399   3.366   5.751   2.546
 7500SOL    HW223400   3.436   5.629   2.629
 7501SOL     OW23401   5.518   4.453   3.755
 7501SOL    HW123402   5.562   4.542   3.750
 7501SOL    HW223403   5.588   4.381   3.763
 7502SOL     OW23404   3.084   6.729   4.094
 7502SOL    HW123405   3.124   6.640   4.115
 7502SOL    HW223406   3.020   6.755   4.166
 7503SOL     OW23407   2.287   6.095   1.067
 7503SOL    HW123408   2.217   6.061   1.129
 7503SOL    HW223409   2.277   6.194   1.057
 7504SOL     OW23410   0.231   6.404   2.978
 7504SOL    HW123411   0.296   6.341   2.936
 7504SOL    HW223412   0.155   6.421   2.915
 7505SOL     OW23413   1.580   2.008   6.534
 7505SOL    HW123414   1.565   1.948   6.455
 7505SOL    HW223415   1.678   2.024   6.545
 7506SOL     OW23416   4.288   2.257   3.288
 7506SOL    HW123417   4.365   2.220   3.236
 7506SOL    HW223418   4.214   2.280   3.225
 7507SOL     OW23419   6.292   2.667   3.545
 7507SOL    HW123420   6.293   2.758   3.503
 7507SOL    HW223421   6.237   2.670   3.629
 7508SOL     OW23422   2.367   5.207   0.105
 7508SOL    HW123423   2.461   5.175   0.110
 7508SOL    HW223424   2.321   5.188   0.192
 7509SOL     OW23425   6.299   3.081   0.718
 7509SOL    HW123426   6.387   3.077   0.670
 7509SOL    HW223427   6.225   3.094   0.652
 7510SOL     OW23428   4.052   3.811   4.244
 7510SOL    HW123429   4.046   3.722   4.199
 7510SOL    HW223430   4.088   3.799   4.337
 7511SOL     OW23431   2.935   6.032   3.240
 7511SOL    HW123432   2.931   5.974   3.321
 7511SOL    HW223433   2.945   6.128   3.269
 7512SOL     OW23434   2.441   1.000   6.982
 7512SOL    HW123435   2.358   0.948   6.964
 7512SOL    HW223436   2.513   0.938   7.015
 7513SOL     OW23437   1.958   2.210   2.874
 7513SOL    HW123438   2.038   2.218   2.815
 7513SOL    HW223439   1.984   2.164   2.960
 7514SOL     OW23440   2.198   5.329   3.127
 7514SOL    HW123441   2.176   5.241   3.169
 7514SOL    HW223442   2.113   5.376   3.102
 7515SOL     OW23443   0.262   4.765   4.857
 7515SOL    HW123444   0.183   4.798   4.805
 7515SOL    HW223445   0.261   4.665   4.859
 7516SOL     OW23446   0.501   5.290   6.312
 7516SOL    HW123447   0.433   5.328   6.376
 7516SOL    HW223448   0.556   5.222   6.359
 7517SOL     OW23449   0.841   1.844   6.839
 7517SOL    HW123450   0.940   1.828   6.845
 7517SOL    HW223451   0.798   1.822   6.926
 7518SOL     OW23452   5.182   3.527   3.110
 7518SOL    HW123453   5.208   3.621   3.085
 7518SOL    HW223454   5.128   3.529   3.194
 7519SOL     OW23455   6.171   6.588   4.389
 7519SOL    HW123456   6.097   6.551   4.333
 7519SOL    HW223457   6.144   6.588   4.485
 7520SOL     OW23458   1.451   0.670   2.598
 7520SOL    HW123459   1.463   0.769   2.588
 7520SOL    HW223460   1.371   0.640   2.547
 7521SOL     OW23461   5.503   2.239   4.889
 7521SOL    HW123462   5.446   2.252   4.808
 7521SOL    HW223463   5.487   2.148   4.927
 7522SOL     OW23464   1.471   0.065   5.185
 7522SOL    HW123465   1.404   0.007   5.139
 7522SOL    HW223466   1.491   0.027   5.275
 7523SOL     OW23467   5.145   0.482   6.334
 7523SOL    HW123468   5.074   0.486   6.264
 7523SOL    HW223469   5.131   0.401   6.391
 7524SOL     OW23470   6.934   2.979   5.044
 7524SOL    HW123471   7.004   3.014   4.982
 7524SOL    HW223472   6.978   2.928   5.118
 7525SOL     OW23473   4.458   6.516   6.728
 7525SOL    HW123474   4.434   6.424   6.695
 7525SOL    HW223475   4.552   6.516   6.761
 7526SOL     OW23476   2.661   3.098   1.138
 7526SOL    HW123477   2.663   2.999   1.154
 7526SOL    HW223478   2.567   3.130   1.134
 7527SOL     OW23479   3.604   5.839   3.601
 7527SOL    HW123480   3.663   5.848   3.521
 7527SOL    HW223481   3.546   5.920   3.610
 7528SOL     OW23482   6.064   2.113   0.199
 7528SOL    HW123483   6.033   2.204   0.173
 7528SOL    HW223484   5.987   2.049   0.199
 7529SOL     OW23485   5.278   1.762   4.400
 7529SOL    HW123486   5.236   1.737   4.313
 7529SOL    HW223487   5.217   1.824   4.450
 7530SOL     OW23488   5.792   2.047   1.978
 7530SOL    HW123489   5.875   2.075   2.026
 7530SOL    HW223490   5.747   2.128   1.939
 7531SOL     OW23491   4.906   3.299   3.196
 7531SOL    HW123492   4.868   3.326   3.108
 7531SOL    HW223493   4.931   3.380   3.248
 7532SOL     OW23494   5.096   6.321   6.764
 7532SOL    HW123495   5.089   6.319   6.863
 7532SOL    HW223496   5.004   6.320   6.724
 7533SOL     OW23497   3.768   2.096   1.722
 7533SOL    HW123498   3.758   2.192   1.750
 7533SOL    HW223499   3.865   2.072   1.719
 7534SOL     OW23500   4.786   5.740   4.298
 7534SOL    HW123501   4.769   5.717   4.202
 7534SOL    HW223502   4.749   5.830   4.318
 7535SOL     OW23503   1.811   6.668   4.735
 7535SOL    HW123504   1.757   6.689   4.654
 7535SOL    HW223505   1.773   6.715   4.814
 7536SOL     OW23506   5.056   5.772   4.315
 7536SOL    HW123507   5.127   5.770   4.245
 7536SOL    HW223508   4.966   5.775   4.271
 7537SOL     OW23509   1.920   4.576   1.927
 7537SOL    HW123510   1.860   4.569   1.847
 7537SOL    HW223511   1.888   4.515   1.999
 7538SOL     OW23512   1.929   2.476   1.497
 7538SOL    HW123513   1.840   2.519   1.482
 7538SOL    HW223514   1.998   2.547   1.509
 7539SOL     OW23515   0.813   4.816   3.488
 7539SOL    HW123516   0.788   4.781   3.398
 7539SOL    HW223517   0.829   4.915   3.482
 7540SOL     OW23518   4.193   6.303   4.738
 7540SOL    HW123519   4.179   6.211   4.701
 7540SOL    HW223520   4.201   6.368   4.663
 7541SOL     OW23521   1.188   4.246   5.956
 7541SOL    HW123522   1.262   4.195   5.913
 7541SOL    HW223523   1.198   4.241   6.056
 7542SOL     OW23524   6.848   5.834   6.239
 7542SOL    HW123525   6.756   5.857   6.209
 7542SOL    HW223526   6.865   5.874   6.330
 7543SOL     OW23527   2.702   0.648   4.945
 7543SOL    HW123528   2.750   0.584   5.005
 7543SOL    HW223529   2.729   0.742   4.967
 7544SOL     OW23530   7.007   3.052   4.575
 7544SOL    HW123531   6.989   3.133   4.518
 7544SOL    HW223532   0.025   2.982   4.521
 7545SOL     OW23533   0.471   6.804   6.041
 7545SOL    HW123534   0.506   6.856   5.963
 7545SOL    HW223535   0.380   6.769   6.019
 7546SOL     OW23536   4.823   2.367   1.383
 7546SOL    HW123537   4.830   2.320   1.472
 7546SOL    HW223538   4.753   2.438   1.389
 7547SOL     OW23539   4.615   1.030   0.900
 7547SOL    HW123540   4.540   0.972   0.929
 7547SOL    HW223541   4.636   1.012   0.804
 7548SOL     OW23542   4.441   2.287   6.924
 7548SOL    HW123543   4.538   2.313   6.928
 7548SOL    HW223544   4.394   2.343   6.857
 7549SOL     OW23545   3.932   2.783   6.800
 7549SOL    HW123546   3.851   2.807   6.852
 7549SOL    HW223547   3.997   2.859   6.802
 7550SOL     OW23548   1.784   4.955   3.216
 7550SOL    HW123549   1.850   4.899   3.166
 7550SOL    HW223550   1.828   4.995   3.296
 7551SOL     OW23551   5.301   3.199   5.525
 7551SOL    HW123552   5.251   3.286   5.520
 7551SOL    HW223553   5.291   3.160   5.616
 7552SOL     OW23554   1.319   5.928   4.365
 7552SOL    HW123555   1.407   5.884   4.345
 7552SOL    HW223556   1.322   6.024   4.338
 7553SOL     OW23557   5.474   6.543   5.696
 7553SOL    HW123558   5.392   6.491   5.673
 7553SOL    HW223559   5.518   6.503   5.776
 7554SOL     OW23560   4.507   0.638   0.377
 7554SOL    HW123561   4.490   0.540   0.394
 7554SOL    HW223562   4.421   0.688   0.388
 7555SOL     OW23563   3.073   5.510   6.338
 7555SOL    HW123564   2.996   5.454   6.308
 7555SOL    HW223565   3.154   5.486   6.284
 7556SOL     OW23566   2.235   1.625   0.179
 7556SOL    HW123567   2.173   1.654   0.252
 7556SOL    HW223568   2.196   1.650   0.090
 7557SOL     OW23569   5.156   7.028   6.905
 7557SOL    HW123570   5.070   6.988   6.938
 7557SOL    HW223571   5.180   6.987   6.817
 7558SOL     OW23572   2.162   3.136   3.523
 7558SOL    HW123573   2.197   3.133   3.430
 7558SOL    HW223574   2.064   3.119   3.523
 7559SOL     OW23575   4.068   2.232   5.618
 7559SOL    HW123576   4.150   2.288   5.625
 7559SOL    HW223577   4.012   2.243   5.700
 7560SOL     OW23578   6.393   0.038   6.980
 7560SOL    HW123579   6.412   0.116   0.011
 7560SOL    HW223580   6.477   0.012   6.931
 7561SOL     OW23581   5.880   3.441   5.573
 7561SOL    HW123582   5.976   3.426   5.594
 7561SOL    HW223583   5.839   3.499   5.644
 7562SOL     OW23584   0.736   5.078   5.047
 7562SOL    HW123585   0.661   5.118   5.099
 7562SOL    HW223586   0.720   5.091   4.949
 7563SOL     OW23587   2.788   6.107   2.080
 7563SOL    HW123588   2.811   6.099   1.983
 7563SOL    HW223589   2.786   6.016   2.121
 7564SOL     OW23590   3.846   0.439   4.845
 7564SOL    HW123591   3.923   0.397   4.796
 7564SOL    HW223592   3.881   0.512   4.904
 7565SOL     OW23593   5.506   4.050   5.715
 7565SOL    HW123594   5.533   4.017   5.806
 7565SOL    HW223595   5.496   3.972   5.653
 7566SOL     OW23596   5.502   5.355   2.527
 7566SOL    HW123597   5.418   5.320   2.487
 7566SOL    HW223598   5.581   5.313   2.483
 7567SOL     OW23599   0.794   0.953   5.738
 7567SOL    HW123600   0.746   0.978   5.822
 7567SOL    HW223601   0.887   0.988   5.740
 7568SOL     OW23602   5.349   5.252   1.785
 7568SOL    HW123603   5.394   5.204   1.709
 7568SOL    HW223604   5.401   5.334   1.807
 7569SOL     OW23605   3.804   4.309   6.179
 7569SOL    HW123606   3.752   4.314   6.264
 7569SOL    HW223607   3.806   4.215   6.146
 7570SOL     OW23608   6.651   3.956   3.950
 7570SOL    HW123609   6.567   3.924   3.906
 7570SOL    HW223610   6.697   4.022   3.890
 7571SOL     OW23611   5.546   3.816   3.298
 7571SOL    HW123612   5.644   3.811   3.319
 7571SOL    HW223613   5.532   3.808   3.200
 7572SOL     OW23614   5.100   0.167   3.059
 7572SOL    HW123615   5.093   0.235   3.133
 7572SOL    HW223616   5.026   0.100   3.069
 7573SOL     OW23617   6.586   0.569   5.276
 7573SOL    HW123618   6.505   0.626   5.290
 7573SOL    HW223619   6.644   0.610   5.206
 7574SOL     OW23620   5.952   1.526   4.363
 7574SOL    HW123621   5.936   1.459   4.292
 7574SOL    HW223622   5.873   1.529   4.425
 7575SOL     OW23623   6.443   6.520   0.833
 7575SOL    HW123624   6.396   6.444   0.790
 7575SOL    HW223625   6.491   6.488   0.915
 7576SOL     OW23626   5.086   1.904   0.360
 7576SOL    HW123627   5.181   1.876   0.343
 7576SOL    HW223628   5.024   1.840   0.315
 7577SOL     OW23629   0.183   6.168   0.587
 7577SOL    HW123630   0.177   6.268   0.593
 7577SOL    HW223631   0.147   6.139   0.498
 7578SOL     OW23632   1.550   5.348   2.455
 7578SOL    HW123633   1.610   5.329   2.377
 7578SOL    HW223634   1.458   5.312   2.436
 7579SOL     OW23635   6.578   1.622   1.609
 7579SOL    HW123636   6.550   1.529   1.584
 7579SOL    HW223637   6.498   1.682   1.609
 7580SOL     OW23638   1.287   4.466   3.134
 7580SOL    HW123639   1.369   4.514   3.102
 7580SOL    HW223640   1.213   4.532   3.146
 7581SOL     OW23641   0.197   1.413   1.622
 7581SOL    HW123642   0.164   1.495   1.573
 7581SOL    HW223643   0.204   1.433   1.719
 7582SOL     OW23644   4.083   1.629   3.587
 7582SOL    HW123645   4.047   1.664   3.674
 7582SOL    HW223646   4.177   1.662   3.574
 7583SOL     OW23647   5.869   3.654   3.127
 7583SOL    HW123648   5.819   3.595   3.190
 7583SOL    HW223649   5.834   3.641   3.034
 7584SOL     OW23650   1.317   0.035   2.740
 7584SOL    HW123651   1.389   0.032   2.671
 7584SOL    HW223652   1.357   0.023   2.831
 7585SOL     OW23653   1.312   1.815   5.914
 7585SOL    HW123654   1.322   1.716   5.920
 7585SOL    HW223655   1.394   1.854   5.871
 7586SOL     OW23656   1.862   6.580   3.416
 7586SOL    HW123657   1.803   6.542   3.344
 7586SOL    HW223658   1.933   6.636   3.374
 7587SOL     OW23659   2.494   1.452   6.946
 7587SOL    HW123660   2.493   1.383   7.019
 7587SOL    HW223661   2.405   1.453   6.901
 7588SOL     OW23662   1.347   2.834   4.159
 7588SOL    HW123663   1.402   2.797   4.234
 7588SOL    HW223664   1.404   2.892   4.101
 7589SOL     OW23665   6.827   0.941   3.032
 7589SOL    HW123666   6.899   0.992   2.985
 7589SOL    HW223667   6.798   0.864   2.975
 7590SOL     OW23668   6.160   0.917   6.866
 7590SOL    HW123669   6.112   0.838   6.827
 7590SOL    HW223670   6.184   0.897   6.961
 7591SOL     OW23671   5.174   3.517   6.673
 7591SOL    HW123672   5.176   3.551   6.579
 7591SOL    HW223673   5.080   3.489   6.696
 7592SOL     OW23674   6.266   4.933   4.665
 7592SOL    HW123675   6.203   4.930   4.587
 7592SOL    HW223676   6.224   4.985   4.740
 7593SOL     OW23677   0.042   2.559   6.674
 7593SOL    HW123678   6.992   2.621   6.686
 7593SOL    HW223679   0.045   2.493   6.749
 7594SOL     OW23680   0.869   4.757   1.180
 7594SOL    HW123681   0.944   4.718   1.235
 7594SOL    HW223682   0.892   4.750   1.083
 7595SOL     OW23683   6.525   3.164   6.579
 7595SOL    HW123684   6.529   3.160   6.679
 7595SOL    HW223685   6.613   3.195   6.543
 7596SOL     OW23686   2.764   6.821   4.683
 7596SOL    HW123687   2.665   6.813   4.673
 7596SOL    HW223688   2.790   6.803   4.778
 7597SOL     OW23689   1.786   6.901   3.197
 7597SOL    HW123690   1.852   6.825   3.196
 7597SOL    HW223691   1.771   6.933   3.103
 7598SOL     OW23692   6.213   0.588   3.104
 7598SOL    HW123693   6.200   0.569   3.006
 7598SOL    HW223694   6.304   0.558   3.132
 7599SOL     OW23695   5.356   3.292   1.381
 7599SOL    HW123696   5.328   3.257   1.292
 7599SOL    HW223697   5.455   3.299   1.385
 7600SOL     OW23698   1.072   0.900   3.191
 7600SOL    HW123699   1.079   0.800   3.195
 7600SOL    HW223700   1.007   0.931   3.260
 7601SOL     OW23701   2.880   5.522   2.224
 7601SOL    HW123702   2.957   5.569   2.183
 7601SOL    HW223703   2.894   5.423   2.217
 7602SOL     OW23704   0.968   3.337   6.940
 7602SOL    HW123705   0.982   3.288   7.026
 7602SOL    HW223706   1.024   3.296   6.868
 7603SOL     OW23707   1.780   6.382   5.977
 7603SOL    HW123708   1.838   6.303   5.993
 7603SOL    HW223709   1.748   6.418   6.065
 7604SOL     OW23710   1.320   1.892   5.202
 7604SOL    HW123711   1.298   1.921   5.109
 7604SOL    HW223712   1.361   1.801   5.200
 7605SOL     OW23713   0.935   0.543   0.926
 7605SOL    HW123714   0.926   0.446   0.903
 7605SOL    HW223715   0.853   0.592   0.896
 7606SOL     OW23716   5.489   2.986   5.229
 7606SOL    HW123717   5.426   2.999   5.153
 7606SOL    HW223718   5.563   2.925   5.201
 7607SOL     OW23719   3.729   5.340   0.321
 7607SOL    HW123720   3.827   5.357   0.336
 7607SOL    HW223721   3.704   5.368   0.229
 7608SOL     OW23722   5.076   2.549   6.959
 7608SOL    HW123723   5.047   2.643   6.938
 7608SOL    HW223724   5.104   2.543   0.027
 7609SOL     OW23725   1.137   4.422   4.150
 7609SOL    HW123726   1.182   4.492   4.206
 7609SOL    HW223727   1.163   4.331   4.181
 7610SOL     OW23728   4.013   5.235   5.520
 7610SOL    HW123729   4.093   5.178   5.502
 7610SOL    HW223730   4.036   5.303   5.590
 7611SOL     OW23731   5.375   3.605   1.243
 7611SOL    HW123732   5.391   3.611   1.342
 7611SOL    HW223733   5.429   3.530   1.205
 7612SOL     OW23734   4.774   2.471   2.713
 7612SOL    HW123735   4.709   2.546   2.723
 7612SOL    HW223736   4.861   2.507   2.678
 7613SOL     OW23737   1.045   1.974   2.051
 7613SOL    HW123738   1.058   1.877   2.034
 7613SOL    HW223739   1.055   2.025   1.965
 7614SOL     OW23740   5.430   3.725   1.564
 7614SOL    HW123741   5.350   3.666   1.573
 7614SOL    HW223742   5.498   3.700   1.633
 7615SOL     OW23743   4.818   4.180   5.766
 7615SOL    HW123744   4.750   4.179   5.693
 7615SOL    HW223745   4.859   4.271   5.772
 7616SOL     OW23746   6.681   0.369   3.495
 7616SOL    HW123747   6.685   0.335   3.401
 7616SOL    HW223748   6.691   0.293   3.558
 7617SOL     OW23749   5.530   5.621   3.316
 7617SOL    HW123750   5.520   5.660   3.408
 7617SOL    HW223751   5.581   5.536   3.320
 7618SOL     OW23752   0.941   2.858   6.785
 7618SOL    HW123753   0.915   2.954   6.798
 7618SOL    HW223754   0.896   2.801   6.854
 7619SOL     OW23755   0.038   2.441   4.981
 7619SOL    HW123756   6.999   2.511   5.006
 7619SOL    HW223757   0.117   2.447   5.041
 7620SOL     OW23758   4.239   5.130   0.973
 7620SOL    HW123759   4.193   5.045   0.948
 7620SOL    HW223760   4.223   5.199   0.903
 7621SOL     OW23761   0.658   0.264   1.185
 7621SOL    HW123762   0.663   0.238   1.089
 7621SOL    HW223763   0.700   0.193   1.241
 7622SOL     OW23764   4.108   4.658   6.519
 7622SOL    HW123765   4.055   4.624   6.441
 7622SOL    HW223766   4.075   4.750   6.544
 7623SOL     OW23767   4.094   4.469   0.987
 7623SOL    HW123768   4.123   4.558   1.022
 7623SOL    HW223769   4.106   4.399   1.057
 7624SOL     OW23770   6.535   3.392   3.663
 7624SOL    HW123771   6.465   3.438   3.719
 7624SOL    HW223772   6.507   3.395   3.567
 7625SOL     OW23773   6.427   1.798   0.014
 7625SOL    HW123774   6.454   1.843   0.099
 7625SOL    HW223775   6.377   1.715   0.035
 7626SOL     OW23776   6.598   1.385   5.916
 7626SOL    HW123777   6.604   1.358   5.820
 7626SOL    HW223778   6.662   1.330   5.969
 7627SOL     OW23779   2.612   1.848   0.482
 7627SOL    HW123780   2.601   1.845   0.582
 7627SOL    HW223781   2.540   1.794   0.439
 7628SOL     OW23782   3.770   2.944   1.560
 7628SOL    HW123783   3.765   2.856   1.606
 7628SOL    HW223784   3.704   2.946   1.484
 7629SOL     OW23785   6.865   4.406   3.505
 7629SOL    HW123786   6.939   4.340   3.523
 7629SOL    HW223787   6.820   4.382   3.419
 7630SOL     OW23788   1.037   0.792   6.508
 7630SOL    HW123789   1.072   0.885   6.502
 7630SOL    HW223790   1.022   0.756   6.415
 7631SOL     OW23791   1.508   1.242   5.683
 7631SOL    HW123792   1.483   1.149   5.658
 7631SOL    HW223793   1.562   1.283   5.610
 7632SOL     OW23794   4.178   5.201   1.220
 7632SOL    HW123795   4.223   5.176   1.134
 7632SOL    HW223796   4.142   5.118   1.264
 7633SOL     OW23797   5.291   0.679   2.052
 7633SOL    HW123798   5.259   0.664   1.959
 7633SOL    HW223799   5.258   0.605   2.111
 7634SOL     OW23800   1.359   1.641   1.754
 7634SOL    HW123801   1.389   1.548   1.772
 7634SOL    HW223802   1.354   1.692   1.840
 7635SOL     OW23803   2.913   5.383   3.927
 7635SOL    HW123804   2.933   5.448   4.000
 7635SOL    HW223805   2.991   5.321   3.915
 7636SOL     OW23806   1.240   4.134   4.351
 7636SOL    HW123807   1.273   4.043   4.375
 7636SOL    HW223808   1.280   4.161   4.263
 7637SOL     OW23809   1.492   6.329   2.632
 7637SOL    HW123810   1.503   6.354   2.536
 7637SOL    HW223811   1.398   6.348   2.661
 7638SOL     OW23812   1.334   5.411   2.094
 7638SOL    HW123813   1.271   5.377   2.025
 7638SOL    HW223814   1.290   5.485   2.145
 7639SOL     OW23815   0.416   1.324   0.233
 7639SOL    HW123816   0.338   1.334   0.171
 7639SOL    HW223817   0.500   1.319   0.180
 7640SOL     OW23818   3.177   2.505   6.955
 7640SOL    HW123819   3.187   2.464   0.017
 7640SOL    HW223820   3.176   2.433   6.885
 7641SOL     OW23821   0.011   4.128   2.715
 7641SOL    HW123822   7.005   4.037   2.740
 7641SOL    HW223823   0.007   4.188   2.795
 7642SOL     OW23824   6.024   0.998   2.651
 7642SOL    HW123825   6.072   1.038   2.572
 7642SOL    HW223826   5.926   0.994   2.632
 7643SOL     OW23827   5.074   1.179   2.305
 7643SOL    HW123828   5.152   1.126   2.338
 7643SOL    HW223829   5.092   1.214   2.214
 7644SOL     OW23830   4.805   2.954   2.275
 7644SOL    HW123831   4.733   2.971   2.342
 7644SOL    HW223832   4.769   2.971   2.183
 7645SOL     OW23833   4.160   3.188   5.748
 7645SOL    HW123834   4.144   3.158   5.654
 7645SOL    HW223835   4.180   3.286   5.750
 7646SOL     OW23836   0.599   2.867   3.841
 7646SOL    HW123837   0.550   2.855   3.755
 7646SOL    HW223838   0.672   2.799   3.847
 7647SOL     OW23839   0.544   3.052   4.303
 7647SOL    HW123840   0.587   3.134   4.341
 7647SOL    HW223841   0.605   2.973   4.315
 7648SOL     OW23842   2.501   1.286   2.117
 7648SOL    HW123843   2.525   1.381   2.136
 7648SOL    HW223844   2.478   1.240   2.203
 7649SOL     OW23845   1.459   1.161   4.237
 7649SOL    HW123846   1.379   1.191   4.290
 7649SOL    HW223847   1.471   1.221   4.158
 7650SOL     OW23848   5.638   0.508   1.324
 7650SOL    HW123849   5.690   0.464   1.397
 7650SOL    HW223850   5.694   0.579   1.282
 7651SOL     OW23851   2.521   5.982   4.272
 7651SOL    HW123852   2.493   5.924   4.196
 7651SOL    HW223853   2.536   5.925   4.353
 7652SOL     OW23854   5.521   2.696   5.623
 7652SOL    HW123855   5.441   2.702   5.683
 7652SOL    HW223856   5.495   2.652   5.537
 7653SOL     OW23857   1.677   1.371   0.004
 7653SOL    HW123858   1.725   1.380   0.091
 7653SOL    HW223859   1.650   1.276   7.019
 7654SOL     OW23860   5.506   3.553   4.984
 7654SOL    HW123861   5.459   3.623   5.038
 7654SOL    HW223862   5.474   3.462   5.010
 7655SOL     OW23863   3.987   0.349   3.757
 7655SOL    HW123864   3.897   0.318   3.786
 7655SOL    HW223865   4.048   0.270   3.747
 7656SOL     OW23866   5.400   2.802   6.449
 7656SOL    HW123867   5.449   2.731   6.501
 7656SOL    HW223868   5.347   2.758   6.376
 7657SOL     OW23869   2.011   2.686   3.916
 7657SOL    HW123870   2.047   2.779   3.923
 7657SOL    HW223871   2.061   2.635   3.846
 7658SOL     OW23872   3.363   0.371   0.681
 7658SOL    HW123873   3.442   0.416   0.639
 7658SOL    HW223874   3.279   0.410   0.645
 7659SOL     OW23875   4.872   4.210   6.941
 7659SOL    HW123876   4.873   4.128   6.884
 7659SOL    HW223877   4.964   4.250   6.942
 7660SOL     OW23878   6.057   5.366   4.391
 7660SOL    HW123879   5.997   5.445   4.407
 7660SOL    HW223880   6.011   5.283   4.421
 7661SOL     OW23881   5.041   2.152   5.509
 7661SOL    HW123882   5.137   2.125   5.517
 7661SOL    HW223883   5.022   2.226   5.573
 7662SOL     OW23884   1.030   2.400   3.512
 7662SOL    HW123885   1.068   2.347   3.588
 7662SOL    HW223886   1.081   2.379   3.428
 7663SOL     OW23887   5.215   5.517   6.596
 7663SOL    HW123888   5.158   5.552   6.521
 7663SOL    HW223889   5.161   5.455   6.653
 7664SOL     OW23890   3.625   1.493   3.083
 7664SOL    HW123891   3.603   1.590   3.095
 7664SOL    HW223892   3.715   1.475   3.121
 7665SOL     OW23893   5.679   1.695   4.231
 7665SOL    HW123894   5.698   1.635   4.309
 7665SOL    HW223895   5.634   1.779   4.263
 7666SOL     OW23896   6.852   5.084   4.398
 7666SOL    HW123897   6.845   5.009   4.332
 7666SOL    HW223898   6.948   5.098   4.421
 7667SOL     OW23899   4.225   0.449   2.837
 7667SOL    HW123900   4.304   0.510   2.847
 7667SOL    HW223901   4.154   0.476   2.902
 7668SOL     OW23902   2.643   4.773   0.460
 7668SOL    HW123903   2.733   4.779   0.504
 7668SOL    HW223904   2.655   4.782   0.361
 7669SOL     OW23905   4.299   0.698   5.400
 7669SOL    HW123906   4.398   0.684   5.390
 7669SOL    HW223907   4.282   0.774   5.463
 7670SOL     OW23908   0.868   6.129   0.834
 7670SOL    HW123909   0.815   6.152   0.916
 7670SOL    HW223910   0.826   6.051   0.789
 7671SOL     OW23911   4.491   6.925   2.621
 7671SOL    HW123912   4.448   6.839   2.648
 7671SOL    HW223913   4.564   6.948   2.685
 7672SOL     OW23914   6.609   4.553   3.348
 7672SOL    HW123915   6.565   4.470   3.313
 7672SOL    HW223916   6.547   4.631   3.335
 7673SOL     OW23917   1.678   5.588   2.605
 7673SOL    HW123918   1.694   5.684   2.631
 7673SOL    HW223919   1.660   5.583   2.507
 7674SOL     OW23920   4.332   0.196   4.195
 7674SOL    HW123921   4.278   0.266   4.148
 7674SOL    HW223922   4.426   0.227   4.206
 7675SOL     OW23923   4.446   6.423   3.263
 7675SOL    HW123924   4.498   6.362   3.324
 7675SOL    HW223925   4.354   6.386   3.250
 7676SOL     OW23926   2.876   1.972   5.942
 7676SOL    HW123927   2.868   2.069   5.917
 7676SOL    HW223928   2.922   1.923   5.868
 7677SOL     OW23929   0.545   4.584   0.502
 7677SOL    HW123930   0.626   4.642   0.494
 7677SOL    HW223931   0.569   4.490   0.482
 7678SOL     OW23932   1.462   2.815   4.994
 7678SOL    HW123933   1.464   2.722   5.032
 7678SOL    HW223934   1.496   2.879   5.063
 7679SOL     OW23935   2.090   5.549   5.269
 7679SOL    HW123936   2.157   5.476   5.282
 7679SOL    HW223937   2.101   5.588   5.177
 7680SOL     OW23938   1.148   0.404   6.323
 7680SOL    HW123939   1.154   0.449   6.233
 7680SOL    HW223940   1.131   0.306   6.310
 7681SOL     OW23941   2.790   1.457   0.033
 7681SOL    HW123942   2.798   1.430   0.130
 7681SOL    HW223943   2.711   1.411   7.021
 7682SOL     OW23944   4.309   1.550   2.266
 7682SOL    HW123945   4.372   1.568   2.191
 7682SOL    HW223946   4.349   1.484   2.329
 7683SOL     OW23947   0.618   1.350   4.752
 7683SOL    HW123948   0.637   1.329   4.848
 7683SOL    HW223949   0.590   1.446   4.744
 7684SOL     OW23950   4.100   2.523   1.525
 7684SOL    HW123951   4.079   2.612   1.484
 7684SOL    HW223952   4.015   2.480   1.556
 7685SOL     OW23953   3.515   1.332   6.789
 7685SOL    HW123954   3.416   1.328   6.780
 7685SOL    HW223955   3.558   1.324   6.699
 7686SOL     OW23956   5.459   6.596   4.267
 7686SOL    HW123957   5.421   6.611   4.358
 7686SOL    HW223958   5.500   6.682   4.234
 7687SOL     OW23959   5.036   4.840   4.893
 7687SOL    HW123960   5.078   4.804   4.976
 7687SOL    HW223961   4.945   4.875   4.913
 7688SOL     OW23962   6.954   6.161   5.715
 7688SOL    HW123963   0.023   6.144   5.695
 7688SOL    HW223964   6.924   6.101   5.789
 7689SOL     OW23965   4.892   0.143   2.700
 7689SOL    HW123966   4.912   0.120   2.605
 7689SOL    HW223967   4.959   0.210   2.734
 7690SOL     OW23968   5.398   5.404   0.568
 7690SOL    HW123969   5.319   5.400   0.628
 7690SOL    HW223970   5.376   5.361   0.480
 7691SOL     OW23971   4.542   4.749   1.817
 7691SOL    HW123972   4.442   4.749   1.819
 7691SOL    HW223973   4.576   4.669   1.867
 7692SOL     OW23974   0.594   6.270   1.572
 7692SOL    HW123975   0.588   6.257   1.671
 7692SOL    HW223976   0.510   6.313   1.539
 7693SOL     OW23977   3.290   0.381   1.695
 7693SOL    HW123978   3.205   0.336   1.667
 7693SOL    HW223979   3.367   0.343   1.644
 7694SOL     OW23980   5.715   2.801   4.457
 7694SOL    HW123981   5.756   2.758   4.376
 7694SOL    HW223982   5.700   2.732   4.528
 7695SOL     OW23983   5.876   0.649   1.795
 7695SOL    HW123984   5.935   0.696   1.861
 7695SOL    HW223985   5.881   0.696   1.707
 7696SOL     OW23986   0.233   1.190   6.129
 7696SOL    HW123987   0.292   1.129   6.076
 7696SOL    HW223988   0.253   1.179   6.226
 7697SOL     OW23989   3.086   0.741   2.711
 7697SOL    HW123990   3.001   0.785   2.682
 7697SOL    HW223991   3.150   0.738   2.634
 7698SOL     OW23992   6.603   1.783   5.214
 7698SOL    HW123993   6.701   1.761   5.220
 7698SOL    HW223994   6.564   1.738   5.134
 7699SOL     OW23995   2.687   5.199   6.855
 7699SOL    HW123996   2.682   5.153   6.943
 7699SOL    HW223997   2.595   5.215   6.820
 7700SOL     OW23998   4.282   5.953   3.446
 7700SOL    HW123999   4.243   5.963   3.537
 7700SOL    HW224000   4.229   5.887   3.393
 7701SOL     OW24001   0.168   2.156   6.295
 7701SOL    HW124002   0.102   2.229   6.275
 7701SOL    HW224003   0.246   2.194   6.345
 7702SOL     OW24004   4.256   6.230   5.244
 7702SOL    HW124005   4.225   6.288   5.169
 7702SOL    HW224006   4.220   6.266   5.331
 7703SOL     OW24007   6.440   6.958   5.193
 7703SOL    HW124008   6.474   6.915   5.108
 7703SOL    HW224009   6.391   6.890   5.247
 7704SOL     OW24010   6.575   2.119   4.167
 7704SOL    HW124011   6.497   2.080   4.216
 7704SOL    HW224012   6.610   2.198   4.218
 7705SOL     OW24013   2.661   5.016   0.780
 7705SOL    HW124014   2.643   5.047   0.687
 7705SOL    HW224015   2.726   5.079   0.823
 7706SOL     OW24016   3.544   2.893   3.488
 7706SOL    HW124017   3.642   2.874   3.501
 7706SOL    HW224018   3.497   2.809   3.462
 7707SOL     OW24019   0.325   4.933   6.578
 7707SOL    HW124020   0.254   5.000   6.557
 7707SOL    HW224021   0.329   4.864   6.505
 7708SOL     OW24022   1.431   6.771   4.334
 7708SOL    HW124023   1.476   6.823   4.261
 7708SOL    HW224024   1.435   6.674   4.312
 7709SOL     OW24025   6.667   5.428   1.537
 7709SOL    HW124026   6.634   5.503   1.480
 7709SOL    HW224027   6.742   5.460   1.594
 7710SOL     OW24028   1.948   2.440   0.784
 7710SOL    HW124029   1.951   2.524   0.730
 7710SOL    HW224030   1.858   2.430   0.826
 7711SOL     OW24031   6.236   5.677   5.714
 7711SOL    HW124032   6.253   5.732   5.795
 7711SOL    HW224033   6.142   5.641   5.717
 7712SOL     OW24034   5.971   4.360   6.910
 7712SOL    HW124035   6.024   4.442   6.929
 7712SOL    HW224036   5.904   4.379   6.839
 7713SOL     OW24037   2.066   3.954   1.117
 7713SOL    HW124038   1.985   3.916   1.071
 7713SOL    HW224039   2.148   3.911   1.080
 7714SOL     OW24040   0.370   6.616   5.582
 7714SOL    HW124041   0.385   6.519   5.604
 7714SOL    HW224042   0.302   6.654   5.644
 7715SOL     OW24043   2.613   2.072   6.535
 7715SOL    HW124044   2.619   1.989   6.480
 7715SOL    HW224045   2.664   2.145   6.490
 7716SOL     OW24046   6.929   5.141   0.200
 7716SOL    HW124047   6.927   5.042   0.187
 7716SOL    HW224048   6.988   5.182   0.130
 7717SOL     OW24049   1.534   1.720   5.118
 7717SOL    HW124050   1.598   1.795   5.103
 7717SOL    HW224051   1.520   1.671   5.032
 7718SOL     OW24052   6.627   4.549   2.876
 7718SOL    HW124053   6.644   4.496   2.959
 7718SOL    HW224054   6.713   4.557   2.824
 7719SOL     OW24055   0.827   4.346   5.085
 7719SOL    HW124056   0.805   4.433   5.041
 7719SOL    HW224057   0.772   4.273   5.044
 7720SOL     OW24058   6.296   1.802   5.777
 7720SOL    HW124059   6.260   1.799   5.684
 7720SOL    HW224060   6.283   1.713   5.821
 7721SOL     OW24061   0.496   0.335   2.275
 7721SOL    HW124062   0.575   0.386   2.309
 7721SOL    HW224063   0.514   0.237   2.282
 7722SOL     OW24064   1.932   5.308   4.162
 7722SOL    HW124065   1.845   5.312   4.113
 7722SOL    HW224066   2.007   5.300   4.096
 7723SOL     OW24067   4.678   3.658   6.809
 7723SOL    HW124068   4.682   3.631   6.905
 7723SOL    HW224069   4.589   3.634   6.771
 7724SOL     OW24070   3.286   4.456   0.734
 7724SOL    HW124071   3.266   4.506   0.818
 7724SOL    HW224072   3.205   4.456   0.675
 7725SOL     OW24073   5.682   2.516   2.617
 7725SOL    HW124074   5.618   2.571   2.671
 7725SOL    HW224075   5.708   2.435   2.669
 7726SOL     OW24076   0.909   2.850   6.045
 7726SOL    HW124077   0.979   2.836   6.115
 7726SOL    HW224078   0.951   2.891   5.964
 7727SOL     OW24079   5.956   2.798   1.434
 7727SOL    HW124080   5.921   2.886   1.467
 7727SOL    HW224081   6.004   2.812   1.347
 7728SOL     OW24082   2.189   2.880   5.158
 7728SOL    HW124083   2.176   2.809   5.089
 7728SOL    HW224084   2.245   2.954   5.119
 7729SOL     OW24085   5.697   1.528   1.852
 7729SOL    HW124086   5.719   1.603   1.915
 7729SOL    HW224087   5.603   1.500   1.866
 7730SOL     OW24088   6.247   4.576   5.042
 7730SOL    HW124089   6.223   4.586   5.139
 7730SOL    HW224090   6.345   4.594   5.030
 7731SOL     OW24091   6.433   6.947   0.671
 7731SOL    HW124092   6.478   6.895   0.599
 7731SOL    HW224093   6.339   6.914   0.681
 7732SOL     OW24094   4.319   0.244   0.101
 7732SOL    HW124095   4.274   0.154   0.102
 7732SOL    HW224096   4.310   0.286   0.191
 7733SOL     OW24097   6.195   5.320   2.866
 7733SOL    HW124098   6.223   5.266   2.945
 7733SOL    HW224099   6.139   5.397   2.895
 7734SOL     OW24100   2.412   5.149   4.194
 7734SOL    HW124101   2.490   5.209   4.208
 7734SOL    HW224102   2.444   5.055   4.180
 7735SOL     OW24103   6.272   5.594   0.205
 7735SOL    HW124104   6.236   5.584   0.297
 7735SOL    HW224105   6.218   5.539   0.141
 7736SOL     OW24106   2.304   3.111   0.484
 7736SOL    HW124107   2.216   3.130   0.528
 7736SOL    HW224108   2.378   3.125   0.550
 7737SOL     OW24109   3.095   5.635   2.101
 7737SOL    HW124110   3.127   5.548   2.063
 7737SOL    HW224111   3.170   5.702   2.099
 7738SOL     OW24112   2.561   5.999   6.855
 7738SOL    HW124113   2.569   5.990   6.755
 7738SOL    HW224114   2.590   6.090   6.882
 7739SOL     OW24115   1.082   1.810   1.368
 7739SOL    HW124116   1.156   1.869   1.402
 7739SOL    HW224117   1.096   1.717   1.401
 7740SOL     OW24118   1.860   1.257   2.562
 7740SOL    HW124119   1.848   1.208   2.475
 7740SOL    HW224120   1.944   1.312   2.557
 7741SOL     OW24121   1.043   4.111   5.031
 7741SOL    HW124122   0.994   4.047   4.972
 7741SOL    HW224123   0.995   4.199   5.031
 7742SOL     OW24124   3.910   1.360   3.997
 7742SOL    HW124125   3.820   1.384   3.960
 7742SOL    HW224126   3.976   1.353   3.922
 7743SOL     OW24127   4.795   0.761   6.857
 7743SOL    HW124128   4.722   0.826   6.880
 7743SOL    HW224129   4.778   0.722   6.767
 7744SOL     OW24130   0.540   5.983   3.546
 7744SOL    HW124131   0.605   6.010   3.474
 7744SOL    HW224132   0.458   5.943   3.505
 7745SOL     OW24133   2.634   6.674   0.047
 7745SOL    HW124134   2.610   6.664   6.978
 7745SOL    HW224135   2.633   6.771   0.071
 7746SOL     OW24136   1.355   6.797   0.771
 7746SOL    HW124137   1.364   6.698   0.771
 7746SOL    HW224138   1.264   6.823   0.806
 7747SOL     OW24139   0.600   6.002   1.098
 7747SOL    HW124140   0.641   6.091   1.082
 7747SOL    HW224141   0.510   5.998   1.054
 7748SOL     OW24142   3.200   3.735   4.946
 7748SOL    HW124143   3.220   3.749   5.043
 7748SOL    HW224144   3.135   3.804   4.915
 7749SOL     OW24145   3.178   3.537   3.631
 7749SOL    HW124146   3.253   3.475   3.610
 7749SOL    HW224147   3.205   3.631   3.609
 7750SOL     OW24148   5.802   5.515   5.987
 7750SOL    HW124149   5.799   5.422   5.950
 7750SOL    HW224150   5.839   5.513   6.080
 7751SOL     OW24151   0.941   2.193   3.130
 7751SOL    HW124152   0.945   2.133   3.050
 7751SOL    HW224153   0.885   2.273   3.109
 7752SOL     OW24154   5.947   5.626   5.781
 7752SOL    HW124155   5.902   5.611   5.869
 7752SOL    HW224156   5.884   5.605   5.707
 7753SOL     OW24157   2.595   1.176   4.169
 7753SOL    HW124158   2.518   1.189   4.232
 7753SOL    HW224159   2.594   1.083   4.132
 7754SOL     OW24160   5.171   0.290   1.913
 7754SOL    HW124161   5.193   0.258   2.005
 7754SOL    HW224162   5.242   0.260   1.849
 7755SOL     OW24163   1.168   0.531   5.773
 7755SOL    HW124164   1.267   0.517   5.775
 7755SOL    HW224165   1.146   0.599   5.703
 7756SOL     OW24166   2.781   5.927   2.549
 7756SOL    HW124167   2.831   6.005   2.512
 7756SOL    HW224168   2.710   5.959   2.612
 7757SOL     OW24169   4.974   6.455   4.381
 7757SOL    HW124170   4.893   6.405   4.351
 7757SOL    HW224171   5.036   6.469   4.304
 7758SOL     OW24172   1.492   2.223   6.702
 7758SOL    HW124173   1.522   2.163   6.628
 7758SOL    HW224174   1.569   2.275   6.736
 7759SOL     OW24175   1.637   1.305   5.224
 7759SOL    HW124176   1.696   1.352   5.158
 7759SOL    HW224177   1.583   1.236   5.178
 7760SOL     OW24178   5.919   3.716   2.374
 7760SOL    HW124179   5.866   3.648   2.325
 7760SOL    HW224180   5.924   3.691   2.471
 7761SOL     OW24181   2.464   0.254   6.552
 7761SOL    HW124182   2.475   0.203   6.638
 7761SOL    HW224183   2.513   0.341   6.559
 7762SOL     OW24184   4.092   0.747   5.198
 7762SOL    HW124185   4.123   0.840   5.182
 7762SOL    HW224186   4.153   0.701   5.262
 7763SOL     OW24187   1.318   1.294   1.283
 7763SOL    HW124188   1.411   1.262   1.264
 7763SOL    HW224189   1.274   1.322   1.198
 7764SOL     OW24190   3.764   2.926   2.542
 7764SOL    HW124191   3.856   2.886   2.544
 7764SOL    HW224192   3.738   2.945   2.447
 7765SOL     OW24193   6.141   3.127   3.702
 7765SOL    HW124194   6.095   3.091   3.783
 7765SOL    HW224195   6.235   3.152   3.726
 7766SOL     OW24196   4.882   1.361   6.662
 7766SOL    HW124197   4.828   1.281   6.689
 7766SOL    HW224198   4.848   1.397   6.575
 7767SOL     OW24199   3.807   6.416   4.028
 7767SOL    HW124200   3.752   6.393   3.947
 7767SOL    HW224201   3.773   6.501   4.068
 7768SOL     OW24202   4.308   5.325   2.739
 7768SOL    HW124203   4.331   5.405   2.794
 7768SOL    HW224204   4.349   5.243   2.781
 7769SOL     OW24205   5.310   1.456   1.394
 7769SOL    HW124206   5.303   1.511   1.477
 7769SOL    HW224207   5.387   1.393   1.402
 7770SOL     OW24208   1.708   4.041   1.779
 7770SOL    HW124209   1.714   3.962   1.719
 7770SOL    HW224210   1.700   4.011   1.874
 7771SOL     OW24211   2.596   2.582   5.268
 7771SOL    HW124212   2.693   2.604   5.268
 7771SOL    HW224213   2.544   2.660   5.304
 7772SOL     OW24214   5.199   1.084   3.860
 7772SOL    HW124215   5.292   1.101   3.889
 7772SOL    HW224216   5.183   1.126   3.770
 7773SOL     OW24217   2.777   4.890   5.325
 7773SOL    HW124218   2.710   4.874   5.253
 7773SOL    HW224219   2.797   4.804   5.372
 7774SOL     OW24220   6.085   2.445   6.581
 7774SOL    HW124221   6.049   2.507   6.651
 7774SOL    HW224222   6.019   2.436   6.507
 7775SOL     OW24223   3.432   6.701   3.002
 7775SOL    HW124224   3.413   6.792   3.039
 7775SOL    HW224225   3.463   6.709   2.907
 7776SOL     OW24226   3.006   3.251   6.821
 7776SOL    HW124227   2.971   3.212   6.736
 7776SOL    HW224228   3.081   3.314   6.800
 7777SOL     OW24229   2.510   1.528   5.274
 7777SOL    HW124230   2.609   1.536   5.264
 7777SOL    HW224231   2.467   1.522   5.184
 7778SOL     OW24232   5.109   6.346   0.048
 7778SOL    HW124233   5.100   6.272   0.114
 7778SOL    HW224234   5.163   6.421   0.088
 7779SOL     OW24235   3.817   3.305   0.384
 7779SOL    HW124236   3.730   3.263   0.409
 7779SOL    HW224237   3.888   3.278   0.450
 7780SOL     OW24238   1.651   5.320   4.889
 7780SOL    HW124239   1.704   5.397   4.926
 7780SOL    HW224240   1.698   5.282   4.809
 7781SOL     OW24241   1.857   4.357   6.640
 7781SOL    HW124242   1.956   4.355   6.648
 7781SOL    HW224243   1.816   4.344   6.730
 7782SOL     OW24244   1.640   3.570   5.523
 7782SOL    HW124245   1.575   3.494   5.528
 7782SOL    HW224246   1.714   3.546   5.460
 7783SOL     OW24247   3.269   6.655   5.995
 7783SOL    HW124248   3.365   6.626   5.987
 7783SOL    HW224249   3.263   6.729   6.062
 7784SOL     OW24250   2.022   2.225   0.233
 7784SOL    HW124251   1.997   2.196   0.141
 7784SOL    HW224252   2.102   2.284   0.229
 7785SOL     OW24253   1.669   6.809   3.746
 7785SOL    HW124254   1.724   6.733   3.712
 7785SOL    HW224255   1.711   6.847   3.829
 7786SOL     OW24256   3.334   5.363   6.191
 7786SOL    HW124257   3.325   5.263   6.187
 7786SOL    HW224258   3.430   5.388   6.178
 7787SOL     OW24259   1.877   3.502   5.380
 7787SOL    HW124260   1.896   3.405   5.392
 7787SOL    HW224261   1.881   3.526   5.283
 7788SOL     OW24262   1.544   0.546   1.734
 7788SOL    HW124263   1.513   0.557   1.639
 7788SOL    HW224264   1.588   0.458   1.745
 7789SOL     OW24265   3.666   6.710   0.447
 7789SOL    HW124266   3.607   6.674   0.519
 7789SOL    HW224267   3.729   6.777   0.486
 7790SOL     OW24268   6.010   5.158   2.347
 7790SOL    HW124269   6.011   5.151   2.447
 7790SOL    HW224270   6.005   5.067   2.308
 7791SOL     OW24271   2.973   6.715   3.842
 7791SOL    HW124272   3.032   6.722   3.923
 7791SOL    HW224273   2.969   6.620   3.812
 7792SOL     OW24274   0.867   5.315   6.066
 7792SOL    HW124275   0.929   5.357   5.999
 7792SOL    HW224276   0.816   5.240   6.022
 7793SOL     OW24277   1.477   0.573   5.750
 7793SOL    HW124278   1.456   0.477   5.730
 7793SOL    HW224279   1.571   0.580   5.783
 7794SOL     OW24280   4.846   5.368   3.717
 7794SOL    HW124281   4.799   5.404   3.636
 7794SOL    HW224282   4.869   5.444   3.778
 7795SOL     OW24283   1.950   3.779   4.700
 7795SOL    HW124284   1.991   3.866   4.729
 7795SOL    HW224285   1.896   3.793   4.618
 7796SOL     OW24286   3.010   3.843   4.206
 7796SOL    HW124287   3.099   3.798   4.199
 7796SOL    HW224288   2.998   3.905   4.128
 7797SOL     OW24289   1.020   5.770   2.780
 7797SOL    HW124290   1.103   5.754   2.727
 7797SOL    HW224291   0.964   5.687   2.781
 7798SOL     OW24292   1.396   4.851   6.274
 7798SOL    HW124293   1.331   4.910   6.323
 7798SOL    HW224294   1.345   4.787   6.216
 7799SOL     OW24295   6.940   6.424   1.943
 7799SOL    HW124296   6.891   6.472   2.015
 7799SOL    HW224297   6.940   6.480   1.859
 7800SOL     OW24298   1.402   5.085   0.887
 7800SOL    HW124299   1.454   5.171   0.886
 7800SOL    HW224300   1.354   5.077   0.975
 7801SOL     OW24301   2.664   1.836   1.639
 7801SOL    HW124302   2.752   1.880   1.619
 7801SOL    HW224303   2.636   1.782   1.559
 7802SOL     OW24304   5.263   2.456   1.232
 7802SOL    HW124305   5.167   2.469   1.207
 7802SOL    HW224306   5.313   2.419   1.154
 7803SOL     OW24307   4.403   3.049   5.869
 7803SOL    HW124308   4.482   3.053   5.807
 7803SOL    HW224309   4.319   3.046   5.816
 7804SOL     OW24310   6.537   1.423   3.727
 7804SOL    HW124311   6.511   1.446   3.633
 7804SOL    HW224312   6.488   1.483   3.791
 7805SOL     OW24313   5.525   1.031   1.534
 7805SOL    HW124314   5.477   1.118   1.544
 7805SOL    HW224315   5.555   1.020   1.439
 7806SOL     OW24316   5.739   2.457   6.115
 7806SOL    HW124317   5.694   2.546   6.112
 7806SOL    HW224318   5.693   2.394   6.053
 7807SOL     OW24319   0.701   5.114   6.393
 7807SOL    HW124320   0.700   5.047   6.318
 7807SOL    HW224321   0.667   5.071   6.477
 7808SOL     OW24322   0.186   3.227   4.233
 7808SOL    HW124323   0.265   3.286   4.215
 7808SOL    HW224324   0.217   3.138   4.267
 7809SOL     OW24325   2.627   6.322   4.769
 7809SOL    HW124326   2.570   6.299   4.691
 7809SOL    HW224327   2.590   6.279   4.852
 7810SOL     OW24328   3.530   7.008   5.345
 7810SOL    HW124329   3.594   6.993   5.420
 7810SOL    HW224330   3.579   7.018   5.259
 7811SOL     OW24331   0.003   4.460   4.262
 7811SOL    HW124332   7.000   4.421   4.176
 7811SOL    HW224333   0.102   4.446   4.272
 7812SOL     OW24334   1.178   2.032   4.047
 7812SOL    HW124335   1.218   1.941   4.046
 7812SOL    HW224336   1.109   2.040   3.975
 7813SOL     OW24337   4.235   2.236   6.215
 7813SOL    HW124338   4.230   2.334   6.196
 7813SOL    HW224339   4.288   2.221   6.298
 7814SOL     OW24340   6.792   3.591   3.670
 7814SOL    HW124341   6.759   3.614   3.762
 7814SOL    HW224342   6.715   3.590   3.607
 7815SOL     OW24343   5.173   0.773   6.947
 7815SOL    HW124344   5.153   0.683   6.907
 7815SOL    HW224345   5.143   0.844   6.884
 7816SOL     OW24346   1.355   2.340   6.335
 7816SOL    HW124347   1.412   2.258   6.325
 7816SOL    HW224348   1.376   2.405   6.262
 7817SOL     OW24349   6.276   3.769   3.909
 7817SOL    HW124350   6.309   3.677   3.927
 7817SOL    HW224351   6.279   3.823   3.993
 7818SOL     OW24352   4.257   0.924   3.023
 7818SOL    HW124353   4.314   0.902   2.944
 7818SOL    HW224354   4.304   0.990   3.081
 7819SOL     OW24355   6.748   3.279   1.886
 7819SOL    HW124356   6.711   3.368   1.858
 7819SOL    HW224357   6.770   3.225   1.805
 7820SOL     OW24358   1.622   2.401   4.435
 7820SOL    HW124359   1.657   2.456   4.359
 7820SOL    HW224360   1.659   2.308   4.430
 7821SOL     OW24361   4.972   5.938   1.161
 7821SOL    HW124362   4.992   5.876   1.236
 7821SOL    HW224363   5.046   5.934   1.093
 7822SOL     OW24364   0.328   0.256   5.395
 7822SOL    HW124365   0.370   0.204   5.320
 7822SOL    HW224366   0.356   0.351   5.389
 7823SOL     OW24367   2.201   3.844   5.247
 7823SOL    HW124368   2.136   3.920   5.253
 7823SOL    HW224369   2.290   3.878   5.216
 7824SOL     OW24370   6.174   2.007   5.068
 7824SOL    HW124371   6.242   2.014   5.141
 7824SOL    HW224372   6.089   1.970   5.105
 7825SOL     OW24373   1.605   3.030   0.319
 7825SOL    HW124374   1.593   2.947   0.264
 7825SOL    HW224375   1.648   3.007   0.406
 7826SOL     OW24376   5.830   1.219   1.199
 7826SOL    HW124377   5.896   1.235   1.272
 7826SOL    HW224378   5.819   1.302   1.145
 7827SOL     OW24379   1.935   6.008   0.959
 7827SOL    HW124380   1.953   5.944   0.884
 7827SOL    HW224381   2.004   5.997   1.029
 7828SOL     OW24382   6.286   4.642   0.330
 7828SOL    HW124383   6.333   4.604   0.251
 7828SOL    HW224384   6.351   4.654   0.405
 7829SOL     OW24385   2.740   3.434   0.979
 7829SOL    HW124386   2.755   3.412   1.075
 7829SOL    HW224387   2.641   3.434   0.960
 7830SOL     OW24388   3.060   5.093   5.640
 7830SOL    HW124389   3.160   5.105   5.636
 7830SOL    HW224390   3.024   5.087   5.547
 7831SOL     OW24391   2.123   0.272   2.036
 7831SOL    HW124392   2.145   0.248   2.131
 7831SOL    HW224393   2.201   0.250   1.978
 7832SOL     OW24394   6.378   0.587   4.768
 7832SOL    HW124395   6.358   0.685   4.776
 7832SOL    HW224396   6.295   0.539   4.741
 7833SOL     OW24397   1.224   0.994   4.934
 7833SOL    HW124398   1.294   0.926   4.913
 7833SOL    HW224399   1.150   0.988   4.868
 7834SOL     OW24400   0.017   1.673   3.563
 7834SOL    HW124401   0.004   1.608   3.488
 7834SOL    HW224402   0.012   1.767   3.527
 7835SOL     OW24403   4.422   1.904   5.005
 7835SOL    HW124404   4.408   1.906   5.104
 7835SOL    HW224405   4.484   1.979   4.979
 7836SOL     OW24406   3.417   4.330   5.288
 7836SOL    HW124407   3.330   4.378   5.272
 7836SOL    HW224408   3.398   4.244   5.336
 7837SOL     OW24409   5.057   5.788   6.926
 7837SOL    HW124410   4.993   5.805   7.001
 7837SOL    HW224411   5.094   5.875   6.893
 7838SOL     OW24412   4.166   6.470   1.143
 7838SOL    HW124413   4.233   6.441   1.211
 7838SOL    HW224414   4.083   6.416   1.153
 7839SOL     OW24415   6.348   4.031   5.006
 7839SOL    HW124416   6.293   4.000   5.084
 7839SOL    HW224417   6.435   4.069   5.040
 7840SOL     OW24418   0.272   3.509   4.478
 7840SOL    HW124419   0.199   3.485   4.415
 7840SOL    HW224420   0.265   3.452   4.560
 7841SOL     OW24421   4.550   1.568   6.633
 7841SOL    HW124422   4.500   1.485   6.658
 7841SOL    HW224423   4.644   1.561   6.669
 7842SOL     OW24424   2.101   1.157   2.310
 7842SOL    HW124425   2.073   1.089   2.242
 7842SOL    HW224426   2.138   1.237   2.264
 7843SOL     OW24427   0.363   6.662   3.619
 7843SOL    HW124428   0.412   6.603   3.554
 7843SOL    HW224429   0.429   6.704   3.682
 7844SOL     OW24430   3.418   1.189   2.455
 7844SOL    HW124431   3.442   1.257   2.524
 7844SOL    HW224432   3.464   1.210   2.369
 7845SOL     OW24433   5.183   1.765   2.262
 7845SOL    HW124434   5.107   1.702   2.245
 7845SOL    HW224435   5.162   1.854   2.221
 7846SOL     OW24436   1.029   2.437   1.454
 7846SOL    HW124437   1.040   2.361   1.519
 7846SOL    HW224438   1.039   2.403   1.361
 7847SOL     OW24439   6.642   1.356   3.408
 7847SOL    HW124440   6.595   1.444   3.415
 7847SOL    HW224441   6.576   1.284   3.385
 7848SOL     OW24442   2.890   4.483   0.892
 7848SOL    HW124443   2.860   4.406   0.948
 7848SOL    HW224444   2.818   4.507   0.827
 7849SOL     OW24445   6.217   4.194   4.821
 7849SOL    HW124446   6.256   4.123   4.879
 7849SOL    HW224447   6.282   4.220   4.750
 7850SOL     OW24448   0.493   2.002   3.868
 7850SOL    HW124449   0.412   2.007   3.810
 7850SOL    HW224450   0.550   1.925   3.839
 7851SOL     OW24451   0.702   2.485   1.738
 7851SOL    HW124452   0.789   2.506   1.692
 7851SOL    HW224453   0.707   2.515   1.833
 7852SOL     OW24454   3.073   0.954   0.530
 7852SOL    HW124455   3.138   0.981   0.459
 7852SOL    HW224456   2.988   1.007   0.519
 7853SOL     OW24457   4.800   2.934   1.282
 7853SOL    HW124458   4.863   3.004   1.249
 7853SOL    HW224459   4.848   2.873   1.345
 7854SOL     OW24460   3.306   2.417   6.022
 7854SOL    HW124461   3.326   2.482   5.949
 7854SOL    HW224462   3.358   2.443   6.104
 7855SOL     OW24463   4.355   6.092   4.875
 7855SOL    HW124464   4.318   6.174   4.918
 7855SOL    HW224465   4.428   6.118   4.812
 7856SOL     OW24466   0.543   5.259   5.199
 7856SOL    HW124467   0.473   5.255   5.127
 7856SOL    HW224468   0.516   5.201   5.275
 7857SOL     OW24469   4.841   3.393   1.058
 7857SOL    HW124470   4.885   3.312   1.020
 7857SOL    HW224471   4.882   3.475   1.019
 7858SOL     OW24472   6.706   6.828   4.893
 7858SOL    HW124473   6.612   6.824   4.857
 7858SOL    HW224474   6.771   6.824   4.817
 7859SOL     OW24475   4.807   3.769   0.070
 7859SOL    HW124476   4.902   3.747   0.090
 7859SOL    HW224477   4.750   3.689   0.090
 7860SOL     OW24478   4.389   1.104   4.636
 7860SOL    HW124479   4.389   1.009   4.602
 7860SOL    HW224480   4.428   1.106   4.728
 7861SOL     OW24481   2.669   5.175   1.617
 7861SOL    HW124482   2.621   5.249   1.664
 7861SOL    HW224483   2.752   5.151   1.667
 7862SOL     OW24484   1.706   5.880   2.621
 7862SOL    HW124485   1.759   5.901   2.703
 7862SOL    HW224486   1.750   5.921   2.541
 7863SOL     OW24487   0.792   4.668   3.724
 7863SOL    HW124488   0.784   4.716   3.636
 7863SOL    HW224489   0.730   4.710   3.790
 7864SOL     OW24490   1.578   5.601   6.163
 7864SOL    HW124491   1.527   5.616   6.078
 7864SOL    HW224492   1.570   5.504   6.189
 7865SOL     OW24493   6.314   5.461   4.455
 7865SOL    HW124494   6.294   5.551   4.495
 7865SOL    HW224495   6.229   5.417   4.427
 7866SOL     OW24496   0.930   0.483   5.402
 7866SOL    HW124497   0.909   0.450   5.494
 7866SOL    HW224498   0.965   0.408   5.347
 7867SOL     OW24499   5.639   0.010   3.314
 7867SOL    HW124500   5.655   6.949   3.271
 7867SOL    HW224501   5.562   0.004   3.377
 7868SOL     OW24502   4.398   6.050   0.663
 7868SOL    HW124503   4.305   6.041   0.625
 7868SOL    HW224504   4.403   6.133   0.719
 7869SOL     OW24505   5.341   4.681   5.714
 7869SOL    HW124506   5.412   4.611   5.705
 7869SOL    HW224507   5.302   4.701   5.624
 7870SOL     OW24508   4.956   6.747   4.832
 7870SOL    HW124509   4.962   6.675   4.902
 7870SOL    HW224510   4.867   6.792   4.838
 7871SOL     OW24511   4.844   2.285   1.978
 7871SOL    HW124512   4.852   2.358   1.910
 7871SOL    HW224513   4.810   2.323   2.064
 7872SOL     OW24514   1.865   4.176   2.114
 7872SOL    HW124515   1.809   4.140   2.040
 7872SOL    HW224516   1.827   4.148   2.202
 7873SOL     OW24517   6.094   0.046   0.446
 7873SOL    HW124518   6.136   0.134   0.425
 7873SOL    HW224519   6.134   0.009   0.530
 7874SOL     OW24520   4.392   2.370   1.125
 7874SOL    HW124521   4.470   2.432   1.126
 7874SOL    HW224522   4.307   2.423   1.128
 7875SOL     OW24523   3.835   3.123   0.149
 7875SOL    HW124524   3.838   3.192   0.221
 7875SOL    HW224525   3.745   3.124   0.106
 7876SOL     OW24526   1.200   6.502   3.621
 7876SOL    HW124527   1.114   6.453   3.636
 7876SOL    HW224528   1.184   6.600   3.626
 7877SOL     OW24529   6.985   1.487   2.805
 7877SOL    HW124530   0.023   1.435   2.751
 7877SOL    HW224531   6.892   1.461   2.778
 7878SOL     OW24532   4.824   4.132   3.578
 7878SOL    HW124533   4.798   4.219   3.537
 7878SOL    HW224534   4.810   4.058   3.513
 7879SOL     OW24535   3.712   5.060   2.535
 7879SOL    HW124536   3.760   5.013   2.461
 7879SOL    HW224537   3.746   5.154   2.542
 7880SOL     OW24538   2.314   3.557   0.746
 7880SOL    HW124539   2.326   3.655   0.730
 7880SOL    HW224540   2.237   3.524   0.692
 7881SOL     OW24541   4.916   4.066   4.289
 7881SOL    HW124542   4.921   3.984   4.346
 7881SOL    HW224543   4.931   4.147   4.346
 7882SOL     OW24544   2.019   3.585   1.668
 7882SOL    HW124545   2.048   3.491   1.652
 7882SOL    HW224546   2.058   3.618   1.754
 7883SOL     OW24547   0.783   0.135   5.940
 7883SOL    HW124548   0.867   0.140   5.996
 7883SOL    HW224549   0.763   0.225   5.902
 7884SOL     OW24550   0.881   3.846   4.348
 7884SOL    HW124551   0.935   3.813   4.426
 7884SOL    HW224552   0.897   3.786   4.269
 7885SOL     OW24553   6.761   5.991   0.496
 7885SOL    HW124554   6.861   5.996   0.509
 7885SOL    HW224555   6.720   6.079   0.518
 7886SOL     OW24556   4.322   5.641   7.020
 7886SOL    HW124557   4.247   5.665   0.053
 7886SOL    HW224558   4.373   5.723   6.996
 7887SOL     OW24559   3.791   1.915   6.908
 7887SOL    HW124560   3.859   1.884   6.841
 7887SOL    HW224561   3.828   1.907   7.000
 7888SOL     OW24562   5.826   0.584   4.230
 7888SOL    HW124563   5.764   0.557   4.304
 7888SOL    HW224564   5.824   0.683   4.219
 7889SOL     OW24565   1.505   4.895   1.490
 7889SOL    HW124566   1.568   4.922   1.562
 7889SOL    HW224567   1.520   4.799   1.466
 7890SOL     OW24568   1.783   3.851   2.686
 7890SOL    HW124569   1.823   3.804   2.608
 7890SOL    HW224570   1.838   3.834   2.768
 7891SOL     OW24571   1.912   4.317   3.000
 7891SOL    HW124572   1.821   4.286   3.028
 7891SOL    HW224573   1.978   4.298   3.073
 7892SOL     OW24574   1.967   2.644   4.171
 7892SOL    HW124575   1.990   2.633   4.074
 7892SOL    HW224576   1.977   2.740   4.197
 7893SOL     OW24577   6.378   6.610   2.532
 7893SOL    HW124578   6.405   6.705   2.551
 7893SOL    HW224579   6.381   6.594   2.434
 7894SOL     OW24580   2.756   6.374   1.548
 7894SOL    HW124581   2.707   6.287   1.559
 7894SOL    HW224582   2.715   6.425   1.473
 7895SOL     OW24583   6.279   1.543   5.923
 7895SOL    HW124584   6.322   1.558   6.012
 7895SOL    HW224585   6.191   1.590   5.919
 7896SOL     OW24586   4.861   4.350   6.613
 7896SOL    HW124587   4.953   4.332   6.646
 7896SOL    HW224588   4.861   4.356   6.514
 7897SOL     OW24589   2.785   3.768   6.211
 7897SOL    HW124590   2.734   3.683   6.222
 7897SOL    HW224591   2.738   3.827   6.145
 7898SOL     OW24592   5.446   2.194   3.737
 7898SOL    HW124593   5.546   2.198   3.728
 7898SOL    HW224594   5.421   2.118   3.797
 7899SOL     OW24595   6.490   1.713   1.894
 7899SOL    HW124596   6.546   1.631   1.884
 7899SOL    HW224597   6.501   1.750   1.986
 7900SOL     OW24598   1.102   5.092   0.820
 7900SOL    HW124599   1.181   5.054   0.868
 7900SOL    HW224600   1.133   5.160   0.753
 7901SOL     OW24601   4.672   0.506   6.277
 7901SOL    HW124602   4.646   0.449   6.355
 7901SOL    HW224603   4.649   0.601   6.297
 7902SOL     OW24604   5.008   4.974   1.497
 7902SOL    HW124605   4.927   4.919   1.479
 7902SOL    HW224606   4.982   5.056   1.547
 7903SOL     OW24607   6.094   2.335   0.706
 7903SOL    HW124608   6.013   2.359   0.652
 7903SOL    HW224609   6.136   2.419   0.741
 7904SOL     OW24610   6.128   0.538   2.842
 7904SOL    HW124611   6.122   0.608   2.771
 7904SOL    HW224612   6.056   0.470   2.829
 7905SOL     OW24613   4.472   1.568   0.148
 7905SOL    HW124614   4.457   1.494   0.213
 7905SOL    HW224615   4.501   1.650   0.198
 7906SOL     OW24616   0.665   5.871   0.070
 7906SOL    HW124617   0.567   5.888   0.055
 7906SOL    HW224618   0.715   5.897   7.015
 7907SOL     OW24619   5.969   2.351   4.693
 7907SOL    HW124620   6.058   2.309   4.675
 7907SOL    HW224621   5.909   2.284   4.737
 7908SOL     OW24622   1.541   1.472   4.318
 7908SOL    HW124623   1.545   1.376   4.291
 7908SOL    HW224624   1.629   1.516   4.299
 7909SOL     OW24625   5.241   3.700   4.849
 7909SOL    HW124626   5.163   3.724   4.791
 7909SOL    HW224627   5.219   3.617   4.901
 7910SOL     OW24628   3.254   2.945   5.833
 7910SOL    HW124629   3.215   2.966   5.923
 7910SOL    HW224630   3.188   2.972   5.762
 7911SOL     OW24631   0.336   4.309   6.523
 7911SOL    HW124632   0.390   4.260   6.454
 7911SOL    HW224633   0.290   4.386   6.479
 7912SOL     OW24634   0.334   5.204   0.265
 7912SOL    HW124635   0.423   5.162   0.247
 7912SOL    HW224636   0.293   5.163   0.346
 7913SOL     OW24637   0.755   5.324   0.056
 7913SOL    HW124638   0.848   5.315   0.092
 7913SOL    HW224639   0.730   5.421   0.051
 7914SOL     OW24640   0.234   5.382   6.398
 7914SOL    HW124641   0.179   5.386   6.315
 7914SOL    HW224642   0.203   5.452   6.462
 7915SOL     OW24643   5.049   2.402   2.495
 7915SOL    HW124644   5.073   2.475   2.558
 7915SOL    HW224645   4.987   2.438   2.425
 7916SOL     OW24646   5.812   4.023   5.196
 7916SOL    HW124647   5.858   3.950   5.144
 7916SOL    HW224648   5.879   4.068   5.254
 7917SOL     OW24649   3.889   3.071   3.931
 7917SOL    HW124650   3.841   3.091   4.016
 7917SOL    HW224651   3.957   3.143   3.913
 7918SOL     OW24652   6.991   1.435   1.037
 7918SOL    HW124653   6.916   1.482   1.083
 7918SOL    HW224654   7.023   1.490   0.961
 7919SOL     OW24655   0.060   4.538   3.586
 7919SOL    HW124656   6.995   4.505   3.572
 7919SOL    HW224657   0.119   4.500   3.514
 7920SOL     OW24658   0.146   5.044   1.604
 7920SOL    HW124659   0.158   5.075   1.698
 7920SOL    HW224660   0.231   5.003   1.571
 7921SOL     OW24661   3.759   5.894   0.228
 7921SOL    HW124662   3.808   5.927   0.147
 7921SOL    HW224663   3.709   5.969   0.270
 7922SOL     OW24664   6.663   5.679   0.063
 7922SOL    HW124665   6.614   5.604   0.106
 7922SOL    HW224666   6.700   5.740   0.133
 7923SOL     OW24667   2.157   0.712   2.727
 7923SOL    HW124668   2.239   0.683   2.777
 7923SOL    HW224669   2.168   0.808   2.700
 7924SOL     OW24670   3.778   6.407   3.109
 7924SOL    HW124671   3.725   6.448   3.183
 7924SOL    HW224672   3.719   6.348   3.054
 7925SOL     OW24673   0.533   2.007   6.380
 7925SOL    HW124674   0.630   1.984   6.375
 7925SOL    HW224675   0.481   1.925   6.404
 7926SOL     OW24676   4.632   1.176   4.301
 7926SOL    HW124677   4.575   1.232   4.361
 7926SOL    HW224678   4.677   1.105   4.354
 7927SOL     OW24679   4.065   5.812   5.191
 7927SOL    HW124680   4.164   5.824   5.184
 7927SOL    HW224681   4.020   5.899   5.169
 7928SOL     OW24682   1.162   4.416   3.869
 7928SOL    HW124683   1.125   4.507   3.852
 7928SOL    HW224684   1.161   4.397   3.967
 7929SOL     OW24685   4.043   3.834   4.786
 7929SOL    HW124686   3.952   3.873   4.797
 7929SOL    HW224687   4.103   3.903   4.745
 7930SOL     OW24688   4.827   5.747   3.693
 7930SOL    HW124689   4.764   5.673   3.671
 7930SOL    HW224690   4.781   5.835   3.681
 7931SOL     OW24691   2.251   2.258   6.718
 7931SOL    HW124692   2.321   2.206   6.767
 7931SOL    HW224693   2.196   2.310   6.784
 7932SOL     OW24694   2.600   6.947   0.166
 7932SOL    HW124695   2.578   6.921   0.260
 7932SOL    HW224696   2.593   0.018   0.156
 7933SOL     OW24697   0.088   6.961   0.480
 7933SOL    HW124698   0.009   7.004   0.523
 7933SOL    HW224699   0.099   6.998   0.388
 7934SOL     OW24700   2.468   3.950   6.875
 7934SOL    HW124701   2.486   4.032   6.822
 7934SOL    HW224702   2.455   3.974   6.971
 7935SOL     OW24703   5.363   5.323   0.296
 7935SOL    HW124704   5.343   5.227   0.276
 7935SOL    HW224705   5.291   5.381   0.257
 7936SOL     OW24706   3.524   5.549   2.386
 7936SOL    HW124707   3.573   5.633   2.410
 7936SOL    HW224708   3.497   5.552   2.290
 7937SOL     OW24709   5.194   6.797   3.997
 7937SOL    HW124710   5.165   6.723   3.936
 7937SOL    HW224711   5.172   6.772   4.091
 7938SOL     OW24712   5.584   5.015   5.076
 7938SOL    HW124713   5.534   4.934   5.047
 7938SOL    HW224714   5.522   5.093   5.078
 7939SOL     OW24715   0.868   1.622   6.134
 7939SOL    HW124716   0.908   1.642   6.223
 7939SOL    HW224717   0.924   1.663   6.062
 7940SOL     OW24718   2.349   5.043   2.067
 7940SOL    HW124719   2.258   5.043   2.108
 7940SOL    HW224720   2.411   5.098   2.123
 7941SOL     OW24721   6.370   0.022   1.516
 7941SOL    HW124722   6.285   0.075   1.527
 7941SOL    HW224723   6.347   6.954   1.498
 7942SOL     OW24724   6.822   6.408   2.863
 7942SOL    HW124725   6.774   6.340   2.919
 7942SOL    HW224726   6.854   6.482   2.922
 7943SOL     OW24727   5.461   1.845   0.870
 7943SOL    HW124728   5.389   1.852   0.801
 7943SOL    HW224729   5.471   1.933   0.916
 7944SOL     OW24730   0.151   2.790   0.415
 7944SOL    HW124731   0.104   2.775   0.328
 7944SOL    HW224732   0.247   2.763   0.406
 7945SOL     OW24733   5.449   6.921   2.780
 7945SOL    HW124734   5.481   6.952   2.869
 7945SOL    HW224735   5.382   6.847   2.793
 7946SOL     OW24736   1.612   2.983   5.664
 7946SOL    HW124737   1.532   2.976   5.605
 7946SOL    HW224738   1.612   2.907   5.729
 7947SOL     OW24739   4.317   2.909   0.074
 7947SOL    HW124740   4.234   2.965   0.073
 7947SOL    HW224741   4.321   2.853   7.020
 7948SOL     OW24742   6.709   6.754   1.445
 7948SOL    HW124743   6.749   6.799   1.525
 7948SOL    HW224744   6.644   6.684   1.476
 7949SOL     OW24745   4.682   4.821   3.951
 7949SOL    HW124746   4.652   4.898   4.008
 7949SOL    HW224747   4.664   4.841   3.855
 7950SOL     OW24748   4.907   5.626   3.402
 7950SOL    HW124749   4.875   5.650   3.495
 7950SOL    HW224750   5.002   5.596   3.406
 7951SOL     OW24751   2.889   3.655   0.852
 7951SOL    HW124752   2.846   3.742   0.875
 7951SOL    HW224753   2.845   3.581   0.902
 7952SOL     OW24754   0.196   2.788   6.704
 7952SOL    HW124755   0.294   2.770   6.713
 7952SOL    HW224756   0.148   2.702   6.688
 7953SOL     OW24757   1.929   3.003   3.077
 7953SOL    HW124758   1.863   2.989   3.003
 7953SOL    HW224759   1.889   2.971   3.163
 7954SOL     OW24760   4.904   5.261   5.028
 7954SOL    HW124761   4.977   5.239   4.964
 7954SOL    HW224762   4.865   5.350   5.005
 7955SOL     OW24763   0.432   6.598   6.311
 7955SOL    HW124764   0.370   6.639   6.244
 7955SOL    HW224765   0.515   6.654   6.319
 7956SOL     OW24766   0.659   5.401   3.335
 7956SOL    HW124767   0.747   5.418   3.379
 7956SOL    HW224768   0.671   5.329   3.265
 7957SOL     OW24769   2.016   1.761   0.846
 7957SOL    HW124770   2.047   1.838   0.901
 7957SOL    HW224771   1.940   1.790   0.788
 7958SOL     OW24772   3.654   5.683   4.126
 7958SOL    HW124773   3.650   5.682   4.026
 7958SOL    HW224774   3.603   5.761   4.161
 7959SOL     OW24775   4.190   5.506   0.497
 7959SOL    HW124776   4.242   5.589   0.476
 7959SOL    HW224777   4.240   5.426   0.464
 7960SOL     OW24778   3.748   1.783   0.911
 7960SOL    HW124779   3.722   1.813   1.003
 7960SOL    HW224780   3.816   1.846   0.874
 7961SOL     OW24781   2.014   5.598   6.684
 7961SOL    HW124782   2.091   5.550   6.644
 7961SOL    HW224783   2.015   5.589   6.784
 7962SOL     OW24784   2.030   0.689   6.932
 7962SOL    HW124785   2.043   0.787   6.947
 7962SOL    HW224786   1.981   0.649   7.010
 7963SOL     OW24787   6.603   1.272   4.223
 7963SOL    HW124788   6.658   1.356   4.225
 7963SOL    HW224789   6.523   1.283   4.282
 7964SOL     OW24790   6.067   4.843   3.548
 7964SOL    HW124791   6.144   4.901   3.522
 7964SOL    HW224792   6.100   4.765   3.601
 7965SOL     OW24793   4.104   3.060   0.054
 7965SOL    HW124794   4.080   3.046   6.986
 7965SOL    HW224795   4.021   3.068   0.109
 7966SOL     OW24796   0.925   3.626   5.157
 7966SOL    HW124797   0.877   3.591   5.237
 7966SOL    HW224798   1.020   3.645   5.181
 7967SOL     OW24799   3.161   6.481   4.148
 7967SOL    HW124800   3.250   6.444   4.175
 7967SOL    HW224801   3.090   6.412   4.162
 7968SOL     OW24802   2.009   3.277   3.073
 7968SOL    HW124803   1.982   3.181   3.068
 7968SOL    HW224804   1.944   3.327   3.131
 7969SOL     OW24805   4.486   0.280   2.078
 7969SOL    HW124806   4.405   0.333   2.054
 7969SOL    HW224807   4.561   0.304   2.017
 7970SOL     OW24808   0.183   3.649   2.672
 7970SOL    HW124809   0.113   3.654   2.601
 7970SOL    HW224810   0.255   3.715   2.654
 7971SOL     OW24811   3.051   1.716   1.557
 7971SOL    HW124812   3.089   1.798   1.599
 7971SOL    HW224813   2.979   1.740   1.493
 7972SOL     OW24814   6.964   4.152   1.305
 7972SOL    HW124815   6.985   4.168   1.402
 7972SOL    HW224816   7.008   4.222   1.249
 7973SOL     OW24817   5.411   3.448   2.906
 7973SOL    HW124818   5.390   3.424   3.000
 7973SOL    HW224819   5.337   3.417   2.846
 7974SOL     OW24820   6.069   0.511   5.029
 7974SOL    HW124821   6.078   0.511   4.929
 7974SOL    HW224822   6.101   0.424   5.066
 7975SOL     OW24823   5.370   0.191   3.788
 7975SOL    HW124824   5.417   0.270   3.826
 7975SOL    HW224825   5.413   0.107   3.821
 7976SOL     OW24826   0.819   6.893   5.954
 7976SOL    HW124827   0.723   6.877   5.931
 7976SOL    HW224828   0.840   6.991   5.943
 7977SOL     OW24829   4.557   5.955   2.529
 7977SOL    HW124830   4.526   5.923   2.439
 7977SOL    HW224831   4.553   5.879   2.594
 7978SOL     OW24832   6.072   4.100   6.009
 7978SOL    HW124833   6.086   4.198   5.992
 7978SOL    HW224834   6.069   4.084   6.107
 7979SOL     OW24835   2.647   0.237   5.109
 7979SOL    HW124836   2.557   0.274   5.087
 7979SOL    HW224837   2.713   0.312   5.116
 7980SOL     OW24838   4.042   5.461   0.026
 7980SOL    HW124839   4.021   5.439   0.121
 7980SOL    HW224840   3.989   5.541   7.026
 7981SOL     OW24841   0.999   5.922   1.767
 7981SOL    HW124842   1.061   5.851   1.799
 7981SOL    HW224843   0.906   5.884   1.760
 7982SOL     OW24844   6.834   1.749   0.611
 7982SOL    HW124845   6.915   1.788   0.567
 7982SOL    HW224846   6.784   1.693   0.545
 7983SOL     OW24847   5.320   2.016   3.205
 7983SOL    HW124848   5.338   1.924   3.169
 7983SOL    HW224849   5.284   2.073   3.132
 7984SOL     OW24850   1.103   1.358   1.452
 7984SOL    HW124851   1.052   1.402   1.377
 7984SOL    HW224852   1.194   1.334   1.420
 7985SOL     OW24853   2.037   6.733   3.268
 7985SOL    HW124854   2.134   6.714   3.282
 7985SOL    HW224855   2.022   6.766   3.175
 7986SOL     OW24856   3.163   1.248   0.005
 7986SOL    HW124857   3.175   1.310   0.083
 7986SOL    HW224858   3.196   1.293   6.950
 7987SOL     OW24859   0.347   3.783   6.535
 7987SOL    HW124860   0.308   3.859   6.482
 7987SOL    HW224861   0.280   3.709   6.542
 7988SOL     OW24862   2.312   2.459   4.352
 7988SOL    HW124863   2.286   2.479   4.257
 7988SOL    HW224864   2.255   2.511   4.415
 7989SOL     OW24865   3.291   2.678   5.494
 7989SOL    HW124866   3.378   2.706   5.454
 7989SOL    HW224867   3.266   2.587   5.458
 7990SOL     OW24868   0.423   3.749   3.293
 7990SOL    HW124869   0.356   3.810   3.336
 7990SOL    HW224870   0.515   3.778   3.317
 7991SOL     OW24871   6.271   2.136   5.303
 7991SOL    HW124872   6.226   2.168   5.387
 7991SOL    HW224873   6.368   2.123   5.321
 7992SOL     OW24874   1.431   6.539   0.821
 7992SOL    HW124875   1.430   6.520   0.919
 7992SOL    HW224876   1.519   6.512   0.782
 7993SOL     OW24877   1.858   5.799   6.564
 7993SOL    HW124878   1.878   5.802   6.466
 7993SOL    HW224879   1.909   5.724   6.605
 7994SOL     OW24880   4.728   0.504   3.607
 7994SOL    HW124881   4.669   0.472   3.532
 7994SOL    HW224882   4.750   0.426   3.666
 7995SOL     OW24883   4.095   5.231   3.270
 7995SOL    HW124884   4.072   5.138   3.299
 7995SOL    HW224885   4.129   5.229   3.176
 7996SOL     OW24886   3.092   6.359   4.482
 7996SOL    HW124887   3.004   6.313   4.470
 7996SOL    HW224888   3.080   6.442   4.537
 7997SOL     OW24889   6.819   1.634   1.087
 7997SOL    HW124890   6.725   1.667   1.088
 7997SOL    HW224891   6.879   1.703   1.129
 7998SOL     OW24892   4.370   5.604   0.729
 7998SOL    HW124893   4.290   5.659   0.752
 7998SOL    HW224894   4.452   5.646   0.767
 7999SOL     OW24895   1.066   0.110   6.058
 7999SOL    HW124896   1.087   0.012   6.066
 7999SOL    HW224897   1.081   0.155   6.146
 8000SOL     OW24898   5.659   0.013   6.413
 8000SOL    HW124899   5.716   0.043   6.337
 8000SOL    HW224900   5.573   0.063   6.413
 8001SOL     OW24901   3.440   5.760   1.895
 8001SOL    HW124902   3.401   5.790   1.808
 8001SOL    HW224903   3.436   5.660   1.901
 8002SOL     OW24904   0.762   3.365   6.300
 8002SOL    HW124905   0.806   3.356   6.390
 8002SOL    HW224906   0.824   3.333   6.229
 8003SOL     OW24907   2.504   4.476   2.602
 8003SOL    HW124908   2.518   4.572   2.626
 8003SOL    HW224909   2.589   4.425   2.616
 8004SOL     OW24910   1.759   4.563   2.897
 8004SOL    HW124911   1.697   4.635   2.930
 8004SOL    HW224912   1.819   4.534   2.972
 8005SOL     OW24913   3.058   1.916   2.519
 8005SOL    HW124914   2.975   1.886   2.566
 8005SOL    HW224915   3.125   1.947   2.586
 8006SOL     OW24916   2.464   5.989   0.835
 8006SOL    HW124917   2.368   5.991   0.810
 8006SOL    HW224918   2.492   6.080   0.866
 8007SOL     OW24919   0.684   0.413   3.903
 8007SOL    HW124920   0.602   0.414   3.845
 8007SOL    HW224921   0.677   0.337   3.968
 8008SOL     OW24922   4.772   6.645   6.049
 8008SOL    HW124923   4.717   6.640   6.132
 8008SOL    HW224924   4.869   6.643   6.073
 8009SOL     OW24925   6.447   0.448   3.185
 8009SOL    HW124926   6.528   0.492   3.226
 8009SOL    HW224927   6.476   0.392   3.108
 8010SOL     OW24928   2.263   1.460   6.836
 8010SOL    HW124929   2.232   1.553   6.855
 8010SOL    HW224930   2.192   1.395   6.864
 8011SOL     OW24931   2.116   2.711   1.308
 8011SOL    HW124932   2.209   2.719   1.344
 8011SOL    HW224933   2.105   2.621   1.266
 8012SOL     OW24934   1.685   5.824   1.394
 8012SOL    HW124935   1.696   5.782   1.304
 8012SOL    HW224936   1.597   5.796   1.433
 8013SOL     OW24937   0.504   5.170   4.391
 8013SOL    HW124938   0.449   5.140   4.313
 8013SOL    HW224939   0.454   5.240   4.442
 8014SOL     OW24940   1.060   6.232   5.448
 8014SOL    HW124941   0.987   6.200   5.507
 8014SOL    HW224942   1.142   6.250   5.503
 8015SOL     OW24943   2.918   1.478   0.312
 8015SOL    HW124944   2.949   1.567   0.277
 8015SOL    HW224945   2.953   1.465   0.404
 8016SOL     OW24946   4.091   0.088   6.625
 8016SOL    HW124947   4.004   0.108   6.670
 8016SOL    HW224948   4.098   7.017   6.610
 8017SOL     OW24949   6.806   4.764   5.768
 8017SOL    HW124950   6.903   4.769   5.745
 8017SOL    HW224951   6.796   4.749   5.866
 8018SOL     OW24952   4.707   2.374   6.191
 8018SOL    HW124953   4.798   2.348   6.223
 8018SOL    HW224954   4.715   2.448   6.125
 8019SOL     OW24955   1.736   3.692   7.006
 8019SOL    HW124956   1.817   3.709   0.035
 8019SOL    HW224957   1.740   3.599   6.970
 8020SOL     OW24958   6.184   6.328   0.510
 8020SOL    HW124959   6.260   6.279   0.468
 8020SOL    HW224960   6.102   6.318   0.453
 8021SOL     OW24961   1.218   1.555   2.134
 8021SOL    HW124962   1.131   1.541   2.181
 8021SOL    HW224963   1.252   1.467   2.101
 8022SOL     OW24964   4.286   0.684   3.152
 8022SOL    HW124965   4.280   0.773   3.106
 8022SOL    HW224966   4.227   0.618   3.104
 8023SOL     OW24967   6.026   5.936   3.413
 8023SOL    HW124968   6.017   5.972   3.319
 8023SOL    HW224969   5.972   5.853   3.422
 8024SOL     OW24970   2.977   4.615   0.277
 8024SOL    HW124971   3.027   4.569   0.204
 8024SOL    HW224972   2.979   4.714   0.261
 8025SOL     OW24973   3.658   6.138   5.836
 8025SOL    HW124974   3.716   6.216   5.811
 8025SOL    HW224975   3.574   6.171   5.878
 8026SOL     OW24976   0.479   3.956   6.720
 8026SOL    HW124977   0.411   3.905   6.666
 8026SOL    HW224978   0.526   4.021   6.660
 8027SOL     OW24979   4.626   2.078   5.663
 8027SOL    HW124980   4.617   2.170   5.702
 8027SOL    HW224981   4.721   2.062   5.638
 8028SOL     OW24982   3.888   4.846   6.153
 8028SOL    HW124983   3.807   4.796   6.121
 8028SOL    HW224984   3.970   4.805   6.115
 8029SOL     OW24985   5.578   3.397   6.681
 8029SOL    HW124986   5.585   3.297   6.684
 8029SOL    HW224987   5.551   3.426   6.589
 8030SOL     OW24988   5.602   3.936   5.918
 8030SOL    HW124989   5.618   3.985   6.004
 8030SOL    HW224990   5.544   3.857   5.935
 8031SOL     OW24991   5.046   6.054   2.742
 8031SOL    HW124992   5.075   6.062   2.647
 8031SOL    HW224993   5.125   6.036   2.801
 8032SOL     OW24994   6.040   4.352   5.024
 8032SOL    HW124995   6.084   4.310   4.944
 8032SOL    HW224996   6.089   4.436   5.049
 8033SOL     OW24997   4.814   3.144   0.284
 8033SOL    HW124998   4.860   3.141   0.195
 8033SOL    HW224999   4.867   3.202   0.347
 8034SOL     OW25000   6.093   1.136   5.422
 8034SOL    HW125001   6.188   1.158   5.399
 8034SOL    HW225002   6.033   1.207   5.385
 8035SOL     OW25003   4.930   0.007   5.357
 8035SOL    HW125004   4.846   7.005   5.402
 8035SOL    HW225005   4.908   0.038   5.264
 8036SOL     OW25006   0.996   3.562   1.850
 8036SOL    HW125007   0.987   3.516   1.938
 8036SOL    HW225008   0.972   3.499   1.777
 8037SOL     OW25009   1.620   3.247   1.553
 8037SOL    HW125010   1.698   3.273   1.497
 8037SOL    HW225011   1.651   3.188   1.628
 8038SOL     OW25012   4.948   1.635   2.205
 8038SOL    HW125013   4.868   1.683   2.170
 8038SOL    HW225014   4.919   1.553   2.255
 8039SOL     OW25015   1.370   0.248   3.510
 8039SOL    HW125016   1.300   0.313   3.479
 8039SOL    HW225017   1.460   0.279   3.480
 8040SOL     OW25018   1.014   5.776   0.832
 8040SOL    HW125019   1.090   5.711   0.835
 8040SOL    HW225020   1.048   5.868   0.852
 8041SOL     OW25021   3.181   2.060   2.136
 8041SOL    HW125022   3.269   2.086   2.176
 8041SOL    HW225023   3.108   2.081   2.201
 8042SOL     OW25024   3.366   2.883   2.305
 8042SOL    HW125025   3.271   2.903   2.278
 8042SOL    HW225026   3.365   2.832   2.391
 8043SOL     OW25027   3.569   6.633   0.703
 8043SOL    HW125028   3.494   6.633   0.769
 8043SOL    HW225029   3.650   6.593   0.745
 8044SOL     OW25030   3.063   3.409   1.135
 8044SOL    HW125031   3.153   3.373   1.111
 8044SOL    HW225032   2.993   3.342   1.111
 8045SOL     OW25033   5.820   1.524   2.635
 8045SOL    HW125034   5.771   1.454   2.687
 8045SOL    HW225035   5.811   1.506   2.537
 8046SOL     OW25036   5.990   4.484   6.357
 8046SOL    HW125037   5.892   4.478   6.376
 8046SOL    HW225038   6.004   4.494   6.259
 8047SOL     OW25039   3.505   4.851   5.264
 8047SOL    HW125040   3.535   4.893   5.350
 8047SOL    HW225041   3.585   4.829   5.209
 8048SOL     OW25042   5.467   1.466   5.674
 8048SOL    HW125043   5.532   1.398   5.641
 8048SOL    HW225044   5.392   1.420   5.723
 8049SOL     OW25045   1.076   0.134   1.899
 8049SOL    HW125046   1.033   0.067   1.959
 8049SOL    HW225047   1.044   0.225   1.922
 8050SOL     OW25048   0.992   4.037   1.204
 8050SOL    HW125049   0.896   4.012   1.190
 8050SOL    HW225050   0.997   4.125   1.251
 8051SOL     OW25051   4.853   7.023   3.090
 8051SOL    HW125052   4.933   6.972   3.121
 8051SOL    HW225053   4.790   6.961   3.043
 8052SOL     OW25054   3.242   1.800   2.071
 8052SOL    HW125055   3.298   1.806   1.988
 8052SOL    HW225056   3.196   1.887   2.086
 8053SOL     OW25057   3.554   3.487   2.993
 8053SOL    HW125058   3.510   3.471   3.081
 8053SOL    HW225059   3.485   3.495   2.922
 8054SOL     OW25060   5.009   6.439   4.037
 8054SOL    HW125061   4.935   6.437   4.104
 8054SOL    HW225062   5.092   6.400   4.078
 8055SOL     OW25063   0.727   0.529   6.272
 8055SOL    HW125064   0.751   0.460   6.340
 8055SOL    HW225065   0.742   0.492   6.180
 8056SOL     OW25066   4.794   1.197   3.719
 8056SOL    HW125067   4.721   1.188   3.651
 8056SOL    HW225068   4.817   1.107   3.755
 8057SOL     OW25069   2.467   1.107   2.310
 8057SOL    HW125070   2.443   1.067   2.398
 8057SOL    HW225071   2.443   1.044   2.237
 8058SOL     OW25072   3.390   6.962   3.174
 8058SOL    HW125073   3.481   6.988   3.142
 8058SOL    HW225074   3.374   7.001   3.265
 8059SOL     OW25075   4.340   2.218   5.124
 8059SOL    HW125076   4.268   2.176   5.179
 8059SOL    HW225077   4.305   2.301   5.081
 8060SOL     OW25078   0.448   1.501   4.533
 8060SOL    HW125079   0.506   1.422   4.513
 8060SOL    HW225080   0.484   1.581   4.485
 8061SOL     OW25081   6.542   6.228   2.156
 8061SOL    HW125082   6.537   6.235   2.057
 8061SOL    HW225083   6.632   6.194   2.183
 8062SOL     OW25084   2.377   4.293   3.569
 8062SOL    HW125085   2.396   4.389   3.550
 8062SOL    HW225086   2.320   4.286   3.651
 8063SOL     OW25087   1.861   3.999   0.451
 8063SOL    HW125088   1.796   4.062   0.408
 8063SOL    HW225089   1.851   4.003   0.550
 8064SOL     OW25090   0.123   4.718   0.635
 8064SOL    HW125091   0.088   4.629   0.603
 8064SOL    HW225092   0.059   4.757   0.701
 8065SOL     OW25093   4.320   6.553   3.589
 8065SOL    HW125094   4.254   6.480   3.575
 8065SOL    HW225095   4.285   6.638   3.548
 8066SOL     OW25096   1.070   1.557   6.382
 8066SOL    HW125097   1.072   1.462   6.351
 8066SOL    HW225098   1.144   1.571   6.448
 8067SOL     OW25099   4.398   3.257   1.565
 8067SOL    HW125100   4.467   3.220   1.502
 8067SOL    HW225101   4.333   3.313   1.514
 8068SOL     OW25102   6.545   5.553   6.071
 8068SOL    HW125103   6.512   5.647   6.063
 8068SOL    HW225104   6.645   5.552   6.060
 8069SOL     OW25105   2.295   6.025   1.801
 8069SOL    HW125106   2.232   5.948   1.791
 8069SOL    HW225107   2.251   6.097   1.855
 8070SOL     OW25108   2.666   4.393   0.561
 8070SOL    HW125109   2.710   4.306   0.581
 8070SOL    HW225110   2.686   4.459   0.633
 8071SOL     OW25111   3.757   6.228   5.187
 8071SOL    HW125112   3.671   6.196   5.147
 8071SOL    HW225113   3.740   6.308   5.244
 8072SOL     OW25114   3.230   1.251   0.398
 8072SOL    HW125115   3.259   1.333   0.348
 8072SOL    HW225116   3.263   1.169   0.350
 8073SOL     OW25117   5.059   6.577   6.716
 8073SOL    HW125118   5.134   6.643   6.718
 8073SOL    HW225119   5.095   6.484   6.718
 8074SOL     OW25120   3.652   2.655   0.075
 8074SOL    HW125121   3.557   2.655   0.106
 8074SOL    HW225122   3.655   2.664   7.003
 8075SOL     OW25123   6.519   1.368   1.496
 8075SOL    HW125124   6.511   1.369   1.396
 8075SOL    HW225125   6.440   1.321   1.536
 8076SOL     OW25126   4.647   2.883   5.783
 8076SOL    HW125127   4.576   2.816   5.759
 8076SOL    HW225128   4.736   2.838   5.785
 8077SOL     OW25129   0.912   6.992   2.004
 8077SOL    HW125130   0.856   0.002   2.077
 8077SOL    HW225131   0.933   6.896   2.025
 8078SOL     OW25132   5.720   1.658   0.681
 8078SOL    HW125133   5.684   1.574   0.722
 8078SOL    HW225134   5.685   1.667   0.588
 8079SOL     OW25135   5.583   2.029   3.439
 8079SOL    HW125136   5.583   1.942   3.389
 8079SOL    HW225137   5.598   2.104   3.375
 8080SOL     OW25138   1.493   3.651   0.616
 8080SOL    HW125139   1.486   3.582   0.544
 8080SOL    HW225140   1.543   3.730   0.581
 8081SOL     OW25141   6.002   0.669   5.242
 8081SOL    HW125142   6.081   0.730   5.246
 8081SOL    HW225143   6.008   0.612   5.160
 8082SOL     OW25144   6.077   1.865   2.285
 8082SOL    HW125145   6.101   1.960   2.304
 8082SOL    HW225146   6.044   1.821   2.368
 8083SOL     OW25147   5.155   3.056   2.107
 8083SOL    HW125148   5.078   3.056   2.042
 8083SOL    HW225149   5.120   3.044   2.200
 8084SOL     OW25150   5.749   6.662   1.666
 8084SOL    HW125151   5.744   6.603   1.586
 8084SOL    HW225152   5.831   6.640   1.719
 8085SOL     OW25153   5.669   0.411   2.309
 8085SOL    HW125154   5.737   0.481   2.286
 8085SOL    HW225155   5.586   0.427   2.256
 8086SOL     OW25156   3.994   0.203   4.402
 8086SOL    HW125157   4.028   0.119   4.358
 8086SOL    HW225158   3.904   0.185   4.442
 8087SOL     OW25159   2.222   1.401   1.171
 8087SOL    HW125160   2.150   1.333   1.157
 8087SOL    HW225161   2.287   1.397   1.096
 8088SOL     OW25162   6.167   1.605   1.939
 8088SOL    HW125163   6.205   1.650   1.859
 8088SOL    HW225164   6.150   1.672   2.011
 8089SOL     OW25165   5.361   1.989   0.021
 8089SOL    HW125166   5.278   2.038   0.046
 8089SOL    HW225167   5.337   1.905   7.000
 8090SOL     OW25168   4.644   2.173   6.024
 8090SOL    HW125169   4.646   2.255   6.081
 8090SOL    HW225170   4.628   2.093   6.081
 8091SOL     OW25171   3.064   3.677   6.657
 8091SOL    HW125172   3.010   3.736   6.597
 8091SOL    HW225173   3.002   3.625   6.716
 8092SOL     OW25174   1.064   1.542   5.021
 8092SOL    HW125175   1.129   1.607   5.059
 8092SOL    HW225176   1.083   1.527   4.924
 8093SOL     OW25177   6.294   5.974   1.277
 8093SOL    HW125178   6.324   5.928   1.193
 8093SOL    HW225179   6.369   5.973   1.343
 8094SOL     OW25180   2.094   4.424   5.279
 8094SOL    HW125181   2.141   4.364   5.214
 8094SOL    HW225182   2.154   4.441   5.357
 8095SOL     OW25183   6.348   3.453   3.860
 8095SOL    HW125184   6.254   3.482   3.847
 8095SOL    HW225185   6.355   3.354   3.842
 8096SOL     OW25186   2.916   5.821   3.454
 8096SOL    HW125187   2.965   5.883   3.516
 8096SOL    HW225188   2.981   5.769   3.399
 8097SOL     OW25189   5.238   0.987   4.155
 8097SOL    HW125190   5.314   1.049   4.173
 8097SOL    HW225191   5.203   1.003   4.063
 8098SOL     OW25192   2.284   6.804   4.516
 8098SOL    HW125193   2.198   6.842   4.550
 8098SOL    HW225194   2.323   6.865   4.448
 8099SOL     OW25195   6.277   0.742   4.079
 8099SOL    HW125196   6.278   0.788   3.991
 8099SOL    HW225197   6.211   0.666   4.077
 8100SOL     OW25198   0.597   0.206   0.497
 8100SOL    HW125199   0.594   0.106   0.496
 8100SOL    HW225200   0.549   0.242   0.418
 8101SOL     OW25201   2.110   0.361   4.582
 8101SOL    HW125202   2.156   0.381   4.495
 8101SOL    HW225203   2.088   0.447   4.628
 8102SOL     OW25204   1.579   5.337   6.426
 8102SOL    HW125205   1.654   5.402   6.423
 8102SOL    HW225206   1.514   5.363   6.498
 8103SOL     OW25207   4.003   1.630   1.343
 8103SOL    HW125208   4.022   1.708   1.284
 8103SOL    HW225209   3.943   1.566   1.294
 8104SOL     OW25210   3.288   6.818   6.208
 8104SOL    HW125211   3.385   6.841   6.205
 8104SOL    HW225212   3.273   6.745   6.275
 8105SOL     OW25213   2.115   2.515   3.215
 8105SOL    HW125214   2.033   2.521   3.157
 8105SOL    HW225215   2.146   2.421   3.219
 8106SOL     OW25216   1.505   5.680   3.034
 8106SOL    HW125217   1.578   5.725   3.086
 8106SOL    HW225218   1.460   5.748   2.975
 8107SOL     OW25219   2.086   6.050   5.904
 8107SOL    HW125220   1.992   6.019   5.888
 8107SOL    HW225221   2.136   5.979   5.954
 8108SOL     OW25222   6.424   3.074   4.883
 8108SOL    HW125223   6.397   3.119   4.968
 8108SOL    HW225224   6.515   3.032   4.895
 8109SOL     OW25225   1.770   3.840   4.462
 8109SOL    HW125226   1.812   3.884   4.383
 8109SOL    HW225227   1.678   3.876   4.477
 8110SOL     OW25228   3.763   6.484   0.339
 8110SOL    HW125229   3.729   6.570   0.377
 8110SOL    HW225230   3.862   6.478   0.355
 8111SOL     OW25231   3.037   0.325   5.800
 8111SOL    HW125232   3.029   0.228   5.824
 8111SOL    HW225233   2.981   0.380   5.862
 8112SOL     OW25234   2.523   0.980   5.507
 8112SOL    HW125235   2.433   0.965   5.466
 8112SOL    HW225236   2.551   0.897   5.556
 8113SOL     OW25237   2.769   2.705   0.161
 8113SOL    HW125238   2.809   2.649   0.089
 8113SOL    HW225239   2.778   2.802   0.137
 8114SOL     OW25240   2.305   2.721   2.224
 8114SOL    HW125241   2.257   2.766   2.299
 8114SOL    HW225242   2.301   2.779   2.142
 8115SOL     OW25243   3.307   1.352   1.465
 8115SOL    HW125244   3.257   1.317   1.545
 8115SOL    HW225245   3.329   1.275   1.404
 8116SOL     OW25246   5.119   0.132   5.115
 8116SOL    HW125247   5.203   0.178   5.147
 8116SOL    HW225248   5.142   0.069   5.041
 8117SOL     OW25249   1.851   1.982   3.816
 8117SOL    HW125250   1.831   2.049   3.888
 8117SOL    HW225251   1.770   1.968   3.759
 8118SOL     OW25252   0.545   3.807   6.032
 8118SOL    HW125253   0.564   3.874   5.960
 8118SOL    HW225254   0.446   3.795   6.041
 8119SOL     OW25255   6.947   5.875   4.958
 8119SOL    HW125256   6.986   5.935   4.889
 8119SOL    HW225257   7.018   5.849   5.024
 8120SOL     OW25258   3.844   3.703   0.020
 8120SOL    HW125259   3.827   3.667   0.111
 8120SOL    HW225260   3.773   3.769   7.024
 8121SOL     OW25261   0.173   6.061   2.996
 8121SOL    HW125262   0.220   6.103   3.073
 8121SOL    HW225263   0.097   6.120   2.968
 8122SOL     OW25264   0.072   5.051   2.470
 8122SOL    HW125265   0.154   5.088   2.513
 8122SOL    HW225266   0.085   5.048   2.371
 8123SOL     OW25267   0.805   0.093   6.635
 8123SOL    HW125268   0.711   0.082   6.665
 8123SOL    HW225269   0.844   0.003   6.613
 8124SOL     OW25270   0.890   6.980   1.641
 8124SOL    HW125271   0.878   6.881   1.634
 8124SOL    HW225272   0.889   7.007   1.737
 8125SOL     OW25273   6.286   5.111   3.086
 8125SOL    HW125274   6.334   5.097   2.999
 8125SOL    HW225275   6.337   5.177   3.142
 8126SOL     OW25276   6.044   4.758   2.012
 8126SOL    HW125277   6.046   4.663   2.043
 8126SOL    HW225278   6.041   4.761   1.912
 8127SOL     OW25279   2.582   5.794   0.556
 8127SOL    HW125280   2.626   5.787   0.466
 8127SOL    HW225281   2.622   5.727   0.618
 8128SOL     OW25282   3.735   2.408   0.090
 8128SOL    HW125283   3.719   2.505   0.107
 8128SOL    HW225284   3.753   2.361   0.177
 8129SOL     OW25285   4.627   0.756   6.376
 8129SOL    HW125286   4.716   0.795   6.354
 8129SOL    HW225287   4.576   0.818   6.434
 8130SOL     OW25288   1.067   5.407   5.868
 8130SOL    HW125289   1.148   5.457   5.837
 8130SOL    HW225290   0.986   5.462   5.850
 8131SOL     OW25291   2.972   1.208   0.281
 8131SOL    HW125292   3.065   1.186   0.312
 8131SOL    HW225293   2.965   1.307   0.267
 8132SOL     OW25294   5.685   6.012   6.100
 8132SOL    HW125295   5.708   6.109   6.100
 8132SOL    HW225296   5.668   5.981   6.006
 8133SOL     OW25297   3.205   4.879   2.609
 8133SOL    HW125298   3.295   4.915   2.584
 8133SOL    HW225299   3.135   4.928   2.558
 8134SOL     OW25300   2.132   1.310   4.401
 8134SOL    HW125301   2.075   1.231   4.424
 8134SOL    HW225302   2.102   1.349   4.314
 8135SOL     OW25303   3.193   4.842   2.246
 8135SOL    HW125304   3.121   4.819   2.181
 8135SOL    HW225305   3.269   4.778   2.237
 8136SOL     OW25306   4.622   5.266   2.805
 8136SOL    HW125307   4.640   5.308   2.894
 8136SOL    HW225308   4.540   5.209   2.811
 8137SOL     OW25309   2.286   2.893   4.077
 8137SOL    HW125310   2.309   2.800   4.051
 8137SOL    HW225311   2.233   2.936   4.003
 8138SOL     OW25312   5.789   1.755   2.026
 8138SOL    HW125313   5.861   1.737   2.094
 8138SOL    HW225314   5.775   1.853   2.018
 8139SOL     OW25315   0.955   2.804   3.745
 8139SOL    HW125316   1.045   2.768   3.770
 8139SOL    HW225317   0.931   2.879   3.807
 8140SOL     OW25318   4.014   0.224   0.410
 8140SOL    HW125319   3.966   0.275   0.339
 8140SOL    HW225320   4.014   0.277   0.495
 8141SOL     OW25321   5.073   0.572   5.368
 8141SOL    HW125322   5.067   0.477   5.337
 8141SOL    HW225323   5.169   0.597   5.381
 8142SOL     OW25324   2.092   5.507   0.704
 8142SOL    HW125325   2.098   5.486   0.801
 8142SOL    HW225326   2.003   5.548   0.684
 8143SOL     OW25327   5.537   5.121   1.619
 8143SOL    HW125328   5.537   5.065   1.536
 8143SOL    HW225329   5.623   5.107   1.669
 8144SOL     OW25330   0.590   5.908   5.507
 8144SOL    HW125331   0.656   5.934   5.436
 8144SOL    HW225332   0.519   5.850   5.466
 8145SOL     OW25333   4.309   5.043   0.477
 8145SOL    HW125334   4.220   5.074   0.510
 8145SOL    HW225335   4.305   4.945   0.457
 8146SOL     OW25336   6.256   0.500   5.395
 8146SOL    HW125337   6.249   0.600   5.397
 8146SOL    HW225338   6.268   0.465   5.488
 8147SOL     OW25339   0.536   0.504   0.380
 8147SOL    HW125340   0.520   0.591   0.333
 8147SOL    HW225341   0.556   0.433   0.312
 8148SOL     OW25342   3.967   4.058   6.655
 8148SOL    HW125343   4.034   4.124   6.689
 8148SOL    HW225344   3.992   4.030   6.562
 8149SOL     OW25345   1.982   6.570   4.505
 8149SOL    HW125346   2.016   6.480   4.477
 8149SOL    HW225347   1.887   6.561   4.535
 8150SOL     OW25348   0.250   3.597   0.838
 8150SOL    HW125349   0.177   3.552   0.889
 8150SOL    HW225350   0.244   3.573   0.741
 8151SOL     OW25351   6.365   5.449   3.569
 8151SOL    HW125352   6.342   5.546   3.556
 8151SOL    HW225353   6.463   5.437   3.559
 8152SOL     OW25354   4.730   2.202   2.741
 8152SOL    HW125355   4.795   2.138   2.700
 8152SOL    HW225356   4.755   2.296   2.714
 8153SOL     OW25357   0.483   1.014   3.510
 8153SOL    HW125358   0.453   1.100   3.469
 8153SOL    HW225359   0.416   0.984   3.578
 8154SOL     OW25360   3.369   1.593   3.376
 8154SOL    HW125361   3.358   1.497   3.401
 8154SOL    HW225362   3.457   1.626   3.408
 8155SOL     OW25363   1.189   4.242   2.557
 8155SOL    HW125364   1.274   4.263   2.605
 8155SOL    HW225365   1.195   4.276   2.463
 8156SOL     OW25366   5.514   6.097   1.656
 8156SOL    HW125367   5.453   6.162   1.612
 8156SOL    HW225368   5.608   6.114   1.626
 8157SOL     OW25369   5.846   3.581   6.027
 8157SOL    HW125370   5.865   3.653   6.094
 8157SOL    HW225371   5.762   3.532   6.053
 8158SOL     OW25372   5.860   5.059   6.357
 8158SOL    HW125373   5.871   4.965   6.324
 8158SOL    HW225374   5.888   5.064   6.453
 8159SOL     OW25375   3.844   6.478   5.701
 8159SOL    HW125376   3.852   6.424   5.618
 8159SOL    HW225377   3.831   6.417   5.780
 8160SOL     OW25378   4.842   0.923   3.715
 8160SOL    HW125379   4.772   0.881   3.658
 8160SOL    HW225380   4.924   0.865   3.715
 8161SOL     OW25381   5.798   3.543   6.773
 8161SOL    HW125382   5.754   3.583   6.853
 8161SOL    HW225383   5.733   3.485   6.724
 8162SOL     OW25384   0.381   5.477   6.839
 8162SOL    HW125385   0.314   5.412   6.804
 8162SOL    HW225386   0.355   5.506   6.931
 8163SOL     OW25387   3.901   5.358   5.273
 8163SOL    HW125388   3.936   5.298   5.345
 8163SOL    HW225389   3.969   5.427   5.251
 8164SOL     OW25390   4.391   0.395   6.765
 8164SOL    HW125391   4.298   0.382   6.801
 8164SOL    HW225392   4.445   0.449   6.830
 8165SOL     OW25393   6.646   3.898   6.233
 8165SOL    HW125394   6.739   3.902   6.197
 8165SOL    HW225395   6.642   3.834   6.310
 8166SOL     OW25396   2.380   1.860   4.011
 8166SOL    HW125397   2.431   1.779   3.982
 8166SOL    HW225398   2.422   1.899   4.093
 8167SOL     OW25399   6.759   1.016   3.664
 8167SOL    HW125400   6.724   1.095   3.715
 8167SOL    HW225401   6.838   1.043   3.609
 8168SOL     OW25402   2.499   0.423   1.381
 8168SOL    HW125403   2.408   0.408   1.420
 8168SOL    HW225404   2.553   0.340   1.390
 8169SOL     OW25405   4.006   1.911   0.519
 8169SOL    HW125406   4.102   1.912   0.548
 8169SOL    HW225407   3.960   1.833   0.560
 8170SOL     OW25408   6.359   4.799   1.610
 8170SOL    HW125409   6.401   4.843   1.530
 8170SOL    HW225410   6.261   4.819   1.611
 8171SOL     OW25411   1.745   1.072   6.450
 8171SOL    HW125412   1.759   1.167   6.478
 8171SOL    HW225413   1.824   1.041   6.397
 8172SOL     OW25414   0.453   2.284   1.986
 8172SOL    HW125415   0.357   2.312   1.985
 8172SOL    HW225416   0.476   2.243   1.898
 8173SOL     OW25417   5.702   2.307   2.828
 8173SOL    HW125418   5.694   2.329   2.926
 8173SOL    HW225419   5.630   2.242   2.803
 8174SOL     OW25420   1.090   6.155   2.635
 8174SOL    HW125421   1.101   6.167   2.734
 8174SOL    HW225422   1.000   6.114   2.617
 8175SOL     OW25423   0.945   2.752   4.131
 8175SOL    HW125424   0.973   2.829   4.073
 8175SOL    HW225425   0.848   2.734   4.117
 8176SOL     OW25426   1.840   4.570   1.405
 8176SOL    HW125427   1.897   4.488   1.404
 8176SOL    HW225428   1.800   4.583   1.314
 8177SOL     OW25429   3.483   0.662   2.548
 8177SOL    HW125430   3.450   0.751   2.517
 8177SOL    HW225431   3.578   0.650   2.522
 8178SOL     OW25432   3.062   6.616   1.040
 8178SOL    HW125433   3.022   6.577   1.124
 8178SOL    HW225434   3.013   6.580   0.961
 8179SOL     OW25435   5.644   1.317   4.393
 8179SOL    HW125436   5.705   1.255   4.441
 8179SOL    HW225437   5.694   1.363   4.319
 8180SOL     OW25438   6.570   0.403   6.926
 8180SOL    HW125439   6.618   0.378   7.010
 8180SOL    HW225440   6.471   0.403   6.943
 8181SOL     OW25441   0.640   0.529   1.090
 8181SOL    HW125442   0.651   0.563   0.996
 8181SOL    HW225443   0.556   0.474   1.095
 8182SOL     OW25444   3.846   3.548   4.745
 8182SOL    HW125445   3.895   3.502   4.819
 8182SOL    HW225446   3.810   3.635   4.778
 8183SOL     OW25447   6.533   1.667   4.704
 8183SOL    HW125448   6.463   1.662   4.632
 8183SOL    HW225449   6.600   1.594   4.690
 8184SOL     OW25450   0.976   7.002   0.010
 8184SOL    HW125451   0.994   6.940   0.086
 8184SOL    HW225452   0.996   6.956   6.951
 8185SOL     OW25453   2.410   0.479   0.346
 8185SOL    HW125454   2.379   0.384   0.337
 8185SOL    HW225455   2.358   0.537   0.283
 8186SOL     OW25456   2.343   4.247   5.305
 8186SOL    HW125457   2.303   4.222   5.393
 8186SOL    HW225458   2.369   4.165   5.255
 8187SOL     OW25459   2.532   1.814   4.973
 8187SOL    HW125460   2.612   1.790   4.917
 8187SOL    HW225461   2.449   1.799   4.921
 8188SOL     OW25462   4.191   1.398   3.906
 8188SOL    HW125463   4.200   1.349   3.819
 8188SOL    HW225464   4.281   1.432   3.934
 8189SOL     OW25465   5.618   5.490   2.742
 8189SOL    HW125466   5.571   5.427   2.681
 8189SOL    HW225467   5.714   5.463   2.750
 8190SOL     OW25468   5.287   4.165   3.813
 8190SOL    HW125469   5.301   4.168   3.912
 8190SOL    HW225470   5.197   4.126   3.794
 8191SOL     OW25471   4.601   5.416   2.569
 8191SOL    HW125472   4.597   5.351   2.644
 8191SOL    HW225473   4.509   5.450   2.550
 8192SOL     OW25474   1.259   5.051   2.160
 8192SOL    HW125475   1.271   4.954   2.180
 8192SOL    HW225476   1.348   5.093   2.140
 8193SOL     OW25477   6.601   5.499   4.542
 8193SOL    HW125478   6.523   5.558   4.523
 8193SOL    HW225479   6.574   5.428   4.607
 8194SOL     OW25480   4.446   0.791   1.054
 8194SOL    HW125481   4.357   0.800   1.010
 8194SOL    HW225482   4.434   0.753   1.145
 8195SOL     OW25483   6.036   0.185   4.029
 8195SOL    HW125484   5.980   0.236   4.093
 8195SOL    HW225485   6.054   0.093   4.065
 8196SOL     OW25486   5.561   0.112   6.818
 8196SOL    HW125487   5.614   0.043   6.769
 8196SOL    HW225488   5.607   0.201   6.810
 8197SOL     OW25489   4.081   1.813   1.536
 8197SOL    HW125490   4.026   1.767   1.466
 8197SOL    HW225491   4.093   1.751   1.614
 8198SOL     OW25492   2.874   7.025   2.461
 8198SOL    HW125493   2.880   0.080   2.406
 8198SOL    HW225494   2.941   6.959   2.429
 8199SOL     OW25495   4.855   3.300   6.217
 8199SOL    HW125496   4.890   3.362   6.147
 8199SOL    HW225497   4.778   3.248   6.181
 8200SOL     OW25498   5.726   4.237   2.067
 8200SOL    HW125499   5.676   4.214   2.152
 8200SOL    HW225500   5.795   4.167   2.050
 8201SOL     OW25501   6.898   0.851   4.904
 8201SOL    HW125502   6.833   0.793   4.856
 8201SOL    HW225503   6.992   0.820   4.886
 8202SOL     OW25504   6.885   5.924   3.075
 8202SOL    HW125505   6.854   5.842   3.028
 8202SOL    HW225506   6.925   5.988   3.009
 8203SOL     OW25507   1.716   2.349   6.801
 8203SOL    HW125508   1.778   2.271   6.809
 8203SOL    HW225509   1.738   2.417   6.870
 8204SOL     OW25510   3.863   3.991   0.534
 8204SOL    HW125511   3.831   3.981   0.440
 8204SOL    HW225512   3.956   3.953   0.542
 8205SOL     OW25513   6.643   3.264   0.158
 8205SOL    HW125514   6.590   3.186   0.190
 8205SOL    HW225515   6.585   3.345   0.154
 8206SOL     OW25516   4.921   1.482   0.090
 8206SOL    HW125517   4.951   1.545   0.162
 8206SOL    HW225518   4.932   1.388   0.122
 8207SOL     OW25519   3.498   3.798   4.395
 8207SOL    HW125520   3.429   3.727   4.380
 8207SOL    HW225521   3.452   3.886   4.412
 8208SOL     OW25522   1.606   0.540   0.840
 8208SOL    HW125523   1.701   0.510   0.844
 8208SOL    HW225524   1.586   0.576   0.749
 8209SOL     OW25525   6.893   0.473   4.918
 8209SOL    HW125526   6.817   0.474   4.983
 8209SOL    HW225527   6.899   0.383   4.876
 8210SOL     OW25528   1.806   2.384   0.223
 8210SOL    HW125529   1.722   2.336   0.201
 8210SOL    HW225530   1.882   2.319   0.227
 8211SOL     OW25531   3.543   3.823   1.475
 8211SOL    HW125532   3.636   3.796   1.448
 8211SOL    HW225533   3.543   3.851   1.571
 8212SOL     OW25534   1.539   2.705   2.992
 8212SOL    HW125535   1.604   2.640   2.953
 8212SOL    HW225536   1.519   2.776   2.926
 8213SOL     OW25537   6.817   5.246   1.424
 8213SOL    HW125538   6.764   5.325   1.456
 8213SOL    HW225539   6.761   5.191   1.362
 8214SOL     OW25540   6.053   4.426   3.711
 8214SOL    HW125541   6.105   4.348   3.678
 8214SOL    HW225542   5.979   4.394   3.771
 8215SOL     OW25543   3.281   5.827   5.273
 8215SOL    HW125544   3.268   5.754   5.341
 8215SOL    HW225545   3.199   5.884   5.269
 8216SOL     OW25546   5.612   5.902   4.436
 8216SOL    HW125547   5.611   5.914   4.535
 8216SOL    HW225548   5.550   5.827   4.411
 8217SOL     OW25549   2.167   4.697   0.127
 8217SOL    HW125550   2.248   4.756   0.119
 8217SOL    HW225551   2.196   4.604   0.151
 8218SOL     OW25552   6.921   1.178   0.070
 8218SOL    HW125553   6.983   1.135   0.005
 8218SOL    HW225554   6.969   1.197   0.155
 8219SOL     OW25555   4.861   1.787   0.222
 8219SOL    HW125556   4.845   1.784   0.124
 8219SOL    HW225557   4.781   1.825   0.268
 8220SOL     OW25558   3.537   3.091   3.293
 8220SOL    HW125559   3.562   3.026   3.365
 8220SOL    HW225560   3.438   3.098   3.287
 8221SOL     OW25561   4.627   6.042   4.682
 8221SOL    HW125562   4.708   6.031   4.625
 8221SOL    HW225563   4.654   6.071   4.774
 8222SOL     OW25564   5.243   1.587   1.837
 8222SOL    HW125565   5.306   1.661   1.859
 8222SOL    HW225566   5.160   1.625   1.794
 8223SOL     OW25567   1.813   4.025   6.003
 8223SOL    HW125568   1.792   3.931   5.979
 8223SOL    HW225569   1.876   4.027   6.080
 8224SOL     OW25570   0.126   2.459   2.864
 8224SOL    HW125571   0.030   2.487   2.855
 8224SOL    HW225572   0.135   2.362   2.844
 8225SOL     OW25573   3.333   0.860   6.888
 8225SOL    HW125574   3.239   0.830   6.872
 8225SOL    HW225575   3.341   0.895   6.981
 8226SOL     OW25576   4.170   6.921   2.174
 8226SOL    HW125577   4.263   6.926   2.138
 8226SOL    HW225578   4.173   6.918   2.274
 8227SOL     OW25579   0.100   2.741   3.452
 8227SOL    HW125580   0.145   2.797   3.382
 8227SOL    HW225581   0.151   2.745   3.537
 8228SOL     OW25582   0.305   2.857   5.492
 8228SOL    HW125583   0.284   2.766   5.455
 8228SOL    HW225584   0.232   2.885   5.554
 8229SOL     OW25585   3.693   4.331   0.374
 8229SOL    HW125586   3.788   4.322   0.342
 8229SOL    HW225587   3.667   4.427   0.372
 8230SOL     OW25588   4.156   6.682   5.297
 8230SOL    HW125589   4.106   6.617   5.240
 8230SOL    HW225590   4.111   6.771   5.294
 8231SOL     OW25591   4.222   5.384   0.797
 8231SOL    HW125592   4.197   5.431   0.881
 8231SOL    HW225593   4.254   5.450   0.730
 8232SOL     OW25594   5.029   1.516   0.952
 8232SOL    HW125595   5.107   1.558   0.997
 8232SOL    HW225596   5.056   1.428   0.913
 8233SOL     OW25597   0.882   6.005   6.377
 8233SOL    HW125598   0.849   6.093   6.343
 8233SOL    HW225599   0.851   5.932   6.316
 8234SOL     OW25600   2.901   3.609   6.872
 8234SOL    HW125601   2.971   3.573   6.933
 8234SOL    HW225602   2.814   3.616   6.921
 8235SOL     OW25603   1.580   3.490   0.361
 8235SOL    HW125604   1.490   3.531   0.342
 8235SOL    HW225605   1.651   3.559   0.346
 8236SOL     OW25606   6.996   4.361   6.708
 8236SOL    HW125607   7.017   4.412   6.625
 8236SOL    HW225608   6.936   4.415   6.767
 8237SOL     OW25609   4.864   6.015   4.464
 8237SOL    HW125610   4.951   5.970   4.482
 8237SOL    HW225611   4.876   6.084   4.393
 8238SOL     OW25612   1.341   4.850   0.141
 8238SOL    HW125613   1.372   4.909   0.215
 8238SOL    HW225614   1.418   4.800   0.103
 8239SOL     OW25615   6.392   1.423   5.070
 8239SOL    HW125616   6.324   1.460   5.134
 8239SOL    HW225617   6.407   1.327   5.090
 8240SOL     OW25618   3.479   3.830   2.790
 8240SOL    HW125619   3.435   3.861   2.874
 8240SOL    HW225620   3.564   3.782   2.812
 8241SOL     OW25621   4.227   6.633   0.357
 8241SOL    HW125622   4.272   6.722   0.354
 8241SOL    HW225623   4.264   6.580   0.433
 8242SOL     OW25624   1.353   4.555   5.679
 8242SOL    HW125625   1.364   4.458   5.658
 8242SOL    HW225626   1.330   4.605   5.595
 8243SOL     OW25627   1.010   2.633   0.113
 8243SOL    HW125628   1.050   2.555   0.065
 8243SOL    HW225629   1.081   2.678   0.168
 8244SOL     OW25630   1.301   0.037   3.660
 8244SOL    HW125631   1.352   6.986   3.625
 8244SOL    HW225632   1.314   0.115   3.599
 8245SOL     OW25633   3.904   1.596   2.895
 8245SOL    HW125634   3.901   1.576   2.993
 8245SOL    HW225635   3.866   1.688   2.879
 8246SOL     OW25636   7.026   3.153   5.612
 8246SOL    HW125637   6.989   3.108   5.530
 8246SOL    HW225638   0.074   3.213   5.585
 8247SOL     OW25639   0.766   0.052   2.523
 8247SOL    HW125640   0.745   6.987   2.555
 8247SOL    HW225641   0.752   0.117   2.597
 8248SOL     OW25642   5.783   5.242   3.897
 8248SOL    HW125643   5.712   5.180   3.931
 8248SOL    HW225644   5.855   5.189   3.852
 8249SOL     OW25645   2.054   3.072   5.377
 8249SOL    HW125646   2.126   3.041   5.440
 8249SOL    HW225647   2.068   3.031   5.287
 8250SOL     OW25648   3.359   4.126   2.341
 8250SOL    HW125649   3.341   4.209   2.394
 8250SOL    HW225650   3.457   4.114   2.329
 8251SOL     OW25651   6.107   3.043   4.147
 8251SOL    HW125652   6.185   3.104   4.139
 8251SOL    HW225653   6.056   3.063   4.230
 8252SOL     OW25654   3.412   2.780   6.071
 8252SOL    HW125655   3.331   2.734   6.108
 8252SOL    HW225656   3.423   2.756   5.974
 8253SOL     OW25657   4.156   4.126   5.320
 8253SOL    HW125658   4.092   4.200   5.336
 8253SOL    HW225659   4.128   4.074   5.240
 8254SOL     OW25660   4.365   4.764   4.654
 8254SOL    HW125661   4.450   4.811   4.632
 8254SOL    HW225662   4.291   4.802   4.599
 8255SOL     OW25663   3.141   6.238   4.854
 8255SOL    HW125664   3.113   6.159   4.909
 8255SOL    HW225665   3.063   6.300   4.841
 8256SOL     OW25666   6.204   0.994   1.996
 8256SOL    HW125667   6.280   1.001   1.931
 8256SOL    HW225668   6.237   1.019   2.087
 8257SOL     OW25669   6.742   3.912   3.586
 8257SOL    HW125670   6.675   3.838   3.589
 8257SOL    HW225671   6.826   3.882   3.633
 8258SOL     OW25672   5.131   0.989   0.684
 8258SOL    HW125673   5.180   0.977   0.770
 8258SOL    HW225674   5.073   0.909   0.668
 8259SOL     OW25675   4.495   2.145   3.179
 8259SOL    HW125676   4.472   2.113   3.088
 8259SOL    HW225677   4.580   2.102   3.210
 8260SOL     OW25678   2.851   6.777   2.295
 8260SOL    HW125679   2.825   6.705   2.359
 8260SOL    HW225680   2.826   6.750   2.202
 8261SOL     OW25681   6.291   1.500   2.279
 8261SOL    HW125682   6.238   1.460   2.354
 8261SOL    HW225683   6.295   1.599   2.290
 8262SOL     OW25684   0.582   2.884   0.490
 8262SOL    HW125685   0.514   2.923   0.428
 8262SOL    HW225686   0.657   2.846   0.436
 8263SOL     OW25687   1.020   1.837   0.469
 8263SOL    HW125688   1.101   1.788   0.502
 8263SOL    HW225689   0.995   1.909   0.534
 8264SOL     OW25690   2.569   5.913   2.722
 8264SOL    HW125691   2.536   5.821   2.704
 8264SOL    HW225692   2.542   5.940   2.815
 8265SOL     OW25693   0.590   6.728   1.225
 8265SOL    HW125694   0.526   6.790   1.181
 8265SOL    HW225695   0.641   6.776   1.296
 8266SOL     OW25696   2.334   1.531   4.006
 8266SOL    HW125697   2.340   1.432   4.013
 8266SOL    HW225698   2.316   1.570   4.097
 8267SOL     OW25699   1.654   2.721   0.843
 8267SOL    HW125700   1.650   2.820   0.837
 8267SOL    HW225701   1.747   2.689   0.823
 8268SOL     OW25702   2.286   6.394   5.634
 8268SOL    HW125703   2.340   6.343   5.568
 8268SOL    HW225704   2.345   6.426   5.708
 8269SOL     OW25705   5.007   1.609   1.667
 8269SOL    HW125706   4.974   1.518   1.643
 8269SOL    HW225707   5.077   1.638   1.601
 8270SOL     OW25708   2.886   6.875   5.241
 8270SOL    HW125709   2.930   6.931   5.171
 8270SOL    HW225710   2.924   6.783   5.240
 8271SOL     OW25711   0.053   0.617   2.816
 8271SOL    HW125712   0.029   0.544   2.752
 8271SOL    HW225713   0.031   0.706   2.775
 8272SOL     OW25714   4.512   2.030   1.313
 8272SOL    HW125715   4.412   2.035   1.315
 8272SOL    HW225716   4.541   1.935   1.326
 8273SOL     OW25717   2.356   6.566   0.715
 8273SOL    HW125718   2.403   6.490   0.670
 8273SOL    HW225719   2.327   6.633   0.647
 8274SOL     OW25720   5.211   4.952   2.910
 8274SOL    HW125721   5.194   4.889   2.834
 8274SOL    HW225722   5.299   4.998   2.897
 8275SOL     OW25723   4.963   1.471   5.831
 8275SOL    HW125724   5.014   1.515   5.904
 8275SOL    HW225725   4.987   1.513   5.743
 8276SOL     OW25726   1.392   2.361   3.501
 8276SOL    HW125727   1.336   2.402   3.429
 8276SOL    HW225728   1.471   2.315   3.461
 8277SOL     OW25729   6.458   0.352   0.756
 8277SOL    HW125730   6.551   0.334   0.724
 8277SOL    HW225731   6.394   0.290   0.712
 8278SOL     OW25732   2.747   1.916   5.268
 8278SOL    HW125733   2.653   1.884   5.281
 8278SOL    HW225734   2.799   1.845   5.220
 8279SOL     OW25735   1.505   0.725   3.811
 8279SOL    HW125736   1.411   0.757   3.796
 8279SOL    HW225737   1.505   0.626   3.822
 8280SOL     OW25738   2.375   2.784   0.440
 8280SOL    HW125739   2.395   2.766   0.536
 8280SOL    HW225740   2.373   2.883   0.424
 8281SOL     OW25741   2.455   5.010   1.507
 8281SOL    HW125742   2.534   5.068   1.528
 8281SOL    HW225743   2.465   4.922   1.552
 8282SOL     OW25744   5.151   3.572   0.233
 8282SOL    HW125745   5.107   3.579   0.144
 8282SOL    HW225746   5.248   3.551   0.220
 8283SOL     OW25747   2.172   5.281   6.987
 8283SOL    HW125748   2.248   5.257   0.020
 8283SOL    HW225749   2.195   5.255   6.893
 8284SOL     OW25750   0.976   3.259   0.675
 8284SOL    HW125751   0.953   3.355   0.657
 8284SOL    HW225752   0.925   3.200   0.612
 8285SOL     OW25753   3.190   3.093   5.029
 8285SOL    HW125754   3.268   3.031   5.030
 8285SOL    HW225755   3.188   3.141   4.941
 8286SOL     OW25756   5.640   3.126   6.611
 8286SOL    HW125757   5.582   3.122   6.530
 8286SOL    HW225758   5.594   3.079   6.687
 8287SOL     OW25759   1.964   5.566   4.309
 8287SOL    HW125760   1.873   5.597   4.336
 8287SOL    HW225761   1.963   5.468   4.292
 8288SOL     OW25762   2.963   1.506   1.126
 8288SOL    HW125763   3.017   1.508   1.210
 8288SOL    HW225764   2.973   1.594   1.079
 8289SOL     OW25765   0.635   5.643   1.295
 8289SOL    HW125766   0.654   5.708   1.369
 8289SOL    HW225767   0.718   5.629   1.241
 8290SOL     OW25768   5.605   1.033   1.275
 8290SOL    HW125769   5.583   0.963   1.207
 8290SOL    HW225770   5.645   1.112   1.228
 8291SOL     OW25771   5.622   6.289   5.768
 8291SOL    HW125772   5.673   6.280   5.683
 8291SOL    HW225773   5.535   6.240   5.761
 8292SOL     OW25774   2.582   6.233   0.020
 8292SOL    HW125775   2.644   6.216   0.096
 8292SOL    HW225776   2.545   6.325   0.027
 8293SOL     OW25777   3.828   6.579   0.037
 8293SOL    HW125778   3.796   6.508   7.003
 8293SOL    HW225779   3.803   6.555   0.131
 8294SOL     OW25780   5.607   4.584   4.990
 8294SOL    HW125781   5.607   4.614   4.895
 8294SOL    HW225782   5.572   4.491   4.995
 8295SOL     OW25783   5.072   5.731   1.360
 8295SOL    HW125784   5.057   5.815   1.412
 8295SOL    HW225785   5.170   5.718   1.345
 8296SOL     OW25786   2.229   6.014   6.246
 8296SOL    HW125787   2.145   6.068   6.251
 8296SOL    HW225788   2.306   6.074   6.227
 8297SOL     OW25789   6.232   2.827   2.309
 8297SOL    HW125790   6.241   2.729   2.292
 8297SOL    HW225791   6.212   2.874   2.223
 8298SOL     OW25792   5.718   2.341   1.080
 8298SOL    HW125793   5.784   2.277   1.121
 8298SOL    HW225794   5.758   2.433   1.077
 8299SOL     OW25795   6.630   2.573   2.002
 8299SOL    HW125796   6.682   2.491   2.026
 8299SOL    HW225797   6.672   2.653   2.045
 8300SOL     OW25798   0.493   6.149   4.971
 8300SOL    HW125799   0.473   6.159   5.069
 8300SOL    HW225800   0.408   6.159   4.919
 8301SOL     OW25801   4.154   1.926   2.112
 8301SOL    HW125802   4.072   1.879   2.080
 8301SOL    HW225803   4.155   2.019   2.075
 8302SOL     OW25804   6.277   6.176   6.557
 8302SOL    HW125805   6.205   6.244   6.542
 8302SOL    HW225806   6.361   6.205   6.511
 8303SOL     OW25807   6.578   0.723   4.049
 8303SOL    HW125808   6.533   0.695   3.964
 8303SOL    HW225809   6.509   0.755   4.114
 8304SOL     OW25810   0.474   3.453   0.933
 8304SOL    HW125811   0.394   3.493   0.887
 8304SOL    HW225812   0.546   3.438   0.865
 8305SOL     OW25813   4.016   4.823   4.213
 8305SOL    HW125814   3.948   4.896   4.228
 8305SOL    HW225815   4.035   4.816   4.116
 8306SOL     OW25816   7.013   2.793   5.442
 8306SOL    HW125817   6.941   2.734   5.405
 8306SOL    HW225818   7.003   2.798   5.542
 8307SOL     OW25819   4.106   5.453   1.374
 8307SOL    HW125820   4.185   5.391   1.368
 8307SOL    HW225821   4.023   5.399   1.389
 8308SOL     OW25822   4.016   5.423   1.010
 8308SOL    HW125823   4.002   5.334   1.053
 8308SOL    HW225824   4.065   5.483   1.073
 8309SOL     OW25825   6.103   5.754   3.904
 8309SOL    HW125826   6.194   5.779   3.939
 8309SOL    HW225827   6.083   5.807   3.822
 8310SOL     OW25828   0.824   4.341   0.786
 8310SOL    HW125829   0.850   4.245   0.797
 8310SOL    HW225830   0.906   4.398   0.782
 8311SOL     OW25831   0.735   0.952   4.765
 8311SOL    HW125832   0.705   1.046   4.784
 8311SOL    HW225833   0.722   0.931   4.669
 8312SOL     OW25834   4.408   6.752   0.761
 8312SOL    HW125835   4.386   6.845   0.730
 8312SOL    HW225836   4.381   6.741   0.857
 8313SOL     OW25837   5.232   0.998   2.413
 8313SOL    HW125838   5.302   0.965   2.350
 8313SOL    HW225839   5.228   0.938   2.492
 8314SOL     OW25840   4.531   0.008   1.110
 8314SOL    HW125841   4.623   7.020   1.145
 8314SOL    HW225842   4.506   0.104   1.126
 8315SOL     OW25843   3.769   3.404   0.998
 8315SOL    HW125844   3.811   3.374   1.084
 8315SOL    HW225845   3.790   3.501   0.983
 8316SOL     OW25846   0.624   2.225   1.737
 8316SOL    HW125847   0.654   2.319   1.750
 8316SOL    HW225848   0.654   2.169   1.815
 8317SOL     OW25849   2.238   2.408   2.958
 8317SOL    HW125850   2.172   2.483   2.954
 8317SOL    HW225851   2.207   2.335   2.896
 8318SOL     OW25852   4.427   1.159   5.037
 8318SOL    HW125853   4.502   1.201   4.986
 8318SOL    HW225854   4.462   1.123   5.124
 8319SOL     OW25855   3.036   0.931   6.461
 8319SOL    HW125856   2.982   0.974   6.389
 8319SOL    HW225857   3.097   0.863   6.421
 8320SOL     OW25858   3.283   3.524   1.523
 8320SOL    HW125859   3.373   3.501   1.559
 8320SOL    HW225860   3.270   3.623   1.523
 8321SOL     OW25861   7.009   0.732   0.414
 8321SOL    HW125862   0.079   0.751   0.407
 8321SOL    HW225863   6.973   0.769   0.499
 8322SOL     OW25864   6.978   0.329   0.391
 8322SOL    HW125865   6.935   0.411   0.428
 8322SOL    HW225866   6.913   0.253   0.393
 8323SOL     OW25867   5.610   5.796   2.732
 8323SOL    HW125868   5.601   5.788   2.633
 8323SOL    HW225869   5.560   5.720   2.775
 8324SOL     OW25870   5.335   0.899   1.717
 8324SOL    HW125871   5.241   0.898   1.682
 8324SOL    HW225872   5.397   0.928   1.645
 8325SOL     OW25873   3.101   3.402   5.484
 8325SOL    HW125874   3.171   3.452   5.433
 8325SOL    HW225875   3.011   3.437   5.460
 8326SOL     OW25876   4.807   3.310   5.602
 8326SOL    HW125877   4.775   3.255   5.525
 8326SOL    HW225878   4.896   3.349   5.581
 8327SOL     OW25879   6.164   2.435   6.205
 8327SOL    HW125880   6.219   2.381   6.141
 8327SOL    HW225881   6.223   2.471   6.277
 8328SOL     OW25882   2.548   4.463   5.525
 8328SOL    HW125883   2.549   4.547   5.471
 8328SOL    HW225884   2.583   4.387   5.469
 8329SOL     OW25885   0.196   3.540   6.226
 8329SOL    HW125886   0.128   3.603   6.262
 8329SOL    HW225887   0.238   3.490   6.301
 8330SOL     OW25888   3.240   6.686   0.530
 8330SOL    HW125889   3.143   6.696   0.551
 8330SOL    HW225890   3.251   6.618   0.457
 8331SOL     OW25891   2.514   1.554   1.141
 8331SOL    HW125892   2.580   1.481   1.160
 8331SOL    HW225893   2.562   1.641   1.136
 8332SOL     OW25894   5.145   4.791   2.705
 8332SOL    HW125895   5.065   4.837   2.668
 8332SOL    HW225896   5.225   4.808   2.647
 8333SOL     OW25897   0.570   6.308   6.632
 8333SOL    HW125898   0.490   6.255   6.603
 8333SOL    HW225899   0.615   6.260   6.707
 8334SOL     OW25900   4.266   1.293   3.670
 8334SOL    HW125901   4.176   1.326   3.642
 8334SOL    HW225902   4.256   1.211   3.726
 8335SOL     OW25903   6.502   5.433   6.349
 8335SOL    HW125904   6.522   5.346   6.394
 8335SOL    HW225905   6.459   5.415   6.260
 8336SOL     OW25906   6.257   0.159   2.932
 8336SOL    HW125907   6.294   0.070   2.904
 8336SOL    HW225908   6.162   0.147   2.962
 8337SOL     OW25909   0.725   6.018   3.349
 8337SOL    HW125910   0.748   6.110   3.318
 8337SOL    HW225911   0.740   5.953   3.274
 8338SOL     OW25912   2.113   5.328   1.544
 8338SOL    HW125913   2.148   5.237   1.528
 8338SOL    HW225914   2.014   5.323   1.558
 8339SOL     OW25915   5.912   0.379   2.153
 8339SOL    HW125916   5.987   0.424   2.202
 8339SOL    HW225917   5.948   0.302   2.101
 8340SOL     OW25918   5.239   3.537   1.635
 8340SOL    HW125919   5.177   3.614   1.619
 8340SOL    HW225920   5.186   3.453   1.645
 8341SOL     OW25921   2.184   6.443   6.485
 8341SOL    HW125922   2.271   6.409   6.448
 8341SOL    HW225923   2.108   6.396   6.441
 8342SOL     OW25924   3.964   0.353   1.614
 8342SOL    HW125925   3.905   0.297   1.670
 8342SOL    HW225926   4.030   0.295   1.566
 8343SOL     OW25927   1.107   5.159   5.970
 8343SOL    HW125928   1.076   5.103   5.893
 8343SOL    HW225929   1.106   5.255   5.943
 8344SOL     OW25930   4.430   0.534   5.116
 8344SOL    HW125931   4.417   0.619   5.065
 8344SOL    HW225932   4.526   0.526   5.145
 8345SOL     OW25933   5.287   1.520   3.901
 8345SOL    HW125934   5.250   1.598   3.850
 8345SOL    HW225935   5.349   1.552   3.972
 8346SOL     OW25936   2.226   4.512   0.454
 8346SOL    HW125937   2.307   4.534   0.507
 8346SOL    HW225938   2.149   4.496   0.516
 8347SOL     OW25939   4.126   5.490   4.698
 8347SOL    HW125940   4.048   5.460   4.754
 8347SOL    HW225941   4.095   5.557   4.631
 8348SOL     OW25942   1.449   6.993   2.253
 8348SOL    HW125943   1.401   0.051   2.235
 8348SOL    HW225944   1.384   6.918   2.253
 8349SOL     OW25945   6.401   6.248   1.622
 8349SOL    HW125946   6.373   6.208   1.534
 8349SOL    HW225947   6.337   6.321   1.647
 8350SOL     OW25948   4.850   0.881   4.942
 8350SOL    HW125949   4.772   0.830   4.978
 8350SOL    HW225950   4.818   0.951   4.878
 8351SOL     OW25951   4.813   5.078   4.093
 8351SOL    HW125952   4.866   5.072   4.177
 8351SOL    HW225953   4.855   5.019   4.023
 8352SOL     OW25954   7.015   6.234   2.953
 8352SOL    HW125955   7.028   6.295   2.874
 8352SOL    HW225956   6.990   6.289   3.033
 8353SOL     OW25957   6.361   3.768   1.531
 8353SOL    HW125958   6.277   3.814   1.559
 8353SOL    HW225959   6.421   3.757   1.610
 8354SOL     OW25960   3.845   0.192   6.718
 8354SOL    HW125961   3.835   0.279   6.766
 8354SOL    HW225962   3.783   0.124   6.758
 8355SOL     OW25963   2.854   0.159   0.165
 8355SOL    HW125964   2.876   0.111   0.250
 8355SOL    HW225965   2.837   0.091   0.093
 8356SOL     OW25966   1.833   6.253   0.887
 8356SOL    HW125967   1.871   6.175   0.937
 8356SOL    HW225968   1.771   6.305   0.947
 8357SOL     OW25969   3.948   0.400   5.761
 8357SOL    HW125970   3.901   0.402   5.849
 8357SOL    HW225971   3.923   0.317   5.712
 8358SOL     OW25972   1.115   3.475   5.813
 8358SOL    HW125973   1.122   3.377   5.833
 8358SOL    HW225974   1.125   3.489   5.715
 8359SOL     OW25975   3.030   6.580   4.636
 8359SOL    HW125976   2.972   6.627   4.569
 8359SOL    HW225977   2.972   6.524   4.696
 8360SOL     OW25978   3.738   5.995   1.132
 8360SOL    HW125979   3.772   5.928   1.065
 8360SOL    HW225980   3.777   6.085   1.112
 8361SOL     OW25981   2.383   0.099   2.748
 8361SOL    HW125982   2.412   0.061   2.661
 8361SOL    HW225983   2.358   0.195   2.736
 8362SOL     OW25984   2.960   1.729   0.704
 8362SOL    HW125985   2.872   1.719   0.658
 8362SOL    HW225986   2.950   1.706   0.801
 8363SOL     OW25987   0.800   2.426   0.043
 8363SOL    HW125988   0.893   2.410   0.075
 8363SOL    HW225989   0.764   2.343   0.001
 8364SOL     OW25990   6.254   2.751   2.595
 8364SOL    HW125991   6.158   2.738   2.621
 8364SOL    HW225992   6.259   2.778   2.500
 8365SOL     OW25993   1.732   4.584   1.685
 8365SOL    HW125994   1.771   4.649   1.621
 8365SOL    HW225995   1.713   4.498   1.638
 8366SOL     OW25996   2.595   5.816   2.353
 8366SOL    HW125997   2.666   5.833   2.422
 8366SOL    HW225998   2.529   5.892   2.355
 8367SOL     OW25999   4.035   6.053   3.874
 8367SOL    HW126000   4.031   5.980   3.942
 8367SOL    HW226001   4.073   6.135   3.917
 8368SOL     OW26002   2.041   6.546   5.901
 8368SOL    HW126003   1.948   6.581   5.890
 8368SOL    HW226004   2.097   6.578   5.825
 8369SOL     OW26005   1.968   6.735   6.856
 8369SOL    HW126006   1.944   6.828   6.885
 8369SOL    HW226007   2.046   6.739   6.794
 8370SOL     OW26008   2.406   2.192   5.573
 8370SOL    HW126009   2.480   2.181   5.506
 8370SOL    HW226010   2.416   2.123   5.645
 8371SOL     OW26011   1.989   4.343   1.411
 8371SOL    HW126012   2.040   4.293   1.481
 8371SOL    HW226013   1.934   4.278   1.357
 8372SOL     OW26014   0.186   5.859   2.157
 8372SOL    HW126015   0.123   5.892   2.087
 8372SOL    HW226016   0.226   5.772   2.128
 8373SOL     OW26017   1.216   0.557   3.915
 8373SOL    HW126018   1.215   0.645   3.866
 8373SOL    HW226019   1.150   0.495   3.873
 8374SOL     OW26020   6.567   0.840   6.253
 8374SOL    HW126021   6.514   0.914   6.211
 8374SOL    HW226022   6.656   0.875   6.283
 8375SOL     OW26023   3.538   0.073   6.439
 8375SOL    HW126024   3.486   0.153   6.409
 8375SOL    HW226025   3.479   0.014   6.494
 8376SOL     OW26026   1.928   0.654   4.446
 8376SOL    HW126027   1.953   0.651   4.349
 8376SOL    HW226028   1.993   0.712   4.495
 8377SOL     OW26029   5.896   5.721   1.189
 8377SOL    HW126030   5.932   5.814   1.182
 8377SOL    HW226031   5.881   5.699   1.285
 8378SOL     OW26032   4.533   4.912   3.000
 8378SOL    HW126033   4.532   4.819   3.038
 8378SOL    HW226034   4.518   4.978   3.074
 8379SOL     OW26035   6.365   2.260   1.087
 8379SOL    HW126036   6.409   2.264   0.998
 8379SOL    HW226037   6.297   2.333   1.095
 8380SOL     OW26038   6.532   1.635   2.449
 8380SOL    HW126039   6.524   1.570   2.525
 8380SOL    HW226040   6.441   1.658   2.415
 8381SOL     OW26041   0.288   4.065   5.119
 8381SOL    HW126042   0.267   4.136   5.052
 8381SOL    HW226043   0.355   4.001   5.081
 8382SOL     OW26044   1.653   0.723   1.918
 8382SOL    HW126045   1.622   0.659   1.847
 8382SOL    HW226046   1.753   0.722   1.922
 8383SOL     OW26047   2.679   0.330   5.986
 8383SOL    HW126048   2.664   0.242   5.939
 8383SOL    HW226049   2.608   0.394   5.960
 8384SOL     OW26050   0.315   0.133   0.329
 8384SOL    HW126051   0.268   0.153   0.243
 8384SOL    HW226052   0.248   0.125   0.403
 8385SOL     OW26053   5.874   2.464   1.462
 8385SOL    HW126054   5.899   2.544   1.408
 8385SOL    HW226055   5.844   2.390   1.401
 8386SOL     OW26056   0.817   4.230   2.250
 8386SOL    HW126057   0.823   4.240   2.151
 8386SOL    HW226058   0.848   4.138   2.275
 8387SOL     OW26059   0.972   1.338   2.087
 8387SOL    HW126060   0.893   1.286   2.054
 8387SOL    HW226061   1.033   1.358   2.010
 8388SOL     OW26062   1.770   6.305   0.292
 8388SOL    HW126063   1.705   6.229   0.292
 8388SOL    HW226064   1.861   6.272   0.319
 8389SOL     OW26065   6.295   3.947   2.893
 8389SOL    HW126066   6.222   3.895   2.937
 8389SOL    HW226067   6.334   4.011   2.959
 8390SOL     OW26068   3.986   1.195   6.129
 8390SOL    HW126069   4.034   1.132   6.191
 8390SOL    HW226070   4.029   1.285   6.134
 8391SOL     OW26071   6.148   5.317   0.114
 8391SOL    HW126072   6.124   5.220   0.115
 8391SOL    HW226073   6.065   5.372   0.115
 8392SOL     OW26074   6.990   3.809   3.765
 8392SOL    HW126075   6.960   3.720   3.731
 8392SOL    HW226076   0.062   3.812   3.769
 8393SOL     OW26077   6.347   1.117   2.384
 8393SOL    HW126078   6.249   1.122   2.366
 8393SOL    HW226079   6.365   1.156   2.475
 8394SOL     OW26080   5.985   3.076   1.528
 8394SOL    HW126081   6.051   3.110   1.595
 8394SOL    HW226082   5.895   3.067   1.571
 8395SOL     OW26083   2.816   6.768   5.610
 8395SOL    HW126084   2.890   6.771   5.544
 8395SOL    HW226085   2.839   6.824   5.689
 8396SOL     OW26086   4.919   4.595   3.607
 8396SOL    HW126087   4.847   4.663   3.604
 8396SOL    HW226088   4.924   4.554   3.698
 8397SOL     OW26089   1.288   1.107   3.186
 8397SOL    HW126090   1.381   1.078   3.164
 8397SOL    HW226091   1.228   1.027   3.189
 8398SOL     OW26092   4.389   2.766   6.005
 8398SOL    HW126093   4.378   2.850   5.952
 8398SOL    HW226094   4.323   2.766   6.080
 8399SOL     OW26095   6.250   6.654   6.580
 8399SOL    HW126096   6.312   6.680   6.654
 8399SOL    HW226097   6.171   6.606   6.618
 8400SOL     OW26098   2.393   2.111   3.889
 8400SOL    HW126099   2.448   2.176   3.942
 8400SOL    HW226100   2.410   2.018   3.922
 8401SOL     OW26101   1.867   1.558   5.493
 8401SOL    HW126102   1.954   1.532   5.453
 8401SOL    HW226103   1.882   1.624   5.567
 8402SOL     OW26104   5.565   1.469   6.248
 8402SOL    HW126105   5.563   1.468   6.148
 8402SOL    HW226106   5.574   1.564   6.279
 8403SOL     OW26107   0.526   3.068   4.017
 8403SOL    HW126108   0.539   3.040   4.112
 8403SOL    HW226109   0.535   2.989   3.957
 8404SOL     OW26110   3.739   7.010   5.820
 8404SOL    HW126111   3.702   0.072   5.845
 8404SOL    HW226112   3.808   6.983   5.887
 8405SOL     OW26113   2.838   1.506   5.436
 8405SOL    HW126114   2.748   1.478   5.472
 8405SOL    HW226115   2.908   1.485   5.504
 8406SOL     OW26116   4.249   0.367   0.341
 8406SOL    HW126117   4.183   0.295   0.362
 8406SOL    HW226118   4.326   0.362   0.404
 8407SOL     OW26119   4.091   6.370   3.616
 8407SOL    HW126120   4.007   6.384   3.564
 8407SOL    HW226121   4.114   6.272   3.618
 8408SOL     OW26122   5.264   4.663   0.985
 8408SOL    HW126123   5.279   4.617   0.897
 8408SOL    HW226124   5.349   4.705   1.016
 8409SOL     OW26125   4.857   2.039   2.323
 8409SOL    HW126126   4.829   2.130   2.292
 8409SOL    HW226127   4.776   1.986   2.348
 8410SOL     OW26128   6.083   1.379   1.741
 8410SOL    HW126129   6.120   1.407   1.653
 8410SOL    HW226130   6.082   1.458   1.803
 8411SOL     OW26131   0.345   5.972   1.020
 8411SOL    HW126132   0.353   5.874   1.038
 8411SOL    HW226133   0.295   5.986   0.934
 8412SOL     OW26134   3.242   2.290   0.947
 8412SOL    HW126135   3.160   2.319   0.997
 8412SOL    HW226136   3.308   2.365   0.944
 8413SOL     OW26137   4.803   5.547   6.342
 8413SOL    HW126138   4.885   5.587   6.383
 8413SOL    HW226139   4.802   5.565   6.244
 8414SOL     OW26140   2.504   0.561   3.628
 8414SOL    HW126141   2.476   0.652   3.659
 8414SOL    HW226142   2.525   0.503   3.707
 8415SOL     OW26143   1.158   6.424   4.255
 8415SOL    HW126144   1.163   6.516   4.216
 8415SOL    HW226145   1.206   6.421   4.342
 8416SOL     OW26146   6.374   1.641   4.460
 8416SOL    HW126147   6.415   1.694   4.386
 8416SOL    HW226148   6.330   1.559   4.421
 8417SOL     OW26149   0.780   2.939   5.667
 8417SOL    HW126150   0.805   2.911   5.574
 8417SOL    HW226151   0.700   2.886   5.697
 8418SOL     OW26152   0.226   5.760   1.830
 8418SOL    HW126153   0.201   5.711   1.914
 8418SOL    HW226154   0.250   5.855   1.854
 8419SOL     OW26155   5.368   0.653   2.621
 8419SOL    HW126156   5.404   0.640   2.529
 8419SOL    HW226157   5.281   0.703   2.616
 8420SOL     OW26158   3.432   6.745   1.729
 8420SOL    HW126159   3.451   6.682   1.654
 8420SOL    HW226160   3.358   6.806   1.704
 8421SOL     OW26161   3.803   4.450   0.070
 8421SOL    HW126162   3.876   4.460   0.137
 8421SOL    HW226163   3.799   4.355   0.038
 8422SOL     OW26164   4.384   1.270   2.413
 8422SOL    HW126165   4.328   1.255   2.332
 8422SOL    HW226166   4.411   1.182   2.452
 8423SOL     OW26167   4.266   4.109   5.970
 8423SOL    HW126168   4.228   4.174   5.905
 8423SOL    HW226169   4.271   4.018   5.928
 8424SOL     OW26170   1.883   2.589   3.094
 8424SOL    HW126171   1.866   2.666   3.156
 8424SOL    HW226172   1.804   2.528   3.096
 8425SOL     OW26173   4.185   3.654   4.938
 8425SOL    HW126174   4.134   3.714   4.876
 8425SOL    HW226175   4.282   3.661   4.918
 8426SOL     OW26176   3.611   3.189   2.727
 8426SOL    HW126177   3.578   3.145   2.811
 8426SOL    HW226178   3.621   3.120   2.655
 8427SOL     OW26179   2.965   3.841   3.801
 8427SOL    HW126180   2.912   3.844   3.716
 8427SOL    HW226181   2.920   3.780   3.866
 8428SOL     OW26182   0.419   6.500   1.875
 8428SOL    HW126183   0.466   6.461   1.955
 8428SOL    HW226184   0.348   6.436   1.844
 8429SOL     OW26185   1.649   5.381   5.556
 8429SOL    HW126186   1.600   5.331   5.486
 8429SOL    HW226187   1.747   5.360   5.551
 8430SOL     OW26188   3.751   4.958   3.865
 8430SOL    HW126189   3.773   5.056   3.861
 8430SOL    HW226190   3.777   4.923   3.955
 8431SOL     OW26191   4.044   3.726   0.271
 8431SOL    HW126192   4.105   3.764   0.202
 8431SOL    HW226193   4.044   3.626   0.264
 8432SOL     OW26194   6.422   5.141   5.583
 8432SOL    HW126195   6.405   5.052   5.625
 8432SOL    HW226196   6.458   5.204   5.652
 8433SOL     OW26197   4.210   2.958   0.877
 8433SOL    HW126198   4.246   2.989   0.965
 8433SOL    HW226199   4.120   2.998   0.862
 8434SOL     OW26200   2.389   6.999   4.373
 8434SOL    HW126201   2.301   0.009   4.343
 8434SOL    HW226202   2.438   0.041   4.426
 8435SOL     OW26203   5.694   0.022   2.671
 8435SOL    HW126204   5.698   0.105   2.616
 8435SOL    HW226205   5.610   0.022   2.725
 8436SOL     OW26206   3.418   6.511   3.932
 8436SOL    HW126207   3.464   6.599   3.947
 8436SOL    HW226208   3.373   6.512   3.843
 8437SOL     OW26209   2.412   2.543   2.466
 8437SOL    HW126210   2.391   2.599   2.546
 8437SOL    HW226211   2.374   2.586   2.384
 8438SOL     OW26212   2.743   4.711   3.120
 8438SOL    HW126213   2.837   4.733   3.145
 8438SOL    HW226214   2.689   4.695   3.203
 8439SOL     OW26215   5.965   4.806   2.491
 8439SOL    HW126216   6.047   4.845   2.449
 8439SOL    HW226217   5.968   4.706   2.484
 8440SOL     OW26218   2.923   2.231   3.178
 8440SOL    HW126219   2.881   2.263   3.093
 8440SOL    HW226220   3.015   2.197   3.160
 8441SOL     OW26221   5.629   6.046   6.425
 8441SOL    HW126222   5.722   6.013   6.406
 8441SOL    HW226223   5.622   6.142   6.397
 8442SOL     OW26224   3.756   1.730   4.944
 8442SOL    HW126225   3.726   1.672   4.868
 8442SOL    HW226226   3.738   1.684   5.031
 8443SOL     OW26227   2.369   5.014   3.628
 8443SOL    HW126228   2.326   5.091   3.675
 8443SOL    HW226229   2.304   4.972   3.565
 8444SOL     OW26230   3.381   6.739   3.567
 8444SOL    HW126231   3.321   6.768   3.642
 8444SOL    HW226232   3.440   6.815   3.540
 8445SOL     OW26233   2.830   0.104   1.051
 8445SOL    HW126234   2.830   0.051   0.966
 8445SOL    HW226235   2.919   0.147   1.064
 8446SOL     OW26236   6.442   4.844   5.192
 8446SOL    HW126237   6.449   4.784   5.112
 8446SOL    HW226238   6.528   4.842   5.243
 8447SOL     OW26239   3.970   1.239   1.362
 8447SOL    HW126240   3.986   1.141   1.354
 8447SOL    HW226241   3.924   1.258   1.450
 8448SOL     OW26242   4.754   6.428   3.491
 8448SOL    HW126243   4.744   6.407   3.394
 8448SOL    HW226244   4.674   6.396   3.541
 8449SOL     OW26245   6.798   3.080   3.328
 8449SOL    HW126246   6.773   3.046   3.418
 8449SOL    HW226247   6.751   3.026   3.258
 8450SOL     OW26248   1.007   0.765   1.414
 8450SOL    HW126249   0.958   0.852   1.403
 8450SOL    HW226250   0.976   0.700   1.344
 8451SOL     OW26251   2.962   1.057   6.931
 8451SOL    HW126252   2.863   1.073   6.937
 8451SOL    HW226253   3.011   1.129   6.979
 8452SOL     OW26254   5.706   3.165   4.595
 8452SOL    HW126255   5.663   3.240   4.644
 8452SOL    HW226256   5.640   3.122   4.533
 8453SOL     OW26257   0.098   5.602   0.391
 8453SOL    HW126258   0.051   5.659   0.323
 8453SOL    HW226259   0.040   5.524   0.415
 8454SOL     OW26260   0.295   4.899   0.500
 8454SOL    HW126261   0.270   4.803   0.510
 8454SOL    HW226262   0.217   4.950   0.462
 8455SOL     OW26263   0.104   1.853   3.086
 8455SOL    HW126264   0.064   1.870   3.176
 8455SOL    HW226265   0.122   1.940   3.040
 8456SOL     OW26266   4.253   0.138   3.347
 8456SOL    HW126267   4.338   0.093   3.320
 8456SOL    HW226268   4.270   0.195   3.428
 8457SOL     OW26269   6.254   6.072   4.950
 8457SOL    HW126270   6.162   6.044   4.922
 8457SOL    HW226271   6.274   6.163   4.915
 8458SOL     OW26272   1.969   0.209   0.112
 8458SOL    HW126273   2.026   0.203   0.193
 8458SOL    HW226274   2.018   0.172   0.033
 8459SOL     OW26275   2.176   5.718   3.064
 8459SOL    HW126276   2.096   5.711   3.003
 8459SOL    HW226277   2.244   5.649   3.037
 8460SOL     OW26278   4.655   4.049   5.296
 8460SOL    HW126279   4.603   3.982   5.350
 8460SOL    HW226280   4.747   4.013   5.279
 8461SOL     OW26281   0.834   2.980   4.789
 8461SOL    HW126282   0.870   2.905   4.733
 8461SOL    HW226283   0.900   3.056   4.788
 8462SOL     OW26284   3.204   1.533   6.468
 8462SOL    HW126285   3.274   1.497   6.407
 8462SOL    HW226286   3.247   1.569   6.551
 8463SOL     OW26287   6.655   0.151   1.759
 8463SOL    HW126288   6.596   0.148   1.678
 8463SOL    HW226289   6.671   0.058   1.791
 8464SOL     OW26290   5.327   4.782   4.283
 8464SOL    HW126291   5.259   4.852   4.261
 8464SOL    HW226292   5.343   4.782   4.382
 8465SOL     OW26293   1.300   2.465   0.544
 8465SOL    HW126294   1.312   2.554   0.587
 8465SOL    HW226295   1.365   2.400   0.583
 8466SOL     OW26296   1.079   6.741   3.805
 8466SOL    HW126297   1.009   6.672   3.789
 8466SOL    HW226298   1.118   6.771   3.718
 8467SOL     OW26299   2.850   5.980   0.625
 8467SOL    HW126300   2.827   5.938   0.713
 8467SOL    HW226301   2.882   5.909   0.562
 8468SOL     OW26302   3.252   1.214   0.664
 8468SOL    HW126303   3.211   1.220   0.574
 8468SOL    HW226304   3.329   1.277   0.670
 8469SOL     OW26305   3.177   2.712   6.802
 8469SOL    HW126306   3.199   2.629   6.852
 8469SOL    HW226307   3.210   2.792   6.852
 8470SOL     OW26308   2.724   3.790   1.204
 8470SOL    HW126309   2.701   3.861   1.271
 8470SOL    HW226310   2.711   3.700   1.246
 8471SOL     OW26311   2.967   1.085   3.231
 8471SOL    HW126312   3.008   0.995   3.251
 8471SOL    HW226313   2.877   1.071   3.189
 8472SOL     OW26314   0.080   0.109   4.129
 8472SOL    HW126315   0.021   0.172   4.179
 8472SOL    HW226316   0.032   0.073   4.049
 8473SOL     OW26317   0.258   5.638   6.575
 8473SOL    HW126318   0.333   5.624   6.511
 8473SOL    HW226319   0.291   5.686   6.656
 8474SOL     OW26320   2.907   3.064   1.818
 8474SOL    HW126321   2.847   3.129   1.772
 8474SOL    HW226322   2.922   3.092   1.912
 8475SOL     OW26323   7.007   1.296   2.994
 8475SOL    HW126324   7.011   1.371   2.928
 8475SOL    HW226325   6.934   1.315   3.061
 8476SOL     OW26326   5.959   0.996   2.082
 8476SOL    HW126327   6.044   1.010   2.033
 8476SOL    HW226328   5.882   1.002   2.018
 8477SOL     OW26329   3.313   6.698   1.099
 8477SOL    HW126330   3.367   6.620   1.131
 8477SOL    HW226331   3.222   6.667   1.074
 8478SOL     OW26332   1.159   0.496   6.052
 8478SOL    HW126333   1.136   0.509   5.955
 8478SOL    HW226334   1.257   0.479   6.061
 8479SOL     OW26335   6.100   1.399   0.521
 8479SOL    HW126336   6.057   1.463   0.585
 8479SOL    HW226337   6.061   1.308   0.536
 8480SOL     OW26338   3.072   0.883   1.351
 8480SOL    HW126339   3.088   0.949   1.424
 8480SOL    HW226340   3.144   0.891   1.283
 8481SOL     OW26341   4.418   1.492   4.031
 8481SOL    HW126342   4.396   1.526   4.122
 8481SOL    HW226343   4.485   1.418   4.039
 8482SOL     OW26344   2.590   0.237   2.371
 8482SOL    HW126345   2.630   0.266   2.284
 8482SOL    HW226346   2.625   0.295   2.444
 8483SOL     OW26347   3.828   6.213   1.755
 8483SOL    HW126348   3.892   6.166   1.815
 8483SOL    HW226349   3.872   6.232   1.667
 8484SOL     OW26350   6.883   4.832   3.105
 8484SOL    HW126351   6.977   4.848   3.136
 8484SOL    HW226352   6.819   4.859   3.177
 8485SOL     OW26353   1.922   3.303   6.466
 8485SOL    HW126354   1.860   3.378   6.445
 8485SOL    HW226355   1.938   3.249   6.383
 8486SOL     OW26356   4.783   1.366   3.144
 8486SOL    HW126357   4.782   1.375   3.243
 8486SOL    HW226358   4.870   1.324   3.115
 8487SOL     OW26359   5.756   6.882   0.821
 8487SOL    HW126360   5.750   6.808   0.754
 8487SOL    HW226361   5.852   6.901   0.841
 8488SOL     OW26362   5.880   5.121   5.248
 8488SOL    HW126363   5.883   5.127   5.148
 8488SOL    HW226364   5.804   5.062   5.275
 8489SOL     OW26365   6.157   0.186   1.481
 8489SOL    HW126366   6.071   0.136   1.468
 8489SOL    HW226367   6.137   0.280   1.508
 8490SOL     OW26368   4.503   6.368   3.571
 8490SOL    HW126369   4.460   6.284   3.604
 8490SOL    HW226370   4.436   6.442   3.568
 8491SOL     OW26371   2.265   0.648   1.585
 8491SOL    HW126372   2.252   0.656   1.684
 8491SOL    HW226373   2.261   0.551   1.559
 8492SOL     OW26374   4.622   3.958   6.221
 8492SOL    HW126375   4.673   3.966   6.135
 8492SOL    HW226376   4.668   4.010   6.292
 8493SOL     OW26377   3.385   1.661   6.701
 8493SOL    HW126378   3.425   1.736   6.754
 8493SOL    HW226379   3.409   1.574   6.743
 8494SOL     OW26380   1.953   4.672   6.499
 8494SOL    HW126381   1.953   4.572   6.503
 8494SOL    HW226382   1.883   4.708   6.561
 8495SOL     OW26383   6.876   3.304   0.383
 8495SOL    HW126384   6.914   3.238   0.318
 8495SOL    HW226385   6.853   3.388   0.334
 8496SOL     OW26386   0.365   2.000   2.486
 8496SOL    HW126387   0.414   2.087   2.488
 8496SOL    HW226388   0.416   1.932   2.537
 8497SOL     OW26389   5.540   6.832   4.151
 8497SOL    HW126390   5.526   6.847   4.053
 8497SOL    HW226391   5.602   6.902   4.187
 8498SOL     OW26392   0.518   6.336   2.445
 8498SOL    HW126393   0.541   6.426   2.483
 8498SOL    HW226394   0.432   6.304   2.485
 8499SOL     OW26395   2.502   5.509   6.511
 8499SOL    HW126396   2.469   5.576   6.578
 8499SOL    HW226397   2.591   5.474   6.541
 8500SOL     OW26398   1.718   0.587   5.896
 8500SOL    HW126399   1.795   0.545   5.847
 8500SOL    HW226400   1.741   0.681   5.919
 8501SOL     OW26401   1.586   2.695   6.992
 8501SOL    HW126402   1.598   2.746   0.050
 8501SOL    HW226403   1.501   2.643   6.997
 8502SOL     OW26404   1.658   4.958   1.036
 8502SOL    HW126405   1.738   4.947   1.093
 8502SOL    HW226406   1.582   4.995   1.090
 8503SOL     OW26407   1.405   5.261   3.034
 8503SOL    HW126408   1.380   5.177   2.985
 8503SOL    HW226409   1.362   5.340   2.990
 8504SOL     OW26410   1.656   6.353   3.615
 8504SOL    HW126411   1.565   6.353   3.656
 8504SOL    HW226412   1.710   6.428   3.654
 8505SOL     OW26413   5.105   4.178   3.343
 8505SOL    HW126414   5.125   4.083   3.320
 8505SOL    HW226415   5.006   4.193   3.343
 8506SOL     OW26416   0.681   7.008   0.789
 8506SOL    HW126417   0.601   0.033   0.817
 8506SOL    HW226418   0.764   0.025   0.822
 8507SOL     OW26419   2.587   0.670   5.358
 8507SOL    HW126420   2.656   0.737   5.385
 8507SOL    HW226421   2.628   0.579   5.354
 8508SOL     OW26422   0.073   3.028   4.839
 8508SOL    HW126423   0.157   3.083   4.838
 8508SOL    HW226424   0.031   3.030   4.748
 8509SOL     OW26425   5.788   1.639   3.993
 8509SOL    HW126426   5.755   1.658   4.086
 8509SOL    HW226427   5.729   1.571   3.950
 8510SOL     OW26428   5.907   4.632   2.903
 8510SOL    HW126429   5.917   4.544   2.856
 8510SOL    HW226430   5.837   4.625   2.974
 8511SOL     OW26431   5.509   4.456   1.649
 8511SOL    HW126432   5.567   4.400   1.707
 8511SOL    HW226433   5.416   4.456   1.685
 8512SOL     OW26434   3.738   2.367   0.379
 8512SOL    HW126435   3.733   2.442   0.445
 8512SOL    HW226436   3.821   2.314   0.396
 8513SOL     OW26437   4.716   3.813   1.292
 8513SOL    HW126438   4.722   3.724   1.337
 8513SOL    HW226439   4.621   3.835   1.272
 8514SOL     OW26440   2.322   2.689   3.295
 8514SOL    HW126441   2.239   2.633   3.292
 8514SOL    HW226442   2.332   2.738   3.208
 8515SOL     OW26443   0.089   1.310   6.732
 8515SOL    HW126444   0.065   1.407   6.743
 8515SOL    HW226445   0.005   1.255   6.731
 8516SOL     OW26446   6.381   2.906   1.673
 8516SOL    HW126447   6.321   2.833   1.640
 8516SOL    HW226448   6.431   2.945   1.596
 8517SOL     OW26449   2.137   2.331   5.919
 8517SOL    HW126450   2.201   2.352   5.845
 8517SOL    HW226451   2.168   2.250   5.968
 8518SOL     OW26452   5.040   3.983   5.997
 8518SOL    HW126453   4.944   3.966   5.974
 8518SOL    HW226454   5.098   3.940   5.929
 8519SOL     OW26455   0.728   5.407   0.806
 8519SOL    HW126456   0.684   5.350   0.736
 8519SOL    HW226457   0.749   5.351   0.886
 8520SOL     OW26458   2.758   2.771   6.314
 8520SOL    HW126459   2.713   2.754   6.226
 8520SOL    HW226460   2.711   2.720   6.386
 8521SOL     OW26461   2.403   5.716   5.676
 8521SOL    HW126462   2.480   5.772   5.708
 8521SOL    HW226463   2.409   5.704   5.577
 8522SOL     OW26464   0.523   6.831   1.557
 8522SOL    HW126465   0.444   6.865   1.609
 8522SOL    HW226466   0.580   6.775   1.616
 8523SOL     OW26467   2.435   6.301   6.802
 8523SOL    HW126468   2.348   6.252   6.800
 8523SOL    HW226469   2.444   6.350   6.888
 8524SOL     OW26470   0.828   3.523   4.668
 8524SOL    HW126471   0.863   3.578   4.744
 8524SOL    HW226472   0.743   3.478   4.694
 8525SOL     OW26473   5.785   5.173   1.747
 8525SOL    HW126474   5.869   5.155   1.696
 8525SOL    HW226475   5.771   5.272   1.755
 8526SOL     OW26476   3.573   6.277   0.855
 8526SOL    HW126477   3.660   6.245   0.893
 8526SOL    HW226478   3.509   6.295   0.929
 8527SOL     OW26479   3.418   0.344   6.933
 8527SOL    HW126480   3.468   0.346   6.846
 8527SOL    HW226481   3.456   0.412   6.995
 8528SOL     OW26482   3.756   1.327   0.607
 8528SOL    HW126483   3.789   1.405   0.553
 8528SOL    HW226484   3.710   1.262   0.546
 8529SOL     OW26485   1.415   0.005   0.631
 8529SOL    HW126486   1.399   6.963   0.700
 8529SOL    HW226487   1.411   6.991   0.540
 8530SOL     OW26488   3.937   3.406   5.245
 8530SOL    HW126489   3.990   3.371   5.168
 8530SOL    HW226490   3.841   3.381   5.233
 8531SOL     OW26491   6.998   5.514   2.792
 8531SOL    HW126492   0.024   5.439   2.753
 8531SOL    HW226493   7.009   5.595   2.734
 8532SOL     OW26494   4.056   5.806   4.830
 8532SOL    HW126495   4.029   5.710   4.829
 8532SOL    HW226496   4.092   5.830   4.920
 8533SOL     OW26497   1.947   6.044   0.182
 8533SOL    HW126498   1.884   5.967   0.177
 8533SOL    HW226499   1.985   6.050   0.274
 8534SOL     OW26500   4.937   2.610   3.886
 8534SOL    HW126501   4.933   2.526   3.832
 8534SOL    HW226502   4.908   2.590   3.980
 8535SOL     OW26503   6.190   1.656   3.720
 8535SOL    HW126504   6.236   1.616   3.799
 8535SOL    HW226505   6.217   1.752   3.711
 8536SOL     OW26506   0.299   1.446   4.920
 8536SOL    HW126507   0.284   1.348   4.933
 8536SOL    HW226508   0.361   1.480   4.990
 8537SOL     OW26509   5.519   1.673   3.244
 8537SOL    HW126510   5.502   1.696   3.148
 8537SOL    HW226511   5.438   1.627   3.282
 8538SOL     OW26512   2.061   1.293   7.002
 8538SOL    HW126513   1.982   1.342   6.964
 8538SOL    HW226514   2.033   1.244   0.057
 8539SOL     OW26515   6.311   1.759   2.350
 8539SOL    HW126516   6.229   1.812   2.327
 8539SOL    HW226517   6.371   1.813   2.409
 8540SOL     OW26518   5.865   0.003   6.615
 8540SOL    HW126519   5.816   7.013   6.700
 8540SOL    HW226520   5.801   7.026   6.538
 8541SOL     OW26521   3.846   2.054   3.576
 8541SOL    HW126522   3.923   2.117   3.568
 8541SOL    HW226523   3.869   1.966   3.534
 8542SOL     OW26524   3.616   4.769   6.726
 8542SOL    HW126525   3.564   4.776   6.811
 8542SOL    HW226526   3.552   4.759   6.650
 8543SOL     OW26527   1.983   1.841   1.422
 8543SOL    HW126528   2.052   1.891   1.473
 8543SOL    HW226529   2.026   1.764   1.375
 8544SOL     OW26530   5.498   3.620   4.239
 8544SOL    HW126531   5.459   3.703   4.200
 8544SOL    HW226532   5.426   3.564   4.279
 8545SOL     OW26533   4.219   0.338   5.966
 8545SOL    HW126534   4.160   0.318   6.044
 8545SOL    HW226535   4.315   0.336   5.995
 8546SOL     OW26536   6.044   1.948   4.284
 8546SOL    HW126537   6.038   1.882   4.359
 8546SOL    HW226538   6.019   1.903   4.198
 8547SOL     OW26539   0.516   6.586   5.799
 8547SOL    HW126540   0.550   6.627   5.715
 8547SOL    HW226541   0.416   6.594   5.802
 8548SOL     OW26542   5.966   2.730   5.401
 8548SOL    HW126543   6.053   2.736   5.451
 8548SOL    HW226544   5.904   2.668   5.449
 8549SOL     OW26545   0.557   3.621   3.698
 8549SOL    HW126546   0.495   3.579   3.632
 8549SOL    HW226547   0.529   3.596   3.790
 8550SOL     OW26548   2.323   4.468   6.513
 8550SOL    HW126549   2.271   4.409   6.576
 8550SOL    HW226550   2.315   4.431   6.420
 8551SOL     OW26551   3.695   3.407   6.143
 8551SOL    HW126552   3.596   3.396   6.151
 8551SOL    HW226553   3.715   3.475   6.072
 8552SOL     OW26554   2.487   6.716   3.876
 8552SOL    HW126555   2.465   6.685   3.968
 8552SOL    HW226556   2.410   6.696   3.815
 8553SOL     OW26557   5.148   5.130   6.107
 8553SOL    HW126558   5.159   5.117   6.009
 8553SOL    HW226559   5.121   5.225   6.124
 8554SOL     OW26560   0.521   5.036   0.453
 8554SOL    HW126561   0.441   4.981   0.475
 8554SOL    HW226562   0.587   4.981   0.402
 8555SOL     OW26563   0.857   0.201   3.169
 8555SOL    HW126564   0.940   0.158   3.203
 8555SOL    HW226565   0.872   0.232   3.075
 8556SOL     OW26566   1.023   0.081   3.690
 8556SOL    HW126567   1.004   0.156   3.752
 8556SOL    HW226568   1.121   0.062   3.688
 8557SOL     OW26569   6.664   1.484   1.916
 8557SOL    HW126570   6.733   1.447   1.854
 8557SOL    HW226571   6.580   1.431   1.907
 8558SOL     OW26572   2.573   5.722   2.982
 8558SOL    HW126573   2.562   5.822   2.988
 8558SOL    HW226574   2.571   5.683   3.074
 8559SOL     OW26575   6.040   0.738   2.009
 8559SOL    HW126576   5.968   0.789   2.056
 8559SOL    HW226577   6.129   0.767   2.043
 8560SOL     OW26578   6.503   0.118   0.983
 8560SOL    HW126579   6.446   0.184   1.031
 8560SOL    HW226580   6.525   0.153   0.892
 8561SOL     OW26581   3.412   6.218   1.860
 8561SOL    HW126582   3.340   6.150   1.875
 8561SOL    HW226583   3.483   6.178   1.803
 8562SOL     OW26584   5.063   6.567   5.085
 8562SOL    HW126585   5.062   6.573   5.185
 8562SOL    HW226586   5.135   6.503   5.057
 8563SOL     OW26587   2.475   3.451   0.156
 8563SOL    HW126588   2.431   3.396   0.085
 8563SOL    HW226589   2.529   3.523   0.114
 8564SOL     OW26590   2.331   1.043   3.834
 8564SOL    HW126591   2.369   1.104   3.765
 8564SOL    HW226592   2.377   0.955   3.830
 8565SOL     OW26593   4.696   6.737   1.343
 8565SOL    HW126594   4.724   6.690   1.427
 8565SOL    HW226595   4.600   6.716   1.324
 8566SOL     OW26596   1.191   0.902   2.212
 8566SOL    HW126597   1.092   0.895   2.222
 8566SOL    HW226598   1.215   0.887   2.116
 8567SOL     OW26599   0.064   2.009   1.780
 8567SOL    HW126600   0.150   1.958   1.783
 8567SOL    HW226601   7.015   1.946   1.790
 8568SOL     OW26602   4.352   0.378   6.314
 8568SOL    HW126603   4.320   0.463   6.355
 8568SOL    HW226604   4.418   0.398   6.242
 8569SOL     OW26605   5.112   1.552   6.041
 8569SOL    HW126606   5.197   1.512   6.075
 8569SOL    HW226607   5.035   1.494   6.067
 8570SOL     OW26608   0.983   2.338   5.861
 8570SOL    HW126609   0.965   2.240   5.854
 8570SOL    HW226610   0.898   2.386   5.881
 8571SOL     OW26611   0.297   5.629   5.872
 8571SOL    HW126612   0.231   5.704   5.882
 8571SOL    HW226613   0.253   5.543   5.897
 8572SOL     OW26614   2.820   5.244   6.376
 8572SOL    HW126615   2.887   5.246   6.301
 8572SOL    HW226616   2.863   5.204   6.457
 8573SOL     OW26617   3.548   6.105   6.741
 8573SOL    HW126618   3.567   6.007   6.743
 8573SOL    HW226619   3.565   6.140   6.649
 8574SOL     OW26620   6.817   5.144   5.586
 8574SOL    HW126621   6.858   5.119   5.499
 8574SOL    HW226622   6.752   5.074   5.614
 8575SOL     OW26623   3.683   2.291   6.867
 8575SOL    HW126624   3.697   2.377   6.817
 8575SOL    HW226625   3.675   2.311   6.965
 8576SOL     OW26626   1.122   6.589   1.208
 8576SOL    HW126627   1.128   6.538   1.123
 8576SOL    HW226628   1.066   6.539   1.274
 8577SOL     OW26629   6.446   5.193   4.194
 8577SOL    HW126630   6.476   5.286   4.170
 8577SOL    HW226631   6.524   5.140   4.227
 8578SOL     OW26632   5.007   0.423   4.640
 8578SOL    HW126633   4.961   0.424   4.551
 8578SOL    HW226634   5.032   0.517   4.665
 8579SOL     OW26635   1.519   6.121   3.521
 8579SOL    HW126636   1.475   6.116   3.431
 8579SOL    HW226637   1.578   6.202   3.525
 8580SOL     OW26638   2.392   6.809   2.084
 8580SOL    HW126639   2.434   6.892   2.121
 8580SOL    HW226640   2.433   6.787   1.996
 8581SOL     OW26641   3.475   2.808   1.579
 8581SOL    HW126642   3.454   2.789   1.675
 8581SOL    HW226643   3.530   2.891   1.572
 8582SOL     OW26644   4.255   4.688   2.078
 8582SOL    HW126645   4.196   4.738   2.140
 8582SOL    HW226646   4.253   4.731   1.987
 8583SOL     OW26647   5.942   0.579   5.819
 8583SOL    HW126648   5.866   0.526   5.855
 8583SOL    HW226649   6.020   0.572   5.881
 8584SOL     OW26650   0.296   3.986   6.313
 8584SOL    HW126651   0.350   4.019   6.235
 8584SOL    HW226652   0.283   4.060   6.379
 8585SOL     OW26653   6.871   6.615   0.098
 8585SOL    HW126654   6.855   6.576   0.007
 8585SOL    HW226655   6.965   6.595   0.127
 8586SOL     OW26656   2.599   6.360   3.616
 8586SOL    HW126657   2.519   6.357   3.556
 8586SOL    HW226658   2.639   6.452   3.616
 8587SOL     OW26659   1.204   0.225   2.970
 8587SOL    HW126660   1.165   0.206   2.880
 8587SOL    HW226661   1.282   0.286   2.960
 8588SOL     OW26662   2.975   0.563   7.008
 8588SOL    HW126663   3.019   0.476   6.987
 8588SOL    HW226664   2.876   0.552   7.001
 8589SOL     OW26665   4.336   2.322   4.547
 8589SOL    HW126666   4.295   2.373   4.472
 8589SOL    HW226667   4.281   2.241   4.566
 8590SOL     OW26668   6.427   5.732   4.376
 8590SOL    HW126669   6.374   5.817   4.376
 8590SOL    HW226670   6.372   5.658   4.339
 8591SOL     OW26671   0.975   4.972   6.137
 8591SOL    HW126672   1.001   5.053   6.086
 8591SOL    HW226673   0.876   4.956   6.127
 8592SOL     OW26674   6.796   4.221   0.310
 8592SOL    HW126675   6.825   4.165   0.233
 8592SOL    HW226676   6.820   4.176   0.396
 8593SOL     OW26677   1.363   6.819   2.507
 8593SOL    HW126678   1.406   6.856   2.589
 8593SOL    HW226679   1.278   6.869   2.489
 8594SOL     OW26680   3.642   3.576   5.225
 8594SOL    HW126681   3.637   3.477   5.212
 8594SOL    HW226682   3.549   3.614   5.229
 8595SOL     OW26683   2.517   1.582   2.657
 8595SOL    HW126684   2.449   1.517   2.625
 8595SOL    HW226685   2.546   1.559   2.750
 8596SOL     OW26686   5.754   5.289   2.383
 8596SOL    HW126687   5.838   5.237   2.378
 8596SOL    HW226688   5.768   5.380   2.345
 8597SOL     OW26689   4.116   2.478   1.188
 8597SOL    HW126690   4.111   2.439   1.280
 8597SOL    HW226691   4.036   2.450   1.135
 8598SOL     OW26692   0.545   5.385   1.418
 8598SOL    HW126693   0.447   5.405   1.413
 8598SOL    HW226694   0.597   5.461   1.378
 8599SOL     OW26695   0.947   3.022   3.917
 8599SOL    HW126696   1.045   3.041   3.921
 8599SOL    HW226697   0.902   3.066   3.995
 8600SOL     OW26698   5.727   4.411   6.769
 8600SOL    HW126699   5.751   4.468   6.691
 8600SOL    HW226700   5.674   4.464   6.835
 8601SOL     OW26701   0.639   0.521   4.745
 8601SOL    HW126702   0.608   0.551   4.655
 8601SOL    HW226703   0.644   0.600   4.807
 8602SOL     OW26704   2.399   6.232   2.851
 8602SOL    HW126705   2.325   6.167   2.833
 8602SOL    HW226706   2.433   6.269   2.765
 8603SOL     OW26707   3.601   4.047   0.059
 8603SOL    HW126708   3.544   4.093   7.019
 8603SOL    HW226709   3.695   4.043   0.026
 8604SOL     OW26710   6.236   2.746   3.158
 8604SOL    HW126711   6.332   2.769   3.138
 8604SOL    HW226712   6.198   2.695   3.081
 8605SOL     OW26713   3.467   4.929   4.598
 8605SOL    HW126714   3.394   4.872   4.635
 8605SOL    HW226715   3.459   4.933   4.498
 8606SOL     OW26716   2.150   4.692   5.682
 8606SOL    HW126717   2.097   4.745   5.616
 8606SOL    HW226718   2.188   4.753   5.751
 8607SOL     OW26719   2.945   4.958   1.050
 8607SOL    HW126720   3.008   4.962   0.973
 8607SOL    HW226721   2.988   4.909   1.126
 8608SOL     OW26722   4.831   5.119   3.056
 8608SOL    HW126723   4.757   5.162   3.107
 8608SOL    HW226724   4.913   5.114   3.113
 8609SOL     OW26725   4.710   0.725   4.139
 8609SOL    HW126726   4.682   0.630   4.128
 8609SOL    HW226727   4.790   0.744   4.081
 8610SOL     OW26728   1.146   0.763   2.778
 8610SOL    HW126729   1.115   0.848   2.822
 8610SOL    HW226730   1.098   0.752   2.691
 8611SOL     OW26731   1.495   3.078   3.709
 8611SOL    HW126732   1.592   3.084   3.684
 8611SOL    HW226733   1.457   2.993   3.675
 8612SOL     OW26734   2.981   3.187   0.185
 8612SOL    HW126735   3.027   3.115   0.237
 8612SOL    HW226736   3.013   3.276   0.217
 8613SOL     OW26737   2.531   1.742   1.418
 8613SOL    HW126738   2.471   1.808   1.373
 8613SOL    HW226739   2.475   1.675   1.467
 8614SOL     OW26740   0.977   3.254   2.905
 8614SOL    HW126741   1.027   3.234   2.821
 8614SOL    HW226742   0.880   3.267   2.885
 8615SOL     OW26743   5.171   1.916   4.656
 8615SOL    HW126744   5.075   1.941   4.642
 8615SOL    HW226745   5.184   1.888   4.752
 8616SOL     OW26746   1.372   5.458   1.313
 8616SOL    HW126747   1.439   5.482   1.382
 8616SOL    HW226748   1.293   5.414   1.356
 8617SOL     OW26749   5.902   1.158   0.392
 8617SOL    HW126750   5.940   1.082   0.340
 8617SOL    HW226751   5.912   1.140   0.490
 8618SOL     OW26752   5.260   6.850   1.044
 8618SOL    HW126753   5.259   6.937   1.093
 8618SOL    HW226754   5.346   6.841   0.994
 8619SOL     OW26755   3.454   5.279   1.162
 8619SOL    HW126756   3.553   5.276   1.157
 8619SOL    HW226757   3.415   5.219   1.093
 8620SOL     OW26758   6.036   0.051   3.380
 8620SOL    HW126759   6.097   0.120   3.340
 8620SOL    HW226760   6.012   0.077   3.473
 8621SOL     OW26761   5.945   1.897   3.452
 8621SOL    HW126762   5.960   1.994   3.431
 8621SOL    HW226763   5.876   1.860   3.390
 8622SOL     OW26764   4.627   4.686   0.541
 8622SOL    HW126765   4.582   4.753   0.482
 8622SOL    HW226766   4.716   4.663   0.503
 8623SOL     OW26767   0.289   4.123   2.739
 8623SOL    HW126768   0.330   4.042   2.780
 8623SOL    HW226769   0.196   4.102   2.710
 8624SOL     OW26770   1.068   4.681   3.817
 8624SOL    HW126771   0.971   4.657   3.810
 8624SOL    HW226772   1.102   4.706   3.726
 8625SOL     OW26773   4.800   0.772   4.638
 8625SOL    HW126774   4.776   0.868   4.653
 8625SOL    HW226775   4.763   0.716   4.712
 8626SOL     OW26776   3.594   3.038   4.808
 8626SOL    HW126777   3.585   3.136   4.791
 8626SOL    HW226778   3.648   3.024   4.892
 8627SOL     OW26779   1.130   0.527   2.893
 8627SOL    HW126780   1.194   0.467   2.845
 8627SOL    HW226781   1.123   0.614   2.845
 8628SOL     OW26782   6.237   6.685   1.899
 8628SOL    HW126783   6.202   6.762   1.847
 8628SOL    HW226784   6.176   6.606   1.888
 8629SOL     OW26785   1.715   5.512   4.595
 8629SOL    HW126786   1.742   5.416   4.604
 8629SOL    HW226787   1.684   5.529   4.502
 8630SOL     OW26788   6.047   4.166   4.352
 8630SOL    HW126789   5.948   4.152   4.346
 8630SOL    HW226790   6.071   4.191   4.446
 8631SOL     OW26791   3.763   5.764   6.347
 8631SOL    HW126792   3.692   5.703   6.382
 8631SOL    HW226793   3.767   5.755   6.247
 8632SOL     OW26794   3.913   6.429   3.410
 8632SOL    HW126795   3.975   6.507   3.408
 8632SOL    HW226796   3.826   6.457   3.450
 8633SOL     OW26797   5.292   1.088   4.874
 8633SOL    HW126798   5.376   1.138   4.893
 8633SOL    HW226799   5.232   1.092   4.954
 8634SOL     OW26800   6.211   2.879   1.003
 8634SOL    HW126801   6.273   2.836   1.068
 8634SOL    HW226802   6.259   2.951   0.954
 8635SOL     OW26803   5.824   3.766   6.224
 8635SOL    HW126804   5.789   3.722   6.306
 8635SOL    HW226805   5.794   3.861   6.221
 8636SOL     OW26806   5.507   4.872   6.880
 8636SOL    HW126807   5.503   4.912   6.789
 8636SOL    HW226808   5.415   4.865   6.918
 8637SOL     OW26809   1.906   0.416   0.529
 8637SOL    HW126810   1.958   0.501   0.527
 8637SOL    HW226811   1.956   0.345   0.480
 8638SOL     OW26812   1.866   3.374   0.074
 8638SOL    HW126813   1.783   3.334   0.113
 8638SOL    HW226814   1.851   3.391   7.004
 8639SOL     OW26815   6.100   2.825   1.825
 8639SOL    HW126816   6.140   2.810   1.734
 8639SOL    HW226817   6.005   2.794   1.825
 8640SOL     OW26818   4.488   4.011   0.643
 8640SOL    HW126819   4.528   3.921   0.630
 8640SOL    HW226820   4.505   4.042   0.737
 8641SOL     OW26821   6.971   4.323   4.751
 8641SOL    HW126822   6.878   4.305   4.783
 8641SOL    HW226823   7.014   4.237   4.726
 8642SOL     OW26824   4.467   0.604   2.776
 8642SOL    HW126825   4.490   0.587   2.680
 8642SOL    HW226826   4.545   0.577   2.834
 8643SOL     OW26827   4.486   6.949   0.209
 8643SOL    HW126828   4.393   6.965   0.178
 8643SOL    HW226829   4.484   6.901   0.297
 8644SOL     OW26830   4.625   2.481   5.582
 8644SOL    HW126831   4.622   2.401   5.642
 8644SOL    HW226832   4.673   2.458   5.498
 8645SOL     OW26833   5.388   4.890   1.429
 8645SOL    HW126834   5.355   4.838   1.508
 8645SOL    HW226835   5.310   4.932   1.383
 8646SOL     OW26836   6.161   1.447   1.189
 8646SOL    HW126837   6.102   1.394   1.250
 8646SOL    HW226838   6.105   1.509   1.133
 8647SOL     OW26839   3.497   4.681   6.500
 8647SOL    HW126840   3.575   4.628   6.467
 8647SOL    HW226841   3.487   4.764   6.444
 8648SOL     OW26842   5.697   1.577   4.492
 8648SOL    HW126843   5.673   1.480   4.496
 8648SOL    HW226844   5.615   1.632   4.509
 8649SOL     OW26845   5.597   4.987   5.891
 8649SOL    HW126846   5.547   5.002   5.977
 8649SOL    HW226847   5.624   4.891   5.884
 8650SOL     OW26848   1.634   4.571   4.280
 8650SOL    HW126849   1.717   4.612   4.319
 8650SOL    HW226850   1.568   4.554   4.352
 8651SOL     OW26851   3.747   0.547   0.078
 8651SOL    HW126852   3.762   0.461   0.128
 8651SOL    HW226853   3.650   0.573   0.084
 8652SOL     OW26854   1.247   4.048   3.035
 8652SOL    HW126855   1.300   3.968   3.006
 8652SOL    HW226856   1.159   4.019   3.071
 8653SOL     OW26857   5.690   2.026   5.997
 8653SOL    HW126858   5.677   1.960   5.923
 8653SOL    HW226859   5.654   2.115   5.969
 8654SOL     OW26860   1.107   6.350   2.182
 8654SOL    HW126861   1.167   6.429   2.190
 8654SOL    HW226862   1.111   6.297   2.267
 8655SOL     OW26863   6.044   1.052   3.937
 8655SOL    HW126864   5.972   0.989   3.907
 8655SOL    HW226865   6.133   1.016   3.911
 8656SOL     OW26866   6.635   1.204   0.864
 8656SOL    HW126867   6.560   1.203   0.798
 8656SOL    HW226868   6.653   1.298   0.893
 8657SOL     OW26869   4.380   4.543   0.343
 8657SOL    HW126870   4.313   4.561   0.271
 8657SOL    HW226871   4.465   4.511   0.301
 8658SOL     OW26872   5.196   5.833   0.251
 8658SOL    HW126873   5.114   5.822   0.195
 8658SOL    HW226874   5.277   5.836   0.192
 8659SOL     OW26875   4.595   1.181   3.533
 8659SOL    HW126876   4.526   1.252   3.524
 8659SOL    HW226877   4.568   1.100   3.480
 8660SOL     OW26878   4.958   3.517   0.783
 8660SOL    HW126879   4.983   3.531   0.687
 8660SOL    HW226880   5.023   3.453   0.825
 8661SOL     OW26881   5.266   3.873   1.196
 8661SOL    HW126882   5.295   3.781   1.225
 8661SOL    HW226883   5.340   3.917   1.145
 8662SOL     OW26884   4.870   6.156   1.809
 8662SOL    HW126885   4.802   6.086   1.831
 8662SOL    HW226886   4.863   6.181   1.712
 8663SOL     OW26887   2.445   5.723   1.203
 8663SOL    HW126888   2.497   5.729   1.118
 8663SOL    HW226889   2.487   5.783   1.272
 8664SOL     OW26890   3.833   5.542   0.810
 8664SOL    HW126891   3.876   5.491   0.883
 8664SOL    HW226892   3.791   5.625   0.847
 8665SOL     OW26893   5.425   5.646   5.206
 8665SOL    HW126894   5.465   5.723   5.255
 8665SOL    HW226895   5.483   5.624   5.127
 8666SOL     OW26896   5.741   2.389   5.204
 8666SOL    HW126897   5.763   2.391   5.302
 8666SOL    HW226898   5.643   2.377   5.192
 8667SOL     OW26899   4.411   2.434   2.685
 8667SOL    HW126900   4.480   2.499   2.719
 8667SOL    HW226901   4.353   2.404   2.760
 8668SOL     OW26902   5.210   3.242   3.212
 8668SOL    HW126903   5.263   3.327   3.204
 8668SOL    HW226904   5.113   3.265   3.222
 8669SOL     OW26905   2.610   6.608   6.774
 8669SOL    HW126906   2.610   6.675   6.699
 8669SOL    HW226907   2.547   6.534   6.751
 8670SOL     OW26908   3.708   4.321   5.811
 8670SOL    HW126909   3.691   4.318   5.712
 8670SOL    HW226910   3.620   4.325   5.860
 8671SOL     OW26911   5.873   1.604   3.662
 8671SOL    HW126912   5.784   1.649   3.649
 8671SOL    HW226913   5.922   1.650   3.736
 8672SOL     OW26914   2.221   5.667   3.817
 8672SOL    HW126915   2.291   5.730   3.783
 8672SOL    HW226916   2.250   5.628   3.904
 8673SOL     OW26917   0.137   1.651   6.511
 8673SOL    HW126918   0.229   1.617   6.492
 8673SOL    HW226919   0.113   1.632   6.606
 8674SOL     OW26920   6.670   5.899   1.601
 8674SOL    HW126921   6.590   5.848   1.634
 8674SOL    HW226922   6.722   5.842   1.539
 8675SOL     OW26923   3.705   1.683   4.318
 8675SOL    HW126924   3.752   1.770   4.303
 8675SOL    HW226925   3.772   1.612   4.340
 8676SOL     OW26926   4.011   6.553   3.050
 8676SOL    HW126927   3.918   6.529   3.078
 8676SOL    HW226928   4.024   6.652   3.059
 8677SOL     OW26929   2.573   6.032   5.239
 8677SOL    HW126930   2.589   6.085   5.155
 8677SOL    HW226931   2.653   6.038   5.298
 8678SOL     OW26932   0.161   0.250   0.588
 8678SOL    HW126933   0.086   0.281   0.530
 8678SOL    HW226934   0.227   0.325   0.601
 8679SOL     OW26935   6.319   3.327   4.760
 8679SOL    HW126936   6.296   3.396   4.828
 8679SOL    HW226937   6.342   3.241   4.806
 8680SOL     OW26938   0.475   3.689   1.340
 8680SOL    HW126939   0.446   3.611   1.283
 8680SOL    HW226940   0.546   3.741   1.291
 8681SOL     OW26941   4.623   4.971   0.393
 8681SOL    HW126942   4.633   5.029   0.312
 8681SOL    HW226943   4.581   5.023   0.467
 8682SOL     OW26944   4.256   6.674   1.989
 8682SOL    HW126945   4.188   6.739   2.023
 8682SOL    HW226946   4.222   6.580   2.002
 8683SOL     OW26947   1.351   2.734   2.024
 8683SOL    HW126948   1.381   2.748   2.119
 8683SOL    HW226949   1.423   2.765   1.962
 8684SOL     OW26950   0.607   2.837   4.832
 8684SOL    HW126951   0.689   2.882   4.796
 8684SOL    HW226952   0.613   2.832   4.932
 8685SOL     OW26953   1.217   2.458   5.888
 8685SOL    HW126954   1.132   2.405   5.886
 8685SOL    HW226955   1.272   2.436   5.808
 8686SOL     OW26956   6.578   1.474   1.230
 8686SOL    HW126957   6.526   1.489   1.146
 8686SOL    HW226958   6.669   1.513   1.220
 8687SOL     OW26959   3.596   5.936   2.562
 8687SOL    HW126960   3.537   5.867   2.604
 8687SOL    HW226961   3.539   6.006   2.517
 8688SOL     OW26962   3.105   6.253   0.389
 8688SOL    HW126963   3.138   6.259   0.295
 8688SOL    HW226964   3.006   6.268   0.391
 8689SOL     OW26965   3.843   4.838   0.267
 8689SOL    HW126966   3.851   4.925   0.316
 8689SOL    HW226967   3.925   4.823   0.211
 8690SOL     OW26968   1.745   2.855   3.610
 8690SOL    HW126969   1.840   2.829   3.594
 8690SOL    HW226970   1.696   2.856   3.523
 8691SOL     OW26971   4.478   2.492   6.320
 8691SOL    HW126972   4.564   2.453   6.286
 8691SOL    HW226973   4.438   2.429   6.387
 8692SOL     OW26974   3.626   2.132   2.589
 8692SOL    HW126975   3.674   2.082   2.516
 8692SOL    HW226976   3.575   2.208   2.549
 8693SOL     OW26977   5.680   1.599   1.227
 8693SOL    HW126978   5.743   1.567   1.298
 8693SOL    HW226979   5.633   1.521   1.186
 8694SOL     OW26980   4.552   1.400   5.619
 8694SOL    HW126981   4.594   1.313   5.594
 8694SOL    HW226982   4.531   1.399   5.717
 8695SOL     OW26983   4.806   3.106   5.940
 8695SOL    HW126984   4.848   3.193   5.915
 8695SOL    HW226985   4.797   3.048   5.858
 8696SOL     OW26986   2.841   5.936   0.919
 8696SOL    HW126987   2.843   6.018   0.977
 8696SOL    HW226988   2.828   5.855   0.976
 8697SOL     OW26989   6.408   3.420   0.748
 8697SOL    HW126990   6.315   3.426   0.710
 8697SOL    HW226991   6.403   3.424   0.848
 8698SOL     OW26992   6.198   5.663   4.215
 8698SOL    HW126993   6.098   5.661   4.205
 8698SOL    HW226994   6.236   5.576   4.182
 8699SOL     OW26995   1.387   2.706   5.492
 8699SOL    HW126996   1.360   2.800   5.475
 8699SOL    HW226997   1.414   2.695   5.588
 8700SOL     OW26998   1.871   1.464   4.774
 8700SOL    HW126999   1.868   1.538   4.842
 8700SOL    HW227000   1.817   1.490   4.694
 8701SOL     OW27001   1.513   0.375   6.895
 8701SOL    HW127002   1.600   0.352   6.938
 8701SOL    HW227003   1.512   0.342   6.801
 8702SOL     OW27004   5.547   4.989   0.314
 8702SOL    HW127005   5.475   5.042   0.269
 8702SOL    HW227006   5.612   5.051   0.357
 8703SOL     OW27007   2.599   5.389   0.978
 8703SOL    HW127008   2.510   5.373   0.936
 8703SOL    HW227009   2.639   5.473   0.941
 8704SOL     OW27010   6.146   3.689   2.752
 8704SOL    HW127011   6.231   3.717   2.707
 8704SOL    HW227012   6.093   3.770   2.777
 8705SOL     OW27013   4.962   0.782   0.611
 8705SOL    HW127014   4.871   0.811   0.583
 8705SOL    HW227015   4.957   0.740   0.701
 8706SOL     OW27016   4.640   1.950   6.153
 8706SOL    HW127017   4.583   1.917   6.228
 8706SOL    HW227018   4.698   1.877   6.119
 8707SOL     OW27019   5.582   2.079   6.945
 8707SOL    HW127020   5.635   1.996   6.929
 8707SOL    HW227021   5.498   2.056   6.996
 8708SOL     OW27022   4.063   2.207   2.081
 8708SOL    HW127023   4.110   2.223   2.168
 8708SOL    HW227024   3.967   2.183   2.100
 8709SOL     OW27025   7.007   6.018   6.111
 8709SOL    HW127026   0.035   6.055   6.186
 8709SOL    HW227027   6.977   5.926   6.135
 8710SOL     OW27028   2.059   3.719   3.240
 8710SOL    HW127029   2.113   3.676   3.168
 8710SOL    HW227030   1.984   3.658   3.266
 8711SOL     OW27031   0.051   5.707   2.624
 8711SOL    HW127032   0.034   5.805   2.634
 8711SOL    HW227033   0.082   5.688   2.530
 8712SOL     OW27034   4.026   2.188   4.007
 8712SOL    HW127035   4.091   2.232   3.944
 8712SOL    HW227036   3.936   2.184   3.965
 8713SOL     OW27037   0.757   4.398   3.669
 8713SOL    HW127038   0.790   4.490   3.689
 8713SOL    HW227039   0.719   4.396   3.577
 8714SOL     OW27040   0.448   1.082   5.958
 8714SOL    HW127041   0.474   1.124   5.871
 8714SOL    HW227042   0.515   1.011   5.983
 8715SOL     OW27043   4.978   0.059   0.614
 8715SOL    HW127044   5.076   0.061   0.629
 8715SOL    HW227045   4.930   0.082   0.699
 8716SOL     OW27046   0.773   0.475   1.588
 8716SOL    HW127047   0.739   0.416   1.661
 8716SOL    HW227048   0.714   0.465   1.508
 8717SOL     OW27049   3.803   3.346   3.063
 8717SOL    HW127050   3.719   3.389   3.030
 8717SOL    HW227051   3.830   3.273   3.000
 8718SOL     OW27052   0.812   3.422   5.732
 8718SOL    HW127053   0.748   3.488   5.773
 8718SOL    HW227054   0.851   3.365   5.804
 8719SOL     OW27055   2.116   6.890   6.198
 8719SOL    HW127056   2.164   6.904   6.111
 8719SOL    HW227057   2.061   6.806   6.193
 8720SOL     OW27058   6.625   4.945   5.688
 8720SOL    HW127059   6.636   5.012   5.762
 8720SOL    HW227060   6.666   4.858   5.715
 8721SOL     OW27061   5.759   2.161   3.918
 8721SOL    HW127062   5.721   2.092   3.979
 8721SOL    HW227063   5.837   2.122   3.868
 8722SOL     OW27064   3.880   0.650   0.586
 8722SOL    HW127065   3.921   0.721   0.529
 8722SOL    HW227066   3.800   0.686   0.633
 8723SOL     OW27067   5.446   5.808   1.107
 8723SOL    HW127068   5.452   5.904   1.135
 8723SOL    HW227069   5.418   5.752   1.186
 8724SOL     OW27070   6.132   0.050   5.315
 8724SOL    HW127071   6.197   0.061   5.391
 8724SOL    HW227072   6.162   0.105   5.238
 8725SOL     OW27073   2.550   6.927   6.394
 8725SOL    HW127074   2.552   6.888   6.302
 8725SOL    HW227075   2.456   6.928   6.428
 8726SOL     OW27076   6.598   1.013   1.792
 8726SOL    HW127077   6.616   1.105   1.828
 8726SOL    HW227078   6.643   1.003   1.704
 8727SOL     OW27079   0.272   6.663   2.026
 8727SOL    HW127080   0.322   6.601   1.965
 8727SOL    HW227081   0.333   6.692   2.100
 8728SOL     OW27082   3.958   6.982   4.635
 8728SOL    HW127083   4.043   0.007   4.641
 8728SOL    HW227084   3.976   6.895   4.590
 8729SOL     OW27085   4.549   5.987   3.418
 8729SOL    HW127086   4.451   5.998   3.401
 8729SOL    HW227087   4.600   6.055   3.366
 8730SOL     OW27088   6.472   4.388   2.323
 8730SOL    HW127089   6.382   4.343   2.320
 8730SOL    HW227090   6.511   4.378   2.415
 8731SOL     OW27091   2.086   1.640   2.775
 8731SOL    HW127092   2.005   1.677   2.731
 8731SOL    HW227093   2.061   1.561   2.831
 8732SOL     OW27094   4.881   4.289   1.601
 8732SOL    HW127095   4.877   4.349   1.521
 8732SOL    HW227096   4.956   4.223   1.590
 8733SOL     OW27097   1.361   5.587   3.341
 8733SOL    HW127098   1.437   5.650   3.322
 8733SOL    HW227099   1.276   5.626   3.304
 8734SOL     OW27100   0.954   4.855   1.763
 8734SOL    HW127101   0.864   4.896   1.778
 8734SOL    HW227102   0.951   4.797   1.681
 8735SOL     OW27103   0.641   1.738   6.702
 8735SOL    HW127104   0.667   1.680   6.624
 8735SOL    HW227105   0.724   1.770   6.748
 8736SOL     OW27106   0.463   6.575   6.730
 8736SOL    HW127107   0.510   6.499   6.685
 8736SOL    HW227108   0.467   6.563   6.829
 8737SOL     OW27109   2.804   6.933   5.850
 8737SOL    HW127110   2.830   6.885   5.934
 8737SOL    HW227111   2.871   7.006   5.831
 8738SOL     OW27112   2.074   4.568   3.473
 8738SOL    HW127113   2.011   4.500   3.511
 8738SOL    HW227114   2.090   4.640   3.540
 8739SOL     OW27115   6.603   5.148   5.881
 8739SOL    HW127116   6.548   5.226   5.851
 8739SOL    HW227117   6.636   5.165   5.974
 8740SOL     OW27118   5.082   1.064   5.409
 8740SOL    HW127119   5.051   0.985   5.462
 8740SOL    HW227120   5.008   1.094   5.348
 8741SOL     OW27121   2.628   0.809   2.216
 8741SOL    HW127122   2.670   0.862   2.290
 8741SOL    HW227123   2.534   0.841   2.201
 8742SOL     OW27124   5.782   6.060   1.550
 8742SOL    HW127125   5.757   5.968   1.519
 8742SOL    HW227126   5.841   6.103   1.483
 8743SOL     OW27127   2.254   6.589   2.687
 8743SOL    HW127128   2.258   6.656   2.614
 8743SOL    HW227129   2.164   6.590   2.730
 8744SOL     OW27130   4.041   2.686   5.999
 8744SOL    HW127131   3.964   2.627   5.977
 8744SOL    HW227132   4.102   2.693   5.920
 8745SOL     OW27133   6.057   2.506   5.971
 8745SOL    HW127134   6.146   2.520   5.928
 8745SOL    HW227135   6.070   2.478   6.066
 8746SOL     OW27136   4.414   4.226   5.346
 8746SOL    HW127137   4.460   4.138   5.339
 8746SOL    HW227138   4.315   4.214   5.332
 8747SOL     OW27139   0.240   3.141   2.925
 8747SOL    HW127140   0.142   3.119   2.925
 8747SOL    HW227141   0.279   3.118   2.835
 8748SOL     OW27142   0.114   1.529   5.680
 8748SOL    HW127143   0.165   1.443   5.686
 8748SOL    HW227144   0.033   1.524   5.738
 8749SOL     OW27145   2.993   0.091   5.589
 8749SOL    HW127146   3.056   0.072   5.513
 8749SOL    HW227147   3.037   0.067   5.675
 8750SOL     OW27148   2.967   3.214   5.172
 8750SOL    HW127149   3.024   3.166   5.105
 8750SOL    HW227150   3.023   3.243   5.249
 8751SOL     OW27151   6.362   0.260   2.431
 8751SOL    HW127152   6.304   0.287   2.507
 8751SOL    HW227153   6.445   0.315   2.431
 8752SOL     OW27154   3.126   4.172   6.780
 8752SOL    HW127155   3.060   4.127   6.721
 8752SOL    HW227156   3.086   4.256   6.818
 8753SOL     OW27157   4.828   1.648   4.705
 8753SOL    HW127158   4.922   1.616   4.716
 8753SOL    HW227159   4.807   1.717   4.774
 8754SOL     OW27160   1.655   1.868   5.703
 8754SOL    HW127161   1.634   1.781   5.658
 8754SOL    HW227162   1.671   1.853   5.800
 8755SOL     OW27163   2.450   1.115   6.298
 8755SOL    HW127164   2.543   1.121   6.262
 8755SOL    HW227165   2.436   1.185   6.367
 8756SOL     OW27166   1.994   3.845   2.887
 8756SOL    HW127167   2.081   3.895   2.893
 8756SOL    HW227168   2.001   3.759   2.936
 8757SOL     OW27169   5.551   6.764   5.499
 8757SOL    HW127170   5.478   6.752   5.432
 8757SOL    HW227171   5.512   6.758   5.591
 8758SOL     OW27172   4.634   6.119   1.962
 8758SOL    HW127173   4.672   6.029   1.938
 8758SOL    HW227174   4.559   6.107   2.027
 8759SOL     OW27175   4.246   2.341   6.555
 8759SOL    HW127176   4.218   2.405   6.483
 8759SOL    HW227177   4.167   2.285   6.582
 8760SOL     OW27178   2.110   1.720   5.123
 8760SOL    HW127179   2.012   1.711   5.143
 8760SOL    HW227180   2.150   1.787   5.186
 8761SOL     OW27181   3.824   0.739   1.428
 8761SOL    HW127182   3.795   0.656   1.381
 8761SOL    HW227183   3.883   0.716   1.505
 8762SOL     OW27184   0.787   3.625   3.022
 8762SOL    HW127185   0.770   3.532   2.991
 8762SOL    HW227186   0.842   3.623   3.106
 8763SOL     OW27187   6.125   5.669   5.144
 8763SOL    HW127188   6.066   5.672   5.064
 8763SOL    HW227189   6.148   5.763   5.172
 8764SOL     OW27190   4.971   0.684   4.411
 8764SOL    HW127191   4.902   0.664   4.481
 8764SOL    HW227192   4.968   0.781   4.388
 8765SOL     OW27193   6.108   0.015   4.945
 8765SOL    HW127194   6.199   0.053   4.933
 8765SOL    HW227195   6.113   6.943   4.940
 8766SOL     OW27196   3.940   5.202   2.762
 8766SOL    HW127197   3.936   5.102   2.754
 8766SOL    HW227198   3.908   5.244   2.677
 8767SOL     OW27199   4.186   0.224   3.095
 8767SOL    HW127200   4.204   0.178   3.181
 8767SOL    HW227201   4.273   0.245   3.050
 8768SOL     OW27202   1.228   2.762   0.247
 8768SOL    HW127203   1.293   2.775   0.322
 8768SOL    HW227204   1.208   2.851   0.205
 8769SOL     OW27205   1.133   0.280   4.451
 8769SOL    HW127206   1.168   0.223   4.376
 8769SOL    HW227207   1.113   0.372   4.417
 8770SOL     OW27208   4.894   4.425   1.997
 8770SOL    HW127209   4.961   4.361   1.960
 8770SOL    HW227210   4.938   4.485   2.064
 8771SOL     OW27211   1.186   0.256   5.401
 8771SOL    HW127212   1.257   0.261   5.330
 8771SOL    HW227213   1.229   0.263   5.491
 8772SOL     OW27214   6.271   6.658   0.433
 8772SOL    HW127215   6.286   6.596   0.355
 8772SOL    HW227216   6.357   6.700   0.459
 8773SOL     OW27217   4.896   1.917   3.438
 8773SOL    HW127218   4.965   1.845   3.439
 8773SOL    HW227219   4.821   1.892   3.500
 8774SOL     OW27220   2.412   1.642   0.402
 8774SOL    HW127221   2.345   1.636   0.328
 8774SOL    HW227222   2.498   1.600   0.373
 8775SOL     OW27223   6.088   0.512   4.753
 8775SOL    HW127224   6.068   0.417   4.727
 8775SOL    HW227225   6.068   0.572   4.676
 8776SOL     OW27226   2.893   3.422   4.742
 8776SOL    HW127227   2.844   3.400   4.826
 8776SOL    HW227228   2.919   3.519   4.743
 8777SOL     OW27229   0.135   4.410   1.239
 8777SOL    HW127230   0.227   4.376   1.256
 8777SOL    HW227231   0.127   4.438   1.143
 8778SOL     OW27232   6.599   2.444   4.508
 8778SOL    HW127233   6.564   2.374   4.570
 8778SOL    HW227234   6.629   2.524   4.561
 8779SOL     OW27235   2.361   5.150   1.788
 8779SOL    HW127236   2.442   5.154   1.729
 8779SOL    HW227237   2.387   5.114   1.877
 8780SOL     OW27238   1.343   5.692   3.651
 8780SOL    HW127239   1.377   5.774   3.605
 8780SOL    HW227240   1.401   5.614   3.628
 8781SOL     OW27241   6.613   2.383   4.252
 8781SOL    HW127242   6.586   2.400   4.346
 8781SOL    HW227243   6.682   2.449   4.224
 8782SOL     OW27244   5.230   0.614   1.777
 8782SOL    HW127245   5.305   0.579   1.721
 8782SOL    HW227246   5.170   0.672   1.720
 8783SOL     OW27247   6.005   3.360   3.642
 8783SOL    HW127248   6.064   3.284   3.670
 8783SOL    HW227249   6.024   3.440   3.699
 8784SOL     OW27250   5.221   4.122   4.876
 8784SOL    HW127251   5.276   4.042   4.901
 8784SOL    HW227252   5.124   4.099   4.881
 8785SOL     OW27253   6.126   3.557   0.051
 8785SOL    HW127254   6.174   3.483   0.003
 8785SOL    HW227255   6.127   3.639   7.023
 8786SOL     OW27256   2.775   6.184   0.236
 8786SOL    HW127257   2.810   6.252   0.301
 8786SOL    HW227258   2.683   6.156   0.265
 8787SOL     OW27259   1.668   2.855   2.108
 8787SOL    HW127260   1.637   2.941   2.149
 8787SOL    HW227261   1.755   2.828   2.148
 8788SOL     OW27262   6.755   2.016   5.521
 8788SOL    HW127263   6.744   1.986   5.616
 8788SOL    HW227264   6.668   2.051   5.486
 8789SOL     OW27265   6.284   6.964   5.654
 8789SOL    HW127266   6.217   6.919   5.713
 8789SOL    HW227267   6.372   6.917   5.661
 8790SOL     OW27268   6.842   0.912   0.560
 8790SOL    HW127269   6.883   0.998   0.588
 8790SOL    HW227270   6.772   0.928   0.490
 8791SOL     OW27271   5.295   6.781   5.096
 8791SOL    HW127272   5.346   6.865   5.082
 8791SOL    HW227273   5.220   6.776   5.031
 8792SOL     OW27274   4.093   6.285   2.997
 8792SOL    HW127275   4.046   6.242   3.074
 8792SOL    HW227276   4.076   6.383   2.999
 8793SOL     OW27277   1.912   5.473   3.810
 8793SOL    HW127278   2.001   5.514   3.830
 8793SOL    HW227279   1.848   5.545   3.783
 8794SOL     OW27280   3.743   6.563   1.775
 8794SOL    HW127281   3.675   6.500   1.810
 8794SOL    HW227282   3.822   6.565   1.837
 8795SOL     OW27283   1.550   6.545   5.075
 8795SOL    HW127284   1.609   6.604   5.020
 8795SOL    HW227285   1.601   6.510   5.154
 8796SOL     OW27286   4.060   0.417   5.238
 8796SOL    HW127287   4.072   0.505   5.191
 8796SOL    HW227288   4.075   0.431   5.336
 8797SOL     OW27289   0.837   6.767   5.193
 8797SOL    HW127290   0.868   6.729   5.281
 8797SOL    HW227291   0.910   6.757   5.125
 8798SOL     OW27292   5.164   4.513   5.136
 8798SOL    HW127293   5.218   4.485   5.056
 8798SOL    HW227294   5.146   4.611   5.131
 8799SOL     OW27295   1.934   4.759   3.027
 8799SOL    HW127296   2.015   4.749   2.970
 8799SOL    HW227297   1.933   4.688   3.097
 8800SOL     OW27298   6.061   3.954   4.815
 8800SOL    HW127299   6.079   4.052   4.814
 8800SOL    HW227300   5.975   3.935   4.767
 8801SOL     OW27301   1.758   1.624   4.574
 8801SOL    HW127302   1.724   1.583   4.490
 8801SOL    HW227303   1.739   1.722   4.575
 8802SOL     OW27304   1.328   0.461   0.685
 8802SOL    HW127305   1.416   0.445   0.729
 8802SOL    HW227306   1.310   0.388   0.619
 8803SOL     OW27307   1.573   5.049   5.903
 8803SOL    HW127308   1.636   5.028   5.978
 8803SOL    HW227309   1.484   5.076   5.940
 8804SOL     OW27310   2.898   0.675   1.945
 8804SOL    HW127311   2.860   0.634   2.028
 8804SOL    HW227312   2.987   0.634   1.925
 8805SOL     OW27313   2.597   0.638   3.895
 8805SOL    HW127314   2.678   0.664   3.948
 8805SOL    HW227315   2.590   0.539   3.890
 8806SOL     OW27316   1.627   5.280   1.764
 8806SOL    HW127317   1.645   5.374   1.790
 8806SOL    HW227318   1.540   5.250   1.802
 8807SOL     OW27319   6.616   6.177   6.051
 8807SOL    HW127320   6.673   6.258   6.068
 8807SOL    HW227321   6.671   6.106   6.008
 8808SOL     OW27322   5.398   1.583   0.874
 8808SOL    HW127323   5.432   1.676   0.868
 8808SOL    HW227324   5.339   1.573   0.954
 8809SOL     OW27325   5.225   4.157   2.628
 8809SOL    HW127326   5.283   4.122   2.702
 8809SOL    HW227327   5.249   4.253   2.610
 8810SOL     OW27328   5.662   1.623   5.966
 8810SOL    HW127329   5.601   1.544   5.973
 8810SOL    HW227330   5.738   1.612   6.031
 8811SOL     OW27331   2.959   1.908   3.732
 8811SOL    HW127332   2.966   1.917   3.633
 8811SOL    HW227333   3.019   1.834   3.763
 8812SOL     OW27334   1.354   0.726   0.693
 8812SOL    HW127335   1.330   0.630   0.703
 8812SOL    HW227336   1.334   0.756   0.600
 8813SOL     OW27337   1.077   4.697   1.342
 8813SOL    HW127338   1.108   4.792   1.332
 8813SOL    HW227339   1.047   4.682   1.436
 8814SOL     OW27340   6.332   0.796   0.795
 8814SOL    HW127341   6.363   0.866   0.859
 8814SOL    HW227342   6.409   0.740   0.766
 8815SOL     OW27343   6.774   6.411   0.821
 8815SOL    HW127344   6.701   6.426   0.887
 8815SOL    HW227345   6.838   6.343   0.857
 8816SOL     OW27346   2.031   0.187   0.432
 8816SOL    HW127347   2.005   0.098   0.470
 8816SOL    HW227348   2.113   0.177   0.376
 8817SOL     OW27349   0.619   5.991   5.997
 8817SOL    HW127350   0.600   5.893   6.004
 8817SOL    HW227351   0.640   6.015   5.902
 8818SOL     OW27352   0.387   3.534   3.530
 8818SOL    HW127353   0.344   3.577   3.451
 8818SOL    HW227354   0.329   3.459   3.563
 8819SOL     OW27355   4.271   5.487   3.938
 8819SOL    HW127356   4.203   5.555   3.911
 8819SOL    HW227357   4.289   5.496   4.036
 8820SOL     OW27358   2.502   1.844   4.265
 8820SOL    HW127359   2.535   1.793   4.345
 8820SOL    HW227360   2.525   1.940   4.275
 8821SOL     OW27361   1.908   5.987   0.452
 8821SOL    HW127362   1.837   5.952   0.512
 8821SOL    HW227363   1.979   5.918   0.439
 8822SOL     OW27364   1.118   0.395   3.195
 8822SOL    HW127365   1.103   0.312   3.249
 8822SOL    HW227366   1.120   0.373   3.098
 8823SOL     OW27367   2.098   0.828   0.906
 8823SOL    HW127368   2.103   0.728   0.911
 8823SOL    HW227369   2.098   0.866   0.999
 8824SOL     OW27370   1.811   3.861   1.061
 8824SOL    HW127371   1.841   3.772   1.027
 8824SOL    HW227372   1.711   3.862   1.071
 8825SOL     OW27373   1.804   0.789   3.432
 8825SOL    HW127374   1.804   0.776   3.531
 8825SOL    HW227375   1.735   0.857   3.407
 8826SOL     OW27376   6.340   2.318   0.438
 8826SOL    HW127377   6.384   2.298   0.350
 8826SOL    HW227378   6.404   2.298   0.512
 8827SOL     OW27379   3.369   1.706   3.105
 8827SOL    HW127380   3.372   1.649   3.187
 8827SOL    HW227381   3.281   1.754   3.101
 8828SOL     OW27382   4.509   5.509   4.333
 8828SOL    HW127383   4.470   5.420   4.356
 8828SOL    HW227384   4.608   5.500   4.320
 8829SOL     OW27385   0.254   2.719   0.054
 8829SOL    HW127386   0.223   2.651   0.120
 8829SOL    HW227387   0.319   2.677   7.019
 8830SOL     OW27388   0.577   1.237   1.109
 8830SOL    HW127389   0.645   1.164   1.116
 8830SOL    HW227390   0.532   1.248   1.198
 8831SOL     OW27391   5.534   1.183   3.512
 8831SOL    HW127392   5.461   1.241   3.548
 8831SOL    HW227393   5.500   1.130   3.434
 8832SOL     OW27394   6.294   6.213   2.836
 8832SOL    HW127395   6.234   6.285   2.871
 8832SOL    HW227396   6.360   6.187   2.907
 8833SOL     OW27397   2.000   6.440   5.505
 8833SOL    HW127398   2.025   6.375   5.576
 8833SOL    HW227399   2.076   6.504   5.490
 8834SOL     OW27400   5.491   3.868   4.486
 8834SOL    HW127401   5.474   3.780   4.531
 8834SOL    HW227402   5.427   3.936   4.520
 8835SOL     OW27403   6.400   1.006   6.062
 8835SOL    HW127404   6.379   0.916   6.022
 8835SOL    HW227405   6.352   1.077   6.011
 8836SOL     OW27406   4.460   1.148   6.935
 8836SOL    HW127407   4.390   1.184   6.875
 8836SOL    HW227408   4.531   1.217   6.950
 8837SOL     OW27409   0.560   6.559   2.612
 8837SOL    HW127410   0.494   6.632   2.632
 8837SOL    HW227411   0.580   6.508   2.695
 8838SOL     OW27412   3.023   4.835   3.130
 8838SOL    HW127413   3.065   4.851   3.041
 8838SOL    HW227414   2.961   4.911   3.151
 8839SOL     OW27415   5.235   5.492   2.215
 8839SOL    HW127416   5.283   5.502   2.127
 8839SOL    HW227417   5.209   5.397   2.228
 8840SOL     OW27418   6.759   2.310   2.086
 8840SOL    HW127419   6.856   2.321   2.063
 8840SOL    HW227420   6.745   2.222   2.130
 8841SOL     OW27421   1.542   0.902   4.896
 8841SOL    HW127422   1.629   0.874   4.855
 8841SOL    HW227423   1.500   0.824   4.942
 8842SOL     OW27424   3.583   2.946   0.653
 8842SOL    HW127425   3.526   2.964   0.572
 8842SOL    HW227426   3.557   3.009   0.726
 8843SOL     OW27427   1.953   3.314   5.108
 8843SOL    HW127428   1.994   3.265   5.031
 8843SOL    HW227429   1.925   3.406   5.078
 8844SOL     OW27430   5.549   0.944   0.297
 8844SOL    HW127431   5.578   1.035   0.326
 8844SOL    HW227432   5.501   0.899   0.373
 8845SOL     OW27433   4.518   4.448   6.927
 8845SOL    HW127434   4.460   4.392   6.869
 8845SOL    HW227435   4.609   4.456   6.886
 8846SOL     OW27436   2.031   5.869   3.844
 8846SOL    HW127437   2.097   5.797   3.824
 8846SOL    HW227438   1.996   5.857   3.937
 8847SOL     OW27439   2.708   0.756   2.928
 8847SOL    HW127440   2.744   0.663   2.932
 8847SOL    HW227441   2.756   0.808   2.859
 8848SOL     OW27442   2.574   0.745   1.625
 8848SOL    HW127443   2.515   0.792   1.691
 8848SOL    HW227444   2.547   0.772   1.532
 8849SOL     OW27445   3.015   6.353   3.086
 8849SOL    HW127446   2.937   6.367   3.146
 8849SOL    HW227447   2.996   6.391   2.995
 8850SOL     OW27448   1.222   1.792   0.119
 8850SOL    HW127449   1.169   1.710   0.140
 8850SOL    HW227450   1.162   1.871   0.114
 8851SOL     OW27451   1.753   4.425   2.104
 8851SOL    HW127452   1.749   4.465   2.195
 8851SOL    HW227453   1.788   4.331   2.110
 8852SOL     OW27454   0.887   1.719   5.276
 8852SOL    HW127455   0.871   1.625   5.304
 8852SOL    HW227456   0.974   1.751   5.315
 8853SOL     OW27457   2.700   0.936   1.982
 8853SOL    HW127458   2.781   0.895   1.940
 8853SOL    HW227459   2.681   0.890   2.069
 8854SOL     OW27460   1.853   2.966   4.573
 8854SOL    HW127461   1.892   2.933   4.659
 8854SOL    HW227462   1.907   3.043   4.539
 8855SOL     OW27463   6.302   4.993   1.416
 8855SOL    HW127464   6.253   5.073   1.380
 8855SOL    HW227465   6.373   5.023   1.479
 8856SOL     OW27466   6.803   6.307   6.650
 8856SOL    HW127467   6.893   6.266   6.665
 8856SOL    HW227468   6.770   6.281   6.559
 8857SOL     OW27469   6.906   1.815   5.165
 8857SOL    HW127470   6.867   1.853   5.081
 8857SOL    HW227471   6.910   1.715   5.157
 8858SOL     OW27472   0.397   5.058   4.734
 8858SOL    HW127473   0.367   5.001   4.658
 8858SOL    HW227474   0.415   5.000   4.814
 8859SOL     OW27475   1.093   1.247   3.844
 8859SOL    HW127476   1.124   1.331   3.891
 8859SOL    HW227477   1.032   1.196   3.905
 8860SOL     OW27478   6.723   2.788   1.673
 8860SOL    HW127479   6.627   2.765   1.655
 8860SOL    HW227480   6.776   2.703   1.677
 8861SOL     OW27481   3.818   1.062   0.254
 8861SOL    HW127482   3.818   0.980   0.197
 8861SOL    HW227483   3.908   1.073   0.297
 8862SOL     OW27484   5.203   6.361   3.667
 8862SOL    HW127485   5.121   6.317   3.630
 8862SOL    HW227486   5.176   6.439   3.723
 8863SOL     OW27487   1.906   5.170   3.325
 8863SOL    HW127488   1.857   5.251   3.291
 8863SOL    HW227489   1.923   5.182   3.423
 8864SOL     OW27490   4.379   4.182   6.852
 8864SOL    HW127491   4.463   4.188   6.798
 8864SOL    HW227492   4.303   4.221   6.800
 8865SOL     OW27493   3.144   0.996   5.455
 8865SOL    HW127494   3.061   0.974   5.404
 8865SOL    HW227495   3.211   1.039   5.394
 8866SOL     OW27496   5.215   6.832   2.960
 8866SOL    HW127497   5.288   6.802   3.021
 8866SOL    HW227498   5.138   6.866   3.014
 8867SOL     OW27499   6.455   3.906   3.763
 8867SOL    HW127500   6.382   3.847   3.797
 8867SOL    HW227501   6.416   3.982   3.711
 8868SOL     OW27502   6.774   3.758   2.596
 8868SOL    HW127503   6.728   3.844   2.571
 8868SOL    HW227504   6.732   3.722   2.679
 8869SOL     OW27505   3.914   6.037   5.107
 8869SOL    HW127506   3.844   5.971   5.080
 8869SOL    HW227507   3.870   6.118   5.145
 8870SOL     OW27508   2.014   6.579   1.492
 8870SOL    HW127509   1.943   6.521   1.453
 8870SOL    HW227510   1.977   6.671   1.508
 8871SOL     OW27511   2.003   1.267   3.364
 8871SOL    HW127512   1.946   1.229   3.291
 8871SOL    HW227513   1.990   1.366   3.368
 8872SOL     OW27514   1.006   4.891   6.400
 8872SOL    HW127515   0.998   4.963   6.469
 8872SOL    HW227516   0.994   4.931   6.309
 8873SOL     OW27517   1.658   0.181   1.442
 8873SOL    HW127518   1.689   0.260   1.495
 8873SOL    HW227519   1.601   0.123   1.501
 8874SOL     OW27520   1.272   6.068   2.100
 8874SOL    HW127521   1.230   6.085   2.011
 8874SOL    HW227522   1.230   6.129   2.168
 8875SOL     OW27523   0.175   3.525   4.007
 8875SOL    HW127524   0.084   3.494   3.978
 8875SOL    HW227525   0.166   3.585   4.086
 8876SOL     OW27526   2.647   0.784   6.795
 8876SOL    HW127527   2.734   0.780   6.745
 8876SOL    HW227528   2.666   0.790   6.893
 8877SOL     OW27529   1.689   3.537   2.818
 8877SOL    HW127530   1.648   3.627   2.803
 8877SOL    HW227531   1.747   3.513   2.740
 8878SOL     OW27532   3.515   4.949   0.562
 8878SOL    HW127533   3.499   5.001   0.646
 8878SOL    HW227534   3.483   4.856   0.574
 8879SOL     OW27535   6.070   4.936   2.214
 8879SOL    HW127536   6.071   4.886   2.127
 8879SOL    HW227537   6.164   4.959   2.240
 8880SOL     OW27538   4.169   6.323   4.325
 8880SOL    HW127539   4.268   6.334   4.333
 8880SOL    HW227540   4.136   6.257   4.392
 8881SOL     OW27541   5.000   5.279   4.565
 8881SOL    HW127542   5.008   5.225   4.481
 8881SOL    HW227543   5.001   5.376   4.542
 8882SOL     OW27544   3.435   0.830   0.528
 8882SOL    HW127545   3.504   0.769   0.569
 8882SOL    HW227546   3.466   0.925   0.536
 8883SOL     OW27547   0.941   5.762   5.948
 8883SOL    HW127548   0.913   5.761   6.044
 8883SOL    HW227549   1.004   5.839   5.933
 8884SOL     OW27550   6.200   3.978   5.228
 8884SOL    HW127551   6.182   3.891   5.273
 8884SOL    HW227552   6.128   4.044   5.252
 8885SOL     OW27553   5.127   4.772   0.238
 8885SOL    HW127554   5.059   4.845   0.241
 8885SOL    HW227555   5.197   4.788   0.308
 8886SOL     OW27556   3.862   5.498   6.061
 8886SOL    HW127557   3.835   5.426   5.997
 8886SOL    HW227558   3.861   5.462   6.154
 8887SOL     OW27559   4.070   1.420   0.959
 8887SOL    HW127560   4.049   1.473   0.877
 8887SOL    HW227561   4.166   1.432   0.983
 8888SOL     OW27562   2.631   2.146   3.706
 8888SOL    HW127563   2.685   2.082   3.760
 8888SOL    HW227564   2.538   2.111   3.696
 8889SOL     OW27565   6.806   6.372   6.013
 8889SOL    HW127566   6.898   6.337   5.998
 8889SOL    HW227567   6.790   6.451   5.953
 8890SOL     OW27568   0.723   6.149   6.835
 8890SOL    HW127569   0.737   6.065   6.782
 8890SOL    HW227570   0.625   6.162   6.852
 8891SOL     OW27571   4.299   4.295   0.073
 8891SOL    HW127572   4.330   4.247   7.019
 8891SOL    HW227573   4.350   4.261   0.152
 8892SOL     OW27574   3.905   4.831   3.656
 8892SOL    HW127575   3.892   4.923   3.620
 8892SOL    HW227576   3.817   4.786   3.666
 8893SOL     OW27577   1.505   5.695   5.329
 8893SOL    HW127578   1.595   5.650   5.331
 8893SOL    HW227579   1.495   5.751   5.411
 8894SOL     OW27580   3.927   1.856   0.109
 8894SOL    HW127581   4.023   1.872   0.133
 8894SOL    HW227582   3.895   1.772   0.153
 8895SOL     OW27583   0.644   2.688   0.724
 8895SOL    HW127584   0.627   2.756   0.653
 8895SOL    HW227585   0.634   2.730   0.814
 8896SOL     OW27586   1.831   2.966   5.037
 8896SOL    HW127587   1.921   3.000   5.010
 8896SOL    HW227588   1.765   2.987   4.965
 8897SOL     OW27589   2.096   3.855   3.492
 8897SOL    HW127590   2.108   3.805   3.406
 8897SOL    HW227591   2.003   3.842   3.525
 8898SOL     OW27592   5.718   3.902   2.256
 8898SOL    HW127593   5.725   3.977   2.323
 8898SOL    HW227594   5.791   3.836   2.274
 8899SOL     OW27595   0.091   4.667   6.852
 8899SOL    HW127596   0.131   4.594   6.797
 8899SOL    HW227597   0.074   4.632   6.945
 8900SOL     OW27598   5.590   2.471   3.342
 8900SOL    HW127599   5.655   2.532   3.386
 8900SOL    HW227600   5.529   2.430   3.411
 8901SOL     OW27601   1.062   1.488   3.494
 8901SOL    HW127602   1.103   1.422   3.430
 8901SOL    HW227603   1.122   1.567   3.503
 8902SOL     OW27604   1.769   5.499   6.545
 8902SOL    HW127605   1.710   5.546   6.612
 8902SOL    HW227606   1.863   5.531   6.555
 8903SOL     OW27607   1.237   1.996   4.688
 8903SOL    HW127608   1.311   2.037   4.742
 8903SOL    HW227609   1.249   2.021   4.592
 8904SOL     OW27610   1.143   2.350   3.262
 8904SOL    HW127611   1.231   2.338   3.216
 8904SOL    HW227612   1.070   2.315   3.203
 8905SOL     OW27613   1.651   3.317   2.551
 8905SOL    HW127614   1.593   3.397   2.566
 8905SOL    HW227615   1.667   3.306   2.453
 8906SOL     OW27616   1.313   6.053   1.057
 8906SOL    HW127617   1.354   5.991   1.124
 8906SOL    HW227618   1.379   6.124   1.032
 8907SOL     OW27619   2.999   2.670   5.329
 8907SOL    HW127620   3.058   2.750   5.314
 8907SOL    HW227621   3.054   2.593   5.359
 8908SOL     OW27622   1.868   4.676   0.077
 8908SOL    HW127623   1.839   4.593   0.028
 8908SOL    HW227624   1.835   4.756   0.028
 8909SOL     OW27625   3.030   0.716   6.182
 8909SOL    HW127626   3.048   0.668   6.268
 8909SOL    HW227627   3.103   0.783   6.166
 8910SOL     OW27628   0.257   3.258   5.277
 8910SOL    HW127629   0.317   3.217   5.209
 8910SOL    HW227630   0.194   3.189   5.313
 8911SOL     OW27631   5.527   3.010   4.791
 8911SOL    HW127632   5.624   3.033   4.799
 8911SOL    HW227633   5.517   2.914   4.764
 8912SOL     OW27634   3.135   2.968   6.112
 8912SOL    HW127635   3.137   3.021   6.197
 8912SOL    HW227636   3.151   2.871   6.132
 8913SOL     OW27637   4.612   4.967   6.827
 8913SOL    HW127638   4.544   4.930   6.764
 8913SOL    HW227639   4.606   5.067   6.827
 8914SOL     OW27640   4.892   0.029   4.786
 8914SOL    HW127641   4.805   7.010   4.804
 8914SOL    HW227642   4.961   7.026   4.851
 8915SOL     OW27643   1.505   1.997   4.512
 8915SOL    HW127644   1.554   1.957   4.589
 8915SOL    HW227645   1.512   1.936   4.433
 8916SOL     OW27646   6.167   2.272   6.760
 8916SOL    HW127647   6.146   2.348   6.698
 8916SOL    HW227648   6.156   2.186   6.711
 8917SOL     OW27649   5.365   2.108   0.676
 8917SOL    HW127650   5.394   2.166   0.599
 8917SOL    HW227651   5.355   2.014   0.645
 8918SOL     OW27652   1.566   5.308   0.892
 8918SOL    HW127653   1.506   5.359   0.954
 8918SOL    HW227654   1.649   5.281   0.941
 8919SOL     OW27655   5.045   4.648   6.334
 8919SOL    HW127656   4.980   4.629   6.261
 8919SOL    HW227657   4.995   4.657   6.421
 8920SOL     OW27658   0.718   2.212   6.504
 8920SOL    HW127659   0.754   2.236   6.414
 8920SOL    HW227660   0.672   2.291   6.544
 8921SOL     OW27661   1.684   2.631   1.450
 8921SOL    HW127662   1.654   2.578   1.529
 8921SOL    HW227663   1.701   2.726   1.478
 8922SOL     OW27664   3.917   6.621   2.078
 8922SOL    HW127665   3.839   6.576   2.122
 8922SOL    HW227666   3.994   6.557   2.074
 8923SOL     OW27667   1.257   1.541   5.448
 8923SOL    HW127668   1.263   1.635   5.482
 8923SOL    HW227669   1.338   1.521   5.393
 8924SOL     OW27670   5.075   5.383   5.286
 8924SOL    HW127671   4.983   5.357   5.316
 8924SOL    HW227672   5.068   5.453   5.216
 8925SOL     OW27673   6.654   6.919   2.355
 8925SOL    HW127674   6.595   6.867   2.294
 8925SOL    HW227675   6.748   6.887   2.345
 8926SOL     OW27676   6.470   3.433   5.222
 8926SOL    HW127677   6.411   3.501   5.180
 8926SOL    HW227678   6.531   3.477   5.288
 8927SOL     OW27679   6.518   1.631   4.964
 8927SOL    HW127680   6.478   1.553   5.011
 8927SOL    HW227681   6.509   1.618   4.865
 8928SOL     OW27682   1.266   6.991   6.186
 8928SOL    HW127683   1.302   7.023   6.098
 8928SOL    HW227684   1.316   6.909   6.215
 8929SOL     OW27685   6.599   1.997   5.040
 8929SOL    HW127686   6.597   1.951   4.951
 8929SOL    HW227687   6.579   1.931   5.112
 8930SOL     OW27688   0.628   3.098   3.058
 8930SOL    HW127689   0.626   3.170   2.988
 8930SOL    HW227690   0.686   3.128   3.134
 8931SOL     OW27691   3.147   3.078   1.662
 8931SOL    HW127692   3.052   3.070   1.694
 8931SOL    HW227693   3.207   3.096   1.739
 8932SOL     OW27694   6.802   2.260   2.451
 8932SOL    HW127695   6.886   2.308   2.476
 8932SOL    HW227696   6.825   2.171   2.412
 8933SOL     OW27697   3.039   2.535   6.661
 8933SOL    HW127698   3.072   2.624   6.693
 8933SOL    HW227699   3.074   2.463   6.721
 8934SOL     OW27700   3.833   5.104   5.206
 8934SOL    HW127701   3.843   5.202   5.222
 8934SOL    HW227702   3.810   5.058   5.292
 8935SOL     OW27703   0.360   4.561   0.246
 8935SOL    HW127704   0.323   4.652   0.265
 8935SOL    HW227705   0.459   4.566   0.242
 8936SOL     OW27706   1.533   3.868   0.371
 8936SOL    HW127707   1.436   3.871   0.347
 8936SOL    HW227708   1.564   3.959   0.398
 8937SOL     OW27709   0.543   0.038   4.846
 8937SOL    HW127710   0.567   0.103   4.774
 8937SOL    HW227711   0.481   6.997   4.810
 8938SOL     OW27712   0.409   5.457   0.597
 8938SOL    HW127713   0.487   5.394   0.606
 8938SOL    HW227714   0.413   5.503   0.509
 8939SOL     OW27715   4.716   2.790   4.206
 8939SOL    HW127716   4.778   2.859   4.244
 8939SOL    HW227717   4.676   2.825   4.121
 8940SOL     OW27718   0.167   1.146   4.050
 8940SOL    HW127719   0.160   1.161   3.951
 8940SOL    HW227720   0.095   1.082   4.078
 8941SOL     OW27721   5.510   2.629   5.360
 8941SOL    HW127722   5.562   2.691   5.301
 8941SOL    HW227723   5.426   2.601   5.314
 8942SOL     OW27724   1.006   4.216   5.489
 8942SOL    HW127725   0.943   4.144   5.459
 8942SOL    HW227726   0.997   4.230   5.588
 8943SOL     OW27727   3.836   3.897   0.279
 8943SOL    HW127728   3.865   3.985   0.242
 8943SOL    HW227729   3.911   3.831   0.271
 8944SOL     OW27730   5.087   4.763   5.148
 8944SOL    HW127731   4.989   4.776   5.165
 8944SOL    HW227732   5.134   4.850   5.163
 8945SOL     OW27733   1.892   0.872   3.937
 8945SOL    HW127734   1.988   0.891   3.916
 8945SOL    HW227735   1.846   0.840   3.854
 8946SOL     OW27736   2.949   1.483   4.847
 8946SOL    HW127737   2.992   1.445   4.765
 8946SOL    HW227738   2.999   1.453   4.928
 8947SOL     OW27739   1.142   3.957   5.241
 8947SOL    HW127740   1.239   3.943   5.221
 8947SOL    HW227741   1.103   4.020   5.174
 8948SOL     OW27742   6.243   5.925   4.108
 8948SOL    HW127743   6.221   5.851   4.172
 8948SOL    HW227744   6.162   5.981   4.094
 8949SOL     OW27745   2.166   0.363   0.688
 8949SOL    HW127746   2.243   0.426   0.693
 8949SOL    HW227747   2.081   0.414   0.696
 8950SOL     OW27748   4.650   3.486   5.743
 8950SOL    HW127749   4.692   3.495   5.833
 8950SOL    HW227750   4.700   3.420   5.688
 8951SOL     OW27751   0.773   2.282   4.961
 8951SOL    HW127752   0.708   2.241   4.897
 8951SOL    HW227753   0.852   2.317   4.911
 8952SOL     OW27754   1.204   6.971   2.096
 8952SOL    HW127755   1.156   6.954   2.010
 8952SOL    HW227756   1.251   6.888   2.125
 8953SOL     OW27757   0.868   4.204   6.819
 8953SOL    HW127758   0.923   4.276   6.776
 8953SOL    HW227759   0.897   4.193   6.914
 8954SOL     OW27760   0.331   6.357   6.444
 8954SOL    HW127761   0.362   6.438   6.395
 8954SOL    HW227762   0.381   6.277   6.411
 8955SOL     OW27763   0.392   4.495   2.473
 8955SOL    HW127764   0.295   4.513   2.489
 8955SOL    HW227765   0.415   4.403   2.506
 8956SOL     OW27766   7.008   1.828   6.878
 8956SOL    HW127767   6.929   1.853   6.822
 8956SOL    HW227768   6.994   1.863   6.971
 8957SOL     OW27769   3.121   4.280   1.702
 8957SOL    HW127770   3.052   4.318   1.764
 8957SOL    HW227771   3.180   4.354   1.669
 8958SOL     OW27772   1.042   0.542   4.369
 8958SOL    HW127773   1.076   0.590   4.289
 8958SOL    HW227774   1.069   0.591   4.452
 8959SOL     OW27775   1.521   4.581   1.127
 8959SOL    HW127776   1.450   4.513   1.142
 8959SOL    HW227777   1.501   4.633   1.044
 8960SOL     OW27778   4.958   5.870   2.113
 8960SOL    HW127779   4.871   5.891   2.159
 8960SOL    HW227780   5.007   5.801   2.165
 8961SOL     OW27781   2.432   2.716   4.497
 8961SOL    HW127782   2.521   2.695   4.456
 8961SOL    HW227783   2.435   2.693   4.595
 8962SOL     OW27784   6.562   6.492   2.760
 8962SOL    HW127785   6.517   6.426   2.700
 8962SOL    HW227786   6.645   6.451   2.798
 8963SOL     OW27787   4.765   6.831   4.381
 8963SOL    HW127788   4.816   6.901   4.331
 8963SOL    HW227789   4.823   6.791   4.452
 8964SOL     OW27790   6.090   3.568   3.825
 8964SOL    HW127791   6.081   3.637   3.753
 8964SOL    HW227792   6.043   3.598   3.907
 8965SOL     OW27793   2.092   5.214   0.570
 8965SOL    HW127794   2.089   5.310   0.545
 8965SOL    HW227795   2.083   5.204   0.670
 8966SOL     OW27796   1.718   4.150   5.362
 8966SOL    HW127797   1.681   4.112   5.447
 8966SOL    HW227798   1.818   4.158   5.370
 8967SOL     OW27799   3.286   6.129   1.531
 8967SOL    HW127800   3.255   6.210   1.482
 8967SOL    HW227801   3.386   6.124   1.525
 8968SOL     OW27802   5.008   4.928   2.387
 8968SOL    HW127803   4.977   4.842   2.346
 8968SOL    HW227804   5.099   4.950   2.351
 8969SOL     OW27805   6.342   0.097   3.977
 8969SOL    HW127806   6.380   0.089   3.884
 8969SOL    HW227807   6.334   0.193   4.002
 8970SOL     OW27808   3.426   2.596   0.219
 8970SOL    HW127809   3.473   2.651   0.288
 8970SOL    HW227810   3.467   2.505   0.214
 8971SOL     OW27811   4.104   5.357   2.154
 8971SOL    HW127812   4.039   5.330   2.083
 8971SOL    HW227813   4.088   5.452   2.180
 8972SOL     OW27814   5.070   5.388   6.237
 8972SOL    HW127815   5.028   5.453   6.301
 8972SOL    HW227816   5.169   5.400   6.239
 8973SOL     OW27817   1.140   3.040   2.210
 8973SOL    HW127818   1.057   3.095   2.217
 8973SOL    HW227819   1.130   2.976   2.134
 8974SOL     OW27820   1.419   4.314   5.586
 8974SOL    HW127821   1.492   4.363   5.537
 8974SOL    HW227822   1.369   4.257   5.521
 8975SOL     OW27823   2.518   0.070   6.764
 8975SOL    HW127824   2.611   0.031   6.767
 8975SOL    HW227825   2.452   7.024   6.748
 8976SOL     OW27826   0.880   5.303   5.139
 8976SOL    HW127827   0.829   5.217   5.134
 8976SOL    HW227828   0.899   5.325   5.235
 8977SOL     OW27829   5.873   1.291   6.699
 8977SOL    HW127830   5.869   1.191   6.704
 8977SOL    HW227831   5.964   1.322   6.729
 8978SOL     OW27832   5.951   6.839   6.280
 8978SOL    HW127833   5.935   6.936   6.265
 8978SOL    HW227834   6.030   6.810   6.227
 8979SOL     OW27835   1.430   3.273   4.335
 8979SOL    HW127836   1.352   3.284   4.396
 8979SOL    HW227837   1.498   3.213   4.377
 8980SOL     OW27838   2.402   3.246   5.333
 8980SOL    HW127839   2.342   3.278   5.260
 8980SOL    HW227840   2.453   3.166   5.301
 8981SOL     OW27841   3.705   1.695   5.247
 8981SOL    HW127842   3.771   1.746   5.303
 8981SOL    HW227843   3.625   1.751   5.231
 8982SOL     OW27844   1.465   2.503   0.327
 8982SOL    HW127845   1.558   2.526   0.355
 8982SOL    HW227846   1.404   2.505   0.407
 8983SOL     OW27847   2.797   6.542   6.465
 8983SOL    HW127848   2.850   6.523   6.382
 8983SOL    HW227849   2.719   6.480   6.470
 8984SOL     OW27850   0.737   0.130   3.865
 8984SOL    HW127851   0.647   0.101   3.835
 8984SOL    HW227852   0.788   0.052   3.901
 8985SOL     OW27853   3.440   2.394   0.542
 8985SOL    HW127854   3.448   2.347   0.455
 8985SOL    HW227855   3.522   2.449   0.559
 8986SOL     OW27856   4.337   5.711   2.676
 8986SOL    HW127857   4.240   5.722   2.698
 8986SOL    HW227858   4.347   5.662   2.590
 8987SOL     OW27859   4.495   6.561   1.869
 8987SOL    HW127860   4.585   6.521   1.881
 8987SOL    HW227861   4.458   6.589   1.958
 8988SOL     OW27862   1.290   4.729   4.805
 8988SOL    HW127863   1.219   4.659   4.805
 8988SOL    HW227864   1.330   4.736   4.897
 8989SOL     OW27865   4.974   3.533   0.503
 8989SOL    HW127866   5.048   3.587   0.462
 8989SOL    HW227867   4.891   3.546   0.450
 8990SOL     OW27868   1.653   5.791   4.657
 8990SOL    HW127869   1.726   5.811   4.723
 8990SOL    HW227870   1.668   5.701   4.617
 8991SOL     OW27871   1.829   2.632   4.595
 8991SOL    HW127872   1.925   2.607   4.578
 8991SOL    HW227873   1.771   2.578   4.534
 8992SOL     OW27874   4.508   1.303   0.524
 8992SOL    HW127875   4.585   1.367   0.521
 8992SOL    HW227876   4.480   1.289   0.619
 8993SOL     OW27877   4.610   2.762   0.954
 8993SOL    HW127878   4.532   2.759   0.891
 8993SOL    HW227879   4.610   2.848   1.004
 8994SOL     OW27880   1.563   4.243   5.167
 8994SOL    HW127881   1.615   4.199   5.241
 8994SOL    HW227882   1.627   4.283   5.101
 8995SOL     OW27883   1.283   2.349   0.202
 8995SOL    HW127884   1.359   2.408   0.232
 8995SOL    HW227885   1.300   2.255   0.231
 8996SOL     OW27886   5.135   4.295   6.661
 8996SOL    HW127887   5.163   4.209   6.705
 8996SOL    HW227888   5.188   4.370   6.699
 8997SOL     OW27889   5.120   2.034   6.324
 8997SOL    HW127890   5.180   1.954   6.332
 8997SOL    HW227891   5.080   2.055   6.413
 8998SOL     OW27892   6.326   3.659   4.345
 8998SOL    HW127893   6.273   3.742   4.328
 8998SOL    HW227894   6.350   3.616   4.258
 8999SOL     OW27895   5.000   6.396   5.960
 8999SOL    HW127896   4.926   6.375   6.023
 8999SOL    HW227897   5.024   6.492   5.966
 9000SOL     OW27898   1.563   3.005   1.412
 9000SOL    HW127899   1.570   3.102   1.435
 9000SOL    HW227900   1.646   2.958   1.444
 9001SOL     OW27901   1.106   4.365   2.322
 9001SOL    HW127902   1.025   4.423   2.313
 9001SOL    HW227903   1.099   4.288   2.259
 9002SOL     OW27904   1.939   5.209   5.153
 9002SOL    HW127905   1.898   5.142   5.215
 9002SOL    HW227906   1.932   5.175   5.059
 9003SOL     OW27907   5.864   4.056   1.746
 9003SOL    HW127908   5.853   3.993   1.823
 9003SOL    HW227909   5.958   4.088   1.743
 9004SOL     OW27910   4.104   6.102   1.087
 9004SOL    HW127911   4.200   6.129   1.095
 9004SOL    HW227912   4.084   6.074   0.993
 9005SOL     OW27913   6.706   2.241   5.127
 9005SOL    HW127914   6.660   2.168   5.076
 9005SOL    HW227915   6.805   2.228   5.121
 9006SOL     OW27916   2.002   5.672   1.127
 9006SOL    HW127917   2.039   5.668   1.220
 9006SOL    HW227918   1.909   5.709   1.130
 9007SOL     OW27919   3.424   1.026   3.363
 9007SOL    HW127920   3.364   0.958   3.406
 9007SOL    HW227921   3.382   1.059   3.279
 9008SOL     OW27922   0.949   5.346   3.136
 9008SOL    HW127923   1.006   5.337   3.217
 9008SOL    HW227924   0.852   5.342   3.163
 9009SOL     OW27925   2.584   5.754   0.960
 9009SOL    HW127926   2.673   5.757   0.914
 9009SOL    HW227927   2.529   5.833   0.932
 9010SOL     OW27928   1.489   6.506   4.228
 9010SOL    HW127929   1.456   6.542   4.141
 9010SOL    HW227930   1.551   6.430   4.211
 9011SOL     OW27931   5.079   1.211   1.115
 9011SOL    HW127932   5.071   1.295   1.168
 9011SOL    HW227933   4.988   1.177   1.091
 9012SOL     OW27934   2.202   4.621   6.862
 9012SOL    HW127935   2.295   4.647   6.834
 9012SOL    HW227936   2.181   4.664   6.950
 9013SOL     OW27937   6.937   0.139   6.252
 9013SOL    HW127938   6.857   0.192   6.224
 9013SOL    HW227939   7.015   0.201   6.265
 9014SOL     OW27940   6.855   2.103   0.590
 9014SOL    HW127941   6.905   2.158   0.657
 9014SOL    HW227942   6.816   2.023   0.635
 9015SOL     OW27943   4.621   2.327   1.750
 9015SOL    HW127944   4.582   2.412   1.714
 9015SOL    HW227945   4.571   2.300   1.832
 9016SOL     OW27946   0.080   6.378   6.530
 9016SOL    HW127947   0.178   6.387   6.514
 9016SOL    HW227948   0.032   6.456   6.489
 9017SOL     OW27949   4.801   1.473   4.290
 9017SOL    HW127950   4.813   1.486   4.191
 9017SOL    HW227951   4.718   1.521   4.320
 9018SOL     OW27952   2.742   3.045   6.417
 9018SOL    HW127953   2.668   3.094   6.371
 9018SOL    HW227954   2.727   2.947   6.409
 9019SOL     OW27955   1.575   4.782   2.463
 9019SOL    HW127956   1.587   4.720   2.541
 9019SOL    HW227957   1.481   4.816   2.462
 9020SOL     OW27958   6.913   3.781   0.909
 9020SOL    HW127959   6.818   3.813   0.900
 9020SOL    HW227960   6.952   3.766   0.818
 9021SOL     OW27961   0.181   0.573   3.465
 9021SOL    HW127962   0.250   0.590   3.394
 9021SOL    HW227963   0.104   0.523   3.426
 9022SOL     OW27964   2.659   1.165   6.882
 9022SOL    HW127965   2.572   1.122   6.906
 9022SOL    HW227966   2.676   1.154   6.784
 9023SOL     OW27967   3.457   3.329   1.981
 9023SOL    HW127968   3.551   3.297   1.970
 9023SOL    HW227969   3.453   3.427   1.962
 9024SOL     OW27970   1.439   3.761   5.848
 9024SOL    HW127971   1.365   3.812   5.804
 9024SOL    HW227972   1.522   3.768   5.792
 9025SOL     OW27973   0.578   5.233   0.629
 9025SOL    HW127974   0.586   5.172   0.708
 9025SOL    HW227975   0.569   5.179   0.546
 9026SOL     OW27976   3.367   2.853   0.967
 9026SOL    HW127977   3.391   2.775   0.909
 9026SOL    HW227978   3.369   2.937   0.914
 9027SOL     OW27979   0.739   3.019   2.683
 9027SOL    HW127980   0.694   2.941   2.638
 9027SOL    HW227981   0.760   3.089   2.614
 9028SOL     OW27982   3.217   2.889   5.325
 9028SOL    HW127983   3.214   2.980   5.367
 9028SOL    HW227984   3.257   2.824   5.389
 9029SOL     OW27985   3.659   6.799   5.074
 9029SOL    HW127986   3.635   6.871   5.140
 9029SOL    HW227987   3.715   6.839   5.001
 9030SOL     OW27988   1.987   2.193   3.668
 9030SOL    HW127989   1.963   2.114   3.725
 9030SOL    HW227990   1.963   2.277   3.715
 9031SOL     OW27991   4.178   6.059   4.189
 9031SOL    HW127992   4.103   5.992   4.192
 9031SOL    HW227993   4.160   6.131   4.255
 9032SOL     OW27994   4.445   3.844   1.202
 9032SOL    HW127995   4.427   3.922   1.141
 9032SOL    HW227996   4.406   3.761   1.162
 9033SOL     OW27997   0.346   4.235   2.490
 9033SOL    HW127998   0.290   4.189   2.420
 9033SOL    HW227999   0.331   4.191   2.578
 9034SOL     OW28000   2.828   6.216   4.447
 9034SOL    HW128001   2.734   6.249   4.441
 9034SOL    HW228002   2.831   6.119   4.421
 9035SOL     OW28003   2.753   4.484   7.017
 9035SOL    HW128004   2.681   4.451   6.956
 9035SOL    HW228005   2.742   4.443   0.079
 9036SOL     OW28006   2.013   3.295   5.850
 9036SOL    HW128007   2.017   3.391   5.879
 9036SOL    HW228008   2.084   3.243   5.897
 9037SOL     OW28009   1.239   4.350   4.703
 9037SOL    HW128010   1.194   4.298   4.631
 9037SOL    HW228011   1.338   4.354   4.685
 9038SOL     OW28012   4.400   1.468   6.402
 9038SOL    HW128013   4.375   1.540   6.467
 9038SOL    HW228014   4.338   1.390   6.413
 9039SOL     OW28015   2.289   5.017   6.177
 9039SOL    HW128016   2.198   4.980   6.157
 9039SOL    HW228017   2.358   4.948   6.156
 9040SOL     OW28018   2.676   2.360   2.748
 9040SOL    HW128019   2.609   2.435   2.748
 9040SOL    HW228020   2.685   2.323   2.656
 9041SOL     OW28021   1.070   2.329   1.216
 9041SOL    HW128022   1.167   2.308   1.213
 9041SOL    HW228023   1.017   2.250   1.186
 9042SOL     OW28024   4.217   0.125   4.626
 9042SOL    HW128025   4.248   0.090   4.538
 9042SOL    HW228026   4.265   0.078   4.700
 9043SOL     OW28027   1.948   0.992   6.284
 9043SOL    HW128028   2.027   1.011   6.226
 9043SOL    HW228029   1.977   0.943   6.366
 9044SOL     OW28030   6.345   0.165   0.610
 9044SOL    HW128031   6.356   0.071   0.644
 9044SOL    HW228032   6.319   0.163   0.514
 9045SOL     OW28033   3.389   1.403   2.638
 9045SOL    HW128034   3.298   1.366   2.658
 9045SOL    HW228035   3.436   1.423   2.724
 9046SOL     OW28036   3.377   3.967   2.999
 9046SOL    HW128037   3.303   4.009   2.945
 9046SOL    HW228038   3.383   4.013   3.088
 9047SOL     OW28039   1.800   3.582   4.835
 9047SOL    HW128040   1.861   3.608   4.761
 9047SOL    HW228041   1.751   3.663   4.868
 9048SOL     OW28042   6.488   2.949   6.218
 9048SOL    HW128043   6.531   2.984   6.135
 9048SOL    HW228044   6.558   2.917   6.282
 9049SOL     OW28045   4.358   6.539   5.412
 9049SOL    HW128046   4.310   6.604   5.354
 9049SOL    HW228047   4.297   6.463   5.436
 9050SOL     OW28048   0.797   3.880   0.865
 9050SOL    HW128049   0.717   3.881   0.805
 9050SOL    HW228050   0.863   3.948   0.834
 9051SOL     OW28051   3.165   0.284   1.450
 9051SOL    HW128052   3.186   0.189   1.469
 9051SOL    HW228053   3.241   0.326   1.401
 9052SOL     OW28054   2.420   2.463   3.698
 9052SOL    HW128055   2.398   2.387   3.637
 9052SOL    HW228056   2.514   2.454   3.730
 9053SOL     OW28057   2.070   1.409   2.552
 9053SOL    HW128058   2.168   1.397   2.568
 9053SOL    HW228059   2.055   1.485   2.490
 9054SOL     OW28060   3.170   5.674   4.088
 9054SOL    HW128061   3.134   5.592   4.133
 9054SOL    HW228062   3.124   5.755   4.123
 9055SOL     OW28063   5.300   2.470   4.456
 9055SOL    HW128064   5.340   2.422   4.377
 9055SOL    HW228065   5.204   2.489   4.438
 9056SOL     OW28066   0.426   2.425   1.231
 9056SOL    HW128067   0.513   2.450   1.189
 9056SOL    HW228068   0.427   2.451   1.328
 9057SOL     OW28069   4.764   2.824   5.139
 9057SOL    HW128070   4.757   2.923   5.145
 9057SOL    HW228071   4.774   2.797   5.043
 9058SOL     OW28072   1.955   0.913   1.642
 9058SOL    HW128073   2.014   0.992   1.625
 9058SOL    HW228074   1.938   0.904   1.740
 9059SOL     OW28075   0.813   2.574   2.944
 9059SOL    HW128076   0.895   2.552   2.891
 9059SOL    HW228077   0.836   2.641   3.014
 9060SOL     OW28078   5.929   2.974   4.382
 9060SOL    HW128079   5.857   2.940   4.321
 9060SOL    HW228080   5.896   2.973   4.476
 9061SOL     OW28081   2.613   5.546   2.208
 9061SOL    HW128082   2.710   5.530   2.185
 9061SOL    HW228083   2.606   5.620   2.274
 9062SOL     OW28084   1.169   6.241   2.395
 9062SOL    HW128085   1.251   6.187   2.383
 9062SOL    HW228086   1.124   6.216   2.480
 9063SOL     OW28087   3.239   0.446   4.084
 9063SOL    HW128088   3.282   0.359   4.059
 9063SOL    HW228089   3.242   0.456   4.184
 9064SOL     OW28090   6.202   3.074   6.087
 9064SOL    HW128091   6.171   3.020   6.010
 9064SOL    HW228092   6.155   3.045   6.170
 9065SOL     OW28093   3.901   0.419   6.895
 9065SOL    HW128094   3.996   0.392   6.914
 9065SOL    HW228095   3.861   0.459   6.977
 9066SOL     OW28096   5.214   6.664   0.532
 9066SOL    HW128097   5.138   6.728   0.537
 9066SOL    HW228098   5.297   6.713   0.505
 9067SOL     OW28099   0.910   1.040   3.682
 9067SOL    HW128100   1.002   1.080   3.687
 9067SOL    HW228101   0.845   1.102   3.727
 9068SOL     OW28102   1.473   6.161   4.540
 9068SOL    HW128103   1.494   6.255   4.512
 9068SOL    HW228104   1.547   6.100   4.512
 9069SOL     OW28105   1.269   2.958   1.089
 9069SOL    HW128106   1.251   2.920   1.180
 9069SOL    HW228107   1.287   3.056   1.098
 9070SOL     OW28108   1.500   3.622   5.102
 9070SOL    HW128109   1.539   3.535   5.134
 9070SOL    HW228110   1.457   3.608   5.013
 9071SOL     OW28111   6.667   6.260   1.362
 9071SOL    HW128112   6.739   6.270   1.431
 9071SOL    HW228113   6.709   6.251   1.272
 9072SOL     OW28114   0.077   2.626   0.965
 9072SOL    HW128115   0.006   2.681   0.921
 9072SOL    HW228116   0.125   2.571   0.896
 9073SOL     OW28117   2.442   0.049   2.469
 9073SOL    HW128118   2.504   0.117   2.431
 9073SOL    HW228119   2.492   6.992   2.488
 9074SOL     OW28120   1.065   0.322   2.288
 9074SOL    HW128121   1.045   0.305   2.385
 9074SOL    HW228122   0.979   0.322   2.237
 9075SOL     OW28123   6.943   1.531   2.286
 9075SOL    HW128124   6.889   1.449   2.265
 9075SOL    HW228125   0.011   1.506   2.299
 9076SOL     OW28126   6.995   1.176   6.389
 9076SOL    HW128127   6.985   1.274   6.404
 9076SOL    HW228128   6.984   1.156   6.291
 9077SOL     OW28129   4.304   6.987   1.306
 9077SOL    HW128130   4.348   0.014   1.377
 9077SOL    HW228131   4.364   6.911   1.281
 9078SOL     OW28132   3.304   3.484   4.858
 9078SOL    HW128133   3.335   3.495   4.764
 9078SOL    HW228134   3.264   3.570   4.890
 9079SOL     OW28135   2.447   0.585   4.879
 9079SOL    HW128136   2.408   0.677   4.881
 9079SOL    HW228137   2.546   0.590   4.893
 9080SOL     OW28138   5.225   2.944   6.599
 9080SOL    HW128139   5.127   2.928   6.608
 9080SOL    HW228140   5.263   2.881   6.531
 9081SOL     OW28141   4.943   6.491   2.406
 9081SOL    HW128142   4.960   6.500   2.308
 9081SOL    HW228143   4.905   6.577   2.441
 9082SOL     OW28144   1.667   0.362   4.969
 9082SOL    HW128145   1.639   0.292   4.903
 9082SOL    HW228146   1.590   0.422   4.989
 9083SOL     OW28147   4.235   4.871   5.905
 9083SOL    HW128148   4.236   4.861   5.806
 9083SOL    HW228149   4.294   4.946   5.933
 9084SOL     OW28150   3.536   3.813   3.232
 9084SOL    HW128151   3.458   3.800   3.171
 9084SOL    HW228152   3.605   3.868   3.187
 9085SOL     OW28153   2.400   0.484   0.607
 9085SOL    HW128154   2.355   0.569   0.635
 9085SOL    HW228155   2.402   0.479   0.507
 9086SOL     OW28156   0.575   4.318   0.426
 9086SOL    HW128157   0.601   4.243   0.486
 9086SOL    HW228158   0.492   4.294   0.375
 9087SOL     OW28159   4.579   2.808   1.663
 9087SOL    HW128160   4.677   2.816   1.679
 9087SOL    HW228161   4.529   2.862   1.731
 9088SOL     OW28162   6.333   0.288   1.144
 9088SOL    HW128163   6.351   0.367   1.086
 9088SOL    HW228164   6.250   0.242   1.113
 9089SOL     OW28165   5.292   6.748   5.356
 9089SOL    HW128166   5.278   6.839   5.396
 9089SOL    HW228167   5.307   6.757   5.257
 9090SOL     OW28168   6.038   1.477   5.565
 9090SOL    HW128169   6.111   1.421   5.604
 9090SOL    HW228170   5.955   1.468   5.620
 9091SOL     OW28171   2.732   3.587   6.627
 9091SOL    HW128172   2.723   3.500   6.579
 9091SOL    HW228173   2.795   3.576   6.704
 9092SOL     OW28174   6.541   0.676   0.414
 9092SOL    HW128175   6.560   0.709   0.322
 9092SOL    HW228176   6.488   0.745   0.464
 9093SOL     OW28177   2.043   6.013   5.240
 9093SOL    HW128178   1.968   5.958   5.205
 9093SOL    HW228179   2.010   6.106   5.259
 9094SOL     OW28180   6.613   4.620   2.556
 9094SOL    HW128181   6.704   4.660   2.565
 9094SOL    HW228182   6.594   4.561   2.635
 9095SOL     OW28183   4.786   4.701   6.159
 9095SOL    HW128184   4.720   4.661   6.222
 9095SOL    HW228185   4.750   4.785   6.121
 9096SOL     OW28186   6.505   5.106   3.415
 9096SOL    HW128187   6.526   5.153   3.500
 9096SOL    HW228188   6.493   5.174   3.342
 9097SOL     OW28189   2.013   1.942   6.842
 9097SOL    HW128190   2.027   1.954   6.941
 9097SOL    HW228191   1.946   1.870   6.827
 9098SOL     OW28192   2.576   2.138   4.983
 9098SOL    HW128193   2.639   2.063   4.964
 9098SOL    HW228194   2.626   2.215   5.022
 9099SOL     OW28195   2.438   3.112   6.730
 9099SOL    HW128196   2.409   3.142   6.639
 9099SOL    HW228197   2.365   3.130   6.796
 9100SOL     OW28198   0.990   3.715   2.182
 9100SOL    HW128199   1.035   3.715   2.271
 9100SOL    HW228200   1.040   3.656   2.119
 9101SOL     OW28201   2.434   0.986   2.593
 9101SOL    HW128202   2.356   0.925   2.609
 9101SOL    HW228203   2.458   1.032   2.679
 9102SOL     OW28204   4.028   0.007   1.752
 9102SOL    HW128205   4.054   6.970   1.681
 9102SOL    HW228206   4.040   6.993   1.842
 9103SOL     OW28207   5.480   1.619   6.701
 9103SOL    HW128208   5.571   1.592   6.668
 9103SOL    HW228209   5.420   1.540   6.702
 9104SOL     OW28210   7.027   6.966   1.919
 9104SOL    HW128211   6.933   6.976   1.951
 9104SOL    HW228212   0.038   0.029   1.902
 9105SOL     OW28213   1.197   6.533   5.113
 9105SOL    HW128214   1.162   6.466   5.048
 9105SOL    HW228215   1.146   6.527   5.199
 9106SOL     OW28216   0.639   3.714   6.631
 9106SOL    HW128217   0.613   3.736   6.725
 9106SOL    HW228218   0.568   3.747   6.568
 9107SOL     OW28219   1.994   0.781   6.492
 9107SOL    HW128220   1.930   0.715   6.531
 9107SOL    HW228221   2.066   0.801   6.558
 9108SOL     OW28222   5.010   4.235   5.475
 9108SOL    HW128223   5.076   4.309   5.461
 9108SOL    HW228224   4.917   4.271   5.463
 9109SOL     OW28225   4.758   2.857   2.674
 9109SOL    HW128226   4.854   2.846   2.648
 9109SOL    HW228227   4.752   2.896   2.766
 9110SOL     OW28228   1.181   5.503   4.593
 9110SOL    HW128229   1.196   5.555   4.509
 9110SOL    HW228230   1.266   5.498   4.645
 9111SOL     OW28231   4.757   2.940   6.383
 9111SOL    HW128232   4.816   2.949   6.302
 9111SOL    HW228233   4.707   3.025   6.398
 9112SOL     OW28234   1.370   4.651   2.762
 9112SOL    HW128235   1.323   4.612   2.683
 9112SOL    HW228236   1.387   4.748   2.746
 9113SOL     OW28237   5.486   2.333   4.271
 9113SOL    HW128238   5.512   2.351   4.176
 9113SOL    HW228239   5.484   2.234   4.287
 9114SOL     OW28240   0.940   6.145   3.979
 9114SOL    HW128241   0.955   6.086   3.899
 9114SOL    HW228242   0.966   6.239   3.956
 9115SOL     OW28243   6.160   5.286   3.462
 9115SOL    HW128244   6.231   5.338   3.510
 9115SOL    HW228245   6.071   5.304   3.503
 9116SOL     OW28246   0.434   0.065   2.943
 9116SOL    HW128247   0.517   0.094   2.895
 9116SOL    HW228248   0.416   0.126   3.020
 9117SOL     OW28249   4.082   1.643   6.412
 9117SOL    HW128250   4.120   1.618   6.501
 9117SOL    HW228251   4.156   1.656   6.346
 9118SOL     OW28252   6.174   3.786   0.680
 9118SOL    HW128253   6.124   3.866   0.646
 9118SOL    HW228254   6.225   3.744   0.605
 9119SOL     OW28255   4.072   6.888   1.437
 9119SOL    HW128256   4.020   6.831   1.373
 9119SOL    HW228257   4.158   6.916   1.395
 9120SOL     OW28258   6.377   2.872   5.870
 9120SOL    HW128259   6.450   2.860   5.937
 9120SOL    HW228260   6.417   2.879   5.779
 9121SOL     OW28261   3.886   0.164   5.637
 9121SOL    HW128262   3.960   0.115   5.591
 9121SOL    HW228263   3.832   0.100   5.691
 9122SOL     OW28264   2.290   4.004   1.880
 9122SOL    HW128265   2.320   4.014   1.975
 9122SOL    HW228266   2.243   4.087   1.851
 9123SOL     OW28267   1.354   0.718   3.475
 9123SOL    HW128268   1.288   0.789   3.497
 9123SOL    HW228269   1.447   0.753   3.489
 9124SOL     OW28270   3.715   5.142   2.126
 9124SOL    HW128271   3.696   5.088   2.044
 9124SOL    HW228272   3.813   5.138   2.146
 9125SOL     OW28273   3.597   5.632   0.542
 9125SOL    HW128274   3.686   5.652   0.582
 9125SOL    HW228275   3.599   5.650   0.444
 9126SOL     OW28276   4.729   4.437   0.765
 9126SOL    HW128277   4.774   4.395   0.843
 9126SOL    HW228278   4.725   4.372   0.689
 9127SOL     OW28279   6.745   3.124   5.171
 9127SOL    HW128280   6.803   3.069   5.110
 9127SOL    HW228281   6.708   3.202   5.120
 9128SOL     OW28282   6.306   2.995   4.619
 9128SOL    HW128283   6.238   2.922   4.613
 9128SOL    HW228284   6.317   3.022   4.715
 9129SOL     OW28285   1.542   1.741   0.964
 9129SOL    HW128286   1.576   1.744   1.058
 9129SOL    HW228287   1.454   1.788   0.958
 9130SOL     OW28288   1.947   4.184   5.826
 9130SOL    HW128289   1.940   4.129   5.743
 9130SOL    HW228290   1.881   4.151   5.894
 9131SOL     OW28291   5.424   2.782   0.087
 9131SOL    HW128292   5.512   2.818   0.057
 9131SOL    HW228293   5.435   2.734   0.174
 9132SOL     OW28294   1.138   4.850   4.224
 9132SOL    HW128295   1.225   4.861   4.175
 9132SOL    HW228296   1.130   4.919   4.295
 9133SOL     OW28297   3.203   0.539   1.216
 9133SOL    HW128298   3.210   0.618   1.155
 9133SOL    HW228299   3.124   0.550   1.277
 9134SOL     OW28300   4.563   5.428   0.615
 9134SOL    HW128301   4.648   5.481   0.618
 9134SOL    HW228302   4.486   5.488   0.640
 9135SOL     OW28303   0.875   6.302   2.273
 9135SOL    HW128304   0.870   6.343   2.365
 9135SOL    HW228305   0.950   6.344   2.222
 9136SOL     OW28306   5.024   4.809   6.019
 9136SOL    HW128307   4.970   4.797   6.103
 9136SOL    HW228308   5.116   4.841   6.043
 9137SOL     OW28309   4.857   6.112   5.900
 9137SOL    HW128310   4.800   6.126   5.819
 9137SOL    HW228311   4.866   6.198   5.950
 9138SOL     OW28312   1.950   3.137   0.551
 9138SOL    HW128313   1.889   3.216   0.546
 9138SOL    HW228314   1.953   3.091   0.463
 9139SOL     OW28315   0.263   0.753   1.446
 9139SOL    HW128316   0.319   0.706   1.377
 9139SOL    HW228317   0.196   0.812   1.402
 9140SOL     OW28318   0.484   4.653   1.653
 9140SOL    HW128319   0.550   4.726   1.632
 9140SOL    HW228320   0.406   4.661   1.592
 9141SOL     OW28321   0.203   5.779   6.119
 9141SOL    HW128322   0.189   5.840   6.198
 9141SOL    HW228323   0.300   5.774   6.098
 9142SOL     OW28324   0.710   3.273   2.867
 9142SOL    HW128325   0.691   3.201   2.800
 9142SOL    HW228326   0.625   3.319   2.892
 9143SOL     OW28327   7.001   4.345   1.856
 9143SOL    HW128328   6.904   4.332   1.874
 9143SOL    HW228329   0.026   4.276   1.906
 9144SOL     OW28330   3.234   5.306   4.416
 9144SOL    HW128331   3.329   5.279   4.436
 9144SOL    HW228332   3.205   5.375   4.482
 9145SOL     OW28333   1.604   6.655   6.379
 9145SOL    HW128334   1.664   6.637   6.456
 9145SOL    HW228335   1.594   6.571   6.325
 9146SOL     OW28336   5.946   3.085   3.424
 9146SOL    HW128337   5.987   3.053   3.338
 9146SOL    HW228338   6.019   3.115   3.485
 9147SOL     OW28339   5.697   6.996   4.337
 9147SOL    HW128340   5.658   7.025   4.424
 9147SOL    HW228341   5.728   6.901   4.344
 9148SOL     OW28342   6.279   0.155   1.932
 9148SOL    HW128343   6.356   0.136   1.993
 9148SOL    HW228344   6.307   0.221   1.863
 9149SOL     OW28345   6.010   2.935   1.156
 9149SOL    HW128346   6.060   2.901   1.077
 9149SOL    HW228347   5.934   2.993   1.125
 9150SOL     OW28348   2.715   4.068   0.224
 9150SOL    HW128349   2.679   4.144   0.277
 9150SOL    HW228350   2.754   4.102   0.138
 9151SOL     OW28351   2.216   4.044   3.868
 9151SOL    HW128352   2.119   4.037   3.890
 9151SOL    HW228353   2.250   3.956   3.836
 9152SOL     OW28354   2.153   3.755   4.087
 9152SOL    HW128355   2.191   3.755   3.994
 9152SOL    HW228356   2.170   3.667   4.130
 9153SOL     OW28357   0.385   2.226   6.457
 9153SOL    HW128358   0.397   2.263   6.550
 9153SOL    HW228359   0.440   2.143   6.447
 9154SOL     OW28360   5.942   5.418   3.181
 9154SOL    HW128361   6.028   5.412   3.232
 9154SOL    HW228362   5.929   5.512   3.149
 9155SOL     OW28363   1.823   5.240   2.608
 9155SOL    HW128364   1.858   5.241   2.515
 9155SOL    HW228365   1.897   5.218   2.671
 9156SOL     OW28366   6.592   2.995   1.007
 9156SOL    HW128367   6.567   3.027   1.099
 9156SOL    HW228368   6.631   3.070   0.955
 9157SOL     OW28369   3.451   4.103   6.381
 9157SOL    HW128370   3.531   4.155   6.410
 9157SOL    HW228371   3.479   4.022   6.330
 9158SOL     OW28372   6.924   3.921   4.022
 9158SOL    HW128373   6.970   3.885   3.941
 9158SOL    HW228374   6.827   3.933   4.002
 9159SOL     OW28375   2.961   0.089   3.293
 9159SOL    HW128376   2.978   0.060   3.199
 9159SOL    HW228377   3.029   0.047   3.353
 9160SOL     OW28378   0.604   4.989   6.629
 9160SOL    HW128379   0.664   4.909   6.630
 9160SOL    HW228380   0.509   4.960   6.628
 9161SOL     OW28381   5.863   4.000   2.030
 9161SOL    HW128382   5.946   3.947   2.045
 9161SOL    HW228383   5.785   3.953   2.071
 9162SOL     OW28384   4.269   1.728   2.609
 9162SOL    HW128385   4.242   1.758   2.517
 9162SOL    HW228386   4.256   1.629   2.617
 9163SOL     OW28387   0.574   2.565   2.277
 9163SOL    HW128388   0.640   2.636   2.253
 9163SOL    HW228389   0.612   2.476   2.251
 9164SOL     OW28390   2.091   0.182   6.860
 9164SOL    HW128391   2.138   0.130   6.789
 9164SOL    HW228392   2.034   0.252   6.817
 9165SOL     OW28393   5.180   2.528   4.900
 9165SOL    HW128394   5.151   2.435   4.875
 9165SOL    HW228395   5.116   2.594   4.862
 9166SOL     OW28396   4.612   5.661   1.758
 9166SOL    HW128397   4.520   5.693   1.735
 9166SOL    HW228398   4.607   5.572   1.803
 9167SOL     OW28399   0.805   1.356   6.063
 9167SOL    HW128400   0.835   1.426   6.128
 9167SOL    HW228401   0.721   1.313   6.096
 9168SOL     OW28402   6.479   5.343   4.764
 9168SOL    HW128403   6.483   5.247   4.793
 9168SOL    HW228404   6.384   5.373   4.765
 9169SOL     OW28405   6.297   5.544   6.664
 9169SOL    HW128406   6.239   5.594   6.729
 9169SOL    HW228407   6.278   5.575   6.571
 9170SOL     OW28408   1.590   1.784   6.339
 9170SOL    HW128409   1.550   1.713   6.280
 9170SOL    HW228410   1.677   1.814   6.299
 9171SOL     OW28411   2.879   4.784   0.629
 9171SOL    HW128412   2.802   4.755   0.686
 9171SOL    HW228413   2.884   4.884   0.628
 9172SOL     OW28414   5.564   1.256   5.133
 9172SOL    HW128415   5.587   1.349   5.104
 9172SOL    HW228416   5.525   1.258   5.225
 9173SOL     OW28417   6.578   2.724   3.888
 9173SOL    HW128418   6.600   2.718   3.986
 9173SOL    HW228419   6.554   2.633   3.853
 9174SOL     OW28420   1.059   5.956   0.050
 9174SOL    HW128421   1.057   5.911   0.139
 9174SOL    HW228422   0.982   6.019   0.042
 9175SOL     OW28423   2.257   6.936   0.282
 9175SOL    HW128424   2.184   6.868   0.284
 9175SOL    HW228425   2.316   6.924   0.362
 9176SOL     OW28426   2.217   0.802   3.128
 9176SOL    HW128427   2.253   0.892   3.106
 9176SOL    HW228428   2.172   0.806   3.218
 9177SOL     OW28429   0.642   4.566   3.981
 9177SOL    HW128430   0.609   4.656   3.950
 9177SOL    HW228431   0.641   4.502   3.905
 9178SOL     OW28432   2.412   6.455   0.012
 9178SOL    HW128433   2.474   6.522   0.052
 9178SOL    HW228434   2.321   6.495   0.002
 9179SOL     OW28435   3.944   6.445   5.404
 9179SOL    HW128436   3.867   6.385   5.428
 9179SOL    HW228437   3.936   6.473   5.309
 9180SOL     OW28438   6.996   1.429   4.416
 9180SOL    HW128439   6.937   1.508   4.430
 9180SOL    HW228440   6.958   1.350   4.463
 9181SOL     OW28441   4.340   1.682   3.558
 9181SOL    HW128442   4.425   1.667   3.508
 9181SOL    HW228443   4.362   1.707   3.653
 9182SOL     OW28444   1.661   1.368   2.883
 9182SOL    HW128445   1.755   1.374   2.850
 9182SOL    HW228446   1.605   1.318   2.817
 9183SOL     OW28447   5.386   2.712   6.839
 9183SOL    HW128448   5.371   2.731   6.936
 9183SOL    HW228449   5.301   2.677   6.799
 9184SOL     OW28450   3.311   3.313   0.692
 9184SOL    HW128451   3.229   3.299   0.747
 9184SOL    HW228452   3.359   3.394   0.724
 9185SOL     OW28453   0.492   0.721   6.699
 9185SOL    HW128454   0.523   0.712   6.794
 9185SOL    HW228455   0.397   0.689   6.691
 9186SOL     OW28456   4.914   0.208   6.693
 9186SOL    HW128457   4.832   0.247   6.650
 9186SOL    HW228458   4.911   0.224   6.792
 9187SOL     OW28459   4.838   1.643   6.712
 9187SOL    HW128460   4.903   1.567   6.712
 9187SOL    HW228461   4.857   1.703   6.635
 9188SOL     OW28462   1.208   0.313   1.399
 9188SOL    HW128463   1.116   0.306   1.362
 9188SOL    HW228464   1.264   0.238   1.363
 9189SOL     OW28465   2.698   1.455   3.355
 9189SOL    HW128466   2.747   1.524   3.408
 9189SOL    HW228467   2.614   1.430   3.403
 9190SOL     OW28468   6.134   3.724   5.357
 9190SOL    HW128469   6.035   3.709   5.349
 9190SOL    HW228470   6.172   3.659   5.422
 9191SOL     OW28471   5.649   6.034   6.694
 9191SOL    HW128472   5.710   6.110   6.719
 9191SOL    HW228473   5.640   6.030   6.594
 9192SOL     OW28474   0.104   4.446   6.159
 9192SOL    HW128475   0.108   4.347   6.151
 9192SOL    HW228476   0.083   4.486   6.069
 9193SOL     OW28477   3.996   3.410   3.631
 9193SOL    HW128478   3.930   3.474   3.671
 9193SOL    HW228479   3.954   3.320   3.625
 9194SOL     OW28480   3.089   5.593   2.636
 9194SOL    HW128481   3.068   5.653   2.713
 9194SOL    HW228482   3.056   5.635   2.551
 9195SOL     OW28483   0.254   3.226   3.242
 9195SOL    HW128484   0.201   3.229   3.327
 9195SOL    HW228485   0.227   3.146   3.189
 9196SOL     OW28486   3.688   0.884   3.656
 9196SOL    HW128487   3.680   0.819   3.732
 9196SOL    HW228488   3.723   0.971   3.690
 9197SOL     OW28489   2.697   3.150   6.827
 9197SOL    HW128490   2.753   3.122   6.749
 9197SOL    HW228491   2.601   3.153   6.799
 9198SOL     OW28492   5.500   3.691   5.998
 9198SOL    HW128493   5.456   3.701   6.088
 9198SOL    HW228494   5.552   3.606   5.996
 9199SOL     OW28495   1.734   3.730   6.382
 9199SOL    HW128496   1.829   3.702   6.397
 9199SOL    HW228497   1.699   3.684   6.300
 9200SOL     OW28498   6.952   6.993   0.961
 9200SOL    HW128499   6.868   6.979   0.910
 9200SOL    HW228500   7.004   0.040   0.919
 9201SOL     OW28501   6.987   4.624   1.755
 9201SOL    HW128502   6.993   4.549   1.820
 9201SOL    HW228503   6.894   4.627   1.716
 9202SOL     OW28504   2.639   4.997   4.031
 9202SOL    HW128505   2.636   4.995   4.131
 9202SOL    HW228506   2.674   4.910   3.997
 9203SOL     OW28507   5.858   1.247   6.040
 9203SOL    HW128508   5.857   1.191   5.957
 9203SOL    HW228509   5.777   1.307   6.040
 9204SOL     OW28510   5.584   3.569   3.613
 9204SOL    HW128511   5.494   3.525   3.606
 9204SOL    HW228512   5.653   3.500   3.636
 9205SOL     OW28513   5.773   2.614   3.021
 9205SOL    HW128514   5.806   2.651   3.108
 9205SOL    HW228515   5.719   2.683   2.973
 9206SOL     OW28516   2.029   6.186   3.679
 9206SOL    HW128517   2.088   6.106   3.683
 9206SOL    HW228518   1.957   6.173   3.610
 9207SOL     OW28519   4.378   6.082   6.034
 9207SOL    HW128520   4.375   6.137   6.117
 9207SOL    HW228521   4.450   6.115   5.973
 9208SOL     OW28522   4.978   3.304   2.478
 9208SOL    HW128523   4.942   3.277   2.567
 9208SOL    HW228524   4.977   3.404   2.470
 9209SOL     OW28525   4.130   1.234   2.944
 9209SOL    HW128526   4.170   1.191   2.863
 9209SOL    HW228527   4.036   1.262   2.925
 9210SOL     OW28528   2.119   0.179   1.313
 9210SOL    HW128529   2.065   0.096   1.297
 9210SOL    HW228530   2.192   0.185   1.245
 9211SOL     OW28531   5.116   1.756   6.479
 9211SOL    HW128532   5.113   1.656   6.489
 9211SOL    HW228533   5.022   1.792   6.475
 9212SOL     OW28534   4.898   4.855   4.340
 9212SOL    HW128535   4.948   4.801   4.273
 9212SOL    HW228536   4.862   4.795   4.412
 9213SOL     OW28537   6.074   0.563   4.062
 9213SOL    HW128538   6.048   0.554   3.966
 9213SOL    HW228539   5.992   0.562   4.119
 9214SOL     OW28540   1.598   2.781   4.559
 9214SOL    HW128541   1.694   2.772   4.586
 9214SOL    HW228542   1.545   2.817   4.635
 9215SOL     OW28543   0.440   3.516   2.552
 9215SOL    HW128544   0.473   3.550   2.464
 9215SOL    HW228545   0.354   3.468   2.539
 9216SOL     OW28546   2.868   5.657   5.046
 9216SOL    HW128547   2.796   5.588   5.038
 9216SOL    HW228548   2.836   5.743   5.008
 9217SOL     OW28549   5.317   1.383   6.139
 9217SOL    HW128550   5.372   1.397   6.221
 9217SOL    HW228551   5.232   1.337   6.164
 9218SOL     OW28552   5.957   6.610   6.435
 9218SOL    HW128553   5.989   6.613   6.530
 9218SOL    HW228554   5.952   6.702   6.398
 9219SOL     OW28555   3.792   2.784   5.298
 9219SOL    HW128556   3.855   2.719   5.340
 9219SOL    HW228557   3.833   2.876   5.299
 9220SOL     OW28558   1.794   6.211   2.904
 9220SOL    HW128559   1.828   6.291   2.954
 9220SOL    HW228560   1.694   6.208   2.911
 9221SOL     OW28561   2.398   0.751   6.662
 9221SOL    HW128562   2.480   0.793   6.700
 9221SOL    HW228563   2.381   0.785   6.570
 9222SOL     OW28564   2.094   4.784   3.639
 9222SOL    HW128565   2.000   4.810   3.616
 9222SOL    HW228566   2.103   4.780   3.739
 9223SOL     OW28567   1.496   4.288   4.634
 9223SOL    HW128568   1.557   4.258   4.560
 9223SOL    HW228569   1.507   4.227   4.712
 9224SOL     OW28570   1.506   4.616   3.684
 9224SOL    HW128571   1.585   4.676   3.674
 9224SOL    HW228572   1.433   4.663   3.733
 9225SOL     OW28573   3.825   6.723   6.728
 9225SOL    HW128574   3.909   6.710   6.782
 9225SOL    HW228575   3.840   6.796   6.661
 9226SOL     OW28576   1.038   6.888   1.144
 9226SOL    HW128577   1.086   6.803   1.168
 9226SOL    HW228578   0.947   6.887   1.185
 9227SOL     OW28579   2.345   5.472   0.557
 9227SOL    HW128580   2.265   5.500   0.610
 9227SOL    HW228581   2.391   5.396   0.603
 9228SOL     OW28582   1.813   2.554   5.586
 9228SOL    HW128583   1.819   2.605   5.501
 9228SOL    HW228584   1.904   2.539   5.623
 9229SOL     OW28585   0.313   4.267   6.890
 9229SOL    HW128586   0.319   4.362   6.859
 9229SOL    HW228587   0.398   4.219   6.866
 9230SOL     OW28588   4.876   2.520   4.132
 9230SOL    HW128589   4.944   2.449   4.150
 9230SOL    HW228590   4.916   2.610   4.151
 9231SOL     OW28591   0.878   5.498   4.963
 9231SOL    HW128592   0.864   5.420   5.024
 9231SOL    HW228593   0.961   5.547   4.991
 9232SOL     OW28594   2.022   5.575   1.805
 9232SOL    HW128595   1.940   5.541   1.853
 9232SOL    HW228596   2.104   5.545   1.855
 9233SOL     OW28597   0.497   6.960   1.119
 9233SOL    HW128598   0.400   6.944   1.104
 9233SOL    HW228599   0.542   6.975   1.031
 9234SOL     OW28600   2.233   4.961   0.618
 9234SOL    HW128601   2.223   4.906   0.701
 9234SOL    HW228602   2.208   5.056   0.638
 9235SOL     OW28603   2.544   2.534   3.186
 9235SOL    HW128604   2.468   2.564   3.243
 9235SOL    HW228605   2.583   2.450   3.225
 9236SOL     OW28606   1.802   2.993   6.538
 9236SOL    HW128607   1.780   2.917   6.600
 9236SOL    HW228608   1.822   2.957   6.447
 9237SOL     OW28609   5.947   5.265   3.671
 9237SOL    HW128610   5.973   5.315   3.754
 9237SOL    HW228611   5.867   5.308   3.630
 9238SOL     OW28612   1.647   3.386   5.156
 9238SOL    HW128613   1.722   3.326   5.186
 9238SOL    HW228614   1.596   3.342   5.082
 9239SOL     OW28615   0.228   4.833   0.182
 9239SOL    HW128616   0.172   4.883   0.249
 9239SOL    HW228617   0.307   4.889   0.157
 9240SOL     OW28618   4.917   3.024   3.214
 9240SOL    HW128619   4.914   3.122   3.230
 9240SOL    HW228620   4.992   2.984   3.267
 9241SOL     OW28621   6.754   6.135   0.150
 9241SOL    HW128622   6.745   6.227   0.189
 9241SOL    HW228623   6.725   6.137   0.054
 9242SOL     OW28624   1.104   2.306   2.335
 9242SOL    HW128625   1.049   2.383   2.366
 9242SOL    HW228626   1.180   2.340   2.279
 9243SOL     OW28627   0.342   0.275   1.304
 9243SOL    HW128628   0.279   0.293   1.379
 9243SOL    HW228629   0.389   0.188   1.320
 9244SOL     OW28630   3.459   6.378   5.399
 9244SOL    HW128631   3.382   6.434   5.429
 9244SOL    HW228632   3.432   6.326   5.318
 9245SOL     OW28633   0.861   4.027   2.992
 9245SOL    HW128634   0.928   3.978   3.049
 9245SOL    HW228635   0.905   4.058   2.908
 9246SOL     OW28636   6.340   6.864   4.376
 9246SOL    HW128637   6.297   6.776   4.356
 9246SOL    HW228638   6.360   6.870   4.474
 9247SOL     OW28639   3.659   5.568   2.901
 9247SOL    HW128640   3.566   5.568   2.936
 9247SOL    HW228641   3.709   5.647   2.937
 9248SOL     OW28642   2.488   1.535   4.995
 9248SOL    HW128643   2.556   1.491   4.937
 9248SOL    HW228644   2.500   1.635   4.991
 9249SOL     OW28645   3.670   4.806   1.666
 9249SOL    HW128646   3.622   4.755   1.737
 9249SOL    HW228647   3.716   4.741   1.605
 9250SOL     OW28648   6.891   4.290   4.460
 9250SOL    HW128649   6.918   4.284   4.556
 9250SOL    HW228650   6.953   4.353   4.412
 9251SOL     OW28651   3.965   2.889   1.180
 9251SOL    HW128652   3.903   2.963   1.152
 9251SOL    HW228653   4.029   2.869   1.106
 9252SOL     OW28654   4.165   0.938   4.895
 9252SOL    HW128655   4.165   1.011   4.826
 9252SOL    HW228656   4.201   0.974   4.981
 9253SOL     OW28657   0.369   4.469   5.604
 9253SOL    HW128658   0.276   4.470   5.566
 9253SOL    HW228659   0.402   4.563   5.613
 9254SOL     OW28660   5.857   4.399   2.767
 9254SOL    HW128661   5.821   4.367   2.855
 9254SOL    HW228662   5.781   4.415   2.704
 9255SOL     OW28663   6.408   3.798   0.067
 9255SOL    HW128664   6.403   3.775   0.164
 9255SOL    HW228665   6.345   3.873   0.047
 9256SOL     OW28666   1.938   6.847   1.994
 9256SOL    HW128667   1.983   6.870   1.908
 9256SOL    HW228668   2.001   6.861   2.070
 9257SOL     OW28669   6.880   5.525   3.353
 9257SOL    HW128670   6.934   5.486   3.429
 9257SOL    HW228671   6.941   5.551   3.279
 9258SOL     OW28672   3.556   3.409   0.098
 9258SOL    HW128673   3.489   3.464   0.048
 9258SOL    HW228674   3.639   3.462   0.113
 9259SOL     OW28675   1.456   1.233   6.295
 9259SOL    HW128676   1.372   1.259   6.247
 9259SOL    HW228677   1.490   1.147   6.257
 9260SOL     OW28678   5.644   3.016   5.820
 9260SOL    HW128679   5.690   3.096   5.859
 9260SOL    HW228680   5.696   2.983   5.741
 9261SOL     OW28681   3.967   1.664   0.702
 9261SOL    HW128682   3.981   1.714   0.787
 9261SOL    HW228683   4.045   1.604   0.685
 9262SOL     OW28684   6.639   6.563   4.334
 9262SOL    HW128685   6.550   6.564   4.288
 9262SOL    HW228686   6.646   6.641   4.396
 9263SOL     OW28687   2.741   5.128   2.794
 9263SOL    HW128688   2.726   5.187   2.715
 9263SOL    HW228689   2.661   5.069   2.808
 9264SOL     OW28690   5.375   3.487   6.840
 9264SOL    HW128691   5.297   3.503   6.779
 9264SOL    HW228692   5.454   3.460   6.786
 9265SOL     OW28693   4.061   2.048   6.853
 9265SOL    HW128694   4.082   2.015   6.946
 9265SOL    HW228695   4.038   2.145   6.857
 9266SOL     OW28696   0.889   4.262   1.620
 9266SOL    HW128697   0.928   4.330   1.683
 9266SOL    HW228698   0.796   4.289   1.596
 9267SOL     OW28699   0.786   1.244   3.804
 9267SOL    HW128700   0.813   1.324   3.857
 9267SOL    HW228701   0.716   1.270   3.737
 9268SOL     OW28702   0.650   6.941   1.860
 9268SOL    HW128703   0.732   6.972   1.909
 9268SOL    HW228704   0.581   7.014   1.862
 9269SOL     OW28705   4.704   0.041   0.058
 9269SOL    HW128706   4.735   0.118   0.114
 9269SOL    HW228707   4.616   0.008   0.092
 9270SOL     OW28708   3.528   0.970   6.110
 9270SOL    HW128709   3.604   0.956   6.046
 9270SOL    HW228710   3.448   1.003   6.060
 9271SOL     OW28711   1.053   0.567   6.845
 9271SOL    HW128712   0.967   0.565   6.795
 9271SOL    HW228713   1.119   0.627   6.798
 9272SOL     OW28714   6.479   6.659   6.130
 9272SOL    HW128715   6.391   6.701   6.108
 9272SOL    HW228716   6.553   6.714   6.091
 9273SOL     OW28717   5.735   5.872   4.009
 9273SOL    HW128718   5.731   5.971   4.023
 9273SOL    HW228719   5.643   5.838   3.991
 9274SOL     OW28720   0.517   3.067   0.772
 9274SOL    HW128721   0.557   3.090   0.684
 9274SOL    HW228722   0.418   3.075   0.767
 9275SOL     OW28723   0.729   6.319   1.339
 9275SOL    HW128724   0.714   6.308   1.437
 9275SOL    HW228725   0.663   6.384   1.302
 9276SOL     OW28726   3.498   4.648   0.572
 9276SOL    HW128727   3.434   4.610   0.638
 9276SOL    HW228728   3.454   4.653   0.482
 9277SOL     OW28729   4.321   4.883   2.574
 9277SOL    HW128730   4.300   4.789   2.547
 9277SOL    HW228731   4.405   4.912   2.528
 9278SOL     OW28732   0.326   0.388   4.164
 9278SOL    HW128733   0.233   0.370   4.132
 9278SOL    HW228734   0.389   0.322   4.122
 9279SOL     OW28735   3.507   5.561   1.425
 9279SOL    HW128736   3.426   5.551   1.367
 9279SOL    HW228737   3.502   5.496   1.501
 9280SOL     OW28738   1.094   1.164   2.704
 9280SOL    HW128739   1.118   1.108   2.625
 9280SOL    HW228740   1.129   1.120   2.787
 9281SOL     OW28741   3.781   3.387   6.438
 9281SOL    HW128742   3.781   3.405   6.340
 9281SOL    HW228743   3.731   3.302   6.456
 9282SOL     OW28744   3.166   0.320   4.767
 9282SOL    HW128745   3.264   0.323   4.786
 9282SOL    HW228746   3.148   0.244   4.705
 9283SOL     OW28747   5.471   6.712   6.281
 9283SOL    HW128748   5.543   6.738   6.345
 9283SOL    HW228749   5.507   6.709   6.188
 9284SOL     OW28750   3.636   3.954   5.423
 9284SOL    HW128751   3.648   4.038   5.475
 9284SOL    HW228752   3.724   3.908   5.413
 9285SOL     OW28753   5.845   2.984   2.527
 9285SOL    HW128754   5.921   2.933   2.568
 9285SOL    HW228755   5.790   2.922   2.471
 9286SOL     OW28756   4.956   6.354   0.848
 9286SOL    HW128757   4.919   6.446   0.839
 9286SOL    HW228758   4.972   6.315   0.757
 9287SOL     OW28759   2.598   4.608   5.760
 9287SOL    HW128760   2.599   4.536   5.690
 9287SOL    HW228761   2.630   4.694   5.721
 9288SOL     OW28762   4.366   2.239   4.035
 9288SOL    HW128763   4.379   2.167   4.103
 9288SOL    HW228764   4.415   2.321   4.065
 9289SOL     OW28765   4.355   6.628   6.055
 9289SOL    HW128766   4.334   6.621   5.958
 9289SOL    HW228767   4.378   6.722   6.078
 9290SOL     OW28768   5.289   0.554   4.788
 9290SOL    HW128769   5.348   0.606   4.726
 9290SOL    HW228770   5.197   0.593   4.786
 9291SOL     OW28771   1.268   5.808   5.167
 9291SOL    HW128772   1.339   5.761   5.220
 9291SOL    HW228773   1.255   5.901   5.202
 9292SOL     OW28774   1.484   1.303   5.952
 9292SOL    HW128775   1.492   1.271   5.858
 9292SOL    HW228776   1.565   1.275   6.004
 9293SOL     OW28777   4.926   2.896   5.754
 9293SOL    HW128778   4.989   2.944   5.816
 9293SOL    HW228779   4.972   2.875   5.668
 9294SOL     OW28780   4.749   0.810   0.428
 9294SOL    HW128781   4.675   0.745   0.411
 9294SOL    HW228782   4.822   0.795   0.361
 9295SOL     OW28783   0.422   0.521   5.288
 9295SOL    HW128784   0.408   0.583   5.365
 9295SOL    HW228785   0.499   0.553   5.232
 9296SOL     OW28786   2.998   4.164   0.864
 9296SOL    HW128787   3.067   4.218   0.911
 9296SOL    HW228788   2.907   4.199   0.885
 9297SOL     OW28789   6.666   6.416   3.308
 9297SOL    HW128790   6.728   6.474   3.361
 9297SOL    HW228791   6.626   6.469   3.233
 9298SOL     OW28792   1.382   6.300   5.942
 9298SOL    HW128793   1.332   6.246   6.010
 9298SOL    HW228794   1.355   6.271   5.850
 9299SOL     OW28795   1.898   2.130   4.194
 9299SOL    HW128796   1.942   2.214   4.226
 9299SOL    HW228797   1.965   2.056   4.192
 9300SOL     OW28798   1.814   5.901   5.145
 9300SOL    HW128799   1.802   5.826   5.211
 9300SOL    HW228800   1.743   5.970   5.160
 9301SOL     OW28801   0.712   4.171   4.617
 9301SOL    HW128802   0.673   4.103   4.554
 9301SOL    HW228803   0.702   4.262   4.578
 9302SOL     OW28804   2.128   3.133   4.932
 9302SOL    HW128805   2.221   3.121   4.965
 9302SOL    HW228806   2.098   3.049   4.886
 9303SOL     OW28807   3.037   3.709   0.194
 9303SOL    HW128808   2.971   3.698   0.268
 9303SOL    HW228809   3.051   3.622   0.148
 9304SOL     OW28810   5.073   4.926   1.019
 9304SOL    HW128811   5.132   4.857   1.061
 9304SOL    HW228812   5.127   4.984   0.959
 9305SOL     OW28813   2.383   1.470   0.643
 9305SOL    HW128814   2.387   1.495   0.546
 9305SOL    HW228815   2.471   1.489   0.686
 9306SOL     OW28816   0.347   3.986   4.602
 9306SOL    HW128817   0.295   3.901   4.610
 9306SOL    HW228818   0.445   3.966   4.600
 9307SOL     OW28819   2.382   3.155   0.833
 9307SOL    HW128820   2.438   3.187   0.756
 9307SOL    HW228821   2.290   3.133   0.801
 9308SOL     OW28822   1.286   4.106   1.418
 9308SOL    HW128823   1.266   4.204   1.425
 9308SOL    HW228824   1.324   4.086   1.328
 9309SOL     OW28825   5.229   5.831   5.651
 9309SOL    HW128826   5.307   5.776   5.622
 9309SOL    HW228827   5.185   5.788   5.730
 9310SOL     OW28828   4.423   5.594   5.706
 9310SOL    HW128829   4.354   5.576   5.636
 9310SOL    HW228830   4.502   5.638   5.664
 9311SOL     OW28831   4.281   3.404   1.770
 9311SOL    HW128832   4.240   3.355   1.847
 9311SOL    HW228833   4.330   3.340   1.711
 9312SOL     OW28834   1.307   1.947   1.023
 9312SOL    HW128835   1.348   1.987   1.105
 9312SOL    HW228836   1.240   2.011   0.985
 9313SOL     OW28837   1.293   0.443   2.069
 9313SOL    HW128838   1.271   0.443   1.972
 9313SOL    HW228839   1.278   0.352   2.107
 9314SOL     OW28840   4.998   2.857   0.871
 9314SOL    HW128841   4.966   2.791   0.803
 9314SOL    HW228842   4.961   2.832   0.961
 9315SOL     OW28843   5.602   1.284   6.657
 9315SOL    HW128844   5.699   1.304   6.649
 9315SOL    HW228845   5.576   1.277   6.753
 9316SOL     OW28846   5.449   0.479   5.533
 9316SOL    HW128847   5.537   0.496   5.577
 9316SOL    HW228848   5.433   0.547   5.461
 9317SOL     OW28849   3.102   5.547   3.732
 9317SOL    HW128850   3.086   5.480   3.805
 9317SOL    HW228851   3.198   5.575   3.733
 9318SOL     OW28852   5.259   5.966   0.560
 9318SOL    HW128853   5.326   5.921   0.620
 9318SOL    HW228854   5.256   5.919   0.472
 9319SOL     OW28855   2.709   4.245   0.947
 9319SOL    HW128856   2.612   4.228   0.928
 9319SOL    HW228857   2.732   4.204   1.036
 9320SOL     OW28858   5.613   0.142   5.913
 9320SOL    HW128859   5.593   0.172   6.006
 9320SOL    HW228860   5.629   0.222   5.855
 9321SOL     OW28861   0.229   3.308   5.593
 9321SOL    HW128862   0.295   3.262   5.534
 9321SOL    HW228863   0.251   3.288   5.689
 9322SOL     OW28864   6.069   3.918   5.629
 9322SOL    HW128865   6.109   4.006   5.605
 9322SOL    HW228866   5.993   3.932   5.693
 9323SOL     OW28867   1.422   3.627   3.758
 9323SOL    HW128868   1.398   3.530   3.749
 9323SOL    HW228869   1.366   3.681   3.696
 9324SOL     OW28870   0.942   4.086   0.760
 9324SOL    HW128871   1.036   4.082   0.794
 9324SOL    HW228872   0.943   4.104   0.662
 9325SOL     OW28873   1.877   5.286   2.362
 9325SOL    HW128874   1.856   5.383   2.359
 9325SOL    HW228875   1.832   5.240   2.286
 9326SOL     OW28876   3.950   4.110   0.201
 9326SOL    HW128877   4.024   4.150   0.255
 9326SOL    HW228878   3.977   4.106   0.105
 9327SOL     OW28879   4.755   0.656   3.189
 9327SOL    HW128880   4.668   0.607   3.188
 9327SOL    HW228881   4.796   0.654   3.098
 9328SOL     OW28882   3.151   6.809   4.394
 9328SOL    HW128883   3.052   6.817   4.387
 9328SOL    HW228884   3.179   6.815   4.490
 9329SOL     OW28885   0.186   6.099   5.838
 9329SOL    HW128886   0.148   6.006   5.833
 9329SOL    HW228887   0.245   6.106   5.919
 9330SOL     OW28888   6.714   0.099   6.946
 9330SOL    HW128889   6.643   0.133   6.885
 9330SOL    HW228890   6.758   0.019   6.904
 9331SOL     OW28891   1.261   3.254   4.931
 9331SOL    HW128892   1.224   3.345   4.912
 9331SOL    HW228893   1.197   3.185   4.898
 9332SOL     OW28894   4.073   5.969   0.851
 9332SOL    HW128895   4.040   5.937   0.762
 9332SOL    HW228896   4.173   5.970   0.852
 9333SOL     OW28897   3.748   5.054   0.487
 9333SOL    HW128898   3.661   5.043   0.533
 9333SOL    HW228899   3.772   5.151   0.482
 9334SOL     OW28900   4.759   6.215   4.884
 9334SOL    HW128901   4.756   6.243   4.980
 9334SOL    HW228902   4.849   6.176   4.863
 9335SOL     OW28903   2.405   1.954   1.264
 9335SOL    HW128904   2.333   2.023   1.273
 9335SOL    HW228905   2.364   1.864   1.254
 9336SOL     OW28906   6.250   0.749   5.010
 9336SOL    HW128907   6.202   0.664   4.992
 9336SOL    HW228908   6.186   0.825   5.006
 9337SOL     OW28909   4.451   6.971   6.561
 9337SOL    HW128910   4.532   6.978   6.619
 9337SOL    HW228911   4.373   7.014   6.606
 9338SOL     OW28912   7.017   6.254   0.200
 9338SOL    HW128913   6.951   6.186   0.169
 9338SOL    HW228914   0.041   6.218   0.278
 9339SOL     OW28915   5.758   4.665   6.600
 9339SOL    HW128916   5.790   4.678   6.694
 9339SOL    HW228917   5.835   4.680   6.537
 9340SOL     OW28918   3.469   6.116   2.405
 9340SOL    HW128919   3.378   6.136   2.443
 9340SOL    HW228920   3.480   6.165   2.318
 9341SOL     OW28921   5.762   4.005   6.398
 9341SOL    HW128922   5.861   4.000   6.415
 9341SOL    HW228923   5.716   3.932   6.448
 9342SOL     OW28924   2.640   0.473   4.371
 9342SOL    HW128925   2.658   0.511   4.462
 9342SOL    HW228926   2.680   0.382   4.365
 9343SOL     OW28927   4.637   4.527   1.900
 9343SOL    HW128928   4.605   4.435   1.921
 9343SOL    HW228929   4.737   4.529   1.904
 9344SOL     OW28930   5.505   4.643   6.118
 9344SOL    HW128931   5.478   4.547   6.129
 9344SOL    HW228932   5.447   4.701   6.175
 9345SOL     OW28933   6.743   6.108   6.881
 9345SOL    HW128934   6.737   6.185   6.818
 9345SOL    HW228935   6.682   6.035   6.851
 9346SOL     OW28936   5.110   6.819   2.302
 9346SOL    HW128937   5.194   6.872   2.287
 9346SOL    HW228938   5.127   6.747   2.369
 9347SOL     OW28939   3.750   5.539   1.223
 9347SOL    HW128940   3.671   5.515   1.280
 9347SOL    HW228941   3.799   5.456   1.198
 9348SOL     OW28942   2.268   6.395   3.146
 9348SOL    HW128943   2.320   6.456   3.206
 9348SOL    HW228944   2.331   6.345   3.086
 9349SOL     OW28945   6.650   5.833   2.395
 9349SOL    HW128946   6.626   5.828   2.492
 9349SOL    HW228947   6.609   5.755   2.346
 9350SOL     OW28948   6.715   1.351   4.665
 9350SOL    HW128949   6.779   1.374   4.739
 9350SOL    HW228950   6.763   1.299   4.594
 9351SOL     OW28951   1.968   0.945   5.839
 9351SOL    HW128952   2.017   0.895   5.768
 9351SOL    HW228953   1.935   1.032   5.802
 9352SOL     OW28954   1.727   2.669   5.281
 9352SOL    HW128955   1.687   2.664   5.190
 9352SOL    HW228956   1.761   2.762   5.297
 9353SOL     OW28957   1.578   4.275   1.722
 9353SOL    HW128958   1.559   4.272   1.624
 9353SOL    HW228959   1.633   4.196   1.748
 9354SOL     OW28960   6.452   1.777   1.174
 9354SOL    HW128961   6.460   1.875   1.191
 9354SOL    HW228962   6.412   1.732   1.254
 9355SOL     OW28963   6.433   0.857   4.492
 9355SOL    HW128964   6.510   0.821   4.440
 9355SOL    HW228965   6.348   0.845   4.440
 9356SOL     OW28966   4.152   5.108   2.495
 9356SOL    HW128967   4.199   5.038   2.548
 9356SOL    HW228968   4.107   5.173   2.557
 9357SOL     OW28969   2.534   3.412   0.430
 9357SOL    HW128970   2.625   3.452   0.430
 9357SOL    HW228971   2.509   3.383   0.337
 9358SOL     OW28972   5.716   4.320   1.796
 9358SOL    HW128973   5.716   4.289   1.891
 9358SOL    HW228974   5.758   4.250   1.738
 9359SOL     OW28975   7.012   3.882   6.529
 9359SOL    HW128976   0.062   3.944   6.533
 9359SOL    HW228977   6.929   3.930   6.559
 9360SOL     OW28978   1.924   0.067   5.394
 9360SOL    HW128979   1.937   0.042   5.298
 9360SOL    HW228980   1.996   0.130   5.422
 9361SOL     OW28981   3.197   6.041   2.775
 9361SOL    HW128982   3.213   6.037   2.676
 9361SOL    HW228983   3.139   6.120   2.796
 9362SOL     OW28984   2.376   0.972   2.097
 9362SOL    HW128985   2.307   0.923   2.044
 9362SOL    HW228986   2.416   1.045   2.040
 9363SOL     OW28987   3.380   5.477   1.970
 9363SOL    HW128988   3.400   5.389   2.014
 9363SOL    HW228989   3.290   5.472   1.926
 9364SOL     OW28990   4.589   2.715   6.447
 9364SOL    HW128991   4.563   2.660   6.368
 9364SOL    HW228992   4.634   2.798   6.417
 9365SOL     OW28993   2.698   2.342   5.101
 9365SOL    HW128994   2.682   2.440   5.113
 9365SOL    HW228995   2.773   2.312   5.161
 9366SOL     OW28996   3.366   1.728   0.129
 9366SOL    HW128997   3.454   1.768   0.104
 9366SOL    HW228998   3.354   1.731   0.228
 9367SOL     OW28999   0.135   5.123   4.386
 9367SOL    HW129000   0.182   5.051   4.333
 9367SOL    HW229001   0.200   5.164   4.450
 9368SOL     OW29002   3.771   1.993   2.403
 9368SOL    HW129003   3.868   1.975   2.419
 9368SOL    HW229004   3.719   1.907   2.409
 9369SOL     OW29005   6.632   1.539   6.142
 9369SOL    HW129006   6.621   1.485   6.059
 9369SOL    HW229007   6.542   1.564   6.178
 9370SOL     OW29008   5.451   0.934   2.971
 9370SOL    HW129009   5.531   0.992   2.958
 9370SOL    HW229010   5.379   0.961   2.908
 9371SOL     OW29011   1.700   5.478   0.179
 9371SOL    HW129012   1.661   5.539   0.110
 9371SOL    HW229013   1.756   5.532   0.242
 9372SOL     OW29014   5.614   6.349   3.298
 9372SOL    HW129015   5.626   6.251   3.283
 9372SOL    HW229016   5.678   6.400   3.240
 9373SOL     OW29017   4.525   2.064   2.896
 9373SOL    HW129018   4.605   2.109   2.857
 9373SOL    HW229019   4.553   1.981   2.943
 9374SOL     OW29020   5.622   2.480   0.419
 9374SOL    HW129021   5.566   2.523   0.348
 9374SOL    HW229022   5.713   2.463   0.382
 9375SOL     OW29023   6.766   1.361   3.162
 9375SOL    HW129024   6.783   1.333   3.257
 9375SOL    HW229025   6.688   1.423   3.159
 9376SOL     OW29026   3.131   3.711   0.773
 9376SOL    HW129027   3.127   3.804   0.734
 9376SOL    HW229028   3.040   3.686   0.806
 9377SOL     OW29029   6.647   5.457   3.522
 9377SOL    HW129030   6.628   5.359   3.510
 9377SOL    HW229031   6.726   5.482   3.466
 9378SOL     OW29032   2.227   0.232   5.676
 9378SOL    HW129033   2.252   0.150   5.626
 9378SOL    HW229034   2.279   0.310   5.640
 9379SOL     OW29035   4.765   4.452   4.875
 9379SOL    HW129036   4.813   4.469   4.961
 9379SOL    HW229037   4.717   4.536   4.847
 9380SOL     OW29038   6.232   6.242   5.660
 9380SOL    HW129039   6.213   6.148   5.689
 9380SOL    HW229040   6.320   6.271   5.699
 9381SOL     OW29041   3.265   3.168   5.464
 9381SOL    HW129042   3.262   3.215   5.375
 9381SOL    HW229043   3.246   3.233   5.537
 9382SOL     OW29044   3.846   1.328   3.342
 9382SOL    HW129045   3.825   1.252   3.280
 9382SOL    HW229046   3.767   1.346   3.400
 9383SOL     OW29047   3.653   5.943   4.969
 9383SOL    HW129048   3.564   5.911   5.001
 9383SOL    HW229049   3.644   5.980   4.877
 9384SOL     OW29050   4.483   6.092   2.198
 9384SOL    HW129051   4.384   6.099   2.212
 9384SOL    HW229052   4.527   6.175   2.232
 9385SOL     OW29053   3.902   1.735   2.584
 9385SOL    HW129054   3.834   1.694   2.522
 9385SOL    HW229055   3.945   1.662   2.638
 9386SOL     OW29056   3.110   6.078   4.308
 9386SOL    HW129057   3.128   6.092   4.405
 9386SOL    HW229058   3.098   6.166   4.263
 9387SOL     OW29059   4.318   0.250   1.101
 9387SOL    HW129060   4.352   0.261   1.007
 9387SOL    HW229061   4.247   0.179   1.102
 9388SOL     OW29062   1.360   5.879   2.898
 9388SOL    HW129063   1.356   5.979   2.905
 9388SOL    HW229064   1.337   5.851   2.805
 9389SOL     OW29065   2.678   0.134   4.841
 9389SOL    HW129066   2.584   0.145   4.809
 9389SOL    HW229067   2.679   0.134   4.941
 9390SOL     OW29068   3.910   5.736   3.140
 9390SOL    HW129069   3.828   5.778   3.100
 9390SOL    HW229070   3.882   5.656   3.194
 9391SOL     OW29071   1.817   0.625   5.565
 9391SOL    HW129072   1.742   0.681   5.601
 9391SOL    HW229073   1.833   0.648   5.469
 9392SOL     OW29074   0.525   6.888   4.616
 9392SOL    HW129075   0.600   6.826   4.640
 9392SOL    HW229076   0.546   6.933   4.529
 9393SOL     OW29077   3.999   1.648   4.354
 9393SOL    HW129078   4.031   1.723   4.412
 9393SOL    HW229079   3.997   1.563   4.407
 9394SOL     OW29080   6.086   2.365   3.544
 9394SOL    HW129081   6.007   2.410   3.586
 9394SOL    HW229082   6.115   2.416   3.463
 9395SOL     OW29083   2.613   2.342   0.366
 9395SOL    HW129084   2.676   2.270   0.396
 9395SOL    HW229085   2.620   2.420   0.427
 9396SOL     OW29086   0.429   6.521   4.821
 9396SOL    HW129087   0.410   6.470   4.905
 9396SOL    HW229088   0.493   6.595   4.841
 9397SOL     OW29089   2.704   0.368   0.196
 9397SOL    HW129090   2.715   0.432   0.120
 9397SOL    HW229091   2.757   0.285   0.179
 9398SOL     OW29092   1.778   0.289   6.593
 9398SOL    HW129093   1.809   0.203   6.552
 9398SOL    HW229094   1.847   0.323   6.656
 9399SOL     OW29095   0.420   2.548   6.950
 9399SOL    HW129096   0.464   2.517   0.007
 9399SOL    HW229097   0.490   2.572   6.883
 9400SOL     OW29098   5.333   3.437   1.867
 9400SOL    HW129099   5.284   3.487   1.938
 9400SOL    HW229100   5.302   3.468   1.777
 9401SOL     OW29101   3.013   6.154   3.519
 9401SOL    HW129102   3.006   6.241   3.470
 9401SOL    HW229103   3.107   6.141   3.551
 9402SOL     OW29104   1.860   4.547   5.696
 9402SOL    HW129105   1.928   4.546   5.769
 9402SOL    HW229106   1.768   4.547   5.736
 9403SOL     OW29107   4.675   1.559   2.970
 9403SOL    HW129108   4.706   1.493   3.038
 9403SOL    HW229109   4.690   1.522   2.878
 9404SOL     OW29110   1.236   4.410   6.515
 9404SOL    HW129111   1.307   4.449   6.573
 9404SOL    HW229112   1.250   4.439   6.420
 9405SOL     OW29113   6.636   6.733   2.094
 9405SOL    HW129114   6.715   6.679   2.123
 9405SOL    HW229115   6.591   6.686   2.018
 9406SOL     OW29116   6.906   1.504   5.824
 9406SOL    HW129117   6.894   1.563   5.904
 9406SOL    HW229118   6.853   1.420   5.837
 9407SOL     OW29119   2.877   6.587   2.532
 9407SOL    HW129120   2.828   6.634   2.606
 9407SOL    HW229121   2.811   6.540   2.474
 9408SOL     OW29122   3.794   1.898   5.702
 9408SOL    HW129123   3.737   1.968   5.658
 9408SOL    HW229124   3.788   1.907   5.801
 9409SOL     OW29125   4.766   4.084   5.001
 9409SOL    HW129126   4.783   4.027   5.081
 9409SOL    HW229127   4.700   4.156   5.026
 9410SOL     OW29128   3.446   5.424   1.683
 9410SOL    HW129129   3.440   5.458   1.776
 9410SOL    HW229130   3.361   5.378   1.658
 9411SOL     OW29131   3.409   4.465   1.106
 9411SOL    HW129132   3.417   4.550   1.055
 9411SOL    HW229133   3.390   4.484   1.202
 9412SOL     OW29134   0.065   3.465   1.564
 9412SOL    HW129135   0.071   3.496   1.469
 9412SOL    HW229136   0.139   3.506   1.617
 9413SOL     OW29137   4.295   5.660   4.879
 9413SOL    HW129138   4.232   5.604   4.825
 9413SOL    HW229139   4.373   5.687   4.823
 9414SOL     OW29140   3.580   1.753   3.507
 9414SOL    HW129141   3.544   1.822   3.571
 9414SOL    HW229142   3.671   1.779   3.478
 9415SOL     OW29143   2.457   6.364   2.622
 9415SOL    HW129144   2.455   6.313   2.536
 9415SOL    HW229145   2.423   6.456   2.607
 9416SOL     OW29146   0.711   1.798   1.712
 9416SOL    HW129147   0.748   1.791   1.619
 9416SOL    HW229148   0.770   1.746   1.775
 9417SOL     OW29149   3.074   0.861   5.799
 9417SOL    HW129150   2.981   0.860   5.835
 9417SOL    HW229151   3.077   0.808   5.715
 9418SOL     OW29152   2.961   7.008   0.745
 9418SOL    HW129153   3.003   6.945   0.811
 9418SOL    HW229154   3.028   0.047   0.715
 9419SOL     OW29155   3.097   6.311   5.495
 9419SOL    HW129156   3.160   6.360   5.554
 9419SOL    HW229157   3.084   6.218   5.530
 9420SOL     OW29158   0.812   2.204   4.513
 9420SOL    HW129159   0.882   2.163   4.571
 9420SOL    HW229160   0.810   2.158   4.425
 9421SOL     OW29161   2.461   5.844   5.073
 9421SOL    HW129162   2.374   5.817   5.115
 9421SOL    HW229163   2.524   5.875   5.144
 9422SOL     OW29164   5.159   0.020   2.792
 9422SOL    HW129165   5.131   0.113   2.816
 9422SOL    HW229166   5.203   7.005   2.871
 9423SOL     OW29167   4.068   0.549   3.041
 9423SOL    HW129168   4.014   0.473   3.076
 9423SOL    HW229169   4.012   0.632   3.041
 9424SOL     OW29170   4.691   0.494   5.138
 9424SOL    HW129171   4.753   0.572   5.137
 9424SOL    HW229172   4.743   0.410   5.155
 9425SOL     OW29173   0.292   3.244   6.336
 9425SOL    HW129174   0.259   3.265   6.244
 9425SOL    HW229175   0.247   3.161   6.369
 9426SOL     OW29176   3.015   1.719   0.236
 9426SOL    HW129177   2.962   1.800   0.262
 9426SOL    HW229178   3.057   1.734   0.147
 9427SOL     OW29179   2.565   4.854   5.168
 9427SOL    HW129180   2.591   4.805   5.084
 9427SOL    HW229181   2.494   4.921   5.147
 9428SOL     OW29182   4.868   0.354   1.543
 9428SOL    HW129183   4.919   0.374   1.627
 9428SOL    HW229184   4.868   0.434   1.484
 9429SOL     OW29185   1.243   4.839   1.757
 9429SOL    HW129186   1.256   4.743   1.784
 9429SOL    HW229187   1.149   4.867   1.777
 9430SOL     OW29188   0.068   6.654   2.222
 9430SOL    HW129189   0.128   6.632   2.145
 9430SOL    HW229190   0.122   6.665   2.305
 9431SOL     OW29191   5.902   4.587   0.690
 9431SOL    HW129192   5.932   4.530   0.614
 9431SOL    HW229193   5.931   4.545   0.776
 9432SOL     OW29194   0.284   0.289   3.449
 9432SOL    HW129195   0.186   0.301   3.466
 9432SOL    HW229196   0.336   0.361   3.495
 9433SOL     OW29197   3.243   4.959   3.816
 9433SOL    HW129198   3.163   4.918   3.859
 9433SOL    HW229199   3.231   4.963   3.717
 9434SOL     OW29200   5.643   4.590   3.402
 9434SOL    HW129201   5.725   4.612   3.454
 9434SOL    HW229202   5.582   4.669   3.402
 9435SOL     OW29203   0.927   1.593   3.760
 9435SOL    HW129204   0.942   1.528   3.684
 9435SOL    HW229205   0.935   1.544   3.847
 9436SOL     OW29206   1.010   4.469   1.789
 9436SOL    HW129207   1.110   4.470   1.788
 9436SOL    HW229208   0.977   4.500   1.879
 9437SOL     OW29209   1.417   6.371   3.752
 9437SOL    HW129210   1.376   6.297   3.804
 9437SOL    HW229211   1.345   6.424   3.707
 9438SOL     OW29212   1.214   6.285   1.538
 9438SOL    HW129213   1.162   6.369   1.553
 9438SOL    HW229214   1.153   6.206   1.547
 9439SOL     OW29215   0.512   3.044   1.763
 9439SOL    HW129216   0.547   3.074   1.675
 9439SOL    HW229217   0.520   2.944   1.770
 9440SOL     OW29218   4.874   6.025   4.124
 9440SOL    HW129219   4.886   6.066   4.034
 9440SOL    HW229220   4.964   6.004   4.163
 9441SOL     OW29221   1.526   5.364   5.133
 9441SOL    HW129222   1.568   5.455   5.128
 9441SOL    HW229223   1.568   5.304   5.065
 9442SOL     OW29224   6.186   2.509   0.346
 9442SOL    HW129225   6.195   2.571   0.424
 9442SOL    HW229226   6.231   2.422   0.367
 9443SOL     OW29227   2.167   4.842   1.051
 9443SOL    HW129228   2.262   4.834   1.022
 9443SOL    HW229229   2.134   4.754   1.085
 9444SOL     OW29230   0.734   4.104   6.605
 9444SOL    HW129231   0.781   4.129   6.690
 9444SOL    HW229232   0.802   4.073   6.538
 9445SOL     OW29233   5.322   3.263   2.113
 9445SOL    HW129234   5.274   3.177   2.099
 9445SOL    HW229235   5.366   3.291   2.028
 9446SOL     OW29236   6.257   6.992   3.557
 9446SOL    HW129237   6.246   6.911   3.498
 9446SOL    HW229238   6.217   0.043   3.512
 9447SOL     OW29239   5.842   3.565   3.431
 9447SOL    HW129240   5.748   3.584   3.459
 9447SOL    HW229241   5.843   3.492   3.363
 9448SOL     OW29242   5.704   6.269   6.016
 9448SOL    HW129243   5.684   6.282   5.919
 9448SOL    HW229244   5.631   6.309   6.071
 9449SOL     OW29245   6.884   5.912   6.676
 9449SOL    HW129246   6.962   5.886   6.620
 9449SOL    HW229247   6.903   5.999   6.722
 9450SOL     OW29248   3.387   4.990   4.897
 9450SOL    HW129249   3.480   4.970   4.866
 9450SOL    HW229250   3.332   5.021   4.819
 9451SOL     OW29251   4.342   5.642   6.182
 9451SOL    HW129252   4.314   5.710   6.114
 9451SOL    HW229253   4.334   5.681   6.274
 9452SOL     OW29254   1.710   2.996   0.849
 9452SOL    HW129255   1.785   3.054   0.818
 9452SOL    HW229256   1.685   3.022   0.943
 9453SOL     OW29257   2.230   4.601   3.243
 9453SOL    HW129258   2.161   4.600   3.316
 9453SOL    HW229259   2.252   4.507   3.217
 9454SOL     OW29260   1.795   3.596   5.749
 9454SOL    HW129261   1.747   3.590   5.661
 9454SOL    HW229262   1.759   3.527   5.811
 9455SOL     OW29263   3.606   1.645   2.715
 9455SOL    HW129264   3.574   1.691   2.633
 9455SOL    HW229265   3.529   1.628   2.777
 9456SOL     OW29266   0.040   4.635   0.097
 9456SOL    HW129267   0.131   4.660   0.129
 9456SOL    HW229268   7.025   4.572   0.162
 9457SOL     OW29269   1.805   3.754   5.983
 9457SOL    HW129270   1.899   3.769   6.014
 9457SOL    HW229271   1.806   3.710   5.894
 9458SOL     OW29272   1.315   4.078   6.449
 9458SOL    HW129273   1.396   4.085   6.391
 9458SOL    HW229274   1.276   3.986   6.442
 9459SOL     OW29275   6.244   4.435   2.551
 9459SOL    HW129276   6.231   4.362   2.484
 9459SOL    HW229277   6.227   4.399   2.643
 9460SOL     OW29278   0.231   1.594   4.693
 9460SOL    HW129279   0.313   1.583   4.637
 9460SOL    HW229280   0.239   1.537   4.775
 9461SOL     OW29281   6.788   1.744   3.768
 9461SOL    HW129282   6.778   1.645   3.757
 9461SOL    HW229283   6.698   1.788   3.762
 9462SOL     OW29284   2.219   4.058   2.904
 9462SOL    HW129285   2.237   4.156   2.912
 9462SOL    HW229286   2.235   4.014   2.993
 9463SOL     OW29287   0.394   1.063   1.388
 9463SOL    HW129288   0.476   1.038   1.439
 9463SOL    HW229289   0.385   1.003   1.309
 9464SOL     OW29290   5.281   6.443   0.361
 9464SOL    HW129291   5.264   6.509   0.434
 9464SOL    HW229292   5.247   6.479   0.274
 9465SOL     OW29293   6.934   7.020   3.034
 9465SOL    HW129294   7.017   7.005   2.979
 9465SOL    HW229295   6.954   0.057   3.108
 9466SOL     OW29296   3.948   3.672   5.097
 9466SOL    HW129297   3.927   3.595   5.157
 9466SOL    HW229298   4.043   3.664   5.065
 9467SOL     OW29299   0.846   2.996   1.737
 9467SOL    HW129300   0.821   2.907   1.700
 9467SOL    HW229301   0.860   3.061   1.663
 9468SOL     OW29302   5.671   2.440   6.380
 9468SOL    HW129303   5.766   2.465   6.396
 9468SOL    HW229304   5.661   2.404   6.287
 9469SOL     OW29305   6.039   5.721   1.481
 9469SOL    HW129306   6.065   5.750   1.573
 9469SOL    HW229307   6.061   5.624   1.469
 9470SOL     OW29308   5.881   2.854   6.234
 9470SOL    HW129309   5.950   2.831   6.165
 9470SOL    HW229310   5.913   2.932   6.288
 9471SOL     OW29311   6.188   2.324   5.045
 9471SOL    HW129312   6.221   2.371   4.963
 9471SOL    HW229313   6.208   2.226   5.037
 9472SOL     OW29314   7.001   3.979   4.287
 9472SOL    HW129315   0.045   4.036   4.326
 9472SOL    HW229316   7.009   3.981   4.187
 9473SOL     OW29317   3.434   6.194   5.632
 9473SOL    HW129318   3.448   6.223   5.538
 9473SOL    HW229319   3.516   6.146   5.665
 9474SOL     OW29320   6.431   3.511   1.030
 9474SOL    HW129321   6.530   3.513   1.031
 9474SOL    HW229322   6.395   3.574   1.099
 9475SOL     OW29323   3.061   2.927   0.307
 9475SOL    HW129324   3.087   2.870   0.384
 9475SOL    HW229325   3.142   2.957   0.258
 9476SOL     OW29326   3.703   3.809   4.813
 9476SOL    HW129327   3.605   3.803   4.797
 9476SOL    HW229328   3.720   3.820   4.911
 9477SOL     OW29329   7.011   3.589   2.203
 9477SOL    HW129330   6.979   3.648   2.130
 9477SOL    HW229331   6.979   3.495   2.188
 9478SOL     OW29332   6.049   3.409   6.224
 9478SOL    HW129333   6.086   3.502   6.212
 9478SOL    HW229334   6.045   3.364   6.135
 9479SOL     OW29335   6.116   6.485   6.244
 9479SOL    HW129336   6.040   6.512   6.304
 9479SOL    HW229337   6.203   6.506   6.289
 9480SOL     OW29338   4.580   4.631   6.630
 9480SOL    HW129339   4.586   4.633   6.730
 9480SOL    HW229340   4.560   4.722   6.596
 9481SOL     OW29341   5.846   3.958   1.380
 9481SOL    HW129342   5.874   3.907   1.461
 9481SOL    HW229343   5.801   4.043   1.408
 9482SOL     OW29344   6.252   1.717   3.343
 9482SOL    HW129345   6.155   1.733   3.364
 9482SOL    HW229346   6.259   1.675   3.252
 9483SOL     OW29347   1.425   1.545   0.793
 9483SOL    HW129348   1.452   1.479   0.723
 9483SOL    HW229349   1.505   1.598   0.821
 9484SOL     OW29350   4.587   1.559   3.671
 9484SOL    HW129351   4.593   1.568   3.572
 9484SOL    HW229352   4.511   1.498   3.695
 9485SOL     OW29353   0.809   0.070   2.236
 9485SOL    HW129354   0.806   0.064   2.336
 9485SOL    HW229355   0.821   0.166   2.209
 9486SOL     OW29356   2.206   5.092   1.396
 9486SOL    HW129357   2.146   5.014   1.381
 9486SOL    HW229358   2.287   5.063   1.446
 9487SOL     OW29359   2.976   3.319   3.547
 9487SOL    HW129360   3.037   3.366   3.483
 9487SOL    HW229361   2.901   3.380   3.573
 9488SOL     OW29362   3.021   6.328   1.633
 9488SOL    HW129363   2.934   6.337   1.584
 9488SOL    HW229364   3.043   6.415   1.678
 9489SOL     OW29365   3.167   4.024   1.544
 9489SOL    HW129366   3.075   4.004   1.511
 9489SOL    HW229367   3.171   4.119   1.576
 9490SOL     OW29368   6.281   6.208   0.158
 9490SOL    HW129369   6.204   6.191   0.221
 9490SOL    HW229370   6.257   6.176   0.067
 9491SOL     OW29371   0.037   4.754   4.092
 9491SOL    HW129372   0.107   4.749   4.021
 9491SOL    HW229373   0.079   4.740   4.182
 9492SOL     OW29374   3.323   3.663   2.618
 9492SOL    HW129375   3.313   3.699   2.525
 9492SOL    HW229376   3.365   3.732   2.677
 9493SOL     OW29377   4.058   5.131   3.913
 9493SOL    HW129378   4.149   5.145   3.872
 9493SOL    HW229379   4.041   5.034   3.926
 9494SOL     OW29380   3.806   4.201   0.828
 9494SOL    HW129381   3.729   4.197   0.764
 9494SOL    HW229382   3.870   4.126   0.808
 9495SOL     OW29383   6.245   2.582   4.534
 9495SOL    HW129384   6.344   2.589   4.526
 9495SOL    HW229385   6.202   2.638   4.463
 9496SOL     OW29386   5.200   5.093   0.838
 9496SOL    HW129387   5.182   5.184   0.802
 9496SOL    HW229388   5.297   5.085   0.862
 9497SOL     OW29389   5.320   4.515   0.371
 9497SOL    HW129390   5.252   4.584   0.396
 9497SOL    HW229391   5.345   4.463   0.452
 9498SOL     OW29392   5.612   0.539   6.072
 9498SOL    HW129393   5.519   0.545   6.111
 9498SOL    HW229394   5.679   0.549   6.146
 9499SOL     OW29395   2.446   3.085   5.881
 9499SOL    HW129396   2.519   3.143   5.916
 9499SOL    HW229397   2.470   3.054   5.788
 9500SOL     OW29398   3.674   6.876   1.941
 9500SOL    HW129399   3.662   6.795   1.884
 9500SOL    HW229400   3.765   6.874   1.983
 9501SOL     OW29401   2.759   1.325   4.399
 9501SOL    HW129402   2.762   1.236   4.354
 9501SOL    HW229403   2.792   1.396   4.336
 9502SOL     OW29404   0.457   1.852   4.711
 9502SOL    HW129405   0.461   1.910   4.629
 9502SOL    HW229406   0.365   1.814   4.720
 9503SOL     OW29407   0.683   1.030   1.837
 9503SOL    HW129408   0.688   0.993   1.744
 9503SOL    HW229409   0.653   0.957   1.899
 9504SOL     OW29410   0.185   2.328   1.097
 9504SOL    HW129411   0.118   2.343   1.170
 9504SOL    HW229412   0.275   2.313   1.137
 9505SOL     OW29413   5.366   3.926   3.473
 9505SOL    HW129414   5.443   3.868   3.445
 9505SOL    HW229415   5.310   3.876   3.539
 9506SOL     OW29416   0.555   3.243   6.443
 9506SOL    HW129417   0.634   3.261   6.385
 9506SOL    HW229418   0.474   3.285   6.404
 9507SOL     OW29419   1.949   1.355   3.949
 9507SOL    HW129420   2.016   1.374   3.877
 9507SOL    HW229421   1.972   1.407   4.031
 9508SOL     OW29422   6.400   2.652   0.477
 9508SOL    HW129423   6.494   2.628   0.504
 9508SOL    HW229424   6.348   2.679   0.557
 9509SOL     OW29425   1.058   6.502   5.350
 9509SOL    HW129426   1.066   6.403   5.364
 9509SOL    HW229427   0.965   6.531   5.374
 9510SOL     OW29428   0.445   3.876   1.536
 9510SOL    HW129429   0.381   3.860   1.611
 9510SOL    HW229430   0.431   3.808   1.465
 9511SOL     OW29431   1.221   1.552   6.872
 9511SOL    HW129432   1.311   1.526   6.907
 9511SOL    HW229433   1.153   1.537   6.943
 9512SOL     OW29434   5.895   2.040   3.116
 9512SOL    HW129435   5.937   2.089   3.040
 9512SOL    HW229436   5.814   2.090   3.148
 9513SOL     OW29437   1.122   3.215   5.183
 9513SOL    HW129438   1.171   3.224   5.096
 9513SOL    HW229439   1.101   3.119   5.200
 9514SOL     OW29440   1.291   3.807   6.672
 9514SOL    HW129441   1.262   3.902   6.674
 9514SOL    HW229442   1.364   3.792   6.738
 9515SOL     OW29443   1.432   6.215   0.491
 9515SOL    HW129444   1.420   6.236   0.394
 9515SOL    HW229445   1.432   6.116   0.504
 9516SOL     OW29446   4.964   3.512   4.671
 9516SOL    HW129447   4.932   3.453   4.745
 9516SOL    HW229448   4.982   3.604   4.707
 9517SOL     OW29449   1.421   4.971   0.414
 9517SOL    HW129450   1.383   4.879   0.409
 9517SOL    HW229451   1.467   4.982   0.503
 9518SOL     OW29452   0.695   2.064   6.757
 9518SOL    HW129453   0.704   2.125   6.678
 9518SOL    HW229454   0.771   1.998   6.757
 9519SOL     OW29455   3.760   3.230   3.304
 9519SOL    HW129456   3.692   3.157   3.299
 9519SOL    HW229457   3.772   3.270   3.214
 9520SOL     OW29458   6.828   1.647   3.324
 9520SOL    HW129459   6.740   1.608   3.301
 9520SOL    HW229460   6.897   1.618   3.258
 9521SOL     OW29461   3.556   3.859   1.747
 9521SOL    HW129462   3.622   3.813   1.806
 9521SOL    HW229463   3.492   3.911   1.803
 9522SOL     OW29464   4.150   5.528   3.036
 9522SOL    HW129465   4.203   5.559   3.114
 9522SOL    HW229466   4.069   5.586   3.025
 9523SOL     OW29467   2.583   5.207   4.976
 9523SOL    HW129468   2.528   5.169   5.049
 9523SOL    HW229469   2.628   5.134   4.925
 9524SOL     OW29470   1.624   2.447   0.893
 9524SOL    HW129471   1.588   2.535   0.862
 9524SOL    HW229472   1.549   2.382   0.904
 9525SOL     OW29473   1.503   2.005   4.872
 9525SOL    HW129474   1.521   2.102   4.857
 9525SOL    HW229475   1.562   1.971   4.945
 9526SOL     OW29476   6.034   4.779   1.752
 9526SOL    HW129477   5.995   4.832   1.677
 9526SOL    HW229478   5.997   4.687   1.750
 9527SOL     OW29479   2.426   0.351   5.042
 9527SOL    HW129480   2.369   0.384   5.118
 9527SOL    HW229481   2.454   0.429   4.985
 9528SOL     OW29482   5.855   1.408   1.006
 9528SOL    HW129483   5.892   1.496   1.036
 9528SOL    HW229484   5.768   1.423   0.959
 9529SOL     OW29485   5.556   4.100   0.524
 9529SOL    HW129486   5.614   4.021   0.548
 9529SOL    HW229487   5.535   4.151   0.607
 9530SOL     OW29488   0.924   4.701   4.177
 9530SOL    HW129489   1.007   4.756   4.172
 9530SOL    HW229490   0.922   4.636   4.101
 9531SOL     OW29491   4.673   4.524   2.917
 9531SOL    HW129492   4.694   4.455   2.847
 9531SOL    HW229493   4.688   4.615   2.880
 9532SOL     OW29494   0.146   5.201   1.177
 9532SOL    HW129495   0.202   5.273   1.135
 9532SOL    HW229496   0.152   5.209   1.277
 9533SOL     OW29497   0.791   5.100   3.515
 9533SOL    HW129498   0.714   5.090   3.577
 9533SOL    HW229499   0.761   5.147   3.432
 9534SOL     OW29500   6.001   4.246   4.617
 9534SOL    HW129501   6.058   4.215   4.693
 9534SOL    HW229502   6.005   4.346   4.611
 9535SOL     OW29503   1.815   0.871   6.024
 9535SOL    HW129504   1.787   0.953   6.074
 9535SOL    HW229505   1.887   0.894   5.959
 9536SOL     OW29506   3.064   3.498   5.788
 9536SOL    HW129507   3.150   3.461   5.751
 9536SOL    HW229508   2.988   3.438   5.763
 9537SOL     OW29509   2.940   1.124   4.862
 9537SOL    HW129510   2.943   1.207   4.806
 9537SOL    HW229511   3.025   1.116   4.915
 9538SOL     OW29512   4.628   0.505   4.424
 9538SOL    HW129513   4.624   0.567   4.502
 9538SOL    HW229514   4.546   0.518   4.367
 9539SOL     OW29515   2.925   3.752   4.709
 9539SOL    HW129516   2.850   3.761   4.643
 9539SOL    HW229517   2.991   3.827   4.695
 9540SOL     OW29518   5.668   5.169   4.244
 9540SOL    HW129519   5.760   5.199   4.217
 9540SOL    HW229520   5.676   5.091   4.307
 9541SOL     OW29521   2.319   0.809   6.058
 9541SOL    HW129522   2.291   0.750   6.133
 9541SOL    HW229523   2.270   0.896   6.064
 9542SOL     OW29524   5.647   5.048   4.558
 9542SOL    HW129525   5.682   4.955   4.571
 9542SOL    HW229526   5.547   5.044   4.545
 9543SOL     OW29527   3.872   0.487   6.358
 9543SOL    HW129528   3.835   0.414   6.416
 9543SOL    HW229529   3.922   0.553   6.415
 9544SOL     OW29530   5.453   3.284   4.468
 9544SOL    HW129531   5.457   3.315   4.563
 9544SOL    HW229532   5.464   3.185   4.464
 9545SOL     OW29533   5.476   5.040   2.658
 9545SOL    HW129534   5.523   5.007   2.740
 9545SOL    HW229535   5.541   5.042   2.581
 9546SOL     OW29536   4.116   1.137   5.890
 9546SOL    HW129537   4.070   1.166   5.974
 9546SOL    HW229538   4.182   1.065   5.911
 9547SOL     OW29539   2.518   5.349   3.694
 9547SOL    HW129540   2.549   5.387   3.607
 9547SOL    HW229541   2.594   5.302   3.739
 9548SOL     OW29542   6.982   5.358   4.635
 9548SOL    HW129543   6.973   5.457   4.631
 9548SOL    HW229544   6.993   5.329   4.731
 9549SOL     OW29545   2.799   1.291   2.108
 9549SOL    HW129546   2.706   1.254   2.108
 9549SOL    HW229547   2.831   1.300   2.013
 9550SOL     OW29548   6.698   1.039   0.101
 9550SOL    HW129549   6.626   1.080   0.045
 9550SOL    HW229550   6.779   1.097   0.099
 9551SOL     OW29551   5.666   2.738   6.105
 9551SOL    HW129552   5.738   2.773   6.164
 9551SOL    HW229553   5.617   2.815   6.063
 9552SOL     OW29554   2.443   5.841   5.993
 9552SOL    HW129555   2.353   5.797   5.993
 9552SOL    HW229556   2.509   5.781   5.949
 9553SOL     OW29557   5.487   2.251   0.459
 9553SOL    HW129558   5.546   2.172   0.474
 9553SOL    HW229559   5.543   2.329   0.431
 9554SOL     OW29560   1.430   6.399   3.169
 9554SOL    HW129561   1.465   6.481   3.123
 9554SOL    HW229562   1.337   6.417   3.201
 9555SOL     OW29563   0.155   1.253   3.190
 9555SOL    HW129564   0.089   1.299   3.130
 9555SOL    HW229565   0.206   1.321   3.242
 9556SOL     OW29566   1.294   3.458   0.893
 9556SOL    HW129567   1.246   3.399   0.827
 9556SOL    HW229568   1.305   3.409   0.979
 9557SOL     OW29569   5.649   0.040   1.154
 9557SOL    HW129570   5.687   0.105   1.088
 9557SOL    HW229571   5.561   0.075   1.187
 9558SOL     OW29572   5.973   5.903   5.645
 9558SOL    HW129573   5.963   5.813   5.687
 9558SOL    HW229574   5.923   5.972   5.698
 9559SOL     OW29575   0.775   4.823   0.558
 9559SOL    HW129576   0.736   4.776   0.638
 9559SOL    HW229577   0.873   4.838   0.573
 9560SOL     OW29578   2.252   0.988   2.836
 9560SOL    HW129579   2.316   0.929   2.885
 9560SOL    HW229580   2.269   1.083   2.862
 9561SOL     OW29581   0.622   0.966   1.493
 9561SOL    HW129582   0.719   0.976   1.515
 9561SOL    HW229583   0.613   0.908   1.412
 9562SOL     OW29584   2.845   0.056   4.644
 9562SOL    HW129585   2.819   6.991   4.620
 9562SOL    HW229586   2.799   0.083   4.729
 9563SOL     OW29587   0.073   6.941   0.187
 9563SOL    HW129588   7.004   6.919   0.173
 9563SOL    HW229589   0.125   6.856   0.196
 9564SOL     OW29590   2.336   0.988   0.478
 9564SOL    HW129591   2.275   1.042   0.419
 9564SOL    HW229592   2.375   1.047   0.548
 9565SOL     OW29593   3.837   1.139   5.435
 9565SOL    HW129594   3.840   1.075   5.358
 9565SOL    HW229595   3.899   1.108   5.507
 9566SOL     OW29596   3.005   6.032   7.019
 9566SOL    HW129597   2.925   5.990   0.033
 9566SOL    HW229598   3.062   6.074   0.062
 9567SOL     OW29599   5.074   4.621   0.531
 9567SOL    HW129600   5.002   4.689   0.523
 9567SOL    HW229601   5.132   4.642   0.610
 9568SOL     OW29602   4.596   1.872   6.868
 9568SOL    HW129603   4.587   1.887   6.769
 9568SOL    HW229604   4.679   1.820   6.886
 9569SOL     OW29605   6.915   1.978   2.368
 9569SOL    HW129606   6.895   1.891   2.412
 9569SOL    HW229607   6.977   2.031   2.426
 9570SOL     OW29608   0.643   3.112   1.535
 9570SOL    HW129609   0.740   3.137   1.526
 9570SOL    HW229610   0.617   3.053   1.458
 9571SOL     OW29611   3.601   2.847   5.676
 9571SOL    HW129612   3.516   2.899   5.677
 9571SOL    HW229613   3.666   2.888   5.740
 9572SOL     OW29614   1.785   4.925   2.060
 9572SOL    HW129615   1.845   5.000   2.087
 9572SOL    HW229616   1.805   4.844   2.116
 9573SOL     OW29617   0.846   2.344   6.288
 9573SOL    HW129618   0.919   2.346   6.219
 9573SOL    HW229619   0.839   2.434   6.332
 9574SOL     OW29620   3.574   2.860   2.728
 9574SOL    HW129621   3.649   2.874   2.663
 9574SOL    HW229622   3.488   2.850   2.677
 9575SOL     OW29623   0.423   1.393   1.964
 9575SOL    HW129624   0.445   1.301   1.995
 9575SOL    HW229625   0.424   1.396   1.864
 9576SOL     OW29626   1.869   1.822   0.437
 9576SOL    HW129627   1.958   1.777   0.425
 9576SOL    HW229628   1.882   1.921   0.440
 9577SOL     OW29629   0.700   0.434   6.009
 9577SOL    HW129630   0.762   0.473   5.941
 9577SOL    HW229631   0.615   0.488   6.011
 9578SOL     OW29632   1.052   3.789   2.948
 9578SOL    HW129633   1.098   3.701   2.937
 9578SOL    HW229634   0.953   3.777   2.940
 9579SOL     OW29635   0.085   5.202   3.482
 9579SOL    HW129636   0.025   5.123   3.493
 9579SOL    HW229637   0.029   5.285   3.471
 9580SOL     OW29638   4.406   3.648   0.988
 9580SOL    HW129639   4.387   3.674   0.893
 9580SOL    HW229640   4.470   3.572   0.990
 9581SOL     OW29641   0.497   0.079   6.722
 9581SOL    HW129642   0.415   0.095   6.667
 9581SOL    HW229643   0.482   0.113   6.815
 9582SOL     OW29644   4.469   5.274   5.308
 9582SOL    HW129645   4.555   5.225   5.291
 9582SOL    HW229646   4.443   5.324   5.226
 9583SOL     OW29647   2.950   3.922   1.420
 9583SOL    HW129648   2.888   3.863   1.471
 9583SOL    HW229649   2.951   3.894   1.324
 9584SOL     OW29650   7.003   5.087   5.978
 9584SOL    HW129651   6.926   5.121   5.925
 9584SOL    HW229652   0.029   5.164   6.011
 9585SOL     OW29653   5.948   6.604   3.589
 9585SOL    HW129654   5.886   6.538   3.632
 9585SOL    HW229655   5.899   6.653   3.517
 9586SOL     OW29656   5.017   5.013   2.072
 9586SOL    HW129657   5.114   4.991   2.082
 9586SOL    HW229658   4.987   4.991   1.979
 9587SOL     OW29659   0.793   0.095   1.381
 9587SOL    HW129660   0.697   0.066   1.372
 9587SOL    HW229661   0.817   0.099   1.478
 9588SOL     OW29662   6.311   6.570   1.509
 9588SOL    HW129663   6.405   6.541   1.492
 9588SOL    HW229664   6.298   6.663   1.475
 9589SOL     OW29665   1.842   5.093   6.987
 9589SOL    HW129666   1.770   5.148   0.002
 9589SOL    HW229667   1.846   5.114   6.890
 9590SOL     OW29668   5.860   3.358   1.736
 9590SOL    HW129669   5.910   3.286   1.784
 9590SOL    HW229670   5.762   3.342   1.745
 9591SOL     OW29671   2.856   5.284   5.652
 9591SOL    HW129672   2.775   5.262   5.705
 9591SOL    HW229673   2.910   5.201   5.637
 9592SOL     OW29674   2.757   4.480   0.296
 9592SOL    HW129675   2.745   4.452   0.391
 9592SOL    HW229676   2.821   4.557   0.291
 9593SOL     OW29677   0.424   1.190   6.377
 9593SOL    HW129678   0.340   1.168   6.425
 9593SOL    HW229679   0.502   1.158   6.431
 9594SOL     OW29680   1.775   5.100   3.781
 9594SOL    HW129681   1.684   5.085   3.744
 9594SOL    HW229682   1.782   5.058   3.872
 9595SOL     OW29683   0.322   3.018   4.504
 9595SOL    HW129684   0.242   2.965   4.477
 9595SOL    HW229685   0.390   3.015   4.430
 9596SOL     OW29686   1.254   5.099   6.710
 9596SOL    HW129687   1.197   5.035   6.658
 9596SOL    HW229688   1.279   5.176   6.651
 9597SOL     OW29689   0.017   4.229   1.556
 9597SOL    HW129690   0.048   4.315   1.517
 9597SOL    HW229691   7.001   4.247   1.644
 9598SOL     OW29692   1.346   4.713   3.318
 9598SOL    HW129693   1.342   4.627   3.369
 9598SOL    HW229694   1.382   4.785   3.377
 9599SOL     OW29695   2.649   0.723   4.277
 9599SOL    HW129696   2.633   0.625   4.287
 9599SOL    HW229697   2.665   0.763   4.368
 9600SOL     OW29698   3.509   6.483   0.201
 9600SOL    HW129699   3.592   6.522   0.240
 9600SOL    HW229700   3.474   6.543   0.130
 9601SOL     OW29701   4.998   4.111   0.966
 9601SOL    HW129702   4.984   4.061   1.052
 9601SOL    HW229703   5.087   4.156   0.969
 9602SOL     OW29704   6.089   4.025   6.274
 9602SOL    HW129705   6.172   3.969   6.277
 9602SOL    HW229706   6.090   4.089   6.351
 9603SOL     OW29707   4.598   1.452   5.293
 9603SOL    HW129708   4.578   1.529   5.354
 9603SOL    HW229709   4.528   1.446   5.222
 9604SOL     OW29710   4.767   0.481   0.438
 9604SOL    HW129711   4.774   0.391   0.481
 9604SOL    HW229712   4.672   0.502   0.418
 9605SOL     OW29713   0.955   5.785   3.397
 9605SOL    HW129714   0.876   5.818   3.346
 9605SOL    HW229715   0.984   5.854   3.463
 9606SOL     OW29716   2.031   6.284   0.043
 9606SOL    HW129717   1.980   6.291   6.985
 9606SOL    HW229718   1.994   6.207   0.097
 9607SOL     OW29719   1.941   1.511   6.550
 9607SOL    HW129720   2.024   1.484   6.599
 9607SOL    HW229721   1.900   1.430   6.507
 9608SOL     OW29722   6.993   5.465   2.143
 9608SOL    HW129723   7.002   5.402   2.220
 9608SOL    HW229724   6.903   5.455   2.102
 9609SOL     OW29725   2.013   3.655   0.089
 9609SOL    HW129726   2.027   3.599   0.008
 9609SOL    HW229727   2.061   3.614   0.167
 9610SOL     OW29728   1.849   4.900   3.586
 9610SOL    HW129729   1.842   4.995   3.615
 9610SOL    HW229730   1.800   4.842   3.650
 9611SOL     OW29731   1.100   6.287   6.952
 9611SOL    HW129732   1.128   6.381   6.931
 9611SOL    HW229733   1.041   6.286   0.005
 9612SOL     OW29734   0.477   3.924   1.134
 9612SOL    HW129735   0.421   3.883   1.062
 9612SOL    HW229736   0.419   3.953   1.210
 9613SOL     OW29737   5.292   0.531   3.761
 9613SOL    HW129738   5.297   0.631   3.757
 9613SOL    HW229739   5.286   0.501   3.856
 9614SOL     OW29740   3.769   2.533   1.449
 9614SOL    HW129741   3.822   2.618   1.452
 9614SOL    HW229742   3.698   2.536   1.520
 9615SOL     OW29743   2.673   0.121   0.531
 9615SOL    HW129744   2.662   0.170   0.617
 9615SOL    HW229745   2.620   0.167   0.459
 9616SOL     OW29746   3.395   3.624   1.262
 9616SOL    HW129747   3.366   3.683   1.337
 9616SOL    HW229748   3.333   3.636   1.185
 9617SOL     OW29749   1.270   3.750   3.583
 9617SOL    HW129750   1.328   3.779   3.507
 9617SOL    HW229751   1.174   3.771   3.562
 9618SOL     OW29752   4.274   6.712   6.838
 9618SOL    HW129753   4.176   6.694   6.832
 9618SOL    HW229754   4.325   6.629   6.816
 9619SOL     OW29755   1.867   6.689   6.499
 9619SOL    HW129756   1.818   6.748   6.564
 9619SOL    HW229757   1.959   6.726   6.484
 9620SOL     OW29758   4.524   1.368   6.175
 9620SOL    HW129759   4.486   1.416   6.254
 9620SOL    HW229760   4.520   1.270   6.191
 9621SOL     OW29761   0.797   1.697   2.045
 9621SOL    HW129762   0.860   1.650   1.983
 9621SOL    HW229763   0.718   1.639   2.063
 9622SOL     OW29764   6.908   1.147   0.670
 9622SOL    HW129765   6.838   1.214   0.647
 9622SOL    HW229766   6.952   1.173   0.756
 9623SOL     OW29767   2.920   3.810   5.584
 9623SOL    HW129768   2.925   3.900   5.542
 9623SOL    HW229769   2.870   3.747   5.524
 9624SOL     OW29770   6.681   4.173   2.344
 9624SOL    HW129771   6.628   4.103   2.392
 9624SOL    HW229772   6.742   4.218   2.409
 9625SOL     OW29773   5.060   5.388   6.769
 9625SOL    HW129774   5.021   5.355   6.855
 9625SOL    HW229775   4.994   5.376   6.695
 9626SOL     OW29776   3.684   4.469   6.737
 9626SOL    HW129777   3.615   4.421   6.790
 9626SOL    HW229778   3.657   4.564   6.724
 9627SOL     OW29779   6.982   6.039   4.724
 9627SOL    HW129780   6.962   6.131   4.690
 9627SOL    HW229781   0.042   6.008   4.688
 9628SOL     OW29782   4.944   4.720   6.973
 9628SOL    HW129783   4.887   4.740   0.024
 9628SOL    HW229784   4.899   4.651   6.916
 9629SOL     OW29785   0.377   0.019   1.884
 9629SOL    HW129786   0.399   0.116   1.890
 9629SOL    HW229787   0.302   7.026   1.946
 9630SOL     OW29788   6.783   0.107   5.146
 9630SOL    HW129789   6.879   0.130   5.162
 9630SOL    HW229790   6.725   0.165   5.203
 9631SOL     OW29791   6.969   6.762   6.796
 9631SOL    HW129792   0.004   6.749   6.719
 9631SOL    HW229793   7.017   6.743   6.881
 9632SOL     OW29794   0.760   6.983   3.027
 9632SOL    HW129795   0.769   6.898   3.079
 9632SOL    HW229796   0.773   0.033   3.089
 9633SOL     OW29797   5.046   4.676   5.787
 9633SOL    HW129798   5.142   4.666   5.760
 9633SOL    HW229799   5.041   4.718   5.878
 9634SOL     OW29800   1.029   5.721   4.049
 9634SOL    HW129801   0.930   5.707   4.048
 9634SOL    HW229802   1.060   5.753   3.959
 9635SOL     OW29803   1.769   4.781   5.177
 9635SOL    HW129804   1.743   4.751   5.085
 9635SOL    HW229805   1.689   4.778   5.237
 9636SOL     OW29806   4.361   2.009   5.789
 9636SOL    HW129807   4.311   2.041   5.869
 9636SOL    HW229808   4.454   2.047   5.791
 9637SOL     OW29809   2.653   1.139   6.120
 9637SOL    HW129810   2.619   1.233   6.110
 9637SOL    HW229811   2.629   1.086   6.039
 9638SOL     OW29812   6.836   3.659   6.833
 9638SOL    HW129813   6.745   3.668   6.874
 9638SOL    HW229814   6.883   3.747   6.837
 9639SOL     OW29815   3.414   1.562   2.372
 9639SOL    HW129816   3.350   1.638   2.368
 9639SOL    HW229817   3.419   1.528   2.466
 9640SOL     OW29818   2.230   3.090   3.254
 9640SOL    HW129819   2.166   3.137   3.194
 9640SOL    HW229820   2.260   3.005   3.210
 9641SOL     OW29821   3.726   6.577   0.960
 9641SOL    HW129822   3.787   6.521   0.905
 9641SOL    HW229823   3.734   6.551   1.056
 9642SOL     OW29824   3.512   6.581   5.018
 9642SOL    HW129825   3.558   6.667   5.037
 9642SOL    HW229826   3.426   6.576   5.069
 9643SOL     OW29827   5.439   5.298   4.158
 9643SOL    HW129828   5.526   5.258   4.186
 9643SOL    HW229829   5.455   5.389   4.120
 9644SOL     OW29830   1.271   4.239   6.213
 9644SOL    HW129831   1.359   4.272   6.177
 9644SOL    HW229832   1.286   4.190   6.299
 9645SOL     OW29833   3.317   5.296   3.564
 9645SOL    HW129834   3.400   5.240   3.554
 9645SOL    HW229835   3.248   5.266   3.498
 9646SOL     OW29836   2.989   4.802   2.026
 9646SOL    HW129837   2.938   4.724   1.990
 9646SOL    HW229838   3.072   4.816   1.972
 9647SOL     OW29839   5.967   5.403   1.774
 9647SOL    HW129840   5.999   5.397   1.679
 9647SOL    HW229841   6.044   5.430   1.833
 9648SOL     OW29842   4.353   1.623   0.498
 9648SOL    HW129843   4.437   1.610   0.550
 9648SOL    HW229844   4.335   1.721   0.487
 9649SOL     OW29845   2.849   6.703   0.227
 9649SOL    HW129846   2.766   6.680   0.176
 9649SOL    HW229847   2.826   6.770   0.298
 9650SOL     OW29848   5.652   5.011   2.392
 9650SOL    HW129849   5.688   5.104   2.390
 9650SOL    HW229850   5.705   4.953   2.331
 9651SOL     OW29851   6.771   0.959   6.365
 9651SOL    HW129852   6.756   0.988   6.459
 9651SOL    HW229853   6.844   1.014   6.324
 9652SOL     OW29854   2.013   4.547   0.673
 9652SOL    HW129855   2.092   4.591   0.716
 9652SOL    HW229856   1.944   4.616   0.650
 9653SOL     OW29857   4.387   5.337   4.653
 9653SOL    HW129858   4.421   5.309   4.564
 9653SOL    HW229859   4.287   5.344   4.651
 9654SOL     OW29860   3.253   2.975   1.426
 9654SOL    HW129861   3.204   3.023   1.499
 9654SOL    HW229862   3.324   2.917   1.466
 9655SOL     OW29863   0.074   1.611   6.753
 9655SOL    HW129864   0.015   1.677   6.800
 9655SOL    HW229865   0.135   1.568   6.820
 9656SOL     OW29866   2.766   1.984   0.898
 9656SOL    HW129867   2.742   2.027   0.811
 9656SOL    HW229868   2.687   1.987   0.960
 9657SOL     OW29869   5.984   0.556   3.797
 9657SOL    HW129870   5.956   0.554   3.701
 9657SOL    HW229871   5.966   0.647   3.834
 9658SOL     OW29872   5.989   2.157   3.368
 9658SOL    HW129873   5.965   2.183   3.274
 9658SOL    HW229874   6.032   2.234   3.414
 9659SOL     OW29875   6.557   4.350   0.576
 9659SOL    HW129876   6.496   4.349   0.497
 9659SOL    HW229877   6.549   4.438   0.623
 9660SOL     OW29878   0.763   5.836   0.331
 9660SOL    HW129879   0.694   5.777   0.374
 9660SOL    HW229880   0.722   5.880   0.251
 9661SOL     OW29881   4.028   6.165   1.552
 9661SOL    HW129882   4.105   6.136   1.609
 9661SOL    HW229883   4.062   6.224   1.478
 9662SOL     OW29884   5.878   2.620   5.134
 9662SOL    HW129885   5.912   2.628   5.228
 9662SOL    HW229886   5.828   2.534   5.124
 9663SOL     OW29887   0.770   5.665   4.018
 9663SOL    HW129888   0.712   5.619   4.085
 9663SOL    HW229889   0.733   5.651   3.926
 9664SOL     OW29890   6.140   6.766   3.405
 9664SOL    HW129891   6.064   6.746   3.466
 9664SOL    HW229892   6.112   6.832   3.336
 9665SOL     OW29893   5.321   5.352   5.408
 9665SOL    HW129894   5.387   5.326   5.337
 9665SOL    HW229895   5.231   5.365   5.366
 9666SOL     OW29896   5.383   4.186   2.052
 9666SOL    HW129897   5.413   4.129   1.975
 9666SOL    HW229898   5.306   4.143   2.098
 9667SOL     OW29899   3.449   2.947   4.123
 9667SOL    HW129900   3.480   2.889   4.198
 9667SOL    HW229901   3.361   2.989   4.148
 9668SOL     OW29902   6.245   0.960   6.567
 9668SOL    HW129903   6.213   0.910   6.648
 9668SOL    HW229904   6.319   0.909   6.524
 9669SOL     OW29905   0.615   0.752   1.327
 9669SOL    HW129906   0.610   0.653   1.335
 9669SOL    HW229907   0.690   0.777   1.266
 9670SOL     OW29908   5.293   4.749   6.283
 9670SOL    HW129909   5.306   4.843   6.312
 9670SOL    HW229910   5.196   4.725   6.289
 9671SOL     OW29911   0.689   4.913   6.130
 9671SOL    HW129912   0.708   4.823   6.089
 9671SOL    HW229913   0.634   4.967   6.066
 9672SOL     OW29914   1.575   6.442   4.597
 9672SOL    HW129915   1.539   6.445   4.690
 9672SOL    HW229916   1.604   6.534   4.570
 9673SOL     OW29917   5.099   4.390   6.966
 9673SOL    HW129918   5.174   4.372   0.002
 9673SOL    HW229919   5.135   4.420   6.878
 9674SOL     OW29920   2.645   6.250   3.247
 9674SOL    HW129921   2.647   6.313   3.169
 9674SOL    HW229922   2.551   6.223   3.266
 9675SOL     OW29923   5.641   1.431   0.858
 9675SOL    HW129924   5.562   1.492   0.866
 9675SOL    HW229925   5.639   1.386   0.769
 9676SOL     OW29926   1.361   3.296   5.804
 9676SOL    HW129927   1.358   3.377   5.862
 9676SOL    HW229928   1.439   3.239   5.830
 9677SOL     OW29929   2.452   5.225   6.131
 9677SOL    HW129930   2.483   5.252   6.222
 9677SOL    HW229931   2.373   5.164   6.139
 9678SOL     OW29932   3.136   4.036   2.820
 9678SOL    HW129933   3.208   4.043   2.751
 9678SOL    HW229934   3.111   4.128   2.851
 9679SOL     OW29935   1.666   1.526   2.160
 9679SOL    HW129936   1.618   1.497   2.243
 9679SOL    HW229937   1.610   1.591   2.109
 9680SOL     OW29938   6.320   0.393   4.031
 9680SOL    HW129939   6.237   0.436   3.997
 9680SOL    HW229940   6.312   0.379   4.130
 9681SOL     OW29941   2.798   1.104   1.229
 9681SOL    HW129942   2.869   1.141   1.169
 9681SOL    HW229943   2.762   1.019   1.190
 9682SOL     OW29944   5.102   5.257   3.731
 9682SOL    HW129945   5.158   5.321   3.785
 9682SOL    HW229946   5.008   5.290   3.727
 9683SOL     OW29947   3.197   5.067   0.617
 9683SOL    HW129948   3.271   5.070   0.685
 9683SOL    HW229949   3.236   5.079   0.525
 9684SOL     OW29950   0.077   2.809   5.182
 9684SOL    HW129951   0.100   2.786   5.276
 9684SOL    HW229952   0.159   2.807   5.125
 9685SOL     OW29953   2.119   3.111   0.771
 9685SOL    HW129954   2.065   3.132   0.690
 9685SOL    HW229955   2.103   3.016   0.799
 9686SOL     OW29956   5.775   1.870   0.875
 9686SOL    HW129957   5.745   1.964   0.859
 9686SOL    HW229958   5.720   1.808   0.818
 9687SOL     OW29959   2.186   0.844   4.058
 9687SOL    HW129960   2.279   0.878   4.071
 9687SOL    HW229961   2.127   0.880   4.130
 9688SOL     OW29962   0.016   2.545   3.823
 9688SOL    HW129963   7.003   2.528   3.734
 9688SOL    HW229964   0.116   2.538   3.816
 9689SOL     OW29965   2.017   6.140   1.447
 9689SOL    HW129966   1.956   6.194   1.504
 9689SOL    HW229967   2.006   6.043   1.469
 9690SOL     OW29968   5.616   5.519   6.580
 9690SOL    HW129969   5.675   5.553   6.507
 9690SOL    HW229970   5.584   5.596   6.635
 9691SOL     OW29971   2.654   4.414   1.232
 9691SOL    HW129972   2.717   4.341   1.207
 9691SOL    HW229973   2.566   4.374   1.259
 9692SOL     OW29974   2.767   5.084   2.472
 9692SOL    HW129975   2.719   5.150   2.529
 9692SOL    HW229976   2.843   5.043   2.524
 9693SOL     OW29977   6.275   5.306   1.732
 9693SOL    HW129978   6.203   5.250   1.773
 9693SOL    HW229979   6.281   5.285   1.634
 9694SOL     OW29980   2.442   1.214   5.771
 9694SOL    HW129981   2.523   1.158   5.787
 9694SOL    HW229982   2.421   1.216   5.673
 9695SOL     OW29983   6.524   4.010   1.298
 9695SOL    HW129984   6.471   3.951   1.359
 9695SOL    HW229985   6.465   4.039   1.222
 9696SOL     OW29986   5.195   1.864   1.192
 9696SOL    HW129987   5.097   1.871   1.170
 9696SOL    HW229988   5.229   1.954   1.219
 9697SOL     OW29989   6.834   5.283   6.791
 9697SOL    HW129990   6.808   5.379   6.803
 9697SOL    HW229991   6.791   5.228   6.863
 9698SOL     OW29992   5.444   0.709   5.746
 9698SOL    HW129993   5.530   0.710   5.694
 9698SOL    HW229994   5.457   0.754   5.834
 9699SOL     OW29995   0.345   4.734   6.397
 9699SOL    HW129996   0.287   4.656   6.422
 9699SOL    HW229997   0.432   4.700   6.362
 9700SOL     OW29998   4.049   5.602   5.507
 9700SOL    HW129999   4.056   5.701   5.518
 9700SOL    HW230000   3.976   5.567   5.566
 9701SOL     OW30001   3.707   5.343   4.539
 9701SOL    HW130002   3.783   5.300   4.491
 9701SOL    HW230003   3.739   5.381   4.626
 9702SOL     OW30004   5.886   0.489   6.993
 9702SOL    HW130005   5.891   0.397   6.955
 9702SOL    HW230006   5.933   0.491   0.054
 9703SOL     OW30007   3.777   5.775   3.850
 9703SOL    HW130008   3.779   5.873   3.835
 9703SOL    HW230009   3.749   5.729   3.766
 9704SOL     OW30010   3.123   1.353   2.377
 9704SOL    HW130011   3.086   1.280   2.320
 9704SOL    HW230012   3.223   1.349   2.376
 9705SOL     OW30013   5.513   5.375   0.918
 9705SOL    HW130014   5.573   5.346   0.992
 9705SOL    HW230015   5.419   5.353   0.941
 9706SOL     OW30016   0.958   2.383   0.860
 9706SOL    HW130017   0.966   2.480   0.881
 9706SOL    HW230018   0.881   2.369   0.798
 9707SOL     OW30019   6.552   4.407   1.412
 9707SOL    HW130020   6.612   4.348   1.358
 9707SOL    HW230021   6.607   4.469   1.467
 9708SOL     OW30022   1.596   2.435   3.298
 9708SOL    HW130023   1.676   2.399   3.346
 9708SOL    HW230024   1.600   2.407   3.202
 9709SOL     OW30025   6.395   5.310   3.276
 9709SOL    HW130026   6.434   5.386   3.223
 9709SOL    HW230027   6.315   5.343   3.327
 9710SOL     OW30028   0.426   1.843   2.259
 9710SOL    HW130029   0.404   1.918   2.321
 9710SOL    HW230030   0.345   1.787   2.243
 9711SOL     OW30031   1.769   3.354   5.941
 9711SOL    HW130032   1.860   3.328   5.909
 9711SOL    HW230033   1.705   3.279   5.922
 9712SOL     OW30034   5.418   3.880   4.877
 9712SOL    HW130035   5.355   3.811   4.841
 9712SOL    HW230036   5.512   3.856   4.850
 9713SOL     OW30037   0.434   5.075   3.423
 9713SOL    HW130038   0.372   5.006   3.460
 9713SOL    HW230039   0.484   5.118   3.498
 9714SOL     OW30040   1.994   1.206   1.939
 9714SOL    HW130041   2.090   1.233   1.931
 9714SOL    HW230042   1.954   1.252   2.019
 9715SOL     OW30043   6.357   5.252   5.172
 9715SOL    HW130044   6.448   5.211   5.172
 9715SOL    HW230045   6.337   5.285   5.264
 9716SOL     OW30046   4.377   2.742   6.861
 9716SOL    HW130047   4.353   2.646   6.848
 9716SOL    HW230048   4.380   2.788   6.773
 9717SOL     OW30049   6.211   5.428   5.849
 9717SOL    HW130050   6.242   5.507   5.797
 9717SOL    HW230051   6.208   5.451   5.947
 9718SOL     OW30052   4.704   3.117   1.664
 9718SOL    HW130053   4.660   3.069   1.740
 9718SOL    HW230054   4.665   3.085   1.578
 9719SOL     OW30055   0.710   2.184   0.002
 9719SOL    HW130056   0.703   2.136   6.943
 9719SOL    HW230057   0.619   2.196   0.041
 9720SOL     OW30058   0.748   5.820   1.786
 9720SOL    HW130059   0.678   5.749   1.789
 9720SOL    HW230060   0.752   5.867   1.874
 9721SOL     OW30061   0.998   2.683   0.801
 9721SOL    HW130062   0.910   2.719   0.833
 9721SOL    HW230063   1.072   2.730   0.849
 9722SOL     OW30064   0.671   6.719   3.750
 9722SOL    HW130065   0.606   6.744   3.822
 9722SOL    HW230066   0.702   6.802   3.704
 9723SOL     OW30067   1.854   6.137   3.216
 9723SOL    HW130068   1.799   6.109   3.138
 9723SOL    HW230069   1.945   6.163   3.184
 9724SOL     OW30070   2.803   3.020   0.861
 9724SOL    HW130071   2.833   3.086   0.929
 9724SOL    HW230072   2.874   2.951   0.846
 9725SOL     OW30073   4.211   3.682   6.539
 9725SOL    HW130074   4.284   3.750   6.549
 9725SOL    HW230075   4.209   3.624   6.620
 9726SOL     OW30076   4.315   6.803   4.586
 9726SOL    HW130077   4.358   6.804   4.676
 9726SOL    HW230078   4.379   6.842   4.519
 9727SOL     OW30079   1.098   3.537   5.542
 9727SOL    HW130080   1.016   3.538   5.486
 9727SOL    HW230081   1.139   3.628   5.542
 9728SOL     OW30082   0.851   6.600   6.627
 9728SOL    HW130083   0.912   6.552   6.565
 9728SOL    HW230084   0.761   6.556   6.627
 9729SOL     OW30085   0.854   4.487   2.322
 9729SOL    HW130086   0.791   4.536   2.383
 9729SOL    HW230087   0.826   4.392   2.314
 9730SOL     OW30088   0.465   3.541   2.203
 9730SOL    HW130089   0.464   3.551   2.104
 9730SOL    HW230090   0.551   3.575   2.240
 9731SOL     OW30091   4.287   4.515   0.789
 9731SOL    HW130092   4.215   4.468   0.841
 9731SOL    HW230093   4.307   4.463   0.706
 9732SOL     OW30094   5.231   5.761   2.870
 9732SOL    HW130095   5.134   5.774   2.891
 9732SOL    HW230096   5.258   5.668   2.893
 9733SOL     OW30097   5.447   4.785   5.249
 9733SOL    HW130098   5.421   4.877   5.221
 9733SOL    HW230099   5.546   4.773   5.237
 9734SOL     OW30100   5.193   1.972   3.937
 9734SOL    HW130101   5.152   2.035   3.870
 9734SOL    HW230102   5.133   1.965   4.017
 9735SOL     OW30103   1.501   4.457   2.469
 9735SOL    HW130104   1.584   4.510   2.485
 9735SOL    HW230105   1.489   4.442   2.370
 9736SOL     OW30106   6.114   1.889   6.214
 9736SOL    HW130107   6.144   1.820   6.280
 9736SOL    HW230108   6.049   1.847   6.150
 9737SOL     OW30109   6.104   3.296   5.052
 9737SOL    HW130110   6.126   3.372   4.991
 9737SOL    HW230111   6.117   3.324   5.147
 9738SOL     OW30112   1.412   0.046   3.208
 9738SOL    HW130113   1.414   0.146   3.214
 9738SOL    HW230114   1.454   0.018   3.121
 9739SOL     OW30115   0.209   5.606   2.070
 9739SOL    HW130116   0.295   5.604   2.121
 9739SOL    HW230117   0.154   5.526   2.095
 9740SOL     OW30118   6.328   3.025   3.306
 9740SOL    HW130119   6.297   2.991   3.218
 9740SOL    HW230120   6.375   3.112   3.294
 9741SOL     OW30121   4.629   1.416   2.460
 9741SOL    HW130122   4.541   1.369   2.464
 9741SOL    HW230123   4.695   1.359   2.411
 9742SOL     OW30124   4.443   0.007   2.941
 9742SOL    HW130125   4.370   0.039   2.880
 9742SOL    HW230126   4.530   0.006   2.892
 9743SOL     OW30127   2.076   2.290   4.521
 9743SOL    HW130128   2.053   2.386   4.537
 9743SOL    HW230129   2.087   2.274   4.423
 9744SOL     OW30130   0.062   0.238   2.918
 9744SOL    HW130131   7.026   0.252   2.841
 9744SOL    HW230132   0.126   0.166   2.895
 9745SOL     OW30133   0.318   2.719   5.877
 9745SOL    HW130134   0.322   2.743   5.974
 9745SOL    HW230135   0.289   2.624   5.868
 9746SOL     OW30136   6.011   1.631   5.926
 9746SOL    HW130137   5.989   1.621   6.022
 9746SOL    HW230138   5.965   1.712   5.889
 9747SOL     OW30139   1.575   0.835   1.582
 9747SOL    HW130140   1.616   0.907   1.637
 9747SOL    HW230141   1.539   0.763   1.642
 9748SOL     OW30142   1.297   0.958   4.623
 9748SOL    HW130143   1.200   0.972   4.643
 9748SOL    HW230144   1.347   1.042   4.644
 9749SOL     OW30145   2.187   2.298   4.803
 9749SOL    HW130146   2.214   2.213   4.849
 9749SOL    HW230147   2.160   2.278   4.709
 9750SOL     OW30148   4.723   5.095   3.759
 9750SOL    HW130149   4.772   5.182   3.753
 9750SOL    HW230150   4.629   5.108   3.727
 9751SOL     OW30151   2.166   2.358   0.641
 9751SOL    HW130152   2.160   2.437   0.579
 9751SOL    HW230153   2.077   2.343   0.684
 9752SOL     OW30154   4.424   0.712   6.792
 9752SOL    HW130155   4.467   0.675   6.874
 9752SOL    HW230156   4.341   0.659   6.771
 9753SOL     OW30157   5.921   5.901   4.954
 9753SOL    HW130158   5.961   5.933   5.040
 9753SOL    HW230159   5.936   5.802   4.946
 9754SOL     OW30160   1.048   1.563   0.132
 9754SOL    HW130161   1.101   1.481   0.152
 9754SOL    HW230162   0.985   1.581   0.208
 9755SOL     OW30163   4.435   3.147   5.537
 9755SOL    HW130164   4.437   3.243   5.566
 9755SOL    HW230165   4.350   3.129   5.489
 9756SOL     OW30166   6.158   3.053   0.463
 9756SOL    HW130167   6.179   3.084   0.370
 9756SOL    HW230168   6.141   2.955   0.463
 9757SOL     OW30169   5.381   3.041   3.202
 9757SOL    HW130170   5.316   3.111   3.232
 9757SOL    HW230171   5.370   3.025   3.104
 9758SOL     OW30172   2.135   6.724   6.490
 9758SOL    HW130173   2.148   6.625   6.501
 9758SOL    HW230174   2.204   6.760   6.427
 9759SOL     OW30175   2.053   6.912   0.505
 9759SOL    HW130176   2.022   6.881   0.415
 9759SOL    HW230177   1.986   6.885   0.574
 9760SOL     OW30178   4.816   3.708   5.405
 9760SOL    HW130179   4.792   3.628   5.350
 9760SOL    HW230180   4.747   3.720   5.477
 9761SOL     OW30181   6.015   6.177   2.493
 9761SOL    HW130182   6.068   6.142   2.570
 9761SOL    HW230183   6.053   6.264   2.463
 9762SOL     OW30184   2.931   2.199   4.452
 9762SOL    HW130185   2.997   2.230   4.520
 9762SOL    HW230186   2.858   2.148   4.497
 9763SOL     OW30187   4.221   2.562   1.759
 9763SOL    HW130188   4.194   2.550   1.663
 9763SOL    HW230189   4.209   2.476   1.808
 9764SOL     OW30190   0.622   2.449   3.284
 9764SOL    HW130191   0.554   2.522   3.286
 9764SOL    HW230192   0.672   2.448   3.371
 9765SOL     OW30193   6.514   2.294   4.753
 9765SOL    HW130194   6.445   2.223   4.769
 9765SOL    HW230195   6.520   2.353   4.833
 9766SOL     OW30196   2.589   0.501   3.114
 9766SOL    HW130197   2.575   0.468   3.207
 9766SOL    HW230198   2.664   0.450   3.071
 9767SOL     OW30199   5.492   2.106   5.299
 9767SOL    HW130200   5.498   2.188   5.242
 9767SOL    HW230201   5.583   2.071   5.318
 9768SOL     OW30202   5.030   1.778   1.965
 9768SOL    HW130203   5.057   1.869   1.997
 9768SOL    HW230204   5.024   1.716   2.044
 9769SOL     OW30205   2.149   1.411   2.157
 9769SOL    HW130206   2.219   1.452   2.099
 9769SOL    HW230207   2.118   1.479   2.224
 9770SOL     OW30208   6.012   6.605   6.716
 9770SOL    HW130209   6.037   6.689   6.764
 9770SOL    HW230210   6.023   6.527   6.777
 9771SOL     OW30211   4.044   4.697   1.583
 9771SOL    HW130212   3.952   4.666   1.609
 9771SOL    HW230213   4.098   4.618   1.554
 9772SOL     OW30214   0.818   6.508   1.779
 9772SOL    HW130215   0.795   6.429   1.835
 9772SOL    HW230216   0.747   6.578   1.789
 9773SOL     OW30217   5.223   6.454   4.223
 9773SOL    HW130218   5.253   6.366   4.259
 9773SOL    HW230219   5.302   6.515   4.215
 9774SOL     OW30220   6.169   5.367   2.294
 9774SOL    HW130221   6.141   5.424   2.371
 9774SOL    HW230222   6.115   5.283   2.294
 9775SOL     OW30223   2.637   1.653   4.105
 9775SOL    HW130224   2.590   1.707   4.174
 9775SOL    HW230225   2.729   1.690   4.090
 9776SOL     OW30226   6.783   5.887   4.610
 9776SOL    HW130227   6.712   5.952   4.583
 9776SOL    HW230228   6.858   5.936   4.654
 9777SOL     OW30229   5.601   5.013   6.321
 9777SOL    HW130230   5.697   5.038   6.316
 9777SOL    HW230231   5.594   4.915   6.340
 9778SOL     OW30232   6.112   0.327   3.818
 9778SOL    HW130233   6.063   0.281   3.892
 9778SOL    HW230234   6.065   0.413   3.795
 9779SOL     OW30235   2.743   1.944   4.623
 9779SOL    HW130236   2.767   1.955   4.719
 9779SOL    HW230237   2.646   1.965   4.610
 9780SOL     OW30238   1.874   2.083   0.750
 9780SOL    HW130239   1.776   2.066   0.738
 9780SOL    HW230240   1.923   2.057   0.667
 9781SOL     OW30241   2.139   4.277   3.723
 9781SOL    HW130242   2.061   4.317   3.771
 9781SOL    HW230243   2.151   4.182   3.752
 9782SOL     OW30244   6.765   0.743   1.700
 9782SOL    HW130245   6.763   0.829   1.650
 9782SOL    HW230246   6.851   0.695   1.681
 9783SOL     OW30247   5.447   1.378   1.835
 9783SOL    HW130248   5.403   1.294   1.868
 9783SOL    HW230249   5.377   1.446   1.814
 9784SOL     OW30250   4.998   1.108   4.052
 9784SOL    HW130251   5.050   1.137   3.971
 9784SOL    HW230252   4.953   1.187   4.093
 9785SOL     OW30253   0.171   4.174   4.393
 9785SOL    HW130254   0.124   4.157   4.480
 9785SOL    HW230255   0.260   4.129   4.394
 9786SOL     OW30256   1.951   5.105   5.875
 9786SOL    HW130257   1.896   5.025   5.851
 9786SOL    HW230258   1.900   5.161   5.940
 9787SOL     OW30259   5.160   3.959   1.422
 9787SOL    HW130260   5.190   3.928   1.332
 9787SOL    HW230261   5.210   4.041   1.448
 9788SOL     OW30262   0.336   0.585   3.820
 9788SOL    HW130263   0.376   0.597   3.729
 9788SOL    HW230264   0.329   0.674   3.865
 9789SOL     OW30265   2.444   5.665   6.734
 9789SOL    HW130266   2.519   5.726   6.758
 9789SOL    HW230267   2.368   5.718   6.698
 9790SOL     OW30268   5.751   3.550   5.134
 9790SOL    HW130269   5.829   3.584   5.081
 9790SOL    HW230270   5.672   3.538   5.073
 9791SOL     OW30271   0.761   0.991   2.643
 9791SOL    HW130272   0.674   0.943   2.637
 9791SOL    HW230273   0.785   1.030   2.554
 9792SOL     OW30274   4.581   5.106   1.688
 9792SOL    HW130275   4.586   5.159   1.603
 9792SOL    HW230276   4.644   5.029   1.684
 9793SOL     OW30277   5.923   5.674   3.071
 9793SOL    HW130278   6.002   5.712   3.022
 9793SOL    HW230279   5.849   5.657   3.006
 9794SOL     OW30280   5.973   3.585   6.573
 9794SOL    HW130281   6.011   3.494   6.563
 9794SOL    HW230282   5.918   3.589   6.657
 9795SOL     OW30283   1.207   2.753   3.955
 9795SOL    HW130284   1.278   2.803   4.005
 9795SOL    HW230285   1.144   2.711   4.020
 9796SOL     OW30286   3.265   4.263   0.975
 9796SOL    HW130287   3.267   4.284   0.878
 9796SOL    HW230288   3.314   4.334   1.026
 9797SOL     OW30289   4.071   3.786   0.534
 9797SOL    HW130290   4.169   3.802   0.520
 9797SOL    HW230291   4.037   3.725   0.462
 9798SOL     OW30292   2.286   0.734   0.599
 9798SOL    HW130293   2.272   0.799   0.524
 9798SOL    HW230294   2.348   0.774   0.667
 9799SOL     OW30295   3.408   3.445   2.778
 9799SOL    HW130296   3.400   3.500   2.695
 9799SOL    HW230297   3.449   3.357   2.755
 9800SOL     OW30298   3.671   5.866   5.834
 9800SOL    HW130299   3.730   5.854   5.754
 9800SOL    HW230300   3.640   5.961   5.838
 9801SOL     OW30301   4.005   4.985   6.902
 9801SOL    HW130302   4.046   4.961   6.814
 9801SOL    HW230303   4.044   4.928   6.974
 9802SOL     OW30304   6.903   2.995   2.215
 9802SOL    HW130305   6.994   3.034   2.199
 9802SOL    HW230306   6.909   2.924   2.285
 9803SOL     OW30307   6.143   0.360   6.726
 9803SOL    HW130308   6.098   0.439   6.685
 9803SOL    HW230309   6.142   0.284   6.662
 9804SOL     OW30310   0.120   5.575   3.731
 9804SOL    HW130311   0.065   5.614   3.805
 9804SOL    HW230312   0.157   5.648   3.674
 9805SOL     OW30313   1.396   5.726   6.874
 9805SOL    HW130314   1.411   5.663   6.949
 9805SOL    HW230315   1.389   5.819   6.909
 9806SOL     OW30316   0.492   1.973   1.311
 9806SOL    HW130317   0.433   1.908   1.358
 9806SOL    HW230318   0.542   2.028   1.378
 9807SOL     OW30319   2.912   1.902   6.488
 9807SOL    HW130320   2.886   1.918   6.393
 9807SOL    HW230321   3.006   1.935   6.503
 9808SOL     OW30322   5.703   0.592   5.608
 9808SOL    HW130323   5.697   0.617   5.511
 9808SOL    HW230324   5.789   0.625   5.646
 9809SOL     OW30325   0.615   1.691   6.246
 9809SOL    HW130326   0.694   1.647   6.203
 9809SOL    HW230327   0.578   1.760   6.184
 9810SOL     OW30328   2.467   2.257   3.280
 9810SOL    HW130329   2.566   2.247   3.293
 9810SOL    HW230330   2.443   2.233   3.185
 9811SOL     OW30331   6.319   5.721   3.595
 9811SOL    HW130332   6.343   5.787   3.525
 9811SOL    HW230333   6.220   5.704   3.593
 9812SOL     OW30334   3.993   2.183   6.616
 9812SOL    HW130335   3.942   2.255   6.663
 9812SOL    HW230336   3.996   2.101   6.672
 9813SOL     OW30337   6.244   5.829   0.035
 9813SOL    HW130338   6.270   5.764   0.108
 9813SOL    HW230339   6.306   5.908   0.037
 9814SOL     OW30340   6.700   0.629   6.137
 9814SOL    HW130341   6.642   0.707   6.164
 9814SOL    HW230342   6.785   0.664   6.097
 9815SOL     OW30343   6.499   2.036   1.222
 9815SOL    HW130344   6.469   2.123   1.182
 9815SOL    HW230345   6.598   2.038   1.237
 9816SOL     OW30346   6.425   1.153   6.670
 9816SOL    HW130347   6.429   1.250   6.646
 9816SOL    HW230348   6.346   1.111   6.625
 9817SOL     OW30349   3.161   5.486   1.745
 9817SOL    HW130350   3.075   5.454   1.786
 9817SOL    HW230351   3.140   5.537   1.661
 9818SOL     OW30352   1.931   1.535   3.318
 9818SOL    HW130353   1.900   1.626   3.345
 9818SOL    HW230354   1.973   1.540   3.227
 9819SOL     OW30355   5.678   4.574   4.699
 9819SOL    HW130356   5.647   4.482   4.675
 9819SOL    HW230357   5.777   4.574   4.711
 9820SOL     OW30358   2.935   2.416   6.104
 9820SOL    HW130359   2.958   2.425   6.201
 9820SOL    HW230360   2.954   2.502   6.057
 9821SOL     OW30361   4.227   1.976   1.381
 9821SOL    HW130362   4.176   2.059   1.359
 9821SOL    HW230363   4.169   1.914   1.433
 9822SOL     OW30364   3.728   5.873   4.508
 9822SOL    HW130365   3.719   5.782   4.467
 9822SOL    HW230366   3.823   5.889   4.535
 9823SOL     OW30367   1.467   0.606   2.261
 9823SOL    HW130368   1.555   0.571   2.228
 9823SOL    HW230369   1.394   0.579   2.198
 9824SOL     OW30370   2.757   5.972   5.418
 9824SOL    HW130371   2.706   5.886   5.425
 9824SOL    HW230372   2.751   6.020   5.506
 9825SOL     OW30373   5.315   6.123   4.997
 9825SOL    HW130374   5.370   6.206   4.998
 9825SOL    HW230375   5.235   6.136   5.055
 9826SOL     OW30376   3.631   6.894   5.586
 9826SOL    HW130377   3.670   6.913   5.676
 9826SOL    HW230378   3.534   6.868   5.597
 9827SOL     OW30379   1.941   5.408   2.928
 9827SOL    HW130380   1.961   5.314   2.954
 9827SOL    HW230381   2.004   5.437   2.856
 9828SOL     OW30382   3.711   1.991   5.021
 9828SOL    HW130383   3.677   2.048   4.946
 9828SOL    HW230384   3.705   1.895   4.995
 9829SOL     OW30385   5.337   6.263   5.877
 9829SOL    HW130386   5.379   6.265   5.968
 9829SOL    HW230387   5.240   6.237   5.886
 9830SOL     OW30388   5.893   1.239   2.535
 9830SOL    HW130389   5.833   1.193   2.471
 9830SOL    HW230390   5.855   1.232   2.628
 9831SOL     OW30391   0.303   4.673   1.891
 9831SOL    HW130392   0.387   4.676   1.838
 9831SOL    HW230393   0.239   4.609   1.849
 9832SOL     OW30394   4.772   4.683   4.520
 9832SOL    HW130395   4.727   4.597   4.495
 9832SOL    HW230396   4.704   4.750   4.549
 9833SOL     OW30397   3.498   4.132   3.322
 9833SOL    HW130398   3.511   4.132   3.421
 9833SOL    HW230399   3.402   4.115   3.301
 9834SOL     OW30400   2.769   5.537   5.708
 9834SOL    HW130401   2.792   5.445   5.676
 9834SOL    HW230402   2.764   5.600   5.630
 9835SOL     OW30403   3.813   3.977   4.063
 9835SOL    HW130404   3.769   3.893   4.095
 9835SOL    HW230405   3.788   4.053   4.124
 9836SOL     OW30406   0.986   4.235   5.761
 9836SOL    HW130407   1.051   4.266   5.831
 9836SOL    HW230408   0.955   4.142   5.782
 9837SOL     OW30409   5.320   2.020   1.937
 9837SOL    HW130410   5.365   1.932   1.954
 9837SOL    HW230411   5.375   2.073   1.872
 9838SOL     OW30412   1.481   6.215   1.516
 9838SOL    HW130413   1.475   6.145   1.444
 9838SOL    HW230414   1.395   6.265   1.521
 9839SOL     OW30415   4.870   1.016   4.320
 9839SOL    HW130416   4.873   1.010   4.220
 9839SOL    HW230417   4.960   0.994   4.358
 9840SOL     OW30418   5.256   1.055   6.770
 9840SOL    HW130419   5.164   1.017   6.782
 9840SOL    HW230420   5.312   1.032   6.850
 9841SOL     OW30421   6.970   5.439   3.582
 9841SOL    HW130422   6.929   5.356   3.620
 9841SOL    HW230423   7.019   5.489   3.653
 9842SOL     OW30424   3.578   3.265   0.524
 9842SOL    HW130425   3.493   3.229   0.484
 9842SOL    HW230426   3.559   3.301   0.616
 9843SOL     OW30427   6.278   0.583   1.338
 9843SOL    HW130428   6.321   0.494   1.351
 9843SOL    HW230429   6.282   0.636   1.423
 9844SOL     OW30430   5.551   0.631   4.350
 9844SOL    HW130431   5.525   0.539   4.379
 9844SOL    HW230432   5.475   0.673   4.301
 9845SOL     OW30433   1.106   2.111   2.572
 9845SOL    HW130434   1.066   2.199   2.598
 9845SOL    HW230435   1.037   2.055   2.527
 9846SOL     OW30436   5.293   1.407   0.707
 9846SOL    HW130437   5.342   1.486   0.743
 9846SOL    HW230438   5.342   1.323   0.732
 9847SOL     OW30439   3.787   2.868   2.013
 9847SOL    HW130440   3.812   2.959   2.047
 9847SOL    HW230441   3.864   2.806   2.026
 9848SOL     OW30442   3.321   4.095   5.374
 9848SOL    HW130443   3.231   4.078   5.335
 9848SOL    HW230444   3.326   4.052   5.465
 9849SOL     OW30445   1.226   0.679   6.670
 9849SOL    HW130446   1.141   0.710   6.626
 9849SOL    HW230447   1.272   0.613   6.610
 9850SOL     OW30448   0.491   0.216   4.060
 9850SOL    HW130449   0.481   0.147   3.989
 9850SOL    HW230450   0.548   0.180   4.134
 9851SOL     OW30451   3.309   5.217   4.765
 9851SOL    HW130452   3.362   5.216   4.680
 9851SOL    HW230453   3.364   5.258   4.837
 9852SOL     OW30454   1.315   1.867   6.351
 9852SOL    HW130455   1.271   1.858   6.440
 9852SOL    HW230456   1.407   1.830   6.355
 9853SOL     OW30457   0.072   4.067   4.676
 9853SOL    HW130458   0.161   4.031   4.649
 9853SOL    HW230459   0.019   3.995   4.720
 9854SOL     OW30460   1.375   5.800   5.886
 9854SOL    HW130461   1.357   5.703   5.906
 9854SOL    HW230462   1.335   5.824   5.798
 9855SOL     OW30463   0.852   3.507   0.559
 9855SOL    HW130464   0.895   3.468   0.477
 9855SOL    HW230465   0.838   3.605   0.545
 9856SOL     OW30466   5.599   5.045   3.986
 9856SOL    HW130467   5.600   5.064   4.084
 9856SOL    HW230468   5.535   4.970   3.967
 9857SOL     OW30469   5.587   2.851   3.430
 9857SOL    HW130470   5.634   2.864   3.342
 9857SOL    HW230471   5.650   2.809   3.495
 9858SOL     OW30472   1.043   6.639   2.309
 9858SOL    HW130473   1.123   6.585   2.334
 9858SOL    HW230474   1.028   6.711   2.378
 9859SOL     OW30475   0.126   4.836   5.151
 9859SOL    HW130476   0.132   4.890   5.067
 9859SOL    HW230477   0.104   4.741   5.128
 9860SOL     OW30478   2.029   2.491   4.929
 9860SOL    HW130479   1.952   2.462   4.985
 9860SOL    HW230480   2.077   2.410   4.894
 9861SOL     OW30481   3.186   1.332   4.015
 9861SOL    HW130482   3.128   1.348   3.935
 9861SOL    HW230483   3.271   1.384   4.005
 9862SOL     OW30484   2.089   4.586   1.171
 9862SOL    HW130485   2.071   4.500   1.124
 9862SOL    HW230486   2.163   4.574   1.237
 9863SOL     OW30487   3.111   5.819   0.681
 9863SOL    HW130488   3.204   5.782   0.672
 9863SOL    HW230489   3.116   5.919   0.688
 9864SOL     OW30490   2.968   6.601   5.125
 9864SOL    HW130491   3.048   6.582   5.067
 9864SOL    HW230492   2.947   6.519   5.179
 9865SOL     OW30493   0.585   6.880   5.545
 9865SOL    HW130494   0.581   6.980   5.545
 9865SOL    HW230495   0.543   6.845   5.461
 9866SOL     OW30496   6.046   4.520   4.595
 9866SOL    HW130497   6.007   4.584   4.529
 9866SOL    HW230498   6.120   4.565   4.644
 9867SOL     OW30499   5.052   1.998   2.143
 9867SOL    HW130500   5.081   2.088   2.111
 9867SOL    HW230501   4.988   2.009   2.220
 9868SOL     OW30502   1.146   4.502   3.466
 9868SOL    HW130503   1.106   4.425   3.517
 9868SOL    HW230504   1.245   4.492   3.463
 9869SOL     OW30505   0.318   2.393   0.864
 9869SOL    HW130506   0.385   2.331   0.823
 9869SOL    HW230507   0.282   2.351   0.948
 9870SOL     OW30508   4.031   1.517   2.206
 9870SOL    HW130509   3.998   1.610   2.220
 9870SOL    HW230510   4.129   1.513   2.227
 9871SOL     OW30511   6.729   3.241   5.576
 9871SOL    HW130512   6.828   3.232   5.583
 9871SOL    HW230513   6.689   3.152   5.553
 9872SOL     OW30514   2.457   5.613   4.916
 9872SOL    HW130515   2.383   5.620   4.849
 9872SOL    HW230516   2.465   5.699   4.966
 9873SOL     OW30517   1.870   2.257   5.873
 9873SOL    HW130518   1.813   2.242   5.954
 9873SOL    HW230519   1.954   2.305   5.900
 9874SOL     OW30520   0.876   3.002   4.444
 9874SOL    HW130521   0.854   2.918   4.493
 9874SOL    HW230522   0.975   3.016   4.445
 9875SOL     OW30523   0.399   6.301   0.816
 9875SOL    HW130524   0.335   6.268   0.747
 9875SOL    HW230525   0.493   6.284   0.787
 9876SOL     OW30526   3.401   0.092   3.458
 9876SOL    HW130527   3.446   0.174   3.424
 9876SOL    HW230528   3.467   0.017   3.464
 9877SOL     OW30529   0.001   4.585   4.560
 9877SOL    HW130530   0.088   4.570   4.514
 9877SOL    HW230531   7.004   4.503   4.612
 9878SOL     OW30532   1.769   2.951   0.032
 9878SOL    HW130533   1.814   2.978   0.117
 9878SOL    HW230534   1.686   3.006   0.019
 9879SOL     OW30535   1.613   4.710   6.036
 9879SOL    HW130536   1.648   4.636   6.093
 9879SOL    HW230537   1.603   4.793   6.091
 9880SOL     OW30538   2.527   1.260   0.178
 9880SOL    HW130539   2.511   1.184   0.116
 9880SOL    HW230540   2.440   1.301   0.205
 9881SOL     OW30541   5.242   0.591   4.400
 9881SOL    HW130542   5.146   0.621   4.399
 9881SOL    HW230543   5.246   0.491   4.400
 9882SOL     OW30544   3.881   3.263   4.859
 9882SOL    HW130545   3.788   3.273   4.821
 9882SOL    HW230546   3.943   3.234   4.787
 9883SOL     OW30547   1.645   5.805   1.948
 9883SOL    HW130548   1.741   5.833   1.957
 9883SOL    HW230549   1.597   5.826   2.033
 9884SOL     OW30550   1.531   3.114   0.027
 9884SOL    HW130551   1.545   3.145   6.961
 9884SOL    HW230552   1.571   3.180   0.090
 9885SOL     OW30553   6.894   3.095   4.155
 9885SOL    HW130554   6.809   3.078   4.105
 9885SOL    HW230555   6.876   3.160   4.229
 9886SOL     OW30556   5.760   5.964   2.022
 9886SOL    HW130557   5.752   5.948   2.121
 9886SOL    HW230558   5.854   5.987   2.000
 9887SOL     OW30559   4.598   6.526   0.333
 9887SOL    HW130560   4.584   6.469   0.252
 9887SOL    HW230561   4.586   6.471   0.415
 9888SOL     OW30562   5.454   5.584   2.390
 9888SOL    HW130563   5.380   5.576   2.324
 9888SOL    HW230564   5.461   5.500   2.443
 9889SOL     OW30565   6.785   5.132   3.107
 9889SOL    HW130566   6.797   5.033   3.101
 9889SOL    HW230567   6.835   5.167   3.186
 9890SOL     OW30568   6.684   2.692   0.576
 9890SOL    HW130569   6.663   2.789   0.565
 9890SOL    HW230570   6.782   2.680   0.592
 9891SOL     OW30571   4.828   5.485   0.627
 9891SOL    HW130572   4.872   5.501   0.716
 9891SOL    HW230573   4.893   5.441   0.565
 9892SOL     OW30574   2.267   5.290   3.714
 9892SOL    HW130575   2.361   5.324   3.709
 9892SOL    HW230576   2.209   5.345   3.653
 9893SOL     OW30577   5.875   5.433   2.772
 9893SOL    HW130578   5.892   5.372   2.849
 9893SOL    HW230579   5.948   5.501   2.766
 9894SOL     OW30580   3.852   1.953   5.973
 9894SOL    HW130581   3.798   1.996   6.045
 9894SOL    HW230582   3.932   1.908   6.013
 9895SOL     OW30583   5.249   2.407   6.630
 9895SOL    HW130584   5.217   2.500   6.651
 9895SOL    HW230585   5.256   2.355   6.715
 9896SOL     OW30586   3.409   3.598   0.724
 9896SOL    HW130587   3.414   3.610   0.625
 9896SOL    HW230588   3.321   3.631   0.757
 9897SOL     OW30589   4.924   1.751   3.127
 9897SOL    HW130590   4.881   1.717   3.211
 9897SOL    HW230591   4.861   1.811   3.079
 9898SOL     OW30592   1.085   5.170   5.466
 9898SOL    HW130593   0.999   5.220   5.471
 9898SOL    HW230594   1.149   5.206   5.534
 9899SOL     OW30595   5.381   4.442   2.172
 9899SOL    HW130596   5.386   4.510   2.099
 9899SOL    HW230597   5.383   4.350   2.132
 9900SOL     OW30598   1.561   2.020   3.516
 9900SOL    HW130599   1.585   1.923   3.515
 9900SOL    HW230600   1.566   2.056   3.422
 9901SOL     OW30601   1.863   1.986   6.595
 9901SOL    HW130602   1.907   1.985   6.685
 9901SOL    HW230603   1.890   1.904   6.544
 9902SOL     OW30604   3.576   3.783   0.889
 9902SOL    HW130605   3.509   3.856   0.876
 9902SOL    HW230606   3.537   3.696   0.859
 9903SOL     OW30607   4.627   1.041   2.493
 9903SOL    HW130608   4.597   1.030   2.588
 9903SOL    HW230609   4.727   1.040   2.490
 9904SOL     OW30610   6.357   3.280   0.398
 9904SOL    HW130611   6.263   3.247   0.403
 9904SOL    HW230612   6.417   3.207   0.366
 9905SOL     OW30613   1.420   6.134   6.776
 9905SOL    HW130614   1.354   6.136   6.701
 9905SOL    HW230615   1.509   6.104   6.742
 9906SOL     OW30616   1.693   2.449   6.104
 9906SOL    HW130617   1.709   2.356   6.137
 9906SOL    HW230618   1.596   2.463   6.088
 9907SOL     OW30619   2.581   5.660   3.252
 9907SOL    HW130620   2.507   5.724   3.231
 9907SOL    HW230621   2.605   5.667   3.349
 9908SOL     OW30622   0.534   3.554   6.334
 9908SOL    HW130623   0.624   3.523   6.366
 9908SOL    HW230624   0.547   3.629   6.269
 9909SOL     OW30625   2.623   1.780   2.906
 9909SOL    HW130626   2.676   1.862   2.886
 9909SOL    HW230627   2.674   1.699   2.877
 9910SOL     OW30628   0.151   4.907   1.189
 9910SOL    HW130629   0.224   4.854   1.146
 9910SOL    HW230630   0.167   5.005   1.173
 9911SOL     OW30631   4.754   4.793   2.803
 9911SOL    HW130632   4.804   4.846   2.735
 9911SOL    HW230633   4.693   4.854   2.855
 9912SOL     OW30634   4.625   0.789   2.038
 9912SOL    HW130635   4.545   0.774   1.979
 9912SOL    HW230636   4.600   0.849   2.114
 9913SOL     OW30637   5.474   2.981   2.432
 9913SOL    HW130638   5.437   2.889   2.432
 9913SOL    HW230639   5.538   2.991   2.355
 9914SOL     OW30640   1.687   0.435   5.390
 9914SOL    HW130641   1.728   0.497   5.457
 9914SOL    HW230642   1.743   0.434   5.307
 9915SOL     OW30643   5.210   3.281   4.326
 9915SOL    HW130644   5.296   3.263   4.374
 9915SOL    HW230645   5.186   3.377   4.337
 9916SOL     OW30646   2.161   3.237   2.617
 9916SOL    HW130647   2.193   3.283   2.700
 9916SOL    HW230648   2.216   3.155   2.601
 9917SOL     OW30649   3.494   3.849   5.226
 9917SOL    HW130650   3.401   3.822   5.251
 9917SOL    HW230651   3.537   3.894   5.304
 9918SOL     OW30652   2.368   1.564   6.226
 9918SOL    HW130653   2.437   1.573   6.298
 9918SOL    HW230654   2.409   1.589   6.138
 9919SOL     OW30655   1.421   5.588   2.362
 9919SOL    HW130656   1.496   5.523   2.352
 9919SOL    HW230657   1.445   5.674   2.315
 9920SOL     OW30658   3.842   0.141   2.048
 9920SOL    HW130659   3.807   0.171   1.959
 9920SOL    HW230660   3.893   0.056   2.037
 9921SOL     OW30661   5.717   0.310   3.264
 9921SOL    HW130662   5.783   0.366   3.213
 9921SOL    HW230663   5.739   0.214   3.252
 9922SOL     OW30664   4.484   4.750   1.040
 9922SOL    HW130665   4.490   4.814   1.116
 9922SOL    HW230666   4.572   4.747   0.993
 9923SOL     OW30667   6.287   2.251   6.476
 9923SOL    HW130668   6.301   2.341   6.437
 9923SOL    HW230669   6.201   2.212   6.441
 9924SOL     OW30670   5.712   1.298   2.816
 9924SOL    HW130671   5.630   1.263   2.772
 9924SOL    HW230672   5.687   1.368   2.883
 9925SOL     OW30673   2.520   3.622   5.652
 9925SOL    HW130674   2.529   3.712   5.695
 9925SOL    HW230675   2.449   3.626   5.582
 9926SOL     OW30676   1.750   1.457   0.997
 9926SOL    HW130677   1.764   1.499   1.086
 9926SOL    HW230678   1.698   1.372   1.008
 9927SOL     OW30679   1.262   1.736   2.398
 9927SOL    HW130680   1.200   1.680   2.344
 9927SOL    HW230681   1.251   1.832   2.372
 9928SOL     OW30682   0.638   4.865   1.564
 9928SOL    HW130683   0.610   4.951   1.522
 9928SOL    HW230684   0.656   4.880   1.662
 9929SOL     OW30685   3.595   4.306   5.565
 9929SOL    HW130686   3.519   4.317   5.630
 9929SOL    HW230687   3.564   4.331   5.474
 9930SOL     OW30688   0.070   0.850   6.111
 9930SOL    HW130689   0.106   0.857   6.018
 9930SOL    HW230690   0.146   0.851   6.176
 9931SOL     OW30691   1.286   6.530   4.477
 9931SOL    HW130692   1.243   6.618   4.494
 9931SOL    HW230693   1.359   6.515   4.543
 9932SOL     OW30694   1.466   1.956   0.500
 9932SOL    HW130695   1.453   1.943   0.598
 9932SOL    HW230696   1.501   1.872   0.459
 9933SOL     OW30697   2.618   0.442   3.382
 9933SOL    HW130698   2.712   0.475   3.386
 9933SOL    HW230699   2.567   0.475   3.462
 9934SOL     OW30700   5.963   1.506   6.421
 9934SOL    HW130701   5.973   1.589   6.476
 9934SOL    HW230702   5.896   1.445   6.465
 9935SOL     OW30703   2.802   2.163   0.443
 9935SOL    HW130704   2.871   2.159   0.515
 9935SOL    HW230705   2.800   2.077   0.393
 9936SOL     OW30706   4.978   4.847   5.572
 9936SOL    HW130707   5.011   4.923   5.627
 9936SOL    HW230708   4.962   4.767   5.630
 9937SOL     OW30709   6.906   0.243   2.702
 9937SOL    HW130710   6.831   0.308   2.697
 9937SOL    HW230711   6.870   0.150   2.698
 9938SOL     OW30712   6.478   1.291   4.487
 9938SOL    HW130713   6.549   1.328   4.547
 9938SOL    HW230714   6.390   1.296   4.533
 9939SOL     OW30715   1.793   3.644   1.497
 9939SOL    HW130716   1.873   3.599   1.538
 9939SOL    HW230717   1.742   3.578   1.442
 9940SOL     OW30718   0.420   0.197   3.225
 9940SOL    HW130719   0.516   0.175   3.242
 9940SOL    HW230720   0.379   0.235   3.309
 9941SOL     OW30721   3.930   5.468   5.724
 9941SOL    HW130722   3.945   5.528   5.803
 9941SOL    HW230723   3.874   5.390   5.751
 9942SOL     OW30724   4.600   4.712   3.221
 9942SOL    HW130725   4.688   4.673   3.193
 9942SOL    HW230726   4.546   4.642   3.269
 9943SOL     OW30727   1.498   3.754   6.851
 9943SOL    HW130728   1.456   3.735   6.940
 9943SOL    HW230729   1.597   3.740   6.858
 9944SOL     OW30730   1.677   4.871   6.967
 9944SOL    HW130731   1.745   4.943   6.974
 9944SOL    HW230732   1.589   4.910   6.940
 9945SOL     OW30733   6.299   4.053   0.024
 9945SOL    HW130734   6.211   4.058   7.005
 9945SOL    HW230735   6.290   4.092   0.116
 9946SOL     OW30736   6.175   0.792   2.757
 9946SOL    HW130737   6.149   0.825   2.848
 9946SOL    HW230738   6.131   0.848   2.687
 9947SOL     OW30739   1.146   2.665   4.300
 9947SOL    HW130740   1.203   2.599   4.251
 9947SOL    HW230741   1.072   2.696   4.241
 9948SOL     OW30742   6.453   0.054   3.739
 9948SOL    HW130743   6.539   0.013   3.708
 9948SOL    HW230744   6.385   0.047   3.667
 9949SOL     OW30745   6.648   4.373   5.287
 9949SOL    HW130746   6.578   4.404   5.351
 9949SOL    HW230747   6.705   4.451   5.260
 9950SOL     OW30748   6.579   4.728   6.297
 9950SOL    HW130749   6.619   4.638   6.280
 9950SOL    HW230750   6.514   4.750   6.225
 9951SOL     OW30751   1.059   3.215   2.629
 9951SOL    HW130752   1.072   3.129   2.581
 9951SOL    HW230753   1.060   3.291   2.563
 9952SOL     OW30754   0.951   3.592   1.360
 9952SOL    HW130755   0.876   3.554   1.414
 9952SOL    HW230756   0.984   3.676   1.403
 9953SOL     OW30757   6.664   2.542   3.503
 9953SOL    HW130758   6.644   2.639   3.489
 9953SOL    HW230759   6.633   2.513   3.594
 9954SOL     OW30760   2.843   1.670   5.204
 9954SOL    HW130761   2.941   1.676   5.191
 9954SOL    HW230762   2.824   1.637   5.297
 9955SOL     OW30763   4.291   3.425   0.682
 9955SOL    HW130764   4.215   3.486   0.706
 9955SOL    HW230765   4.255   3.333   0.665
 9956SOL     OW30766   1.115   4.355   2.915
 9956SOL    HW130767   1.209   4.353   2.947
 9956SOL    HW230768   1.091   4.448   2.888
 9957SOL     OW30769   5.317   0.113   1.718
 9957SOL    HW130770   5.347   0.074   1.631
 9957SOL    HW230771   5.389   0.172   1.755
 9958SOL     OW30772   3.728   4.615   6.361
 9958SOL    HW130773   3.810   4.557   6.360
 9958SOL    HW230774   3.716   4.658   6.272
 9959SOL     OW30775   4.645   4.049   1.447
 9959SOL    HW130776   4.602   4.014   1.530
 9959SOL    HW230777   4.723   3.992   1.423
 9960SOL     OW30778   6.589   6.502   1.474
 9960SOL    HW130779   6.590   6.488   1.573
 9960SOL    HW230780   6.606   6.415   1.427
 9961SOL     OW30781   1.442   3.997   1.766
 9961SOL    HW130782   1.540   4.010   1.749
 9961SOL    HW230783   1.424   4.012   1.863
 9962SOL     OW30784   3.589   6.090   1.695
 9962SOL    HW130785   3.676   6.134   1.718
 9962SOL    HW230786   3.604   5.993   1.679
 9963SOL     OW30787   2.378   2.016   0.622
 9963SOL    HW130788   2.467   2.048   0.651
 9963SOL    HW230789   2.343   2.075   0.549
 9964SOL     OW30790   4.593   4.531   5.469
 9964SOL    HW130791   4.682   4.489   5.482
 9964SOL    HW230792   4.589   4.618   5.519
 9965SOL     OW30793   2.892   6.238   5.043
 9965SOL    HW130794   2.920   6.147   5.072
 9965SOL    HW230795   2.914   6.304   5.115
 9966SOL     OW30796   2.974   4.822   2.483
 9966SOL    HW130797   3.046   4.767   2.441
 9966SOL    HW230798   2.887   4.773   2.476
 9967SOL     OW30799   6.184   6.548   2.682
 9967SOL    HW130800   6.272   6.557   2.636
 9967SOL    HW230801   6.138   6.637   2.681
 9968SOL     OW30802   4.646   5.651   6.886
 9968SOL    HW130803   4.593   5.661   6.802
 9968SOL    HW230804   4.608   5.711   6.956
 9969SOL     OW30805   0.961   4.325   4.756
 9969SOL    HW130806   0.877   4.271   4.762
 9969SOL    HW230807   1.028   4.276   4.701
 9970SOL     OW30808   5.401   5.407   1.483
 9970SOL    HW130809   5.377   5.359   1.399
 9970SOL    HW230810   5.365   5.356   1.562
 9971SOL     OW30811   1.300   2.830   1.364
 9971SOL    HW130812   1.286   2.750   1.424
 9971SOL    HW230813   1.397   2.854   1.364
 9972SOL     OW30814   3.412   3.991   0.876
 9972SOL    HW130815   3.397   4.073   0.820
 9972SOL    HW230816   3.324   3.953   0.904
 9973SOL     OW30817   4.014   2.077   4.256
 9973SOL    HW130818   4.103   2.032   4.250
 9973SOL    HW230819   4.002   2.137   4.177
 9974SOL     OW30820   6.945   2.535   3.570
 9974SOL    HW130821   6.850   2.528   3.539
 9974SOL    HW230822   6.986   2.619   3.532
 9975SOL     OW30823   1.022   5.267   0.132
 9975SOL    HW130824   1.091   5.274   0.204
 9975SOL    HW230825   1.068   5.261   0.043
 9976SOL     OW30826   1.475   5.354   5.770
 9976SOL    HW130827   1.516   5.267   5.797
 9976SOL    HW230828   1.524   5.390   5.691
 9977SOL     OW30829   5.323   5.041   5.223
 9977SOL    HW130830   5.233   5.070   5.190
 9977SOL    HW230831   5.377   5.121   5.245
 9978SOL     OW30832   0.237   2.100   5.861
 9978SOL    HW130833   0.232   2.053   5.949
 9978SOL    HW230834   0.184   2.184   5.864
 9979SOL     OW30835   5.231   3.350   6.063
 9979SOL    HW130836   5.227   3.325   6.160
 9979SOL    HW230837   5.228   3.449   6.054
 9980SOL     OW30838   1.674   0.830   0.398
 9980SOL    HW130839   1.727   0.867   0.322
 9980SOL    HW230840   1.714   0.860   0.484
 9981SOL     OW30841   1.362   2.304   1.200
 9981SOL    HW130842   1.389   2.220   1.247
 9981SOL    HW230843   1.407   2.382   1.244
 9982SOL     OW30844   1.815   1.179   4.737
 9982SOL    HW130845   1.851   1.272   4.729
 9982SOL    HW230846   1.717   1.179   4.718
 9983SOL     OW30847   5.984   2.785   2.729
 9983SOL    HW130848   6.019   2.696   2.758
 9983SOL    HW230849   5.908   2.812   2.788
 9984SOL     OW30850   0.244   5.974   1.374
 9984SOL    HW130851   0.292   5.912   1.313
 9984SOL    HW230852   0.151   5.941   1.389
 9985SOL     OW30853   3.682   5.126   0.925
 9985SOL    HW130854   3.589   5.098   0.901
 9985SOL    HW230855   3.708   5.206   0.870
 9986SOL     OW30856   5.466   4.480   0.614
 9986SOL    HW130857   5.540   4.412   0.610
 9986SOL    HW230858   5.505   4.572   0.610
 9987SOL     OW30859   5.151   3.282   1.700
 9987SOL    HW130860   5.089   3.219   1.653
 9987SOL    HW230861   5.120   3.294   1.794
 9988SOL     OW30862   6.816   5.307   4.074
 9988SOL    HW130863   6.902   5.267   4.102
 9988SOL    HW230864   6.750   5.301   4.149
 9989SOL     OW30865   6.007   3.588   2.060
 9989SOL    HW130866   5.914   3.585   2.024
 9989SOL    HW230867   6.061   3.514   2.020
 9990SOL     OW30868   0.633   6.467   3.336
 9990SOL    HW130869   0.621   6.566   3.340
 9990SOL    HW230870   0.591   6.425   3.417
 9991SOL     OW30871   1.617   3.816   3.728
 9991SOL    HW130872   1.605   3.859   3.818
 9991SOL    HW230873   1.543   3.750   3.713
 9992SOL     OW30874   3.510   3.966   1.197
 9992SOL    HW130875   3.545   4.044   1.145
 9992SOL    HW230876   3.555   3.882   1.166
 9993SOL     OW30877   3.162   6.029   3.857
 9993SOL    HW130878   3.101   5.973   3.801
 9993SOL    HW230879   3.176   6.117   3.812
 9994SOL     OW30880   0.014   4.215   3.305
 9994SOL    HW130881   0.090   4.165   3.346
 9994SOL    HW230882   6.956   4.187   3.349
 9995SOL     OW30883   3.460   1.184   3.936
 9995SOL    HW130884   3.381   1.137   3.976
 9995SOL    HW230885   3.539   1.122   3.938
 9996SOL     OW30886   2.890   3.987   0.399
 9996SOL    HW130887   2.844   4.027   0.320
 9996SOL    HW230888   2.964   4.047   0.429
 9997SOL     OW30889   5.082   1.476   3.220
 9997SOL    HW130890   5.002   1.534   3.236
 9997SOL    HW230891   5.068   1.387   3.264
 9998SOL     OW30892   4.870   3.990   2.559
 9998SOL    HW130893   4.937   4.056   2.526
 9998SOL    HW230894   4.833   3.938   2.482
 9999SOL     OW30895   0.934   0.080   4.320
 9999SOL    HW130896   1.020   0.129   4.312
 9999SOL    HW230897   0.948   7.011   4.300
10000SOL     OW30898   5.540   1.280   1.420
10000SOL    HW130899   5.638   1.262   1.430
10000SOL    HW230900   5.511   1.251   1.329
10001SOL     OW30901   3.505   6.447   2.347
10001SOL    HW130902   3.543   6.529   2.305
10001SOL    HW230903   3.567   6.414   2.418
10002SOL     OW30904   2.257   1.381   0.858
10002SOL    HW130905   2.166   1.423   0.855
10002SOL    HW230906   2.312   1.416   0.782
10003SOL     OW30907   2.870   1.719   2.648
10003SOL    HW130908   2.808   1.645   2.621
10003SOL    HW230909   2.954   1.680   2.685
10004SOL     OW30910   5.420   4.812   4.961
10004SOL    HW130911   5.378   4.755   4.890
10004SOL    HW230912   5.465   4.754   5.028
10005SOL     OW30913   3.273   5.117   2.902
10005SOL    HW130914   3.238   5.202   2.941
10005SOL    HW230915   3.320   5.065   2.974
10006SOL     OW30916   5.566   0.616   5.122
10006SOL    HW130917   5.636   0.633   5.053
10006SOL    HW230918   5.486   0.575   5.079
10007SOL     OW30919   0.453   3.421   4.276
10007SOL    HW130920   0.413   3.484   4.342
10007SOL    HW230921   0.493   3.343   4.324
10008SOL     OW30922   4.631   1.829   3.935
10008SOL    HW130923   4.622   1.928   3.934
10008SOL    HW230924   4.573   1.789   3.864
10009SOL     OW30925   1.696   3.904   1.354
10009SOL    HW130926   1.632   3.958   1.299
10009SOL    HW230927   1.659   3.811   1.364
10010SOL     OW30928   2.937   5.842   6.544
10010SOL    HW130929   2.928   5.764   6.606
10010SOL    HW230930   2.951   5.925   6.598
10011SOL     OW30931   0.330   4.523   6.754
10011SOL    HW130932   0.394   4.599   6.755
10011SOL    HW230933   0.332   4.479   6.664
10012SOL     OW30934   4.714   0.448   2.344
10012SOL    HW130935   4.713   0.348   2.337
10012SOL    HW230936   4.625   0.484   2.318
10013SOL     OW30937   1.045   4.587   4.424
10013SOL    HW130938   0.988   4.627   4.352
10013SOL    HW230939   1.138   4.574   4.390
10014SOL     OW30940   1.785   6.919   2.622
10014SOL    HW130941   1.871   6.970   2.624
10014SOL    HW230942   1.791   6.844   2.556
10015SOL     OW30943   3.863   5.089   0.091
10015SOL    HW130944   3.894   5.067   7.027
10015SOL    HW230945   3.765   5.070   0.099
10016SOL     OW30946   2.230   1.473   5.033
10016SOL    HW130947   2.325   1.473   5.000
10016SOL    HW230948   2.205   1.566   5.061
10017SOL     OW30949   1.958   1.530   3.022
10017SOL    HW130950   1.892   1.598   2.991
10017SOL    HW230951   1.957   1.451   2.959
10018SOL     OW30952   6.597   4.026   5.678
10018SOL    HW130953   6.681   4.078   5.663
10018SOL    HW230954   6.541   4.029   5.595
10019SOL     OW30955   0.301   1.182   2.939
10019SOL    HW130956   0.362   1.103   2.949
10019SOL    HW230957   0.255   1.200   3.026
10020SOL     OW30958   0.170   1.391   2.270
10020SOL    HW130959   0.190   1.337   2.352
10020SOL    HW230960   0.169   1.331   2.190
10021SOL     OW30961   1.016   3.168   1.862
10021SOL    HW130962   1.090   3.180   1.927
10021SOL    HW230963   0.984   3.073   1.864
10022SOL     OW30964   2.569   5.826   0.252
10022SOL    HW130965   2.526   5.861   0.169
10022SOL    HW230966   2.512   5.754   0.292
10023SOL     OW30967   2.844   5.971   5.763
10023SOL    HW130968   2.757   5.985   5.810
10023SOL    HW230969   2.919   5.993   5.826
10024SOL     OW30970   0.707   5.235   3.104
10024SOL    HW130971   0.669   5.146   3.129
10024SOL    HW230972   0.765   5.225   3.024
10025SOL     OW30973   1.619   2.768   2.438
10025SOL    HW130974   1.658   2.856   2.465
10025SOL    HW230975   1.561   2.780   2.358
10026SOL     OW30976   4.979   0.692   3.657
10026SOL    HW130977   4.910   0.622   3.640
10026SOL    HW230978   5.028   0.669   3.741
10027SOL     OW30979   0.951   2.970   5.066
10027SOL    HW130980   0.871   2.966   5.006
10027SOL    HW230981   0.963   2.883   5.112
10028SOL     OW30982   2.626   1.232   0.840
10028SOL    HW130983   2.617   1.163   0.912
10028SOL    HW230984   2.718   1.228   0.801
10029SOL     OW30985   1.053   3.630   3.785
10029SOL    HW130986   0.982   3.694   3.813
10029SOL    HW230987   1.012   3.549   3.744
10030SOL     OW30988   3.399   0.020   4.954
10030SOL    HW130989   3.441   6.987   4.886
10030SOL    HW230990   3.447   0.108   4.954
10031SOL     OW30991   4.367   4.944   4.892
10031SOL    HW130992   4.358   4.882   4.814
10031SOL    HW230993   4.437   4.910   4.954
10032SOL     OW30994   3.857   0.417   6.053
10032SOL    HW130995   3.933   0.383   6.108
10032SOL    HW230996   3.771   0.391   6.096
10033SOL     OW30997   4.305   2.165   4.829
10033SOL    HW130998   4.283   2.189   4.924
10033SOL    HW230999   4.276   2.071   4.811
10034SOL     OW31000   2.083   1.442   3.661
10034SOL    HW131001   2.126   1.517   3.713
10034SOL    HW231002   1.986   1.461   3.649
10035SOL     OW31003   5.793   4.251   0.723
10035SOL    HW131004   5.888   4.271   0.747
10035SOL    HW231005   5.772   4.292   0.635
10036SOL     OW31006   6.457   0.982   0.933
10036SOL    HW131007   6.478   0.956   1.028
10036SOL    HW231008   6.511   1.063   0.909
10037SOL     OW31009   6.351   6.533   6.346
10037SOL    HW131010   6.396   6.586   6.274
10037SOL    HW231011   6.319   6.594   6.418
10038SOL     OW31012   4.365   0.076   6.115
10038SOL    HW131013   4.413   0.070   6.028
10038SOL    HW231014   4.395   0.157   6.165
10039SOL     OW31015   5.789   6.663   5.085
10039SOL    HW131016   5.775   6.619   5.173
10039SOL    HW231017   5.846   6.744   5.096
10040SOL     OW31018   4.420   6.333   5.898
10040SOL    HW131019   4.429   6.403   5.969
10040SOL    HW231020   4.509   6.313   5.859
10041SOL     OW31021   5.422   5.052   6.093
10041SOL    HW131022   5.485   5.081   6.165
10041SOL    HW231023   5.333   5.094   6.107
10042SOL     OW31024   0.247   0.856   5.402
10042SOL    HW131025   0.239   0.808   5.314
10042SOL    HW231026   0.277   0.949   5.386
10043SOL     OW31027   0.619   0.900   3.877
10043SOL    HW131028   0.594   0.989   3.913
10043SOL    HW231029   0.590   0.893   3.781
10044SOL     OW31030   2.738   1.974   3.919
10044SOL    HW131031   2.768   2.062   3.957
10044SOL    HW231032   2.806   1.940   3.854
10045SOL     OW31033   5.082   0.217   4.065
10045SOL    HW131034   5.108   0.130   4.108
10045SOL    HW231035   5.112   0.216   3.970
10046SOL     OW31036   1.553   2.241   1.542
10046SOL    HW131037   1.518   2.167   1.599
10046SOL    HW231038   1.622   2.205   1.480
10047SOL     OW31039   5.984   3.837   5.076
10047SOL    HW131040   6.004   3.889   4.993
10047SOL    HW231041   6.052   3.765   5.087
10048SOL     OW31042   3.346   2.118   2.432
10048SOL    HW131043   3.249   2.129   2.409
10048SOL    HW231044   3.399   2.104   2.348
10049SOL     OW31045   0.560   1.100   6.811
10049SOL    HW131046   0.634   1.053   6.762
10049SOL    HW231047   0.473   1.081   6.765
10050SOL     OW31048   6.090   2.806   5.108
10050SOL    HW131049   6.023   2.734   5.089
10050SOL    HW231050   6.048   2.876   5.165
10051SOL     OW31051   6.279   2.803   4.930
10051SOL    HW131052   6.194   2.808   4.983
10051SOL    HW231053   6.312   2.896   4.912
10052SOL     OW31054   1.571   2.215   2.400
10052SOL    HW131055   1.661   2.183   2.430
10052SOL    HW231056   1.554   2.306   2.437
10053SOL     OW31057   2.983   5.254   2.036
10053SOL    HW131058   2.917   5.204   2.092
10053SOL    HW231059   3.058   5.193   2.011
10054SOL     OW31060   4.016   6.079   5.911
10054SOL    HW131061   4.040   6.007   5.976
10054SOL    HW231062   3.936   6.129   5.944
10055SOL     OW31063   5.605   2.302   5.911
10055SOL    HW131064   5.545   2.363   5.962
10055SOL    HW231065   5.552   2.249   5.845
10056SOL     OW31066   6.685   5.188   0.362
10056SOL    HW131067   6.746   5.156   0.290
10056SOL    HW231068   6.606   5.234   0.322
10057SOL     OW31069   4.227   1.215   4.134
10057SOL    HW131070   4.137   1.240   4.098
10057SOL    HW231071   4.264   1.139   4.081
10058SOL     OW31072   0.627   3.862   4.433
10058SOL    HW131073   0.725   3.860   4.415
10058SOL    HW231074   0.608   3.823   4.523
10059SOL     OW31075   5.645   6.227   0.063
10059SOL    HW131076   5.599   6.144   0.095
10059SOL    HW231077   5.638   6.298   0.133
10060SOL     OW31078   2.493   1.553   2.146
10060SOL    HW131079   2.572   1.615   2.152
10060SOL    HW231080   2.449   1.564   2.056
10061SOL     OW31081   5.303   1.395   4.787
10061SOL    HW131082   5.218   1.341   4.792
10061SOL    HW231083   5.347   1.378   4.699
10062SOL     OW31084   6.139   6.540   4.838
10062SOL    HW131085   6.043   6.565   4.823
10062SOL    HW231086   6.164   6.562   4.933
10063SOL     OW31087   2.003   2.117   3.118
10063SOL    HW131088   2.069   2.044   3.137
10063SOL    HW231089   1.911   2.086   3.141
10064SOL     OW31090   5.841   5.835   6.220
10064SOL    HW131091   5.775   5.898   6.179
10064SOL    HW231092   5.930   5.881   6.230
10065SOL     OW31093   2.234   0.672   1.898
10065SOL    HW131094   2.301   0.644   1.967
10065SOL    HW231095   2.273   0.744   1.840
10066SOL     OW31096   1.617   0.972   4.137
10066SOL    HW131097   1.556   1.047   4.163
10066SOL    HW231098   1.700   1.009   4.097
10067SOL     OW31099   5.750   3.742   5.530
10067SOL    HW131100   5.784   3.736   5.624
10067SOL    HW231101   5.812   3.694   5.469
10068SOL     OW31102   5.824   3.375   4.483
10068SOL    HW131103   5.920   3.391   4.505
10068SOL    HW231104   5.792   3.293   4.530
10069SOL     OW31105   1.951   5.219   3.580
10069SOL    HW131106   1.924   5.177   3.667
10069SOL    HW231107   1.997   5.306   3.598
10070SOL     OW31108   0.394   0.104   5.143
10070SOL    HW131109   0.360   0.030   5.084
10070SOL    HW231110   0.493   0.110   5.136
10071SOL     OW31111   5.022   5.803   3.903
10071SOL    HW131112   4.970   5.790   3.818
10071SOL    HW231113   5.059   5.895   3.906
10072SOL     OW31114   0.606   6.060   4.177
10072SOL    HW131115   0.608   6.026   4.271
10072SOL    HW231116   0.690   6.031   4.130
10073SOL     OW31117   6.481   4.125   4.287
10073SOL    HW131118   6.573   4.093   4.306
10073SOL    HW231119   6.475   4.223   4.307
10074SOL     OW31120   0.921   0.748   5.394
10074SOL    HW131121   0.948   0.652   5.397
10074SOL    HW231122   0.916   0.779   5.299
10075SOL     OW31123   1.304   2.616   2.614
10075SOL    HW131124   1.323   2.520   2.593
10075SOL    HW231125   1.373   2.650   2.679
10076SOL     OW31126   5.712   0.322   3.951
10076SOL    HW131127   5.726   0.250   4.019
10076SOL    HW231128   5.713   0.281   3.859
10077SOL     OW31129   3.202   2.025   6.462
10077SOL    HW131130   3.260   2.095   6.420
10077SOL    HW231131   3.193   1.947   6.399
10078SOL     OW31132   0.023   6.204   3.993
10078SOL    HW131133   0.110   6.156   4.005
10078SOL    HW231134   0.009   6.266   4.069
10079SOL     OW31135   0.916   3.436   2.076
10079SOL    HW131136   0.864   3.353   2.056
10079SOL    HW231137   0.889   3.471   2.165
10080SOL     OW31138   3.300   1.307   5.756
10080SOL    HW131139   3.252   1.220   5.754
10080SOL    HW231140   3.358   1.311   5.837
10081SOL     OW31141   0.594   0.328   0.172
10081SOL    HW131142   0.608   0.405   0.110
10081SOL    HW231143   0.654   0.253   0.147
10082SOL     OW31144   6.998   4.380   2.287
10082SOL    HW131145   0.038   4.440   2.330
10082SOL    HW231146   6.928   4.436   2.243
10083SOL     OW31147   5.103   0.758   2.610
10083SOL    HW131148   5.041   0.743   2.533
10083SOL    HW231149   5.061   0.820   2.676
10084SOL     OW31150   3.263   0.856   6.260
10084SOL    HW131151   3.274   0.885   6.165
10084SOL    HW231152   3.296   0.762   6.270
10085SOL     OW31153   0.639   6.136   2.295
10085SOL    HW131154   0.618   6.224   2.339
10085SOL    HW231155   0.725   6.144   2.245
10086SOL     OW31156   5.679   5.415   1.528
10086SOL    HW131157   5.587   5.387   1.500
10086SOL    HW231158   5.681   5.432   1.627
10087SOL     OW31159   0.281   6.936   4.003
10087SOL    HW131160   0.237   7.025   4.018
10087SOL    HW231161   0.268   6.908   3.908
10088SOL     OW31162   7.027   0.104   6.977
10088SOL    HW131163   6.928   0.102   6.986
10088SOL    HW231164   0.036   0.011   6.981
10089SOL     OW31165   2.475   2.537   2.915
10089SOL    HW131166   2.532   2.547   2.997
10089SOL    HW231167   2.397   2.479   2.936
10090SOL     OW31168   1.069   4.854   0.605
10090SOL    HW131169   1.150   4.820   0.556
10090SOL    HW231170   1.097   4.895   0.692
10091SOL     OW31171   1.432   3.377   5.541
10091SOL    HW131172   1.408   3.349   5.634
10091SOL    HW231173   1.351   3.370   5.483
10092SOL     OW31174   2.175   3.629   5.068
10092SOL    HW131175   2.209   3.699   5.131
10092SOL    HW231176   2.198   3.538   5.102
10093SOL     OW31177   0.744   4.522   4.881
10093SOL    HW131178   0.816   4.464   4.842
10093SOL    HW231179   0.662   4.517   4.824
10094SOL     OW31180   1.871   6.177   2.017
10094SOL    HW131181   1.912   6.250   2.072
10094SOL    HW231182   1.817   6.217   1.943
10095SOL     OW31183   6.290   2.108   5.756
10095SOL    HW131184   6.323   2.028   5.708
10095SOL    HW231185   6.367   2.160   5.792
10096SOL     OW31186   5.610   5.342   2.079
10096SOL    HW131187   5.527   5.366   2.131
10096SOL    HW231188   5.688   5.341   2.141
10097SOL     OW31189   0.996   1.065   0.347
10097SOL    HW131190   1.071   1.035   0.289
10097SOL    HW231191   0.983   1.000   0.422
10098SOL     OW31192   2.291   0.929   5.356
10098SOL    HW131193   2.227   0.855   5.336
10098SOL    HW231194   2.364   0.930   5.288
10099SOL     OW31195   6.750   4.654   0.228
10099SOL    HW131196   6.805   4.572   0.217
10099SOL    HW231197   6.810   4.734   0.239
10100SOL     OW31198   5.277   0.060   4.477
10100SOL    HW131199   5.237   7.010   4.525
10100SOL    HW231200   5.273   0.141   4.536
10101SOL     OW31201   5.671   4.134   1.572
10101SOL    HW131202   5.732   4.084   1.633
10101SOL    HW231203   5.576   4.109   1.592
10102SOL     OW31204   1.543   1.233   2.683
10102SOL    HW131205   1.583   1.141   2.682
10102SOL    HW231206   1.545   1.271   2.590
10103SOL     OW31207   2.435   1.645   5.958
10103SOL    HW131208   2.473   1.723   6.010
10103SOL    HW231209   2.349   1.672   5.916
10104SOL     OW31210   1.493   2.702   4.342
10104SOL    HW131211   1.561   2.658   4.284
10104SOL    HW231212   1.537   2.740   4.423
10105SOL     OW31213   1.190   0.952   0.201
10105SOL    HW131214   1.143   0.892   0.137
10105SOL    HW231215   1.252   0.898   0.258
10106SOL     OW31216   4.380   6.148   1.148
10106SOL    HW131217   4.448   6.155   1.075
10106SOL    HW231218   4.393   6.224   1.213
10107SOL     OW31219   0.409   2.293   6.717
10107SOL    HW131220   0.450   2.208   6.751
10107SOL    HW231221   0.467   2.371   6.742
10108SOL     OW31222   6.278   6.119   6.922
10108SOL    HW131223   6.254   6.202   6.872
10108SOL    HW231224   6.349   6.069   6.872
10109SOL     OW31225   4.083   6.726   1.187
10109SOL    HW131226   4.101   6.630   1.169
10109SOL    HW231227   4.018   6.761   1.119
10110SOL     OW31228   4.764   6.311   5.129
10110SOL    HW131229   4.782   6.406   5.102
10110SOL    HW231230   4.815   6.290   5.213
10111SOL     OW31231   5.600   3.359   3.933
10111SOL    HW131232   5.659   3.311   3.867
10111SOL    HW231233   5.504   3.348   3.906
10112SOL     OW31234   5.779   4.117   4.367
10112SOL    HW131235   5.729   4.153   4.446
10112SOL    HW231236   5.737   4.030   4.338
10113SOL     OW31237   4.432   0.252   5.272
10113SOL    HW131238   4.348   0.302   5.250
10113SOL    HW231239   4.501   0.271   5.202
10114SOL     OW31240   5.178   0.527   1.086
10114SOL    HW131241   5.092   0.514   1.135
10114SOL    HW231242   5.254   0.492   1.141
10115SOL     OW31243   3.401   1.889   3.703
10115SOL    HW131244   3.382   1.979   3.742
10115SOL    HW231245   3.475   1.845   3.754
10116SOL     OW31246   0.274   6.279   0.337
10116SOL    HW131247   0.299   6.352   0.401
10116SOL    HW231248   0.322   6.294   0.250
10117SOL     OW31249   6.784   6.545   4.759
10117SOL    HW131250   6.827   6.551   4.849
10117SOL    HW231251   6.800   6.629   4.709
10118SOL     OW31252   1.513   5.312   3.277
10118SOL    HW131253   1.470   5.399   3.303
10118SOL    HW231254   1.487   5.289   3.183
10119SOL     OW31255   0.762   6.617   4.344
10119SOL    HW131256   0.767   6.529   4.297
10119SOL    HW231257   0.666   6.642   4.355
10120SOL     OW31258   1.504   3.938   4.486
10120SOL    HW131259   1.468   3.901   4.400
10120SOL    HW231260   1.443   3.913   4.561
10121SOL     OW31261   6.187   4.303   6.460
10121SOL    HW131262   6.191   4.338   6.554
10121SOL    HW231263   6.097   4.322   6.422
10122SOL     OW31264   5.785   3.100   0.667
10122SOL    HW131265   5.815   3.124   0.575
10122SOL    HW231266   5.865   3.087   0.726
10123SOL     OW31267   6.848   6.867   0.188
10123SOL    HW131268   6.753   6.898   0.188
10123SOL    HW231269   6.853   6.776   0.146
10124SOL     OW31270   1.803   3.429   6.813
10124SOL    HW131271   1.900   3.418   6.793
10124SOL    HW231272   1.757   3.475   6.737
10125SOL     OW31273   1.590   0.430   2.598
10125SOL    HW131274   1.665   0.414   2.534
10125SOL    HW231275   1.569   0.528   2.600
10126SOL     OW31276   0.185   6.730   6.212
10126SOL    HW131277   0.152   6.824   6.211
10126SOL    HW231278   0.129   6.675   6.274
10127SOL     OW31279   2.242   4.864   5.865
10127SOL    HW131280   2.333   4.907   5.866
10127SOL    HW231281   2.177   4.923   5.913
10128SOL     OW31282   1.619   1.160   1.167
10128SOL    HW131283   1.594   1.156   1.071
10128SOL    HW231284   1.638   1.068   1.201
10129SOL     OW31285   5.226   2.926   3.794
10129SOL    HW131286   5.272   3.003   3.838
10129SOL    HW231287   5.291   2.875   3.738
10130SOL     OW31288   2.101   4.257   1.829
10130SOL    HW131289   2.102   4.263   1.929
10130SOL    HW231290   2.125   4.346   1.790
10131SOL     OW31291   0.812   0.400   3.419
10131SOL    HW131292   0.731   0.430   3.369
10131SOL    HW231293   0.887   0.383   3.355
10132SOL     OW31294   3.041   0.248   4.323
10132SOL    HW131295   3.072   0.201   4.240
10132SOL    HW231296   3.099   0.327   4.340
10133SOL     OW31297   4.833   6.143   1.502
10133SOL    HW131298   4.800   6.084   1.428
10133SOL    HW231299   4.850   6.235   1.466
10134SOL     OW31300   6.865   6.176   3.782
10134SOL    HW131301   6.776   6.162   3.824
10134SOL    HW231302   6.928   6.216   3.849
10135SOL     OW31303   5.034   3.498   3.344
10135SOL    HW131304   4.987   3.586   3.337
10135SOL    HW231305   5.064   3.483   3.438
10136SOL     OW31306   5.387   0.797   3.219
10136SOL    HW131307   5.401   0.699   3.232
10136SOL    HW231308   5.447   0.830   3.147
10137SOL     OW31309   5.898   4.325   3.923
10137SOL    HW131310   5.976   4.327   3.987
10137SOL    HW231311   5.814   4.344   3.973
10138SOL     OW31312   5.108   2.333   0.618
10138SOL    HW131313   5.088   2.351   0.714
10138SOL    HW231314   5.112   2.234   0.602
10139SOL     OW31315   3.757   4.031   3.350
10139SOL    HW131316   3.784   3.996   3.260
10139SOL    HW231317   3.661   4.059   3.347
10140SOL     OW31318   6.456   6.495   5.887
10140SOL    HW131319   6.460   6.488   5.987
10140SOL    HW231320   6.402   6.575   5.862
10141SOL     OW31321   3.429   1.766   4.385
10141SOL    HW131322   3.369   1.767   4.306
10141SOL    HW231323   3.518   1.728   4.359
10142SOL     OW31324   6.194   6.337   4.653
10142SOL    HW131325   6.109   6.284   4.652
10142SOL    HW231326   6.183   6.416   4.714
10143SOL     OW31327   4.003   0.767   6.929
10143SOL    HW131328   4.076   0.732   6.988
10143SOL    HW231329   4.043   0.824   6.857
10144SOL     OW31330   3.901   6.554   6.437
10144SOL    HW131331   3.901   6.561   6.337
10144SOL    HW231332   3.898   6.645   6.476
10145SOL     OW31333   3.034   5.428   5.401
10145SOL    HW131334   2.973   5.374   5.458
10145SOL    HW231335   3.104   5.369   5.360
10146SOL     OW31336   4.083   5.457   4.256
10146SOL    HW131337   4.086   5.361   4.226
10146SOL    HW231338   4.172   5.500   4.238
10147SOL     OW31339   5.558   4.045   5.088
10147SOL    HW131340   5.654   4.036   5.114
10147SOL    HW231341   5.534   3.974   5.022
10148SOL     OW31342   4.952   5.332   0.009
10148SOL    HW131343   4.921   5.238   0.025
10148SOL    HW231344   4.878   5.396   0.029
10149SOL     OW31345   5.951   2.741   0.740
10149SOL    HW131346   5.954   2.776   0.834
10149SOL    HW231347   5.865   2.768   0.697
10150SOL     OW31348   4.055   3.629   0.776
10150SOL    HW131349   3.963   3.631   0.815
10150SOL    HW231350   4.056   3.685   0.692
10151SOL     OW31351   0.993   6.783   0.163
10151SOL    HW131352   0.992   6.717   0.088
10151SOL    HW231353   1.007   6.735   0.249
10152SOL     OW31354   0.622   6.277   4.660
10152SOL    HW131355   0.581   6.273   4.752
10152SOL    HW231356   0.701   6.337   4.663
10153SOL     OW31357   4.538   6.398   3.875
10153SOL    HW131358   4.522   6.325   3.809
10153SOL    HW231359   4.526   6.362   3.968
10154SOL     OW31360   5.550   0.213   4.876
10154SOL    HW131361   5.624   0.228   4.942
10154SOL    HW231362   5.527   0.116   4.872
10155SOL     OW31363   3.598   2.206   5.838
10155SOL    HW131364   3.575   2.303   5.833
10155SOL    HW231365   3.656   2.182   5.761
10156SOL     OW31366   6.383   1.515   2.865
10156SOL    HW131367   6.385   1.613   2.886
10156SOL    HW231368   6.302   1.474   2.905
10157SOL     OW31369   6.167   2.053   6.966
10157SOL    HW131370   6.177   2.074   0.035
10157SOL    HW231371   6.155   2.138   6.915
10158SOL     OW31372   6.136   3.725   1.207
10158SOL    HW131373   6.148   3.626   1.205
10158SOL    HW231374   6.181   3.766   1.128
10159SOL     OW31375   2.620   2.667   6.524
10159SOL    HW131376   2.588   2.751   6.568
10159SOL    HW231377   2.553   2.594   6.540
10160SOL     OW31378   2.111   3.066   2.190
10160SOL    HW131379   2.015   3.043   2.170
10160SOL    HW231380   2.161   3.076   2.104
10161SOL     OW31381   2.985   2.820   6.522
10161SOL    HW131382   2.923   2.785   6.593
10161SOL    HW231383   2.950   2.795   6.432
10162SOL     OW31384   3.718   4.693   0.717
10162SOL    HW131385   3.755   4.605   0.749
10162SOL    HW231386   3.657   4.676   0.639
10163SOL     OW31387   6.119   4.890   5.963
10163SOL    HW131388   6.126   4.939   5.876
10163SOL    HW231389   6.029   4.847   5.970
10164SOL     OW31390   5.867   3.586   4.886
10164SOL    HW131391   5.951   3.588   4.833
10164SOL    HW231392   5.800   3.649   4.845
10165SOL     OW31393   0.364   2.291   3.364
10165SOL    HW131394   0.339   2.385   3.340
10165SOL    HW231395   0.454   2.269   3.326
10166SOL     OW31396   3.136   1.976   1.630
10166SOL    HW131397   3.175   2.001   1.718
10166SOL    HW231398   3.115   2.058   1.577
10167SOL     OW31399   2.186   3.476   0.211
10167SOL    HW131400   2.283   3.450   0.208
10167SOL    HW231401   2.135   3.407   0.262
10168SOL     OW31402   5.894   3.694   5.776
10168SOL    HW131403   5.872   3.789   5.799
10168SOL    HW231404   5.895   3.639   5.860
10169SOL     OW31405   6.678   4.454   3.730
10169SOL    HW131406   6.733   4.510   3.793
10169SOL    HW231407   6.722   4.451   3.641
10170SOL     OW31408   1.333   5.539   5.946
10170SOL    HW131409   1.361   5.464   5.886
10170SOL    HW231410   1.313   5.503   6.037
10171SOL     OW31411   6.467   2.886   5.570
10171SOL    HW131412   6.377   2.928   5.560
10171SOL    HW231413   6.527   2.917   5.496
10172SOL     OW31414   6.613   6.775   4.545
10172SOL    HW131415   6.673   6.853   4.563
10172SOL    HW231416   6.570   6.745   4.630
10173SOL     OW31417   0.657   2.491   1.104
10173SOL    HW131418   0.707   2.412   1.069
10173SOL    HW231419   0.612   2.538   1.027
10174SOL     OW31420   5.281   5.230   2.414
10174SOL    HW131421   5.189   5.230   2.373
10174SOL    HW231422   5.312   5.136   2.426
10175SOL     OW31423   5.075   2.323   4.154
10175SOL    HW131424   5.132   2.395   4.116
10175SOL    HW231425   5.124   2.278   4.229
10176SOL     OW31426   0.962   3.679   5.867
10176SOL    HW131427   0.869   3.647   5.880
10176SOL    HW231428   1.023   3.602   5.851
10177SOL     OW31429   2.590   0.709   0.571
10177SOL    HW131430   2.602   0.716   0.670
10177SOL    HW231431   2.540   0.625   0.550
10178SOL     OW31432   6.962   0.744   5.713
10178SOL    HW131433   6.971   0.646   5.694
10178SOL    HW231434   6.907   0.786   5.641
10179SOL     OW31435   0.892   1.745   6.470
10179SOL    HW131436   0.959   1.695   6.416
10179SOL    HW231437   0.844   1.682   6.530
10180SOL     OW31438   4.074   0.293   6.276
10180SOL    HW131439   3.995   0.347   6.306
10180SOL    HW231440   4.156   0.327   6.323
10181SOL     OW31441   5.809   2.758   1.780
10181SOL    HW131442   5.809   2.798   1.689
10181SOL    HW231443   5.733   2.797   1.833
10182SOL     OW31444   4.203   1.008   1.166
10182SOL    HW131445   4.105   0.992   1.182
10182SOL    HW231446   4.255   0.926   1.188
10183SOL     OW31447   0.150   2.320   6.821
10183SOL    HW131448   0.107   2.265   6.750
10183SOL    HW231449   0.247   2.334   6.799
10184SOL     OW31450   3.876   0.910   6.354
10184SOL    HW131451   3.804   0.975   6.380
10184SOL    HW231452   3.869   0.891   6.256
10185SOL     OW31453   5.739   5.958   2.343
10185SOL    HW131454   5.831   5.932   2.372
10185SOL    HW231455   5.722   6.054   2.367
10186SOL     OW31456   5.903   3.952   3.750
10186SOL    HW131457   5.968   4.006   3.804
10186SOL    HW231458   5.953   3.882   3.698
10187SOL     OW31459   0.386   3.218   0.514
10187SOL    HW131460   0.434   3.207   0.427
10187SOL    HW231461   0.296   3.175   0.508
10188SOL     OW31462   3.420   5.719   0.728
10188SOL    HW131463   3.426   5.819   0.735
10188SOL    HW231464   3.477   5.688   0.652
10189SOL     OW31465   0.915   0.889   6.087
10189SOL    HW131466   0.982   0.883   6.012
10189SOL    HW231467   0.938   0.821   6.157
10190SOL     OW31468   4.952   3.032   1.928
10190SOL    HW131469   4.866   3.008   1.973
10190SOL    HW231470   4.952   3.129   1.903
10191SOL     OW31471   5.942   5.484   5.303
10191SOL    HW131472   6.024   5.527   5.266
10191SOL    HW231473   5.968   5.402   5.354
10192SOL     OW31474   4.322   1.149   5.432
10192SOL    HW131475   4.293   1.245   5.432
10192SOL    HW231476   4.411   1.141   5.388
10193SOL     OW31477   4.122   3.365   2.008
10193SOL    HW131478   4.108   3.286   1.948
10193SOL    HW231479   4.077   3.349   2.095
10194SOL     OW31480   5.796   5.586   5.543
10194SOL    HW131481   5.831   5.528   5.470
10194SOL    HW231482   5.714   5.544   5.582
10195SOL     OW31483   6.307   5.681   0.645
10195SOL    HW131484   6.309   5.623   0.726
10195SOL    HW231485   6.398   5.721   0.630
10196SOL     OW31486   4.790   1.634   4.050
10196SOL    HW131487   4.780   1.556   3.988
10196SOL    HW231488   4.722   1.704   4.027
10197SOL     OW31489   5.917   1.903   5.689
10197SOL    HW131490   5.975   1.970   5.735
10197SOL    HW231491   5.860   1.857   5.756
10198SOL     OW31492   2.650   6.865   2.520
10198SOL    HW131493   2.621   6.798   2.452
10198SOL    HW231494   2.715   6.929   2.478
10199SOL     OW31495   2.656   2.566   6.904
10199SOL    HW131496   2.634   2.479   6.859
10199SOL    HW231497   2.730   2.551   6.970
10200SOL     OW31498   4.855   1.688   6.980
10200SOL    HW131499   4.883   1.600   7.017
10200SOL    HW231500   4.839   1.679   6.881
10201SOL     OW31501   1.431   4.315   0.783
10201SOL    HW131502   1.487   4.392   0.812
10201SOL    HW231503   1.490   4.236   0.763
10202SOL     OW31504   3.455   3.661   0.449
10202SOL    HW131505   3.552   3.682   0.457
10202SOL    HW231506   3.403   3.746   0.444
10203SOL     OW31507   6.286   2.954   3.556
10203SOL    HW131508   6.207   3.006   3.589
10203SOL    HW231509   6.310   2.985   3.464
10204SOL     OW31510   5.292   5.998   0.059
10204SOL    HW131511   5.279   6.075   0.122
10204SOL    HW231512   5.227   6.006   7.011
10205SOL     OW31513   1.697   0.617   1.470
10205SOL    HW131514   1.652   0.686   1.527
10205SOL    HW231515   1.787   0.651   1.443
10206SOL     OW31516   0.254   0.810   0.386
10206SOL    HW131517   0.301   0.897   0.398
10206SOL    HW231518   0.284   0.767   0.301
10207SOL     OW31519   1.123   2.040   6.968
10207SOL    HW131520   1.123   2.102   6.890
10207SOL    HW231521   1.135   1.946   6.936
10208SOL     OW31522   5.672   4.236   3.792
10208SOL    HW131523   5.754   4.268   3.841
10208SOL    HW231524   5.643   4.149   3.830
10209SOL     OW31525   0.426   0.068   7.008
10209SOL    HW131526   0.449   0.003   0.053
10209SOL    HW231527   0.402   0.156   0.020
10210SOL     OW31528   4.682   6.494   2.165
10210SOL    HW131529   4.630   6.432   2.224
10210SOL    HW231530   4.780   6.477   2.177
10211SOL     OW31531   3.900   6.424   4.729
10211SOL    HW131532   3.970   6.357   4.752
10211SOL    HW231533   3.810   6.379   4.726
10212SOL     OW31534   0.925   0.396   5.660
10212SOL    HW131535   0.977   0.316   5.629
10212SOL    HW231536   0.961   0.428   5.747
10213SOL     OW31537   5.575   3.093   1.212
10213SOL    HW131538   5.600   3.131   1.301
10213SOL    HW231539   5.557   2.995   1.221
10214SOL     OW31540   1.425   1.450   2.382
10214SOL    HW131541   1.329   1.460   2.354
10214SOL    HW231542   1.437   1.487   2.474
10215SOL     OW31543   3.948   3.827   3.373
10215SOL    HW131544   3.894   3.743   3.363
10215SOL    HW231545   3.886   3.904   3.392
10216SOL     OW31546   0.142   1.162   1.478
10216SOL    HW131547   0.135   1.241   1.539
10216SOL    HW231548   0.236   1.152   1.445
10217SOL     OW31549   3.161   2.113   3.108
10217SOL    HW131550   3.260   2.112   3.094
10217SOL    HW231551   3.115   2.094   3.021
10218SOL     OW31552   1.639   1.291   1.407
10218SOL    HW131553   1.637   1.240   1.320
10218SOL    HW231554   1.709   1.362   1.401
10219SOL     OW31555   6.984   2.216   2.683
10219SOL    HW131556   6.978   2.149   2.756
10219SOL    HW231557   6.969   2.172   2.595
10220SOL     OW31558   4.578   2.000   0.931
10220SOL    HW131559   4.616   2.082   0.889
10220SOL    HW231560   4.522   2.026   1.010
10221SOL     OW31561   0.550   5.029   2.923
10221SOL    HW131562   0.591   4.998   3.009
10221SOL    HW231563   0.615   5.086   2.874
10222SOL     OW31564   2.770   3.449   6.003
10222SOL    HW131565   2.807   3.511   5.933
10222SOL    HW231566   2.702   3.497   6.058
10223SOL     OW31567   0.617   4.709   1.301
10223SOL    HW131568   0.703   4.716   1.251
10223SOL    HW231569   0.614   4.781   1.371
10224SOL     OW31570   0.013   3.559   4.374
10224SOL    HW131571   0.029   3.587   4.279
10224SOL    HW231572   6.994   3.632   4.423
10225SOL     OW31573   1.487   4.916   5.693
10225SOL    HW131574   1.558   4.857   5.655
10225SOL    HW231575   1.526   4.974   5.764
10226SOL     OW31576   2.788   0.505   6.435
10226SOL    HW131577   2.776   0.412   6.399
10226SOL    HW231578   2.715   0.564   6.401
10227SOL     OW31579   5.627   4.743   0.584
10227SOL    HW131580   5.725   4.742   0.602
10227SOL    HW231581   5.611   4.732   0.486
10228SOL     OW31582   0.570   6.753   2.117
10228SOL    HW131583   0.644   6.728   2.179
10228SOL    HW231584   0.595   6.836   2.066
10229SOL     OW31585   0.951   3.300   4.556
10229SOL    HW131586   0.896   3.217   4.552
10229SOL    HW231587   0.899   3.373   4.600
10230SOL     OW31588   5.504   5.875   3.070
10230SOL    HW131589   5.522   5.793   3.015
10230SOL    HW231590   5.412   5.870   3.108
10231SOL     OW31591   6.899   5.629   5.116
10231SOL    HW131592   6.903   5.531   5.136
10231SOL    HW231593   6.810   5.651   5.076
10232SOL     OW31594   2.960   1.279   3.833
10232SOL    HW131595   2.922   1.242   3.917
10232SOL    HW231596   2.887   1.322   3.779
10233SOL     OW31597   3.883   4.071   4.705
10233SOL    HW131598   3.853   4.132   4.778
10233SOL    HW231599   3.863   4.113   4.616
10234SOL     OW31600   5.904   1.537   1.383
10234SOL    HW131601   5.869   1.604   1.448
10234SOL    HW231602   5.950   1.464   1.434
10235SOL     OW31603   2.015   2.690   1.966
10235SOL    HW131604   1.972   2.731   1.885
10235SOL    HW231605   2.114   2.692   1.954
10236SOL     OW31606   2.864   6.914   0.050
10236SOL    HW131607   2.963   6.906   0.036
10236SOL    HW231608   2.833   6.843   0.114
10237SOL     OW31609   0.048   3.493   0.033
10237SOL    HW131610   0.061   3.399   0.065
10237SOL    HW231611   6.995   3.496   7.002
10238SOL     OW31612   3.956   4.298   1.620
10238SOL    HW131613   3.898   4.222   1.591
10238SOL    HW231614   4.051   4.268   1.625
10239SOL     OW31615   1.162   2.930   4.402
10239SOL    HW131616   1.161   2.834   4.375
10239SOL    HW231617   1.182   2.987   4.323
10240SOL     OW31618   1.928   5.193   2.085
10240SOL    HW131619   1.964   5.138   2.161
10240SOL    HW231620   1.995   5.194   2.011
10241SOL     OW31621   5.227   0.418   2.457
10241SOL    HW131622   5.263   0.339   2.507
10241SOL    HW231623   5.300   0.485   2.442
10242SOL     OW31624   6.741   1.336   0.574
10242SOL    HW131625   6.724   1.359   0.478
10242SOL    HW231626   6.680   1.389   0.632
10243SOL     OW31627   2.498   4.360   1.665
10243SOL    HW131628   2.590   4.322   1.674
10243SOL    HW231629   2.436   4.289   1.631
10244SOL     OW31630   1.786   4.337   0.528
10244SOL    HW131631   1.800   4.384   0.441
10244SOL    HW231632   1.783   4.405   0.602
10245SOL     OW31633   3.204   3.660   1.066
10245SOL    HW131634   3.191   3.626   0.973
10245SOL    HW231635   3.115   3.676   1.109
10246SOL     OW31636   3.336   4.124   4.036
10246SOL    HW131637   3.391   4.041   4.047
10246SOL    HW231638   3.318   4.163   4.126
10247SOL     OW31639   6.611   4.216   6.124
10247SOL    HW131640   6.539   4.206   6.193
10247SOL    HW231641   6.699   4.225   6.170
10248SOL     OW31642   1.266   6.475   2.708
10248SOL    HW131643   1.170   6.498   2.719
10248SOL    HW231644   1.322   6.533   2.768
10249SOL     OW31645   3.320   5.739   6.447
10249SOL    HW131646   3.272   5.794   6.515
10249SOL    HW231647   3.286   5.760   6.356
10250SOL     OW31648   6.460   3.120   1.203
10250SOL    HW131649   6.379   3.076   1.242
10250SOL    HW231650   6.503   3.176   1.274
10251SOL     OW31651   2.069   1.573   4.498
10251SOL    HW131652   2.095   1.480   4.473
10251SOL    HW231653   1.970   1.579   4.510
10252SOL     OW31654   3.996   3.657   6.398
10252SOL    HW131655   4.065   3.665   6.470
10252SOL    HW231656   3.923   3.596   6.429
10253SOL     OW31657   2.868   5.662   0.821
10253SOL    HW131658   2.948   5.714   0.792
10253SOL    HW231659   2.895   5.592   0.887
10254SOL     OW31660   4.858   1.560   5.310
10254SOL    HW131661   4.787   1.504   5.266
10254SOL    HW231662   4.818   1.613   5.384
10255SOL     OW31663   2.519   6.680   0.895
10255SOL    HW131664   2.488   6.626   0.817
10255SOL    HW231665   2.598   6.735   0.868
10256SOL     OW31666   4.203   1.804   2.337
10256SOL    HW131667   4.175   1.866   2.263
10256SOL    HW231668   4.235   1.718   2.299
10257SOL     OW31669   1.957   5.729   4.073
10257SOL    HW131670   1.971   5.700   4.168
10257SOL    HW231671   1.895   5.666   4.028
10258SOL     OW31672   3.788   2.103   2.809
10258SOL    HW131673   3.728   2.116   2.731
10258SOL    HW231674   3.883   2.116   2.781
10259SOL     OW31675   0.858   4.157   3.311
10259SOL    HW131676   0.936   4.146   3.373
10259SOL    HW231677   0.819   4.067   3.289
10260SOL     OW31678   0.655   1.789   3.068
10260SOL    HW131679   0.647   1.691   3.047
10260SOL    HW231680   0.565   1.832   3.062
10261SOL     OW31681   6.914   5.283   1.093
10261SOL    HW131682   6.865   5.196   1.089
10261SOL    HW231683   7.006   5.268   1.128
10262SOL     OW31684   3.294   6.614   6.407
10262SOL    HW131685   3.238   6.555   6.466
10262SOL    HW231686   3.378   6.566   6.383
10263SOL     OW31687   5.713   0.069   0.666
10263SOL    HW131688   5.618   0.100   0.657
10263SOL    HW231689   5.717   7.023   0.733
10264SOL     OW31690   0.000   6.159   6.652
10264SOL    HW131691   0.025   6.234   6.590
10264SOL    HW231692   0.083   6.118   6.689
10265SOL     OW31693   3.252   2.608   0.605
10265SOL    HW131694   3.347   2.575   0.614
10265SOL    HW231695   3.195   2.564   0.674
10266SOL     OW31696   3.843   2.943   3.473
10266SOL    HW131697   3.924   3.003   3.472
10266SOL    HW231698   3.813   2.929   3.567
10267SOL     OW31699   5.146   1.558   0.496
10267SOL    HW131700   5.193   1.521   0.576
10267SOL    HW231701   5.173   1.506   0.415
10268SOL     OW31702   6.132   6.389   2.377
10268SOL    HW131703   6.111   6.449   2.454
10268SOL    HW231704   6.219   6.415   2.336
10269SOL     OW31705   0.976   3.269   6.118
10269SOL    HW131706   1.070   3.240   6.136
10269SOL    HW231707   0.945   3.230   6.032
10270SOL     OW31708   3.343   5.266   2.411
10270SOL    HW131709   3.373   5.361   2.422
10270SOL    HW231710   3.317   5.250   2.316
10271SOL     OW31711   3.660   2.550   0.566
10271SOL    HW131712   3.626   2.633   0.521
10271SOL    HW231713   3.744   2.571   0.615
10272SOL     OW31714   0.711   0.975   5.459
10272SOL    HW131715   0.729   0.966   5.557
10272SOL    HW231716   0.778   1.036   5.418
10273SOL     OW31717   3.440   5.913   2.856
10273SOL    HW131718   3.437   5.836   2.793
10273SOL    HW231719   3.359   5.970   2.844
10274SOL     OW31720   1.181   4.762   6.113
10274SOL    HW131721   1.115   4.836   6.122
10274SOL    HW231722   1.223   4.764   6.023
10275SOL     OW31723   0.295   0.536   2.253
10275SOL    HW131724   0.327   0.596   2.180
10275SOL    HW231725   0.368   0.473   2.279
10276SOL     OW31726   4.940   6.169   5.320
10276SOL    HW131727   4.863   6.117   5.357
10276SOL    HW231728   5.023   6.147   5.373
10277SOL     OW31729   1.769   6.159   4.928
10277SOL    HW131730   1.690   6.102   4.906
10277SOL    HW231731   1.820   6.180   4.845
10278SOL     OW31732   1.402   1.572   3.277
10278SOL    HW131733   1.487   1.529   3.248
10278SOL    HW231734   1.371   1.635   3.205
10279SOL     OW31735   1.556   4.778   4.642
10279SOL    HW131736   1.472   4.748   4.688
10279SOL    HW231737   1.604   4.844   4.700
10280SOL     OW31738   6.489   2.638   6.194
10280SOL    HW131739   6.521   2.666   6.103
10280SOL    HW231740   6.531   2.697   6.263
10281SOL     OW31741   6.011   2.052   3.873
10281SOL    HW131742   6.011   1.995   3.955
10281SOL    HW231743   6.092   2.110   3.873
10282SOL     OW31744   5.314   3.382   3.891
10282SOL    HW131745   5.305   3.335   3.804
10282SOL    HW231746   5.279   3.324   3.964
10283SOL     OW31747   1.791   3.273   0.992
10283SOL    HW131748   1.719   3.225   1.043
10283SOL    HW231749   1.770   3.270   0.894
10284SOL     OW31750   5.396   1.783   5.378
10284SOL    HW131751   5.362   1.825   5.294
10284SOL    HW231752   5.496   1.786   5.378
10285SOL     OW31753   5.227   6.488   3.398
10285SOL    HW131754   5.128   6.491   3.400
10285SOL    HW231755   5.264   6.564   3.452
10286SOL     OW31756   4.151   0.555   3.812
10286SOL    HW131757   4.086   0.480   3.830
10286SOL    HW231758   4.138   0.587   3.718
10287SOL     OW31759   2.609   5.435   1.751
10287SOL    HW131760   2.641   5.377   1.826
10287SOL    HW231761   2.525   5.481   1.778
10288SOL     OW31762   4.672   6.183   3.261
10288SOL    HW131763   4.744   6.115   3.252
10288SOL    HW231764   4.648   6.220   3.171
10289SOL     OW31765   2.878   6.438   0.233
10289SOL    HW131766   2.849   6.437   0.137
10289SOL    HW231767   2.894   6.532   0.262
10290SOL     OW31768   2.886   3.343   2.743
10290SOL    HW131769   2.952   3.416   2.728
10290SOL    HW231770   2.876   3.327   2.842
10291SOL     OW31771   3.754   1.819   2.856
10291SOL    HW131772   3.685   1.767   2.805
10291SOL    HW231773   3.784   1.897   2.802
10292SOL     OW31774   1.134   1.883   4.969
10292SOL    HW131775   1.203   1.901   4.898
10292SOL    HW231776   1.043   1.898   4.931
10293SOL     OW31777   1.383   3.048   2.553
10293SOL    HW131778   1.371   3.058   2.651
10293SOL    HW231779   1.295   3.034   2.509
10294SOL     OW31780   4.386   1.403   3.422
10294SOL    HW131781   4.336   1.375   3.341
10294SOL    HW231782   4.348   1.359   3.503
10295SOL     OW31783   0.644   2.939   6.002
10295SOL    HW131784   0.603   2.892   5.924
10295SOL    HW231785   0.742   2.920   6.006
10296SOL     OW31786   5.439   1.065   6.492
10296SOL    HW131787   5.451   1.128   6.569
10296SOL    HW231788   5.477   1.105   6.410
10297SOL     OW31789   1.785   0.752   6.276
10297SOL    HW131790   1.808   0.656   6.266
10297SOL    HW231791   1.825   0.805   6.202
10298SOL     OW31792   2.681   4.574   0.767
10298SOL    HW131793   2.703   4.662   0.809
10298SOL    HW231794   2.595   4.540   0.806
10299SOL     OW31795   3.788   4.907   2.963
10299SOL    HW131796   3.710   4.903   2.901
10299SOL    HW231797   3.805   5.002   2.990
10300SOL     OW31798   1.098   4.052   1.904
10300SOL    HW131799   1.146   4.119   1.849
10300SOL    HW231800   0.999   4.066   1.894
10301SOL     OW31801   4.808   2.345   5.387
10301SOL    HW131802   4.854   2.300   5.463
10301SOL    HW231803   4.876   2.390   5.328
10302SOL     OW31804   2.505   6.663   4.622
10302SOL    HW131805   2.556   6.625   4.545
10302SOL    HW231806   2.431   6.720   4.588
10303SOL     OW31807   1.477   5.859   3.448
10303SOL    HW131808   1.501   5.943   3.498
10303SOL    HW231809   1.461   5.882   3.352
10304SOL     OW31810   5.615   0.112   1.589
10304SOL    HW131811   5.683   0.049   1.627
10304SOL    HW231812   5.587   0.177   1.660
10305SOL     OW31813   1.632   4.039   5.598
10305SOL    HW131814   1.575   4.118   5.621
10305SOL    HW231815   1.574   3.962   5.573
10306SOL     OW31816   5.352   5.683   0.043
10306SOL    HW131817   5.366   5.595   7.027
10306SOL    HW231818   5.293   5.740   7.014
10307SOL     OW31819   3.134   2.028   5.301
10307SOL    HW131820   3.124   1.959   5.230
10307SOL    HW231821   3.077   2.107   5.279
10308SOL     OW31822   2.245   3.980   2.575
10308SOL    HW131823   2.248   4.059   2.514
10308SOL    HW231824   2.277   4.007   2.666
10309SOL     OW31825   0.228   2.148   0.260
10309SOL    HW131826   0.189   2.219   0.201
10309SOL    HW231827   0.189   2.157   0.352
10310SOL     OW31828   3.309   4.053   0.470
10310SOL    HW131829   3.291   3.967   0.423
10310SOL    HW231830   3.399   4.087   0.443
10311SOL     OW31831   6.661   5.557   0.443
10311SOL    HW131832   6.761   5.556   0.454
10311SOL    HW231833   6.624   5.642   0.480
10312SOL     OW31834   3.799   6.662   2.367
10312SOL    HW131835   3.701   6.684   2.361
10312SOL    HW231836   3.852   6.746   2.359
10313SOL     OW31837   4.177   5.624   1.973
10313SOL    HW131838   4.173   5.690   2.048
10313SOL    HW231839   4.085   5.612   1.933
10314SOL     OW31840   6.611   0.581   1.067
10314SOL    HW131841   6.576   0.570   1.160
10314SOL    HW231842   6.534   0.581   1.003
10315SOL     OW31843   5.494   5.947   4.698
10315SOL    HW131844   5.422   5.997   4.650
10315SOL    HW231845   5.473   5.946   4.796
10316SOL     OW31846   6.273   2.606   5.843
10316SOL    HW131847   6.339   2.587   5.770
10316SOL    HW231848   6.290   2.697   5.881
10317SOL     OW31849   4.588   6.053   6.318
10317SOL    HW131850   4.678   6.095   6.305
10317SOL    HW231851   4.594   5.984   6.391
10318SOL     OW31852   4.944   0.232   6.979
10318SOL    HW131853   4.930   0.239   0.050
10318SOL    HW231854   4.999   0.151   6.959
10319SOL     OW31855   0.494   3.503   5.585
10319SOL    HW131856   0.507   3.404   5.594
10319SOL    HW231857   0.444   3.537   5.664
10320SOL     OW31858   0.972   6.831   2.507
10320SOL    HW131859   0.873   6.819   2.497
10320SOL    HW231860   0.999   6.917   2.464
10321SOL     OW31861   4.554   1.927   2.018
10321SOL    HW131862   4.643   1.957   1.984
10321SOL    HW231863   4.522   1.989   2.089
10322SOL     OW31864   5.489   5.919   5.002
10322SOL    HW131865   5.393   5.940   5.022
10322SOL    HW231866   5.546   5.996   5.030
10323SOL     OW31867   5.823   4.317   5.355
10323SOL    HW131868   5.847   4.400   5.304
10323SOL    HW231869   5.723   4.310   5.361
10324SOL     OW31870   3.122   2.929   2.163
10324SOL    HW131871   3.076   3.014   2.136
10324SOL    HW231872   3.063   2.851   2.141
10325SOL     OW31873   6.256   4.414   1.891
10325SOL    HW131874   6.351   4.444   1.903
10325SOL    HW231875   6.221   4.450   1.805
10326SOL     OW31876   4.207   4.571   0.136
10326SOL    HW131877   4.255   4.602   0.054
10326SOL    HW231878   4.181   4.475   0.126
10327SOL     OW31879   2.671   2.363   0.771
10327SOL    HW131880   2.663   2.430   0.697
10327SOL    HW231881   2.589   2.368   0.829
10328SOL     OW31882   6.453   2.284   0.814
10328SOL    HW131883   6.518   2.360   0.804
10328SOL    HW231884   6.449   2.233   0.728
10329SOL     OW31885   3.117   0.852   3.901
10329SOL    HW131886   3.033   0.900   3.877
10329SOL    HW231887   3.160   0.816   3.819
10330SOL     OW31888   4.023   1.140   2.591
10330SOL    HW131889   4.012   1.071   2.662
10330SOL    HW231890   4.057   1.096   2.507
10331SOL     OW31891   6.659   0.056   6.038
10331SOL    HW131892   6.588   0.072   6.106
10331SOL    HW231893   6.743   0.104   6.065
10332SOL     OW31894   7.018   0.362   0.928
10332SOL    HW131895   0.032   0.297   0.865
10332SOL    HW231896   6.938   0.404   0.885
10333SOL     OW31897   0.670   4.769   5.354
10333SOL    HW131898   0.764   4.757   5.385
10333SOL    HW231899   0.658   4.722   5.266
10334SOL     OW31900   3.413   0.462   4.570
10334SOL    HW131901   3.416   0.480   4.668
10334SOL    HW231902   3.466   0.531   4.521
10335SOL     OW31903   2.964   4.028   6.641
10335SOL    HW131904   2.882   4.084   6.641
10335SOL    HW231905   2.962   3.966   6.562
10336SOL     OW31906   6.884   0.328   1.808
10336SOL    HW131907   6.793   0.288   1.823
10336SOL    HW231908   6.903   0.330   1.710
10337SOL     OW31909   0.201   6.010   6.295
10337SOL    HW131910   0.233   6.030   6.388
10337SOL    HW231911   0.265   6.050   6.229
10338SOL     OW31912   2.267   6.379   2.250
10338SOL    HW131913   2.219   6.409   2.332
10338SOL    HW231914   2.241   6.438   2.173
10339SOL     OW31915   4.448   3.851   6.554
10339SOL    HW131916   4.397   3.930   6.520
10339SOL    HW231917   4.530   3.883   6.603
10340SOL     OW31918   1.189   3.554   1.148
10340SOL    HW131919   1.156   3.607   1.070
10340SOL    HW231920   1.131   3.571   1.227
10341SOL     OW31921   2.058   3.324   2.366
10341SOL    HW131922   2.080   3.244   2.311
10341SOL    HW231923   2.108   3.321   2.452
10342SOL     OW31924   1.626   0.150   4.771
10342SOL    HW131925   1.532   0.162   4.741
10342SOL    HW231926   1.688   0.160   4.693
10343SOL     OW31927   3.585   5.554   6.777
10343SOL    HW131928   3.503   5.541   6.720
10343SOL    HW231929   3.625   5.464   6.797
10344SOL     OW31930   3.953   3.313   1.229
10344SOL    HW131931   4.018   3.301   1.154
10344SOL    HW231932   3.964   3.404   1.269
10345SOL     OW31933   1.486   1.526   6.227
10345SOL    HW131934   1.394   1.508   6.191
10345SOL    HW231935   1.531   1.439   6.248
10346SOL     OW31936   0.422   5.558   1.873
10346SOL    HW131937   0.397   5.641   1.822
10346SOL    HW231938   0.340   5.519   1.915
10347SOL     OW31939   3.986   1.837   3.428
10347SOL    HW131940   3.911   1.800   3.374
10347SOL    HW231941   4.035   1.762   3.473
10348SOL     OW31942   6.509   2.258   6.938
10348SOL    HW131943   6.481   2.293   6.849
10348SOL    HW231944   6.601   2.221   6.932
10349SOL     OW31945   1.374   0.770   0.026
10349SOL    HW131946   1.336   0.678   0.035
10349SOL    HW231947   1.357   0.804   6.962
10350SOL     OW31948   2.594   6.578   4.880
10350SOL    HW131949   2.631   6.487   4.861
10350SOL    HW231950   2.585   6.629   4.795
10351SOL     OW31951   4.305   4.533   6.117
10351SOL    HW131952   4.318   4.434   6.117
10351SOL    HW231953   4.210   4.554   6.094
10352SOL     OW31954   3.414   1.320   6.008
10352SOL    HW131955   3.406   1.234   6.059
10352SOL    HW231956   3.497   1.367   6.036
10353SOL     OW31957   6.371   3.323   5.571
10353SOL    HW131958   6.442   3.385   5.603
10353SOL    HW231959   6.402   3.276   5.488
10354SOL     OW31960   5.515   2.528   2.382
10354SOL    HW131961   5.591   2.502   2.442
10354SOL    HW231962   5.461   2.447   2.360
10355SOL     OW31963   2.277   6.708   1.777
10355SOL    HW131964   2.250   6.614   1.796
10355SOL    HW231965   2.357   6.709   1.716
10356SOL     OW31966   0.928   4.873   5.112
10356SOL    HW131967   0.851   4.934   5.090
10356SOL    HW231968   1.000   4.883   5.044
10357SOL     OW31969   1.562   2.931   6.364
10357SOL    HW131970   1.547   2.860   6.434
10357SOL    HW231971   1.599   3.013   6.407
10358SOL     OW31972   6.714   3.181   2.977
10358SOL    HW131973   6.715   3.225   2.887
10358SOL    HW231974   6.792   3.118   2.984
10359SOL     OW31975   0.945   2.092   1.170
10359SOL    HW131976   0.864   2.034   1.163
10359SOL    HW231977   1.024   2.036   1.198
10360SOL     OW31978   4.869   4.659   3.205
10360SOL    HW131979   4.912   4.711   3.130
10360SOL    HW231980   4.894   4.563   3.196
10361SOL     OW31981   2.912   6.372   3.344
10361SOL    HW131982   2.919   6.471   3.358
10361SOL    HW231983   2.820   6.342   3.368
10362SOL     OW31984   0.924   5.066   4.743
10362SOL    HW131985   0.935   5.024   4.653
10362SOL    HW231986   0.828   5.092   4.755
10363SOL     OW31987   4.820   1.052   1.601
10363SOL    HW131988   4.756   1.008   1.664
10363SOL    HW231989   4.779   1.058   1.510
10364SOL     OW31990   3.161   3.068   1.199
10364SOL    HW131991   3.207   3.044   1.285
10364SOL    HW231992   3.211   3.142   1.154
10365SOL     OW31993   4.324   4.495   6.591
10365SOL    HW131994   4.245   4.552   6.569
10365SOL    HW231995   4.400   4.554   6.622
10366SOL     OW31996   2.801   0.713   4.051
10366SOL    HW131997   2.747   0.712   4.135
10366SOL    HW231998   2.894   0.683   4.072
10367SOL     OW31999   6.369   2.091   2.710
10367SOL    HW132000   6.468   2.081   2.701
10367SOL    HW232001   6.327   2.099   2.620
10368SOL     OW32002   1.562   1.420   1.752
10368SOL    HW132003   1.574   1.401   1.655
10368SOL    HW232004   1.622   1.361   1.805
10369SOL     OW32005   4.138   0.475   5.509
10369SOL    HW132006   4.111   0.439   5.598
10369SOL    HW232007   4.236   0.497   5.510
10370SOL     OW32008   5.332   1.685   5.618
10370SOL    HW132009   5.383   1.601   5.637
10370SOL    HW232010   5.363   1.722   5.530
10371SOL     OW32011   3.219   5.634   4.722
10371SOL    HW132012   3.208   5.593   4.813
10371SOL    HW232013   3.228   5.733   4.732
10372SOL     OW32014   1.237   1.483   6.156
10372SOL    HW132015   1.195   1.563   6.199
10372SOL    HW232016   1.184   1.457   6.075
10373SOL     OW32017   2.381   6.204   4.639
10373SOL    HW132018   2.283   6.223   4.627
10373SOL    HW232019   2.395   6.152   4.723
10374SOL     OW32020   3.864   1.316   2.817
10374SOL    HW132021   3.882   1.307   2.719
10374SOL    HW232022   3.895   1.406   2.848
10375SOL     OW32023   3.968   2.214   6.356
10375SOL    HW132024   3.971   2.180   6.450
10375SOL    HW232025   4.060   2.239   6.326
10376SOL     OW32026   1.062   6.421   3.946
10376SOL    HW132027   1.083   6.472   4.030
10376SOL    HW232028   0.997   6.473   3.891
10377SOL     OW32029   6.909   0.689   3.833
10377SOL    HW132030   6.934   0.728   3.922
10377SOL    HW232031   6.853   0.607   3.848
10378SOL     OW32032   6.809   1.194   5.868
10378SOL    HW132033   6.907   1.197   5.890
10378SOL    HW232034   6.778   1.099   5.871
10379SOL     OW32035   3.899   0.203   5.181
10379SOL    HW132036   3.934   0.147   5.107
10379SOL    HW232037   3.965   0.275   5.203
10380SOL     OW32038   6.568   1.584   3.099
10380SOL    HW132039   6.483   1.581   3.151
10380SOL    HW232040   6.558   1.647   3.022
10381SOL     OW32041   4.791   5.581   6.063
10381SOL    HW132042   4.811   5.676   6.040
10381SOL    HW232043   4.712   5.550   6.009
10382SOL     OW32044   2.306   4.656   6.136
10382SOL    HW132045   2.257   4.690   6.056
10382SOL    HW232046   2.240   4.635   6.208
10383SOL     OW32047   0.500   3.204   1.005
10383SOL    HW132048   0.490   3.303   0.992
10383SOL    HW232049   0.521   3.160   0.918
10384SOL     OW32050   0.926   0.044   0.380
10384SOL    HW132051   0.911   0.133   0.337
10384SOL    HW232052   0.869   7.003   0.336
10385SOL     OW32053   4.842   6.955   6.538
10385SOL    HW132054   4.919   7.019   6.541
10385SOL    HW232055   4.841   6.908   6.450
10386SOL     OW32056   0.418   3.867   5.022
10386SOL    HW132057   0.500   3.811   5.034
10386SOL    HW232058   0.350   3.815   4.972
10387SOL     OW32059   4.013   1.939   2.482
10387SOL    HW132060   4.081   1.911   2.414
10387SOL    HW232061   3.975   1.859   2.527
10388SOL     OW32062   0.757   5.605   3.671
10388SOL    HW132063   0.707   5.686   3.700
10388SOL    HW232064   0.693   5.529   3.657
10389SOL     OW32065   0.458   5.951   2.075
10389SOL    HW132066   0.449   5.854   2.097
10389SOL    HW232067   0.380   6.001   2.112
10390SOL     OW32068   1.524   3.562   1.928
10390SOL    HW132069   1.599   3.616   1.967
10390SOL    HW232070   1.444   3.621   1.916
10391SOL     OW32071   1.504   5.756   5.608
10391SOL    HW132072   1.425   5.697   5.622
10391SOL    HW232073   1.586   5.709   5.643
10392SOL     OW32074   6.567   4.045   0.459
10392SOL    HW132075   6.614   3.969   0.505
10392SOL    HW232076   6.630   4.088   0.394
10393SOL     OW32077   1.202   1.596   2.892
10393SOL    HW132078   1.157   1.635   2.812
10393SOL    HW232079   1.240   1.507   2.869
10394SOL     OW32080   2.901   6.780   6.063
10394SOL    HW132081   2.975   6.831   6.107
10394SOL    HW232082   2.915   6.682   6.078
10395SOL     OW32083   6.489   1.157   5.069
10395SOL    HW132084   6.562   1.176   5.135
10395SOL    HW232085   6.529   1.139   4.979
10396SOL     OW32086   1.154   0.898   3.553
10396SOL    HW132087   1.159   0.998   3.563
10396SOL    HW232088   1.059   0.868   3.557
10397SOL     OW32089   3.670   1.369   3.875
10397SOL    HW132090   3.586   1.318   3.892
10397SOL    HW232091   3.702   1.351   3.781
10398SOL     OW32092   6.519   2.244   0.214
10398SOL    HW132093   6.497   2.238   0.116
10398SOL    HW232094   6.580   2.169   0.239
10399SOL     OW32095   4.794   1.732   5.534
10399SOL    HW132096   4.847   1.677   5.598
10399SOL    HW232097   4.705   1.688   5.518
10400SOL     OW32098   3.698   5.768   1.991
10400SOL    HW132099   3.609   5.764   1.944
10400SOL    HW232100   3.692   5.717   2.076
10401SOL     OW32101   6.778   7.000   2.024
10401SOL    HW132102   6.747   6.909   2.051
10401SOL    HW232103   6.699   0.027   1.995
10402SOL     OW32104   0.523   2.826   5.722
10402SOL    HW132105   0.532   2.753   5.654
10402SOL    HW232106   0.430   2.825   5.760
10403SOL     OW32107   5.273   1.480   3.024
10403SOL    HW132108   5.223   1.558   2.985
10403SOL    HW232109   5.225   1.448   3.105
10404SOL     OW32110   0.887   6.558   3.744
10404SOL    HW132111   0.796   6.600   3.747
10404SOL    HW232112   0.905   6.523   3.652
10405SOL     OW32113   1.834   5.639   5.277
10405SOL    HW132114   1.932   5.623   5.282
10405SOL    HW232115   1.795   5.586   5.202
10406SOL     OW32116   1.787   4.434   4.743
10406SOL    HW132117   1.788   4.414   4.645
10406SOL    HW232118   1.879   4.459   4.773
10407SOL     OW32119   1.551   0.713   6.100
10407SOL    HW132120   1.533   0.620   6.070
10407SOL    HW232121   1.649   0.727   6.110
10408SOL     OW32122   4.583   6.333   3.046
10408SOL    HW132123   4.536   6.389   3.116
10408SOL    HW232124   4.515   6.295   2.983
10409SOL     OW32125   0.267   4.678   1.484
10409SOL    HW132126   0.307   4.638   1.401
10409SOL    HW232127   0.174   4.709   1.465
10410SOL     OW32128   5.243   0.569   1.429
10410SOL    HW132129   5.193   0.614   1.504
10410SOL    HW232130   5.305   0.500   1.467
10411SOL     OW32131   2.362   4.706   4.121
10411SOL    HW132132   2.368   4.782   4.057
10411SOL    HW232133   2.277   4.711   4.172
10412SOL     OW32134   0.251   1.558   7.009
10412SOL    HW132135   0.251   1.458   7.010
10412SOL    HW232136   0.342   1.590   6.983
10413SOL     OW32137   1.231   2.411   0.843
10413SOL    HW132138   1.233   2.494   0.898
10413SOL    HW232139   1.140   2.371   0.847
10414SOL     OW32140   4.848   6.131   6.361
10414SOL    HW132141   4.920   6.077   6.405
10414SOL    HW232142   4.834   6.216   6.411
10415SOL     OW32143   1.360   5.276   3.777
10415SOL    HW132144   1.377   5.274   3.875
10415SOL    HW232145   1.283   5.216   3.755
10416SOL     OW32146   6.509   1.838   6.117
10416SOL    HW132147   6.528   1.825   6.020
10416SOL    HW232148   6.581   1.797   6.172
10417SOL     OW32149   4.294   4.668   3.228
10417SOL    HW132150   4.317   4.764   3.246
10417SOL    HW232151   4.195   4.657   3.232
10418SOL     OW32152   6.754   4.373   5.732
10418SOL    HW132153   6.841   4.327   5.713
10418SOL    HW232154   6.745   4.387   5.831
10419SOL     OW32155   3.071   1.442   5.076
10419SOL    HW132156   3.051   1.395   5.163
10419SOL    HW232157   3.155   1.496   5.086
10420SOL     OW32158   7.008   3.670   2.458
10420SOL    HW132159   6.913   3.675   2.486
10420SOL    HW232160   7.013   3.642   2.362
10421SOL     OW32161   1.433   4.407   3.897
10421SOL    HW132162   1.456   4.335   3.833
10421SOL    HW232163   1.343   4.445   3.873
10422SOL     OW32164   6.710   4.111   5.381
10422SOL    HW132165   6.663   4.192   5.346
10422SOL    HW232166   6.645   4.035   5.387
10423SOL     OW32167   3.566   4.937   4.089
10423SOL    HW132168   3.537   4.887   4.007
10423SOL    HW232169   3.487   4.981   4.131
10424SOL     OW32170   4.137   1.141   6.894
10424SOL    HW132171   4.041   1.168   6.889
10424SOL    HW232172   4.176   1.169   6.982
10425SOL     OW32173   0.951   6.708   1.591
10425SOL    HW132174   0.904   6.635   1.641
10425SOL    HW232175   1.046   6.714   1.623
10426SOL     OW32176   4.800   3.077   5.237
10426SOL    HW132177   4.762   3.029   5.316
10426SOL    HW232178   4.776   3.174   5.244
10427SOL     OW32179   5.186   5.746   5.096
10427SOL    HW132180   5.092   5.725   5.123
10427SOL    HW232181   5.247   5.674   5.128
10428SOL     OW32182   1.247   1.974   3.424
10428SOL    HW132183   1.316   2.043   3.401
10428SOL    HW232184   1.160   1.998   3.383
10429SOL     OW32185   1.349   3.451   2.332
10429SOL    HW132186   1.341   3.538   2.283
10429SOL    HW232187   1.425   3.455   2.396
10430SOL     OW32188   3.396   5.981   4.367
10430SOL    HW132189   3.344   6.063   4.393
10430SOL    HW232190   3.465   6.005   4.299
10431SOL     OW32191   2.476   1.754   4.649
10431SOL    HW132192   2.422   1.838   4.646
10431SOL    HW232193   2.423   1.682   4.694
10432SOL     OW32194   0.177   6.733   4.772
10432SOL    HW132195   0.208   6.797   4.701
10432SOL    HW232196   0.126   6.658   4.729
10433SOL     OW32197   1.993   0.198   1.582
10433SOL    HW132198   2.028   0.291   1.569
10433SOL    HW232199   2.027   0.140   1.508
10434SOL     OW32200   4.833   7.000   5.759
10434SOL    HW132201   4.790   6.957   5.679
10434SOL    HW232202   4.924   6.962   5.772
10435SOL     OW32203   1.118   2.343   6.153
10435SOL    HW132204   1.152   2.312   6.242
10435SOL    HW232205   1.158   2.287   6.081
10436SOL     OW32206   0.008   3.897   5.095
10436SOL    HW132207   0.062   3.965   5.045
10436SOL    HW232208   0.069   3.840   5.150
10437SOL     OW32209   4.639   5.119   4.995
10437SOL    HW132210   4.732   5.126   5.033
10437SOL    HW232211   4.615   5.206   4.951
10438SOL     OW32212   0.254   6.572   5.987
10438SOL    HW132213   0.191   6.597   6.061
10438SOL    HW232214   0.218   6.493   5.938
10439SOL     OW32215   6.460   0.926   4.746
10439SOL    HW132216   6.482   1.024   4.750
10439SOL    HW232217   6.455   0.897   4.651
10440SOL     OW32218   6.735   1.602   6.806
10440SOL    HW132219   6.727   1.697   6.774
10440SOL    HW232220   6.818   1.592   6.861
10441SOL     OW32221   3.674   1.643   1.384
10441SOL    HW132222   3.716   1.555   1.407
10441SOL    HW232223   3.651   1.691   1.469
10442SOL     OW32224   3.065   0.715   5.025
10442SOL    HW132225   3.153   0.759   5.007
10442SOL    HW232226   3.045   0.648   4.954
10443SOL     OW32227   0.238   2.117   3.089
10443SOL    HW132228   0.215   2.134   2.993
10443SOL    HW232229   0.181   2.175   3.147
10444SOL     OW32230   3.520   4.963   3.705
10444SOL    HW132231   3.441   4.955   3.767
10444SOL    HW232232   3.604   4.948   3.757
10445SOL     OW32233   0.498   3.810   1.940
10445SOL    HW132234   0.592   3.831   1.967
10445SOL    HW232235   0.448   3.896   1.926
10446SOL     OW32236   1.760   4.304   5.003
10446SOL    HW132237   1.783   4.359   5.083
10446SOL    HW232238   1.776   4.357   4.920
10447SOL     OW32239   6.149   1.998   2.834
10447SOL    HW132240   6.078   2.061   2.866
10447SOL    HW232241   6.226   2.050   2.796
10448SOL     OW32242   2.907   0.875   3.572
10448SOL    HW132243   2.970   0.944   3.606
10448SOL    HW232244   2.829   0.867   3.634
10449SOL     OW32245   3.384   5.798   6.780
10449SOL    HW132246   3.359   5.705   6.752
10449SOL    HW232247   3.483   5.810   6.772
10450SOL     OW32248   6.139   0.359   6.195
10450SOL    HW132249   6.087   0.348   6.110
10450SOL    HW232250   6.225   0.407   6.175
10451SOL     OW32251   2.170   0.635   3.838
10451SOL    HW132252   2.202   0.703   3.903
10451SOL    HW232253   2.127   0.559   3.887
10452SOL     OW32254   6.486   2.726   3.049
10452SOL    HW132255   6.584   2.720   3.069
10452SOL    HW232256   6.473   2.760   2.956
10453SOL     OW32257   4.352   6.526   2.603
10453SOL    HW132258   4.444   6.553   2.629
10453SOL    HW232259   4.328   6.566   2.515
10454SOL     OW32260   6.538   1.414   6.807
10454SOL    HW132261   6.479   1.424   6.727
10454SOL    HW232262   6.613   1.480   6.803
10455SOL     OW32263   6.138   6.361   4.200
10455SOL    HW132264   6.210   6.332   4.263
10455SOL    HW232265   6.049   6.335   4.236
10456SOL     OW32266   7.002   5.580   7.018
10456SOL    HW132267   6.953   5.517   0.051
10456SOL    HW232268   6.959   5.579   6.928
10457SOL     OW32269   4.693   3.494   0.084
10457SOL    HW132270   4.763   3.448   0.029
10457SOL    HW232271   4.603   3.474   0.047
10458SOL     OW32272   0.011   0.216   5.594
10458SOL    HW132273   0.066   0.152   5.538
10458SOL    HW232274   6.965   0.253   5.538
10459SOL     OW32275   0.011   5.416   0.794
10459SOL    HW132276   0.059   5.341   0.749
10459SOL    HW232277   6.955   5.380   0.837
10460SOL     OW32278   6.745   4.313   1.833
10460SOL    HW132279   6.669   4.335   1.772
10460SOL    HW232280   6.724   4.228   1.882
10461SOL     OW32281   6.142   4.548   5.346
10461SOL    HW132282   6.077   4.500   5.405
10461SOL    HW232283   6.232   4.505   5.352
10462SOL     OW32284   4.738   1.828   1.497
10462SOL    HW132285   4.658   1.852   1.552
10462SOL    HW232286   4.820   1.869   1.536
10463SOL     OW32287   4.946   2.004   6.130
10463SOL    HW132288   5.013   2.018   6.202
10463SOL    HW232289   4.856   1.988   6.170
10464SOL     OW32290   5.277   5.302   2.689
10464SOL    HW132291   5.290   5.209   2.721
10464SOL    HW232292   5.301   5.307   2.592
10465SOL     OW32293   5.374   3.937   2.781
10465SOL    HW132294   5.312   3.860   2.786
10465SOL    HW232295   5.452   3.914   2.722
10466SOL     OW32296   5.178   4.212   6.088
10466SOL    HW132297   5.151   4.116   6.085
10466SOL    HW232298   5.196   4.244   5.995
10467SOL     OW32299   2.014   2.575   6.731
10467SOL    HW132300   1.942   2.563   6.663
10467SOL    HW232301   1.995   2.656   6.786
10468SOL     OW32302   3.592   5.212   3.616
10468SOL    HW132303   3.633   5.254   3.696
10468SOL    HW232304   3.539   5.132   3.643
10469SOL     OW32305   5.113   3.668   5.721
10469SOL    HW132306   5.125   3.576   5.686
10469SOL    HW232307   5.178   3.730   5.676
10470SOL     OW32308   2.402   1.964   3.593
10470SOL    HW132309   2.357   2.053   3.592
10470SOL    HW232310   2.472   1.960   3.522
10471SOL     OW32311   2.633   0.846   0.085
10471SOL    HW132312   2.612   0.834   0.182
10471SOL    HW232313   2.678   0.934   0.071
10472SOL     OW32314   2.828   5.230   0.786
10472SOL    HW132315   2.855   5.177   0.705
10472SOL    HW232316   2.884   5.312   0.792
10473SOL     OW32317   5.385   5.678   6.004
10473SOL    HW132318   5.344   5.588   6.020
10473SOL    HW232319   5.436   5.706   6.085
10474SOL     OW32320   5.331   0.736   4.200
10474SOL    HW132321   5.270   0.679   4.255
10474SOL    HW232322   5.277   0.801   4.147
10475SOL     OW32323   2.548   6.224   1.804
10475SOL    HW132324   2.528   6.187   1.713
10475SOL    HW232325   2.595   6.155   1.859
10476SOL     OW32326   5.125   6.066   5.933
10476SOL    HW132327   5.027   6.083   5.923
10476SOL    HW232328   5.148   6.060   6.030
10477SOL     OW32329   7.010   6.573   3.851
10477SOL    HW132330   0.068   6.525   3.837
10477SOL    HW232331   6.998   6.593   3.948
10478SOL     OW32332   6.366   6.801   0.073
10478SOL    HW132333   6.319   6.864   0.011
10478SOL    HW232334   6.306   6.725   0.097
10479SOL     OW32335   0.038   2.501   2.140
10479SOL    HW132336   6.992   2.564   2.118
10479SOL    HW232337   0.115   2.552   2.179
10480SOL     OW32338   1.730   0.342   2.351
10480SOL    HW132339   1.711   0.424   2.297
10480SOL    HW232340   1.713   0.261   2.294
10481SOL     OW32341   0.764   6.278   3.215
10481SOL    HW132342   0.710   6.341   3.271
10481SOL    HW232343   0.833   6.329   3.164
10482SOL     OW32344   6.254   4.638   4.695
10482SOL    HW132345   6.249   4.738   4.686
10482SOL    HW232346   6.245   4.613   4.791
10483SOL     OW32347   5.667   5.403   0.533
10483SOL    HW132348   5.678   5.305   0.513
10483SOL    HW232349   5.570   5.425   0.536
10484SOL     OW32350   4.874   1.224   0.664
10484SOL    HW132351   4.826   1.296   0.714
10484SOL    HW232352   4.966   1.256   0.640
10485SOL     OW32353   3.610   4.115   6.649
10485SOL    HW132354   3.671   4.038   6.661
10485SOL    HW232355   3.579   4.147   6.739
10486SOL     OW32356   6.636   1.887   0.737
10486SOL    HW132357   6.700   1.836   0.679
10486SOL    HW232358   6.688   1.943   0.802
10487SOL     OW32359   4.989   6.601   2.156
10487SOL    HW132360   5.017   6.686   2.201
10487SOL    HW232361   4.941   6.622   2.071
10488SOL     OW32362   2.542   3.177   6.251
10488SOL    HW132363   2.478   3.251   6.273
10488SOL    HW232364   2.572   3.187   6.156
10489SOL     OW32365   0.880   6.750   5.715
10489SOL    HW132366   0.845   6.792   5.798
10489SOL    HW232367   0.885   6.818   5.642
10490SOL     OW32368   6.039   1.726   2.531
10490SOL    HW132369   6.114   1.754   2.592
10490SOL    HW232370   6.009   1.634   2.555
10491SOL     OW32371   1.571   3.281   6.805
10491SOL    HW132372   1.661   3.326   6.810
10491SOL    HW232373   1.554   3.251   6.711
10492SOL     OW32374   5.278   3.855   5.597
10492SOL    HW132375   5.322   3.869   5.508
10492SOL    HW232376   5.223   3.935   5.620
10493SOL     OW32377   3.413   0.793   1.547
10493SOL    HW132378   3.369   0.878   1.516
10493SOL    HW232379   3.344   0.725   1.569
10494SOL     OW32380   5.308   2.718   5.801
10494SOL    HW132381   5.269   2.740   5.890
10494SOL    HW232382   5.278   2.627   5.773
10495SOL     OW32383   2.265   0.070   0.601
10495SOL    HW132384   2.185   0.012   0.585
10495SOL    HW232385   2.239   0.166   0.598
10496SOL     OW32386   0.146   6.758   1.248
10496SOL    HW132387   0.115   6.834   1.191
10496SOL    HW232388   0.228   6.717   1.208
10497SOL     OW32389   1.990   6.455   2.096
10497SOL    HW132390   2.080   6.479   2.061
10497SOL    HW232391   1.987   6.473   2.195
10498SOL     OW32392   2.689   6.645   1.670
10498SOL    HW132393   2.721   6.551   1.676
10498SOL    HW232394   2.690   6.675   1.575
10499SOL     OW32395   2.705   6.490   2.354
10499SOL    HW132396   2.644   6.417   2.387
10499SOL    HW232397   2.756   6.458   2.274
10500SOL     OW32398   0.493   1.270   5.770
10500SOL    HW132399   0.588   1.240   5.767
10500SOL    HW232400   0.489   1.369   5.761
10501SOL     OW32401   1.712   5.657   3.739
10501SOL    HW132402   1.624   5.611   3.729
10501SOL    HW232403   1.703   5.752   3.708
10502SOL     OW32404   3.430   0.259   1.004
10502SOL    HW132405   3.414   0.321   0.927
10502SOL    HW232406   3.529   0.255   1.023
10503SOL     OW32407   4.387   2.783   0.788
10503SOL    HW132408   4.312   2.847   0.802
10503SOL    HW232409   4.354   2.702   0.741
10504SOL     OW32410   1.767   2.587   0.400
10504SOL    HW132411   1.778   2.560   0.495
10504SOL    HW232412   1.796   2.512   0.340
10505SOL     OW32413   6.175   5.513   0.461
10505SOL    HW132414   6.083   5.515   0.501
10505SOL    HW232415   6.241   5.545   0.529
10506SOL     OW32416   0.807   5.387   6.364
10506SOL    HW132417   0.858   5.382   6.279
10506SOL    HW232418   0.756   5.302   6.378
10507SOL     OW32419   2.321   6.183   0.104
10507SOL    HW132420   2.404   6.189   0.049
10507SOL    HW232421   2.241   6.176   0.044
10508SOL     OW32422   5.700   6.158   4.396
10508SOL    HW132423   5.679   6.061   4.407
10508SOL    HW232424   5.632   6.213   4.444
10509SOL     OW32425   1.177   6.729   5.595
10509SOL    HW132426   1.162   6.690   5.686
10509SOL    HW232427   1.116   6.683   5.529
10510SOL     OW32428   5.741   5.228   5.853
10510SOL    HW132429   5.705   5.278   5.775
10510SOL    HW232430   5.710   5.133   5.849
10511SOL     OW32431   4.608   2.994   1.119
10511SOL    HW132432   4.516   2.975   1.152
10511SOL    HW232433   4.674   2.974   1.191
10512SOL     OW32434   3.729   0.894   5.890
10512SOL    HW132435   3.707   0.812   5.837
10512SOL    HW232436   3.791   0.871   5.964
10513SOL     OW32437   0.154   2.887   5.753
10513SOL    HW132438   0.212   2.821   5.800
10513SOL    HW232439   0.172   2.979   5.787
10514SOL     OW32440   0.142   3.644   0.426
10514SOL    HW132441   0.079   3.655   0.348
10514SOL    HW232442   0.148   3.730   0.476
10515SOL     OW32443   5.734   3.114   3.017
10515SOL    HW132444   5.829   3.139   3.039
10515SOL    HW232445   5.702   3.045   3.082
10516SOL     OW32446   4.800   1.046   6.683
10516SOL    HW132447   4.730   0.996   6.733
10516SOL    HW232448   4.884   0.991   6.681
10517SOL     OW32449   0.740   2.142   2.609
10517SOL    HW132450   0.716   2.087   2.690
10517SOL    HW232451   0.657   2.176   2.566
10518SOL     OW32452   0.916   4.904   6.833
10518SOL    HW132453   0.988   4.930   6.896
10518SOL    HW232454   0.843   4.856   6.882
10519SOL     OW32455   3.174   2.669   6.158
10519SOL    HW132456   3.152   2.630   6.248
10519SOL    HW232457   3.106   2.640   6.091
10520SOL     OW32458   2.218   2.627   6.533
10520SOL    HW132459   2.226   2.721   6.563
10520SOL    HW232460   2.142   2.583   6.580
10521SOL     OW32461   6.439   5.308   1.468
10521SOL    HW132462   6.406   5.361   1.391
10521SOL    HW232463   6.520   5.352   1.508
10522SOL     OW32464   5.930   0.485   0.852
10522SOL    HW132465   5.986   0.560   0.888
10522SOL    HW232466   5.910   0.503   0.756
10523SOL     OW32467   0.089   6.562   4.590
10523SOL    HW132468   0.174   6.510   4.579
10523SOL    HW232469   0.038   6.560   4.504
10524SOL     OW32470   1.704   1.939   5.053
10524SOL    HW132471   1.725   1.975   5.144
10524SOL    HW232472   1.765   1.982   4.985
10525SOL     OW32473   3.160   6.658   5.743
10525SOL    HW132474   3.218   6.649   5.823
10525SOL    HW232475   3.154   6.569   5.697
10526SOL     OW32476   0.290   0.390   3.075
10526SOL    HW132477   0.353   0.336   3.132
10526SOL    HW232478   0.204   0.340   3.065
10527SOL     OW32479   0.403   2.656   4.147
10527SOL    HW132480   0.306   2.657   4.172
10527SOL    HW232481   0.421   2.580   4.084
10528SOL     OW32482   1.059   4.462   5.353
10528SOL    HW132483   0.961   4.474   5.343
10528SOL    HW232484   1.077   4.388   5.418
10529SOL     OW32485   1.194   6.426   3.329
10529SOL    HW132486   1.187   6.327   3.337
10529SOL    HW232487   1.231   6.464   3.414
10530SOL     OW32488   1.746   1.161   6.073
10530SOL    HW132489   1.696   1.091   6.126
10530SOL    HW232490   1.792   1.223   6.136
10531SOL     OW32491   0.904   3.668   4.885
10531SOL    HW132492   0.933   3.651   4.979
10531SOL    HW232493   0.832   3.738   4.884
10532SOL     OW32494   2.061   3.513   0.635
10532SOL    HW132495   1.976   3.467   0.611
10532SOL    HW232496   2.073   3.595   0.579
10533SOL     OW32497   3.187   1.409   4.280
10533SOL    HW132498   3.181   1.403   4.180
10533SOL    HW232499   3.178   1.317   4.319
10534SOL     OW32500   6.937   6.010   0.781
10534SOL    HW132501   6.848   6.037   0.818
10534SOL    HW232502   6.925   5.930   0.722
10535SOL     OW32503   0.606   2.662   1.945
10535SOL    HW132504   0.644   2.721   2.015
10535SOL    HW232505   0.527   2.613   1.981
10536SOL     OW32506   3.538   0.388   2.974
10536SOL    HW132507   3.592   0.423   3.051
10536SOL    HW232508   3.496   0.465   2.925
10537SOL     OW32509   3.147   5.705   3.040
10537SOL    HW132510   3.094   5.661   3.113
10537SOL    HW232511   3.084   5.752   2.978
10538SOL     OW32512   4.930   2.916   6.596
10538SOL    HW132513   4.888   2.831   6.628
10538SOL    HW232514   4.888   2.944   6.510
10539SOL     OW32515   0.707   4.358   6.496
10539SOL    HW132516   0.802   4.387   6.484
10539SOL    HW232517   0.704   4.278   6.557
10540SOL     OW32518   1.760   1.070   5.619
10540SOL    HW132519   1.745   1.158   5.573
10540SOL    HW232520   1.746   0.996   5.554
10541SOL     OW32521   3.483   3.586   1.922
10541SOL    HW132522   3.565   3.640   1.942
10541SOL    HW232523   3.402   3.638   1.948
10542SOL     OW32524   6.850   1.649   0.097
10542SOL    HW132525   6.889   1.740   0.081
10542SOL    HW232526   6.875   1.619   0.189
10543SOL     OW32527   0.660   0.752   4.941
10543SOL    HW132528   0.561   0.765   4.950
10543SOL    HW232529   0.700   0.833   4.898
10544SOL     OW32530   1.568   0.294   2.823
10544SOL    HW132531   1.511   0.348   2.884
10544SOL    HW232532   1.589   0.348   2.741
10545SOL     OW32533   6.432   0.823   2.821
10545SOL    HW132534   6.436   0.896   2.890
10545SOL    HW232535   6.338   0.812   2.789
10546SOL     OW32536   0.576   0.777   6.288
10546SOL    HW132537   0.634   0.699   6.312
10546SOL    HW232538   0.514   0.751   6.214
10547SOL     OW32539   4.913   1.619   1.328
10547SOL    HW132540   4.911   1.682   1.405
10547SOL    HW232541   4.835   1.638   1.267
10548SOL     OW32542   5.022   3.593   5.157
10548SOL    HW132543   5.061   3.502   5.176
10548SOL    HW232544   4.948   3.584   5.091
10549SOL     OW32545   6.628   0.471   2.049
10549SOL    HW132546   6.706   0.456   2.109
10549SOL    HW232547   6.552   0.510   2.101
10550SOL     OW32548   4.247   6.508   4.562
10550SOL    HW132549   4.259   6.600   4.599
10550SOL    HW232550   4.164   6.505   4.506
10551SOL     OW32551   1.228   2.947   5.228
10551SOL    HW132552   1.192   2.861   5.191
10551SOL    HW232553   1.325   2.954   5.206
10552SOL     OW32554   4.044   1.837   6.128
10552SOL    HW132555   4.096   1.911   6.086
10552SOL    HW232556   4.106   1.764   6.157
10553SOL     OW32557   1.047   4.830   2.021
10553SOL    HW132558   1.000   4.909   2.061
10553SOL    HW232559   1.018   4.820   1.926
10554SOL     OW32560   5.402   5.166   6.963
10554SOL    HW132561   5.404   5.150   6.864
10554SOL    HW232562   5.491   5.143   7.002
10555SOL     OW32563   2.984   1.980   1.179
10555SOL    HW132564   2.988   2.062   1.235
10555SOL    HW232565   3.033   1.996   1.093
10556SOL     OW32566   1.534   3.021   5.196
10556SOL    HW132567   1.526   3.121   5.189
10556SOL    HW232568   1.625   2.997   5.228
10557SOL     OW32569   1.255   2.843   3.124
10557SOL    HW132570   1.233   2.814   3.031
10557SOL    HW232571   1.354   2.842   3.138
10558SOL     OW32572   3.770   6.984   4.847
10558SOL    HW132573   3.843   6.975   4.779
10558SOL    HW232574   3.728   0.046   4.839
10559SOL     OW32575   3.691   1.098   0.766
10559SOL    HW132576   3.708   1.195   0.781
10559SOL    HW232577   3.638   1.086   0.682
10560SOL     OW32578   2.258   6.012   4.314
10560SOL    HW132579   2.358   6.007   4.315
10560SOL    HW232580   2.222   5.927   4.275
10561SOL     OW32581   2.708   4.839   0.201
10561SOL    HW132582   2.798   4.863   0.237
10561SOL    HW232583   2.700   4.875   0.107
10562SOL     OW32584   5.257   6.195   0.260
10562SOL    HW132585   5.183   6.141   0.300
10562SOL    HW232586   5.262   6.284   0.305
10563SOL     OW32587   1.263   0.780   3.774
10563SOL    HW132588   1.272   0.873   3.809
10563SOL    HW232589   1.200   0.779   3.696
10564SOL     OW32590   5.695   6.758   2.239
10564SOL    HW132591   5.746   6.690   2.292
10564SOL    HW232592   5.678   6.838   2.296
10565SOL     OW32593   0.525   0.650   6.032
10565SOL    HW132594   0.532   0.668   5.934
10565SOL    HW232595   0.429   0.656   6.060
10566SOL     OW32596   4.459   3.170   0.003
10566SOL    HW132597   4.384   3.105   0.018
10566SOL    HW232598   4.487   3.209   0.091
10567SOL     OW32599   2.215   2.904   3.638
10567SOL    HW132600   2.234   2.985   3.581
10567SOL    HW232601   2.283   2.834   3.618
10568SOL     OW32602   5.538   1.313   1.137
10568SOL    HW132603   5.613   1.283   1.078
10568SOL    HW232604   5.451   1.298   1.090
10569SOL     OW32605   6.648   3.114   2.087
10569SOL    HW132606   6.727   3.060   2.115
10569SOL    HW232607   6.672   3.171   2.009
10570SOL     OW32608   2.175   5.067   2.486
10570SOL    HW132609   2.193   4.980   2.532
10570SOL    HW232610   2.112   5.122   2.542
10571SOL     OW32611   6.685   5.286   4.322
10571SOL    HW132612   6.746   5.227   4.375
10571SOL    HW232613   6.644   5.354   4.382
10572SOL     OW32614   6.146   3.284   3.390
10572SOL    HW132615   6.087   3.333   3.455
10572SOL    HW232616   6.109   3.294   3.298
10573SOL     OW32617   5.795   5.832   3.737
10573SOL    HW132618   5.789   5.845   3.837
10573SOL    HW232619   5.885   5.862   3.706
10574SOL     OW32620   2.134   1.995   4.066
10574SOL    HW132621   2.180   2.061   4.007
10574SOL    HW232622   2.183   1.988   4.153
10575SOL     OW32623   0.306   0.897   3.689
10575SOL    HW132624   0.314   0.892   3.789
10575SOL    HW232625   0.230   0.839   3.659
10576SOL     OW32626   0.774   6.364   5.614
10576SOL    HW132627   0.746   6.330   5.524
10576SOL    HW232628   0.770   6.289   5.680
10577SOL     OW32629   1.389   2.463   6.594
10577SOL    HW132630   1.390   2.403   6.514
10577SOL    HW232631   1.421   2.412   6.674
10578SOL     OW32632   6.940   0.463   3.666
10578SOL    HW132633   6.897   0.472   3.576
10578SOL    HW232634   6.869   0.460   3.736
10579SOL     OW32635   3.482   2.085   0.387
10579SOL    HW132636   3.442   2.023   0.454
10579SOL    HW232637   3.568   2.047   0.353
10580SOL     OW32638   6.556   6.962   0.198
10580SOL    HW132639   6.471   6.911   0.187
10580SOL    HW232640   6.552   0.018   0.144
10581SOL     OW32641   5.996   0.143   3.001
10581SOL    HW132642   5.971   0.239   3.013
10581SOL    HW232643   5.995   0.119   2.904
10582SOL     OW32644   3.728   5.032   6.706
10582SOL    HW132645   3.698   4.938   6.687
10582SOL    HW232646   3.812   5.030   6.760
10583SOL     OW32647   4.301   0.938   5.587
10583SOL    HW132648   4.211   0.940   5.632
10583SOL    HW232649   4.305   1.012   5.519
10584SOL     OW32650   6.062   6.963   1.155
10584SOL    HW132651   6.054   6.913   1.068
10584SOL    HW232652   6.048   0.032   1.139
10585SOL     OW32653   1.602   3.151   5.897
10585SOL    HW132654   1.564   3.085   5.962
10585SOL    HW232655   1.633   3.103   5.815
10586SOL     OW32656   1.889   5.890   5.605
10586SOL    HW132657   1.985   5.867   5.621
10586SOL    HW232658   1.839   5.807   5.579
10587SOL     OW32659   5.873   4.040   0.160
10587SOL    HW132660   5.957   3.995   0.191
10587SOL    HW232661   5.886   4.139   0.163
10588SOL     OW32662   0.828   4.080   1.952
10588SOL    HW132663   0.777   4.001   1.986
10588SOL    HW232664   0.778   4.163   1.974
10589SOL     OW32665   5.404   1.416   4.503
10589SOL    HW132666   5.332   1.440   4.438
10589SOL    HW232667   5.484   1.383   4.453
10590SOL     OW32668   1.282   0.529   1.816
10590SOL    HW132669   1.193   0.561   1.781
10590SOL    HW232670   1.353   0.549   1.748
10591SOL     OW32671   1.552   1.614   5.599
10591SOL    HW132672   1.608   1.554   5.656
10591SOL    HW232673   1.576   1.600   5.503
10592SOL     OW32674   5.518   2.870   0.962
10592SOL    HW132675   5.490   2.867   1.058
10592SOL    HW232676   5.486   2.787   0.916
10593SOL     OW32677   2.908   5.067   0.555
10593SOL    HW132678   3.007   5.082   0.565
10593SOL    HW232679   2.874   5.121   0.477
10594SOL     OW32680   5.591   1.694   3.540
10594SOL    HW132681   5.514   1.646   3.498
10594SOL    HW232682   5.667   1.699   3.475
10595SOL     OW32683   3.333   0.368   6.040
10595SOL    HW132684   3.303   0.330   5.953
10595SOL    HW232685   3.378   0.456   6.024
10596SOL     OW32686   4.448   0.021   1.891
10596SOL    HW132687   4.472   0.066   1.977
10596SOL    HW232688   4.378   0.075   1.844
10597SOL     OW32689   2.676   1.217   4.623
10597SOL    HW132690   2.727   1.132   4.609
10597SOL    HW232691   2.698   1.282   4.550
10598SOL     OW32692   2.908   2.540   0.008
10598SOL    HW132693   2.894   2.447   0.041
10598SOL    HW232694   3.002   2.550   7.003
10599SOL     OW32695   5.600   1.945   0.409
10599SOL    HW132696   5.624   2.017   0.474
10599SOL    HW232697   5.665   1.946   0.333
10600SOL     OW32698   1.986   3.045   0.304
10600SOL    HW132699   1.970   2.949   0.329
10600SOL    HW232700   2.032   3.048   0.215
10601SOL     OW32701   2.432   5.354   5.621
10601SOL    HW132702   2.435   5.446   5.661
10601SOL    HW232703   2.518   5.334   5.575
10602SOL     OW32704   5.076   1.669   2.854
10602SOL    HW132705   5.081   1.740   2.925
10602SOL    HW232706   5.130   1.698   2.775
10603SOL     OW32707   2.398   5.844   3.209
10603SOL    HW132708   2.397   5.944   3.215
10603SOL    HW232709   2.319   5.813   3.156
10604SOL     OW32710   5.504   4.367   4.657
10604SOL    HW132711   5.466   4.442   4.711
10604SOL    HW232712   5.468   4.372   4.564
10605SOL     OW32713   0.909   5.015   0.232
10605SOL    HW132714   0.871   5.061   0.151
10605SOL    HW232715   0.840   4.953   0.270
10606SOL     OW32716   5.992   0.376   1.805
10606SOL    HW132717   5.937   0.453   1.835
10606SOL    HW232718   6.026   0.326   1.885
10607SOL     OW32719   4.049   3.460   5.685
10607SOL    HW132720   3.955   3.493   5.685
10607SOL    HW232721   4.103   3.511   5.752
10608SOL     OW32722   5.854   2.170   5.094
10608SOL    HW132723   5.797   2.249   5.119
10608SOL    HW232724   5.946   2.202   5.074
10609SOL     OW32725   3.075   5.724   1.598
10609SOL    HW132726   3.135   5.772   1.662
10609SOL    HW232727   3.069   5.775   1.513
10610SOL     OW32728   0.668   4.514   6.781
10610SOL    HW132729   0.660   4.426   6.734
10610SOL    HW232730   0.670   4.588   6.714
10611SOL     OW32731   5.360   3.431   0.090
10611SOL    HW132732   5.365   3.486   0.007
10611SOL    HW232733   5.431   3.361   0.088
10612SOL     OW32734   2.409   6.776   5.875
10612SOL    HW132735   2.413   6.801   5.778
10612SOL    HW232736   2.331   6.821   5.918
10613SOL     OW32737   0.562   6.922   5.830
10613SOL    HW132738   0.562   6.913   5.731
10613SOL    HW232739   0.584   7.016   5.855
10614SOL     OW32740   0.056   1.717   4.296
10614SOL    HW132741   7.000   1.705   4.349
10614SOL    HW232742   0.039   1.691   4.201
10615SOL     OW32743   4.300   5.532   5.470
10615SOL    HW132744   4.204   5.543   5.495
10615SOL    HW232745   4.308   5.491   5.379
10616SOL     OW32746   3.694   6.157   0.375
10616SOL    HW132747   3.731   6.242   0.339
10616SOL    HW232748   3.594   6.157   0.366
10617SOL     OW32749   2.229   2.549   0.456
10617SOL    HW132750   2.178   2.518   0.376
10617SOL    HW232751   2.286   2.627   0.432
10618SOL     OW32752   5.935   3.250   0.440
10618SOL    HW132753   5.959   3.345   0.420
10618SOL    HW232754   6.019   3.196   0.450
10619SOL     OW32755   0.300   3.523   1.730
10619SOL    HW132756   0.339   3.437   1.762
10619SOL    HW232757   0.374   3.589   1.716
10620SOL     OW32758   1.031   5.832   5.437
10620SOL    HW132759   1.077   5.900   5.381
10620SOL    HW232760   0.979   5.769   5.378
10621SOL     OW32761   1.274   6.289   0.820
10621SOL    HW132762   1.358   6.274   0.767
10621SOL    HW232763   1.218   6.206   0.817
10622SOL     OW32764   4.478   1.233   0.785
10622SOL    HW132765   4.561   1.191   0.821
10622SOL    HW232766   4.398   1.194   0.830
10623SOL     OW32767   5.644   3.162   4.128
10623SOL    HW132768   5.706   3.233   4.160
10623SOL    HW232769   5.587   3.198   4.054
10624SOL     OW32770   0.859   1.245   4.680
10624SOL    HW132771   0.902   1.294   4.605
10624SOL    HW232772   0.768   1.282   4.696
10625SOL     OW32773   0.640   4.186   6.988
10625SOL    HW132774   0.640   4.267   0.018
10625SOL    HW232775   0.716   4.190   6.923
10626SOL     OW32776   0.741   2.549   1.436
10626SOL    HW132777   0.822   2.493   1.423
10626SOL    HW232778   0.666   2.514   1.380
10627SOL     OW32779   5.742   6.232   2.429
10627SOL    HW132780   5.836   6.214   2.457
10627SOL    HW232781   5.695   6.285   2.500
10628SOL     OW32782   5.282   4.910   5.880
10628SOL    HW132783   5.320   4.818   5.871
10628SOL    HW232784   5.346   4.969   5.929
10629SOL     OW32785   2.577   4.629   5.346
10629SOL    HW132786   2.558   4.702   5.280
10629SOL    HW232787   2.674   4.629   5.367
10630SOL     OW32788   6.509   1.118   3.333
10630SOL    HW132789   6.606   1.096   3.321
10630SOL    HW232790   6.474   1.069   3.414
10631SOL     OW32791   1.085   5.944   4.511
10631SOL    HW132792   1.059   5.872   4.577
10631SOL    HW232793   1.144   5.904   4.441
10632SOL     OW32794   5.772   2.415   4.269
10632SOL    HW132795   5.674   2.398   4.276
10632SOL    HW232796   5.822   2.331   4.290
10633SOL     OW32797   2.798   4.160   1.192
10633SOL    HW132798   2.723   4.099   1.217
10633SOL    HW232799   2.873   4.106   1.154
10634SOL     OW32800   3.541   5.294   0.491
10634SOL    HW132801   3.598   5.333   0.418
10634SOL    HW232802   3.466   5.243   0.450
10635SOL     OW32803   2.750   1.402   1.226
10635SOL    HW132804   2.776   1.305   1.216
10635SOL    HW232805   2.826   1.459   1.195
10636SOL     OW32806   1.247   2.263   1.834
10636SOL    HW132807   1.304   2.201   1.780
10636SOL    HW232808   1.306   2.324   1.887
10637SOL     OW32809   3.712   3.963   5.809
10637SOL    HW132810   3.698   3.878   5.758
10637SOL    HW232811   3.739   4.035   5.746
10638SOL     OW32812   0.095   6.413   2.733
10638SOL    HW132813   0.018   6.452   2.683
10638SOL    HW232814   0.171   6.396   2.670
10639SOL     OW32815   0.623   1.893   3.557
10639SOL    HW132816   0.620   1.832   3.636
10639SOL    HW232817   0.708   1.946   3.560
10640SOL     OW32818   4.406   0.096   6.825
10640SOL    HW132819   4.492   0.049   6.804
10640SOL    HW232820   4.418   0.194   6.814
10641SOL     OW32821   3.750   2.002   0.350
10641SOL    HW132822   3.817   2.074   0.364
10641SOL    HW232823   3.755   1.937   0.427
10642SOL     OW32824   0.284   2.841   1.541
10642SOL    HW132825   0.365   2.828   1.597
10642SOL    HW232826   0.307   2.830   1.444
10643SOL     OW32827   2.167   4.330   5.771
10643SOL    HW132828   2.161   4.373   5.681
10643SOL    HW232829   2.082   4.281   5.791
10644SOL     OW32830   4.769   1.830   3.695
10644SOL    HW132831   4.809   1.750   3.651
10644SOL    HW232832   4.738   1.807   3.787
10645SOL     OW32833   1.062   0.967   4.343
10645SOL    HW132834   1.104   0.889   4.390
10645SOL    HW232835   0.977   0.937   4.299
10646SOL     OW32836   0.773   1.997   5.590
10646SOL    HW132837   0.784   1.940   5.671
10646SOL    HW232838   0.725   1.946   5.519
10647SOL     OW32839   5.265   5.258   5.874
10647SOL    HW132840   5.349   5.305   5.901
10647SOL    HW232841   5.267   5.241   5.775
10648SOL     OW32842   5.481   3.079   6.412
10648SOL    HW132843   5.471   3.098   6.314
10648SOL    HW232844   5.460   2.983   6.429
10649SOL     OW32845   0.167   4.438   3.836
10649SOL    HW132846   0.100   4.464   3.766
10649SOL    HW232847   0.144   4.348   3.872
10650SOL     OW32848   1.183   6.793   3.575
10650SOL    HW132849   1.282   6.789   3.587
10650SOL    HW232850   1.162   6.843   3.491
10651SOL     OW32851   4.558   6.799   5.915
10651SOL    HW132852   4.642   6.764   5.956
10651SOL    HW232853   4.528   6.735   5.844
10652SOL     OW32854   3.451   0.101   6.760
10652SOL    HW132855   3.469   0.187   6.712
10652SOL    HW232856   3.352   0.091   6.774
10653SOL     OW32857   5.033   4.767   4.603
10653SOL    HW132858   5.016   4.806   4.693
10653SOL    HW232859   4.966   4.696   4.584
10654SOL     OW32860   4.034   0.140   1.453
10654SOL    HW132861   3.976   0.168   1.376
10654SOL    HW232862   4.035   0.040   1.459
10655SOL     OW32863   3.080   5.485   1.427
10655SOL    HW132864   3.146   5.499   1.352
10655SOL    HW232865   3.041   5.573   1.454
10656SOL     OW32866   6.261   1.972   0.357
10656SOL    HW132867   6.201   2.016   0.290
10656SOL    HW232868   6.226   1.990   0.449
10657SOL     OW32869   6.257   6.686   0.924
10657SOL    HW132870   6.325   6.628   0.881
10657SOL    HW232871   6.301   6.744   0.992
10658SOL     OW32872   0.472   4.699   4.601
10658SOL    HW132873   0.528   4.730   4.678
10658SOL    HW232874   0.529   4.647   4.538
10659SOL     OW32875   6.921   6.705   1.000
10659SOL    HW132876   6.911   6.804   1.006
10659SOL    HW232877   6.927   6.666   1.092
10660SOL     OW32878   5.029   3.960   6.324
10660SOL    HW132879   5.013   3.901   6.245
10660SOL    HW232880   5.111   4.016   6.308
10661SOL     OW32881   6.685   6.762   2.710
10661SOL    HW132882   6.771   6.742   2.757
10661SOL    HW232883   6.630   6.679   2.704
10662SOL     OW32884   5.789   0.990   1.864
10662SOL    HW132885   5.699   0.947   1.858
10662SOL    HW232886   5.790   1.074   1.810
10663SOL     OW32887   0.874   0.196   0.820
10663SOL    HW132888   0.930   0.165   0.897
10663SOL    HW232889   0.929   0.197   0.736
10664SOL     OW32890   2.419   3.976   6.454
10664SOL    HW132891   2.491   4.007   6.391
10664SOL    HW232892   2.332   4.020   6.428
10665SOL     OW32893   1.269   1.103   6.891
10665SOL    HW132894   1.253   1.111   6.990
10665SOL    HW232895   1.279   1.006   6.868
10666SOL     OW32896   4.036   4.233   6.980
10666SOL    HW132897   4.050   4.286   6.896
10666SOL    HW232898   4.115   4.246   0.012
10667SOL     OW32899   4.313   1.780   5.576
10667SOL    HW132900   4.319   1.859   5.635
10667SOL    HW232901   4.229   1.729   5.597
10668SOL     OW32902   1.390   2.170   5.691
10668SOL    HW132903   1.486   2.195   5.676
10668SOL    HW232904   1.333   2.252   5.685
10669SOL     OW32905   0.525   0.181   0.907
10669SOL    HW132906   0.556   0.239   0.831
10669SOL    HW232907   0.480   0.239   0.976
10670SOL     OW32908   4.911   4.326   6.076
10670SOL    HW132909   5.007   4.296   6.070
10670SOL    HW232910   4.890   4.384   5.997
10671SOL     OW32911   2.076   3.723   2.515
10671SOL    HW132912   2.101   3.806   2.565
10671SOL    HW232913   2.157   3.684   2.473
10672SOL     OW32914   6.940   3.032   0.458
10672SOL    HW132915   6.937   3.131   0.466
10672SOL    HW232916   0.008   3.001   0.457
10673SOL     OW32917   2.781   2.542   5.832
10673SOL    HW132918   2.850   2.512   5.766
10673SOL    HW232919   2.715   2.469   5.847
10674SOL     OW32920   3.799   3.789   0.729
10674SOL    HW132921   3.781   3.871   0.675
10674SOL    HW232922   3.719   3.769   0.786
10675SOL     OW32923   0.611   0.747   5.351
10675SOL    HW132924   0.684   0.684   5.377
10675SOL    HW232925   0.633   0.839   5.385
10676SOL     OW32926   6.213   0.395   5.806
10676SOL    HW132927   6.299   0.385   5.855
10676SOL    HW232928   6.146   0.331   5.844
10677SOL     OW32929   0.923   0.882   2.326
10677SOL    HW132930   0.829   0.847   2.326
10677SOL    HW232931   0.922   0.978   2.353
10678SOL     OW32932   3.809   5.578   2.638
10678SOL    HW132933   3.808   5.657   2.576
10678SOL    HW232934   3.739   5.591   2.709
10679SOL     OW32935   5.601   5.679   4.942
10679SOL    HW132936   5.666   5.656   5.015
10679SOL    HW232937   5.555   5.764   4.964
10680SOL     OW32938   1.832   3.549   2.582
10680SOL    HW132939   1.929   3.562   2.600
10680SOL    HW232940   1.820   3.498   2.497
10681SOL     OW32941   6.499   4.391   6.824
10681SOL    HW132942   6.449   4.472   6.857
10681SOL    HW232943   6.591   4.391   6.864
10682SOL     OW32944   1.584   1.823   3.098
10682SOL    HW132945   1.491   1.789   3.094
10682SOL    HW232946   1.609   1.841   3.193
10683SOL     OW32947   2.377   2.705   3.911
10683SOL    HW132948   2.467   2.740   3.887
10683SOL    HW232949   2.312   2.728   3.839
10684SOL     OW32950   5.338   4.004   0.364
10684SOL    HW132951   5.377   4.063   0.434
10684SOL    HW232952   5.238   4.002   0.375
10685SOL     OW32953   0.782   3.889   3.266
10685SOL    HW132954   0.742   3.867   3.355
10685SOL    HW232955   0.732   3.840   3.195
10686SOL     OW32956   4.212   6.066   6.629
10686SOL    HW132957   4.174   6.044   6.539
10686SOL    HW232958   4.223   6.165   6.638
10687SOL     OW32959   6.921   5.232   2.288
10687SOL    HW132960   6.994   5.171   2.258
10687SOL    HW232961   6.838   5.179   2.307
10688SOL     OW32962   6.220   4.266   2.338
10688SOL    HW132963   6.134   4.314   2.321
10688SOL    HW232964   6.206   4.167   2.325
10689SOL     OW32965   6.696   0.097   2.912
10689SOL    HW132966   6.785   0.092   2.957
10689SOL    HW232967   6.704   0.065   2.817
10690SOL     OW32968   4.483   5.704   3.441
10690SOL    HW132969   4.475   5.801   3.463
10690SOL    HW232970   4.500   5.692   3.344
10691SOL     OW32971   6.283   1.206   1.653
10691SOL    HW132972   6.265   1.173   1.561
10691SOL    HW232973   6.206   1.261   1.685
10692SOL     OW32974   3.069   5.839   3.692
10692SOL    HW132975   3.021   5.751   3.701
10692SOL    HW232976   3.159   5.824   3.651
10693SOL     OW32977   0.956   1.139   0.753
10693SOL    HW132978   1.011   1.064   0.717
10693SOL    HW232979   0.859   1.114   0.749
10694SOL     OW32980   3.458   5.924   1.094
10694SOL    HW132981   3.549   5.950   1.125
10694SOL    HW232982   3.443   5.827   1.112
10695SOL     OW32983   0.139   2.623   4.249
10695SOL    HW132984   0.070   2.598   4.181
10695SOL    HW232985   0.110   2.593   4.340
10696SOL     OW32986   0.025   5.743   1.614
10696SOL    HW132987   0.094   5.769   1.681
10696SOL    HW232988   0.038   5.795   1.530
10697SOL     OW32989   0.174   6.308   3.392
10697SOL    HW132990   0.225   6.238   3.343
10697SOL    HW232991   0.119   6.265   3.464
10698SOL     OW32992   3.188   0.221   3.554
10698SOL    HW132993   3.190   0.313   3.515
10698SOL    HW232994   3.263   0.166   3.516
10699SOL     OW32995   4.373   1.747   2.882
10699SOL    HW132996   4.344   1.673   2.942
10699SOL    HW232997   4.367   1.717   2.786
10700SOL     OW32998   1.039   0.127   0.608
10700SOL    HW132999   1.035   0.049   0.671
10700SOL    HW233000   1.031   0.094   0.514
10701SOL     OW33001   4.704   5.818   6.471
10701SOL    HW133002   4.695   5.761   6.391
10701SOL    HW233003   4.785   5.790   6.524
10702SOL     OW33004   5.594   2.568   1.246
10702SOL    HW133005   5.689   2.572   1.215
10702SOL    HW233006   5.580   2.485   1.299
10703SOL     OW33007   3.738   3.659   3.369
10703SOL    HW133008   3.681   3.691   3.294
10703SOL    HW233009   3.687   3.594   3.426
10704SOL     OW33010   5.107   6.681   1.895
10704SOL    HW133011   5.186   6.720   1.847
10704SOL    HW233012   5.032   6.747   1.895
10705SOL     OW33013   1.162   3.805   6.437
10705SOL    HW133014   1.071   3.771   6.462
10705SOL    HW233015   1.223   3.798   6.515
10706SOL     OW33016   4.519   0.641   2.274
10706SOL    HW133017   4.553   0.696   2.199
10706SOL    HW233018   4.438   0.684   2.314
10707SOL     OW33019   0.188   6.963   5.887
10707SOL    HW133020   0.096   6.982   5.855
10707SOL    HW233021   0.220   6.876   5.849
10708SOL     OW33022   4.825   1.137   1.031
10708SOL    HW133023   4.777   1.186   1.104
10708SOL    HW233024   4.758   1.097   0.968
10709SOL     OW33025   6.558   0.398   5.002
10709SOL    HW133026   6.514   0.455   4.932
10709SOL    HW233027   6.527   0.427   5.093
10710SOL     OW33028   6.586   5.679   3.696
10710SOL    HW133029   6.487   5.678   3.679
10710SOL    HW233030   6.630   5.610   3.639
10711SOL     OW33031   1.759   0.521   4.051
10711SOL    HW133032   1.759   0.502   3.953
10711SOL    HW233033   1.698   0.598   4.070
10712SOL     OW33034   3.752   1.425   5.042
10712SOL    HW133035   3.761   1.457   5.136
10712SOL    HW233036   3.658   1.394   5.026
10713SOL     OW33037   2.169   5.626   2.230
10713SOL    HW133038   2.242   5.566   2.262
10713SOL    HW233039   2.208   5.707   2.187
10714SOL     OW33040   0.675   4.766   4.761
10714SOL    HW133041   0.774   4.774   4.749
10714SOL    HW233042   0.651   4.789   4.855
10715SOL     OW33043   4.883   2.082   4.068
10715SOL    HW133044   4.791   2.116   4.048
10715SOL    HW233045   4.947   2.160   4.071
10716SOL     OW33046   6.209   1.461   4.328
10716SOL    HW133047   6.113   1.491   4.323
10716SOL    HW233048   6.213   1.361   4.324
10717SOL     OW33049   6.899   1.220   1.394
10717SOL    HW133050   6.849   1.307   1.397
10717SOL    HW233051   6.993   1.235   1.425
10718SOL     OW33052   6.887   5.440   0.210
10718SOL    HW133053   6.893   5.342   0.227
10718SOL    HW233054   6.796   5.473   0.235
10719SOL     OW33055   5.343   0.963   2.162
10719SOL    HW133056   5.310   1.024   2.090
10719SOL    HW233057   5.346   0.869   2.127
10720SOL     OW33058   6.872   3.922   6.111
10720SOL    HW133059   6.804   3.937   6.039
10720SOL    HW233060   6.946   3.865   6.076
10721SOL     OW33061   6.221   2.123   4.674
10721SOL    HW133062   6.256   2.145   4.765
10721SOL    HW233063   6.168   2.039   4.677
10722SOL     OW33064   6.352   3.860   0.332
10722SOL    HW133065   6.319   3.782   0.385
10722SOL    HW233066   6.419   3.911   0.385
10723SOL     OW33067   5.217   4.039   6.750
10723SOL    HW133068   5.306   4.014   6.710
10723SOL    HW233069   5.213   4.006   6.845
10724SOL     OW33070   4.485   6.857   6.221
10724SOL    HW133071   4.439   6.871   6.309
10724SOL    HW233072   4.474   6.938   6.164
10725SOL     OW33073   0.410   6.230   4.124
10725SOL    HW133074   0.496   6.183   4.146
10725SOL    HW233075   0.357   6.175   4.059
10726SOL     OW33076   5.838   0.815   4.695
10726SOL    HW133077   5.927   0.788   4.658
10726SOL    HW233078   5.786   0.864   4.624
10727SOL     OW33079   2.229   4.949   5.380
10727SOL    HW133080   2.301   4.885   5.409
10727SOL    HW233081   2.249   5.040   5.418
10728SOL     OW33082   4.672   6.998   2.798
10728SOL    HW133083   4.715   6.908   2.809
10728SOL    HW233084   4.738   0.035   2.761
10729SOL     OW33085   5.968   2.186   2.874
10729SOL    HW133086   6.022   2.270   2.872
10729SOL    HW233087   5.875   2.206   2.843
10730SOL     OW33088   2.162   5.964   2.404
10730SOL    HW133089   2.064   5.982   2.403
10730SOL    HW233090   2.183   5.885   2.346
10731SOL     OW33091   3.295   5.746   0.316
10731SOL    HW133092   3.288   5.671   0.382
10731SOL    HW233093   3.391   5.759   0.291
10732SOL     OW33094   5.442   6.496   2.923
10732SOL    HW133095   5.360   6.472   2.870
10732SOL    HW233096   5.418   6.510   3.019
10733SOL     OW33097   5.895   1.020   6.702
10733SOL    HW133098   5.818   0.964   6.734
10733SOL    HW233099   5.980   0.970   6.714
10734SOL     OW33100   1.068   0.145   6.630
10734SOL    HW133101   1.109   0.216   6.686
10734SOL    HW233102   0.969   0.160   6.623
10735SOL     OW33103   0.819   5.180   2.044
10735SOL    HW133104   0.862   5.113   2.104
10735SOL    HW233105   0.810   5.267   2.092
10736SOL     OW33106   6.947   0.757   4.390
10736SOL    HW133107   6.956   0.719   4.482
10736SOL    HW233108   0.007   0.749   4.342
10737SOL     OW33109   0.135   2.063   0.967
10737SOL    HW133110   0.217   2.111   0.999
10737SOL    HW233111   0.159   1.969   0.942
10738SOL     OW33112   2.817   0.891   2.741
10738SOL    HW133113   2.890   0.956   2.765
10738SOL    HW233114   2.764   0.928   2.665
10739SOL     OW33115   6.256   1.822   2.653
10739SOL    HW133116   6.225   1.856   2.742
10739SOL    HW233117   6.337   1.872   2.624
10740SOL     OW33118   1.452   6.777   5.961
10740SOL    HW133119   1.416   6.867   5.938
10740SOL    HW233120   1.379   6.709   5.954
10741SOL     OW33121   1.557   2.924   3.378
10741SOL    HW133122   1.473   2.977   3.363
10741SOL    HW233123   1.549   2.836   3.331
10742SOL     OW33124   6.150   5.409   2.025
10742SOL    HW133125   6.143   5.383   2.121
10742SOL    HW233126   6.216   5.483   2.015
10743SOL     OW33127   3.597   1.497   5.613
10743SOL    HW133128   3.617   1.404   5.582
10743SOL    HW233129   3.506   1.524   5.584
10744SOL     OW33130   3.458   0.244   1.549
10744SOL    HW133131   3.454   0.307   1.472
10744SOL    HW233132   3.506   0.161   1.522
10745SOL     OW33133   1.831   4.446   1.074
10745SOL    HW133134   1.906   4.380   1.084
10745SOL    HW233135   1.867   4.532   1.038
10746SOL     OW33136   2.538   6.108   0.275
10746SOL    HW133137   2.446   6.137   0.248
10746SOL    HW233138   2.537   6.011   0.298
10747SOL     OW33139   6.104   2.745   4.363
10747SOL    HW133140   6.056   2.788   4.439
10747SOL    HW233141   6.037   2.708   4.299
10748SOL     OW33142   4.428   5.702   1.025
10748SOL    HW133143   4.371   5.621   1.043
10748SOL    HW233144   4.525   5.675   1.025
10749SOL     OW33145   6.034   4.397   3.180
10749SOL    HW133146   5.939   4.422   3.198
10749SOL    HW233147   6.059   4.317   3.234
10750SOL     OW33148   4.935   3.630   3.992
10750SOL    HW133149   5.025   3.662   4.022
10750SOL    HW233150   4.868   3.703   4.005
10751SOL     OW33151   1.166   3.495   4.859
10751SOL    HW133152   1.250   3.505   4.806
10751SOL    HW233153   1.112   3.579   4.854
10752SOL     OW33154   6.322   5.017   6.619
10752SOL    HW133155   6.355   4.961   6.543
10752SOL    HW233156   6.398   5.039   6.680
10753SOL     OW33157   4.456   6.309   4.395
10753SOL    HW133158   4.434   6.255   4.476
10753SOL    HW233159   4.519   6.383   4.420
10754SOL     OW33160   0.824   2.921   1.990
10754SOL    HW133161   0.902   2.861   2.009
10754SOL    HW233162   0.828   2.952   1.895
10755SOL     OW33163   6.909   2.604   1.624
10755SOL    HW133164   6.996   2.596   1.577
10755SOL    HW233165   6.884   2.514   1.663
10756SOL     OW33166   6.158   2.058   0.622
10756SOL    HW133167   6.230   2.034   0.688
10756SOL    HW233168   6.127   2.151   0.639
10757SOL     OW33169   6.732   3.810   0.174
10757SOL    HW133170   6.665   3.754   0.126
10757SOL    HW233171   6.756   3.889   0.119
10758SOL     OW33172   1.363   5.631   6.437
10758SOL    HW133173   1.296   5.683   6.489
10758SOL    HW233174   1.441   5.690   6.415
10759SOL     OW33175   1.472   2.126   6.212
10759SOL    HW133176   1.466   2.117   6.113
10759SOL    HW233177   1.406   2.065   6.255
10760SOL     OW33178   0.996   6.618   0.801
10760SOL    HW133179   1.019   6.579   0.890
10760SOL    HW233180   1.076   6.614   0.742
10761SOL     OW33181   1.017   2.016   6.170
10761SOL    HW133182   0.926   2.003   6.210
10761SOL    HW233183   1.081   1.950   6.209
10762SOL     OW33184   4.165   0.726   5.778
10762SOL    HW133185   4.222   0.652   5.742
10762SOL    HW233186   4.082   0.735   5.724
10763SOL     OW33187   5.824   0.698   3.126
10763SOL    HW133188   5.908   0.751   3.130
10763SOL    HW233189   5.759   0.731   3.194
10764SOL     OW33190   4.655   1.278   4.897
10764SOL    HW133191   4.753   1.287   4.918
10764SOL    HW233192   4.634   1.333   4.816
10765SOL     OW33193   5.869   2.101   2.435
10765SOL    HW133194   5.914   2.054   2.511
10765SOL    HW233195   5.776   2.067   2.425
10766SOL     OW33196   1.524   5.437   0.428
10766SOL    HW133197   1.543   5.417   0.332
10766SOL    HW233198   1.573   5.371   0.486
10767SOL     OW33199   1.985   6.237   0.474
10767SOL    HW133200   1.943   6.148   0.490
10767SOL    HW233201   2.078   6.225   0.440
10768SOL     OW33202   5.761   5.132   0.412
10768SOL    HW133203   5.836   5.082   0.456
10768SOL    HW233204   5.782   5.145   0.315
10769SOL     OW33205   2.615   4.247   5.360
10769SOL    HW133206   2.656   4.162   5.394
10769SOL    HW233207   2.517   4.233   5.346
10770SOL     OW33208   5.263   6.612   4.772
10770SOL    HW133209   5.190   6.552   4.740
10770SOL    HW233210   5.291   6.673   4.698
10771SOL     OW33211   4.584   0.107   5.659
10771SOL    HW133212   4.582   0.182   5.593
10771SOL    HW233213   4.602   0.021   5.611
10772SOL     OW33214   5.751   6.451   3.695
10772SOL    HW133215   5.727   6.354   3.707
10772SOL    HW233216   5.668   6.502   3.671
10773SOL     OW33217   6.911   4.070   0.645
10773SOL    HW133218   6.888   4.013   0.725
10773SOL    HW233219   6.864   4.034   0.564
10774SOL     OW33220   1.428   2.234   0.949
10774SOL    HW133221   1.345   2.283   0.923
10774SOL    HW233222   1.434   2.230   1.049
10775SOL     OW33223   1.619   4.495   0.872
10775SOL    HW133224   1.687   4.497   0.945
10775SOL    HW233225   1.612   4.586   0.830
10776SOL     OW33226   6.746   0.447   2.664
10776SOL    HW133227   6.691   0.484   2.739
10776SOL    HW233228   6.691   0.444   2.580
10777SOL     OW33229   2.644   0.817   3.694
10777SOL    HW133230   2.553   0.848   3.668
10777SOL    HW233231   2.637   0.743   3.761
10778SOL     OW33232   6.686   6.233   4.730
10778SOL    HW133233   6.725   6.321   4.703
10778SOL    HW233234   6.666   6.179   4.648
10779SOL     OW33235   5.496   4.801   3.404
10779SOL    HW133236   5.544   4.877   3.448
10779SOL    HW233237   5.438   4.837   3.332
10780SOL     OW33238   0.652   6.068   4.449
10780SOL    HW133239   0.751   6.081   4.439
10780SOL    HW233240   0.616   6.137   4.512
10781SOL     OW33241   5.987   2.244   5.365
10781SOL    HW133242   6.037   2.251   5.451
10781SOL    HW233243   6.044   2.279   5.290
10782SOL     OW33244   0.039   3.476   5.511
10782SOL    HW133245   0.047   3.483   5.412
10782SOL    HW233246   0.108   3.412   5.546
10783SOL     OW33247   1.316   2.339   2.593
10783SOL    HW133248   1.376   2.271   2.550
10783SOL    HW233249   1.221   2.313   2.578
10784SOL     OW33250   2.925   6.092   2.390
10784SOL    HW133251   2.984   6.093   2.309
10784SOL    HW233252   2.940   6.176   2.443
10785SOL     OW33253   1.525   5.186   1.482
10785SOL    HW133254   1.502   5.090   1.494
10785SOL    HW233255   1.574   5.219   1.562
10786SOL     OW33256   4.467   2.113   2.212
10786SOL    HW133257   4.516   2.077   2.292
10786SOL    HW233258   4.426   2.201   2.235
10787SOL     OW33259   3.436   1.502   4.017
10787SOL    HW133260   3.419   1.599   4.005
10787SOL    HW233261   3.523   1.477   3.974
10788SOL     OW33262   0.737   4.326   0.201
10788SOL    HW133263   0.680   4.306   0.282
10788SOL    HW233264   0.830   4.349   0.231
10789SOL     OW33265   6.077   1.145   7.004
10789SOL    HW133266   6.162   1.189   6.979
10789SOL    HW233267   6.038   1.098   6.925
10790SOL     OW33268   0.737   2.808   5.104
10790SOL    HW133269   0.663   2.797   5.170
10790SOL    HW233270   0.808   2.739   5.122
10791SOL     OW33271   2.224   1.822   2.494
10791SOL    HW133272   2.257   1.775   2.412
10791SOL    HW233273   2.284   1.799   2.571
10792SOL     OW33274   3.276   2.223   1.399
10792SOL    HW133275   3.178   2.240   1.390
10792SOL    HW233276   3.326   2.279   1.333
10793SOL     OW33277   5.115   1.613   4.750
10793SOL    HW133278   5.187   1.680   4.772
10793SOL    HW233279   5.157   1.522   4.740
10794SOL     OW33280   4.325   3.056   1.732
10794SOL    HW133281   4.413   3.049   1.779
10794SOL    HW233282   4.334   3.115   1.651
10795SOL     OW33283   0.140   4.157   2.313
10795SOL    HW133284   0.062   4.208   2.277
10795SOL    HW233285   0.117   4.060   2.319
10796SOL     OW33286   6.443   6.703   6.840
10796SOL    HW133287   6.395   6.740   6.920
10796SOL    HW233288   6.513   6.768   6.810
10797SOL     OW33289   3.842   3.052   0.631
10797SOL    HW133290   3.861   2.988   0.556
10797SOL    HW233291   3.747   3.041   0.660
10798SOL     OW33292   2.832   0.003   6.439
10798SOL    HW133293   2.899   6.962   6.464
10798SOL    HW233294   2.752   6.986   6.397
10799SOL     OW33295   3.088   1.586   2.729
10799SOL    HW133296   3.100   1.489   2.710
10799SOL    HW233297   3.176   1.626   2.754
10800SOL     OW33298   1.354   0.077   0.330
10800SOL    HW133299   1.450   0.104   0.328
10800SOL    HW233300   1.348   7.006   0.318
10801SOL     OW33301   2.072   6.253   5.672
10801SOL    HW133302   2.082   6.175   5.733
10801SOL    HW233303   2.158   6.302   5.666
10802SOL     OW33304   1.618   4.020   4.025
10802SOL    HW133305   1.691   3.957   4.054
10802SOL    HW233306   1.654   4.083   3.956
10803SOL     OW33307   5.741   4.681   5.216
10803SOL    HW133308   5.701   4.657   5.127
10803SOL    HW233309   5.827   4.730   5.202
10804SOL     OW33310   6.123   4.124   1.763
10804SOL    HW133311   6.131   4.220   1.735
10804SOL    HW233312   6.169   4.111   1.851
10805SOL     OW33313   4.340   6.550   0.570
10805SOL    HW133314   4.363   6.454   0.587
10805SOL    HW233315   4.383   6.607   0.640
10806SOL     OW33316   5.763   3.598   0.668
10806SOL    HW133317   5.723   3.628   0.754
10806SOL    HW233318   5.718   3.514   0.637
10807SOL     OW33319   3.308   6.042   3.498
10807SOL    HW133320   3.273   6.054   3.405
10807SOL    HW233321   3.320   5.945   3.517
10808SOL     OW33322   0.475   2.791   6.749
10808SOL    HW133323   0.466   2.881   6.791
10808SOL    HW233324   0.572   2.770   6.735
10809SOL     OW33325   3.147   1.151   4.458
10809SOL    HW133326   3.200   1.107   4.531
10809SOL    HW233327   3.107   1.081   4.399
10810SOL     OW33328   6.953   1.378   5.344
10810SOL    HW133329   6.929   1.436   5.266
10810SOL    HW233330   7.024   1.313   5.316
10811SOL     OW33331   4.311   5.448   5.077
10811SOL    HW133332   4.331   5.358   5.038
10811SOL    HW233333   4.317   5.517   5.005
10812SOL     OW33334   6.418   2.829   2.817
10812SOL    HW133335   6.376   2.788   2.737
10812SOL    HW233336   6.356   2.897   2.857
10813SOL     OW33337   2.890   5.993   1.864
10813SOL    HW133338   2.915   5.922   1.929
10813SOL    HW233339   2.965   6.009   1.800
10814SOL     OW33340   2.013   0.198   4.912
10814SOL    HW133341   1.932   0.226   4.861
10814SOL    HW233342   2.092   0.199   4.852
10815SOL     OW33343   5.559   4.108   2.945
10815SOL    HW133344   5.533   4.127   3.040
10815SOL    HW233345   5.512   4.026   2.913
10816SOL     OW33346   1.915   0.925   2.209
10816SOL    HW133347   1.945   0.882   2.294
10816SOL    HW233348   1.852   0.864   2.161
10817SOL     OW33349   5.368   0.236   2.595
10817SOL    HW133350   5.337   0.144   2.570
10817SOL    HW233351   5.467   0.237   2.602
10818SOL     OW33352   5.676   3.254   0.027
10818SOL    HW133353   5.722   3.332   7.013
10818SOL    HW233354   5.694   3.254   0.126
10819SOL     OW33355   0.295   4.676   6.111
10819SOL    HW133356   0.310   4.738   6.188
10819SOL    HW233357   0.200   4.645   6.111
10820SOL     OW33358   0.349   6.467   3.991
10820SOL    HW133359   0.343   6.387   4.050
10820SOL    HW233360   0.318   6.442   3.899
10821SOL     OW33361   6.868   0.288   1.515
10821SOL    HW133362   6.804   0.229   1.466
10821SOL    HW233363   6.961   0.273   1.481
10822SOL     OW33364   0.672   3.361   2.574
10822SOL    HW133365   0.572   3.360   2.570
10822SOL    HW233366   0.701   3.376   2.669
10823SOL     OW33367   2.543   6.048   1.149
10823SOL    HW133368   2.548   6.011   1.242
10823SOL    HW233369   2.448   6.068   1.126
10824SOL     OW33370   4.932   0.715   2.385
10824SOL    HW133371   4.889   0.647   2.444
10824SOL    HW233372   4.967   0.669   2.302
10825SOL     OW33373   3.191   0.959   1.131
10825SOL    HW133374   3.254   0.940   1.055
10825SOL    HW233375   3.099   0.928   1.106
10826SOL     OW33376   0.133   4.140   1.936
10826SOL    HW133377   0.192   4.187   2.003
10826SOL    HW233378   0.187   4.073   1.886
10827SOL     OW33379   6.955   3.785   4.501
10827SOL    HW133380   6.952   3.845   4.421
10827SOL    HW233381   6.914   3.832   4.579
10828SOL     OW33382   1.275   5.911   0.681
10828SOL    HW133383   1.224   5.974   0.739
10828SOL    HW233384   1.302   5.831   0.735
10829SOL     OW33385   3.060   3.924   2.123
10829SOL    HW133386   3.036   3.941   2.027
10829SOL    HW233387   3.026   3.834   2.150
10830SOL     OW33388   5.674   3.365   4.785
10830SOL    HW133389   5.630   3.356   4.875
10830SOL    HW233390   5.755   3.423   4.793
10831SOL     OW33391   5.295   1.066   2.808
10831SOL    HW133392   5.223   1.135   2.799
10831SOL    HW233393   5.364   1.080   2.736
10832SOL     OW33394   0.733   1.768   0.060
10832SOL    HW133395   0.644   1.755   0.103
10832SOL    HW233396   0.799   1.798   0.128
10833SOL     OW33397   2.678   0.815   4.519
10833SOL    HW133398   2.579   0.823   4.533
10833SOL    HW233399   2.718   0.906   4.510
10834SOL     OW33400   0.596   1.350   5.351
10834SOL    HW133401   0.506   1.377   5.387
10834SOL    HW233402   0.652   1.316   5.426
10835SOL     OW33403   6.005   2.161   2.195
10835SOL    HW133404   5.958   2.157   2.283
10835SOL    HW233405   6.092   2.208   2.206
10836SOL     OW33406   0.422   1.788   5.226
10836SOL    HW133407   0.323   1.785   5.245
10836SOL    HW233408   0.469   1.832   5.303
10837SOL     OW33409   6.943   4.458   0.272
10837SOL    HW133410   6.979   4.455   0.365
10837SOL    HW233411   6.882   4.380   0.258
10838SOL     OW33412   5.725   6.927   6.826
10838SOL    HW133413   5.761   6.836   6.804
10838SOL    HW233414   5.642   6.919   6.881
10839SOL     OW33415   2.260   1.746   6.903
10839SOL    HW133416   2.195   1.822   6.909
10839SOL    HW233417   2.348   1.774   6.942
10840SOL     OW33418   3.623   5.756   1.592
10840SOL    HW133419   3.584   5.673   1.552
10840SOL    HW233420   3.655   5.816   1.519
10841SOL     OW33421   4.237   5.897   6.175
10841SOL    HW133422   4.291   5.966   6.127
10841SOL    HW233423   4.279   5.877   6.264
10842SOL     OW33424   6.592   2.538   0.778
10842SOL    HW133425   6.571   2.608   0.846
10842SOL    HW233426   6.624   2.583   0.694
10843SOL     OW33427   1.112   1.851   1.762
10843SOL    HW133428   1.130   1.768   1.709
10843SOL    HW233429   1.180   1.859   1.836
10844SOL     OW33430   6.029   6.934   3.770
10844SOL    HW133431   6.114   6.963   3.813
10844SOL    HW233432   6.036   6.839   3.741
10845SOL     OW33433   1.000   1.261   1.669
10845SOL    HW133434   1.021   1.300   1.579
10845SOL    HW233435   1.071   1.288   1.734
10846SOL     OW33436   3.914   2.341   1.074
10846SOL    HW133437   3.883   2.322   0.981
10846SOL    HW233438   3.835   2.349   1.135
10847SOL     OW33439   3.461   2.173   6.088
10847SOL    HW133440   3.390   2.243   6.091
10847SOL    HW233441   3.508   2.176   6.000
10848SOL     OW33442   2.112   0.957   7.003
10848SOL    HW133443   2.045   0.969   6.930
10848SOL    HW233444   2.099   1.028   0.044
10849SOL     OW33445   2.981   5.153   4.442
10849SOL    HW133446   3.010   5.134   4.536
10849SOL    HW233447   3.032   5.232   4.407
10850SOL     OW33448   5.346   6.592   6.924
10850SOL    HW133449   5.387   6.682   6.936
10850SOL    HW233450   5.417   6.526   6.901
10851SOL     OW33451   2.569   2.393   5.897
10851SOL    HW133452   2.569   2.454   5.977
10851SOL    HW233453   2.494   2.420   5.836
10852SOL     OW33454   0.200   1.128   6.523
10852SOL    HW133455   0.125   1.114   6.459
10852SOL    HW233456   0.184   1.212   6.575
10853SOL     OW33457   3.139   1.642   4.661
10853SOL    HW133458   3.237   1.661   4.657
10853SOL    HW233459   3.104   1.666   4.752
10854SOL     OW33460   6.114   0.042   7.004
10854SOL    HW133461   6.064   0.129   7.001
10854SOL    HW233462   6.213   0.061   7.006
10855SOL     OW33463   1.908   6.465   2.552
10855SOL    HW133464   1.910   6.368   2.576
10855SOL    HW233465   1.821   6.505   2.580
10856SOL     OW33466   6.383   6.423   6.872
10856SOL    HW133467   6.391   6.507   6.819
10856SOL    HW233468   6.466   6.408   6.926
10857SOL     OW33469   6.263   2.256   3.740
10857SOL    HW133470   6.215   2.279   3.655
10857SOL    HW233471   6.239   2.324   3.810
10858SOL     OW33472   1.328   3.486   0.063
10858SOL    HW133473   1.320   3.576   0.019
10858SOL    HW233474   1.343   3.416   7.021
10859SOL     OW33475   1.017   4.551   3.223
10859SOL    HW133476   0.972   4.469   3.187
10859SOL    HW233477   1.056   4.531   3.312
10860SOL     OW33478   6.340   1.536   0.103
10860SOL    HW133479   6.282   1.531   0.184
10860SOL    HW233480   6.431   1.499   0.125
10861SOL     OW33481   3.079   2.626   1.745
10861SOL    HW133482   3.177   2.614   1.737
10861SOL    HW233483   3.038   2.547   1.790
10862SOL     OW33484   3.157   2.167   6.002
10862SOL    HW133485   3.200   2.257   5.999
10862SOL    HW233486   3.102   2.158   6.086
10863SOL     OW33487   2.333   0.401   3.501
10863SOL    HW133488   2.394   0.471   3.538
10863SOL    HW233489   2.356   0.383   3.405
10864SOL     OW33490   2.684   4.536   1.496
10864SOL    HW133491   2.647   4.537   1.403
10864SOL    HW233492   2.612   4.508   1.560
10865SOL     OW33493   5.097   2.910   3.394
10865SOL    HW133494   5.193   2.937   3.387
10865SOL    HW233495   5.079   2.875   3.486
10866SOL     OW33496   6.541   3.027   1.490
10866SOL    HW133497   6.597   3.004   1.411
10866SOL    HW233498   6.599   3.066   1.562
10867SOL     OW33499   3.121   2.251   0.386
10867SOL    HW133500   3.194   2.238   0.453
10867SOL    HW233501   3.038   2.281   0.432
10868SOL     OW33502   0.613   2.258   3.632
10868SOL    HW133503   0.567   2.221   3.712
10868SOL    HW233504   0.699   2.208   3.617
10869NA      NA33505   0.151   1.958   5.687
10870NA      NA33506   4.467   4.429   5.251
10871NA      NA33507   1.630   5.361   2.671
10872NA      NA33508   5.333   4.327   3.665
10873NA      NA33509   4.421   2.559   5.167
10874NA      NA33510   2.538   5.189   1.143
10875NA      NA33511   1.197   5.570   0.267
10876NA      NA33512   3.390   3.986   1.411
10877NA      NA33513   4.517   4.605   0.738
10878NA      NA33514   3.466   0.991   6.384
10879NA      NA33515   5.389   6.060   2.194
10880NA      NA33516   1.373   6.696   5.126
10881NA      NA33517   4.440   5.154   2.140
10882NA      NA33518   2.868   3.185   6.997
   7.02793   7.02793   7.02793
