Generated by trjconv : CNT in water t= 414.00000
33518
    1C        C    1   2.841   2.768   4.747
    1C        C    2   2.895   2.716   4.866
    1C        C    3   2.835   2.767   4.982
    1C        C    4   2.844   2.767   4.260
    1C        C    5   2.899   2.724   4.383
    1C        C    6   2.846   2.771   4.505
    1C        C    7   3.016   2.643   4.624
    1C        C    8   2.899   2.723   4.626
    1C        C    9   3.074   2.601   4.746
    1C        C   10   3.006   2.629   4.866
    1C        C   11   3.177   2.486   4.978
    1C        C   12   3.056   2.556   4.975
    1C        C   13   2.847   2.765   3.771
    1C        C   14   2.900   2.718   3.893
    1C        C   15   2.851   2.770   4.014
    1C        C   16   3.017   2.643   4.139
    1C        C   17   2.900   2.723   4.138
    1C        C   18   3.082   2.612   4.260
    1C        C   19   3.015   2.644   4.381
    1C        C   20   3.207   2.552   4.502
    1C        C   21   3.077   2.606   4.502
    1C        C   22   3.276   2.536   4.624
    1C        C   23   3.206   2.546   4.746
    1C        C   24   3.408   2.482   4.863
    1C        C   25   3.266   2.498   4.866
    1C        C   26   3.484   2.477   4.980
    1C        C   27   2.842   2.762   3.282
    1C        C   28   2.899   2.716   3.403
    1C        C   29   2.846   2.761   3.527
    1C        C   30   3.014   2.635   3.650
    1C        C   31   2.898   2.714   3.649
    1C        C   32   3.075   2.597   3.773
    1C        C   33   3.013   2.633   3.895
    1C        C   34   3.210   2.556   4.014
    1C        C   35   3.077   2.603   4.017
    1C        C   36   3.278   2.535   4.136
    1C        C   37   3.212   2.557   4.259
    1C        C   38   3.415   2.502   4.383
    1C        C   39   3.277   2.531   4.381
    1C        C   40   3.487   2.499   4.504
    1C        C   41   3.414   2.508   4.625
    1C        C   42   3.628   2.482   4.744
    1C        C   43   3.486   2.482   4.744
    1C        C   44   3.703   2.480   4.864
    1C        C   45   3.623   2.474   4.980
    1C        C   46   2.831   2.751   2.793
    1C        C   47   2.889   2.709   2.915
    1C        C   48   2.844   2.761   3.038
    1C        C   49   3.013   2.635   3.160
    1C        C   50   2.894   2.711   3.160
    1C        C   51   3.080   2.607   3.281
    1C        C   52   3.015   2.637   3.404
    1C        C   53   3.205   2.547   3.524
    1C        C   54   3.076   2.604   3.527
    1C        C   55   3.273   2.526   3.646
    1C        C   56   3.206   2.544   3.769
    1C        C   57   3.413   2.500   3.894
    1C        C   58   3.275   2.529   3.891
    1C        C   59   3.486   2.500   4.015
    1C        C   60   3.416   2.505   4.138
    1C        C   61   3.627   2.500   4.259
    1C        C   62   3.486   2.491   4.260
    1C        C   63   3.701   2.505   4.379
    1C        C   64   3.628   2.502   4.500
    1C        C   65   3.835   2.537   4.623
    1C        C   66   3.698   2.503   4.623
    1C        C   67   3.902   2.559   4.746
    1C        C   68   3.836   2.525   4.866
    1C        C   69   4.049   2.587   4.978
    1C        C   70   3.921   2.531   4.978
    1C        C   71   2.825   2.736   2.305
    1C        C   72   2.883   2.694   2.427
    1C        C   73   2.830   2.743   2.549
    1C        C   74   3.003   2.625   2.671
    1C        C   75   2.884   2.701   2.672
    1C        C   76   3.071   2.599   2.792
    1C        C   77   3.009   2.635   2.914
    1C        C   78   3.204   2.548   3.036
    1C        C   79   3.073   2.603   3.036
    1C        C   80   3.276   2.531   3.156
    1C        C   81   3.209   2.549   3.279
    1C        C   82   3.412   2.499   3.401
    1C        C   83   3.273   2.523   3.402
    1C        C   84   3.480   2.494   3.525
    1C        C   85   3.412   2.502   3.649
    1C        C   86   3.623   2.494   3.769
    1C        C   87   3.482   2.493   3.771
    1C        C   88   3.696   2.506   3.889
    1C        C   89   3.627   2.503   4.013
    1C        C   90   3.832   2.546   4.133
    1C        C   91   3.695   2.514   4.136
    1C        C   92   3.900   2.567   4.255
    1C        C   93   3.837   2.543   4.379
    1C        C   94   4.024   2.634   4.500
    1C        C   95   3.904   2.561   4.502
    1C        C   96   4.084   2.673   4.621
    1C        C   97   4.027   2.627   4.742
    1C        C   98   4.191   2.763   4.863
    1C        C   99   4.099   2.653   4.861
    1C        C  100   4.208   2.843   4.976
    1C        C  101   2.820   2.729   2.066
    1C        C  102   2.988   2.591   2.185
    1C        C  103   2.877   2.681   2.185
    1C        C  104   3.059   2.573   2.307
    1C        C  105   3.004   2.621   2.427
    1C        C  106   3.196   2.535   2.546
    1C        C  107   3.065   2.587   2.550
    1C        C  108   3.268   2.526   2.667
    1C        C  109   3.203   2.549   2.791
    1C        C  110   3.407   2.498   2.912
    1C        C  111   3.268   2.523   2.913
    1C        C  112   3.482   2.493   3.032
    1C        C  113   3.413   2.499   3.155
    1C        C  114   3.623   2.500   3.277
    1C        C  115   3.482   2.494   3.278
    1C        C  116   3.691   2.507   3.401
    1C        C  117   3.621   2.500   3.523
    1C        C  118   3.827   2.544   3.645
    1C        C  119   3.692   2.504   3.646
    1C        C  120   3.896   2.567   3.766
    1C        C  121   3.833   2.542   3.889
    1C        C  122   4.022   2.640   4.010
    1C        C  123   3.899   2.572   4.011
    1C        C  124   4.083   2.673   4.134
    1C        C  125   4.026   2.633   4.256
    1C        C  126   4.194   2.762   4.377
    1C        C  127   4.087   2.670   4.378
    1C        C  128   4.241   2.817   4.499
    1C        C  129   4.195   2.761   4.620
    1C        C  130   4.327   2.929   4.742
    1C        C  131   4.246   2.812   4.741
    1C        C  132   4.354   3.002   4.860
    1C        C  133   4.285   2.959   4.975
    1C        C  134   3.172   2.464   2.080
    1C        C  135   3.040   2.512   2.078
    1C        C  136   3.260   2.480   2.188
    1C        C  137   3.191   2.517   2.305
    1C        C  138   3.401   2.477   2.426
    1C        C  139   3.262   2.500   2.426
    1C        C  140   3.476   2.479   2.546
    1C        C  141   3.405   2.494   2.667
    1C        C  142   3.617   2.500   2.787
    1C        C  143   3.477   2.491   2.789
    1C        C  144   3.691   2.500   2.907
    1C        C  145   3.624   2.490   3.031
    1C        C  146   3.829   2.536   3.155
    1C        C  147   3.692   2.502   3.154
    1C        C  148   3.898   2.558   3.277
    1C        C  149   3.828   2.540   3.399
    1C        C  150   4.023   2.623   3.522
    1C        C  151   3.893   2.567   3.521
    1C        C  152   4.082   2.664   3.643
    1C        C  153   4.021   2.633   3.767
    1C        C  154   4.195   2.760   3.886
    1C        C  155   4.081   2.677   3.887
    1C        C  156   4.249   2.803   4.009
    1C        C  157   4.197   2.756   4.132
    1C        C  158   4.339   2.915   4.251
    1C        C  159   4.248   2.806   4.254
    1C        C  160   4.378   2.973   4.374
    1C        C  161   4.333   2.924   4.499
    1C        C  162   4.436   3.111   4.613
    1C        C  163   4.369   2.987   4.620
    1C        C  164   4.460   3.180   4.733
    1C        C  165   4.433   3.118   4.857
    1C        C  166   4.515   3.320   4.969
    1C        C  167   4.480   3.186   4.971
    1C        C  168   3.480   2.440   2.072
    1C        C  169   3.399   2.460   2.185
    1C        C  170   3.615   2.462   2.306
    1C        C  171   3.473   2.462   2.305
    1C        C  172   3.690   2.484   2.424
    1C        C  173   3.617   2.481   2.545
    1C        C  174   3.824   2.541   2.665
    1C        C  175   3.689   2.498   2.665
    1C        C  176   3.891   2.564   2.787
    1C        C  177   3.827   2.537   2.910
    1C        C  178   4.024   2.617   3.032
    1C        C  179   3.894   2.562   3.032
    1C        C  180   4.084   2.658   3.153
    1C        C  181   4.023   2.624   3.276
    1C        C  182   4.196   2.742   3.399
    1C        C  183   4.084   2.656   3.399
    1C        C  184   4.249   2.794   3.518
    1C        C  185   4.194   2.751   3.641
    1C        C  186   4.341   2.908   3.763
    1C        C  187   4.245   2.804   3.761
    1C        C  188   4.380   2.969   3.885
    1C        C  189   4.342   2.910   4.007
    1C        C  190   4.441   3.098   4.126
    1C        C  191   4.380   2.971   4.128
    1C        C  192   4.461   3.165   4.248
    1C        C  193   4.435   3.102   4.372
    1C        C  194   4.496   3.312   4.486
    1C        C  195   4.463   3.175   4.490
    1C        C  196   4.515   3.384   4.606
    1C        C  197   4.501   3.316   4.730
    1C        C  198   4.548   3.532   4.848
    1C        C  199   4.525   3.391   4.849
    1C        C  200   4.585   3.614   4.959
    1C        C  201   3.619   2.420   2.070
    1C        C  202   3.825   2.508   2.179
    1C        C  203   3.693   2.455   2.187
    1C        C  204   3.893   2.543   2.299
    1C        C  205   3.826   2.522   2.422
    1C        C  206   4.021   2.612   2.541
    1C        C  207   3.894   2.550   2.542
    1C        C  208   4.081   2.651   2.662
    1C        C  209   4.020   2.621   2.786
    1C        C  210   4.192   2.742   2.907
    1C        C  211   4.083   2.652   2.909
    1C        C  212   4.245   2.791   3.029
    1C        C  213   4.199   2.741   3.152
    1C        C  214   4.334   2.900   3.271
    1C        C  215   4.248   2.788   3.276
    1C        C  216   4.371   2.964   3.392
    1C        C  217   4.335   2.907   3.517
    1C        C  218   4.427   3.097   3.637
    1C        C  219   4.373   2.967   3.639
    1C        C  220   4.456   3.164   3.758
    1C        C  221   4.438   3.097   3.882
    1C        C  222   4.499   3.302   4.000
    1C        C  223   4.467   3.164   4.003
    1C        C  224   4.509   3.373   4.122
    1C        C  225   4.497   3.302   4.243
    1C        C  226   4.506   3.519   4.363
    1C        C  227   4.508   3.378   4.362
    1C        C  228   4.512   3.595   4.482
    1C        C  229   4.522   3.525   4.604
    1C        C  230   4.500   3.738   4.722
    1C        C  231   4.530   3.599   4.724
    1C        C  232   4.494   3.814   4.841
    1C        C  233   4.544   3.748   4.954
    1C        C  234   4.018   2.605   2.059
    1C        C  235   3.896   2.539   2.061
    1C        C  236   4.083   2.644   2.177
    1C        C  237   4.020   2.606   2.297
    1C        C  238   4.195   2.731   2.420
    1C        C  239   4.082   2.645   2.418
    1C        C  240   4.249   2.781   2.541
    1C        C  241   4.191   2.740   2.663
    1C        C  242   4.333   2.898   2.783
    1C        C  243   4.245   2.788   2.785
    1C        C  244   4.376   2.956   2.905
    1C        C  245   4.337   2.899   3.029
    1C        C  246   4.438   3.087   3.146
    1C        C  247   4.374   2.961   3.150
    1C        C  248   4.457   3.156   3.268
    1C        C  249   4.428   3.093   3.391
    1C        C  250   4.490   3.296   3.511
    1C        C  251   4.450   3.161   3.513
    1C        C  252   4.501   3.368   3.632
    1C        C  253   4.490   3.301   3.756
    1C        C  254   4.512   3.512   3.875
    1C        C  255   4.507   3.371   3.878
    1C        C  256   4.507   3.585   3.996
    1C        C  257   4.508   3.515   4.119
    1C        C  258   4.478   3.727   4.238
    1C        C  259   4.498   3.587   4.239
    1C        C  260   4.467   3.799   4.359
    1C        C  261   4.485   3.734   4.483
    1C        C  262   4.422   3.940   4.603
    1C        C  263   4.471   3.808   4.603
    1C        C  264   4.394   4.006   4.725
    1C        C  265   4.432   3.941   4.844
    1C        C  266   4.322   4.130   4.960
    1C        C  267   4.392   4.010   4.959
    1C        C  268   4.263   2.771   2.062
    1C        C  269   4.197   2.727   2.178
    1C        C  270   4.343   2.884   2.296
    1C        C  271   4.253   2.775   2.299
    1C        C  272   4.379   2.946   2.418
    1C        C  273   4.339   2.890   2.541
    1C        C  274   4.443   3.079   2.661
    1C        C  275   4.376   2.955   2.661
    1C        C  276   4.473   3.147   2.781
    1C        C  277   4.441   3.081   2.902
    1C        C  278   4.503   3.285   3.021
    1C        C  279   4.469   3.148   3.023
    1C        C  280   4.505   3.360   3.141
    1C        C  281   4.491   3.293   3.264
    1C        C  282   4.505   3.504   3.384
    1C        C  283   4.501   3.363   3.387
    1C        C  284   4.498   3.575   3.506
    1C        C  285   4.501   3.510   3.631
    1C        C  286   4.482   3.722   3.749
    1C        C  287   4.504   3.583   3.752
    1C        C  288   4.466   3.791   3.871
    1C        C  289   4.483   3.724   3.995
    1C        C  290   4.413   3.927   4.115
    1C        C  291   4.463   3.795   4.115
    1C        C  292   4.389   3.996   4.236
    1C        C  293   4.420   3.932   4.358
    1C        C  294   4.322   4.123   4.477
    1C        C  295   4.390   3.999   4.479
    1C        C  296   4.281   4.184   4.598
    1C        C  297   4.321   4.128   4.722
    1C        C  298   4.194   4.308   4.836
    1C        C  299   4.279   4.192   4.841
    1C        C  300   4.169   4.401   4.941
    1C        C  301   4.348   2.881   2.061
    1C        C  302   4.469   3.066   2.176
    1C        C  303   4.398   2.941   2.178
    1C        C  304   4.476   3.139   2.297
    1C        C  305   4.448   3.070   2.417
    1C        C  306   4.500   3.280   2.536
    1C        C  307   4.470   3.142   2.537
    1C        C  308   4.508   3.354   2.656
    1C        C  309   4.500   3.286   2.779
    1C        C  310   4.520   3.498   2.896
    1C        C  311   4.516   3.357   2.900
    1C        C  312   4.511   3.572   3.017
    1C        C  313   4.508   3.501   3.139
    1C        C  314   4.480   3.712   3.261
    1C        C  315   4.503   3.572   3.261
    1C        C  316   4.462   3.782   3.382
    1C        C  317   4.477   3.715   3.505
    1C        C  318   4.423   3.923   3.625
    1C        C  319   4.463   3.788   3.625
    1C        C  320   4.397   3.990   3.747
    1C        C  321   4.415   3.923   3.870
    1C        C  322   4.311   4.109   3.992
    1C        C  323   4.386   3.989   3.991
    1C        C  324   4.274   4.173   4.112
    1C        C  325   4.323   4.121   4.234
    1C        C  326   4.188   4.287   4.353
    1C        C  327   4.281   4.181   4.355
    1C        C  328   4.133   4.337   4.473
    1C        C  329   4.184   4.287   4.595
    1C        C  330   4.020   4.430   4.711
    1C        C  331   4.131   4.341   4.713
    1C        C  332   3.966   4.486   4.829
    1C        C  333   4.048   4.472   4.942
    1C        C  334   4.546   3.263   2.064
    1C        C  335   4.531   3.123   2.061
    1C        C  336   4.534   3.348   2.175
    1C        C  337   4.512   3.277   2.294
    1C        C  338   4.522   3.491   2.409
    1C        C  339   4.514   3.351   2.415
    1C        C  340   4.522   3.564   2.530
    1C        C  341   4.517   3.495   2.653
    1C        C  342   4.483   3.707   2.771
    1C        C  343   4.509   3.568   2.774
    1C        C  344   4.466   3.778   2.892
    1C        C  345   4.483   3.710   3.014
    1C        C  346   4.413   3.910   3.137
    1C        C  347   4.460   3.777   3.137
    1C        C  348   4.384   3.977   3.257
    1C        C  349   4.420   3.917   3.380
    1C        C  350   4.320   4.105   3.501
    1C        C  351   4.393   3.984   3.502
    1C        C  352   4.273   4.162   3.621
    1C        C  353   4.320   4.109   3.743
    1C        C  354   4.183   4.269   3.864
    1C        C  355   4.275   4.162   3.866
    1C        C  356   4.131   4.326   3.983
    1C        C  357   4.179   4.277   4.107
    1C        C  358   4.012   4.404   4.228
    1C        C  359   4.133   4.331   4.230
    1C        C  360   3.952   4.448   4.348
    1C        C  361   4.016   4.416   4.470
    1C        C  362   3.827   4.519   4.589
    1C        C  363   3.957   4.463   4.590
    1C        C  364   3.760   4.548   4.711
    1C        C  365   3.836   4.542   4.830
    1C        C  366   3.628   4.588   4.943
    1C        C  367   3.766   4.571   4.947
    1C        C  368   4.509   3.562   2.051
    1C        C  369   4.522   3.488   2.170
    1C        C  370   4.501   3.705   2.284
    1C        C  371   4.521   3.565   2.288
    1C        C  372   4.478   3.773   2.405
    1C        C  373   4.494   3.703   2.527
    1C        C  374   4.420   3.905   2.646
    1C        C  375   4.471   3.773   2.647
    1C        C  376   4.384   3.968   2.768
    1C        C  377   4.416   3.911   2.893
    1C        C  378   4.317   4.099   3.010
    1C        C  379   4.389   3.977   3.015
    1C        C  380   4.267   4.151   3.131
    1C        C  381   4.308   4.096   3.254
    1C        C  382   4.176   4.258   3.376
    1C        C  383   4.274   4.156   3.377
    1C        C  384   4.124   4.312   3.496
    1C        C  385   4.177   4.266   3.619
    1C        C  386   4.011   4.395   3.740
    1C        C  387   4.125   4.311   3.742
    1C        C  388   3.949   4.434   3.861
    1C        C  389   4.012   4.401   3.983
    1C        C  390   3.818   4.486   4.106
    1C        C  391   3.950   4.436   4.105
    1C        C  392   3.751   4.510   4.227
    1C        C  393   3.820   4.498   4.349
    1C        C  394   3.614   4.553   4.472
    1C        C  395   3.753   4.530   4.469
    1C        C  396   3.543   4.559   4.594
    1C        C  397   3.620   4.561   4.712
    1C        C  398   3.406   4.547   4.835
    1C        C  399   3.545   4.571   4.831
    1C        C  400   3.339   4.508   4.952
    1C        C  401   4.501   3.701   2.051
    1C        C  402   4.453   3.917   2.167
    1C        C  403   4.487   3.781   2.165
    1C        C  404   4.408   3.977   2.287
    1C        C  405   4.428   3.905   2.406
    1C        C  406   4.320   4.093   2.522
    1C        C  407   4.395   3.974   2.525
    1C        C  408   4.272   4.146   2.644
    1C        C  409   4.311   4.089   2.768
    1C        C  410   4.171   4.251   2.887
    1C        C  411   4.273   4.154   2.887
    1C        C  412   4.120   4.301   3.008
    1C        C  413   4.168   4.252   3.132
    1C        C  414   4.001   4.380   3.252
    1C        C  415   4.118   4.301   3.254
    1C        C  416   3.940   4.416   3.374
    1C        C  417   4.006   4.389   3.496
    1C        C  418   3.816   4.478   3.618
    1C        C  419   3.948   4.429   3.619
    1C        C  420   3.748   4.504   3.740
    1C        C  421   3.817   4.484   3.861
    1C        C  422   3.611   4.535   3.982
    1C        C  423   3.749   4.504   3.984
    1C        C  424   3.542   4.542   4.105
    1C        C  425   3.613   4.540   4.227
    1C        C  426   3.402   4.543   4.352
    1C        C  427   3.543   4.556   4.349
    1C        C  428   3.330   4.537   4.474
    1C        C  429   3.402   4.550   4.595
    1C        C  430   3.192   4.508   4.722
    1C        C  431   3.330   4.540   4.716
    1C        C  432   3.122   4.487   4.844
    1C        C  433   3.201   4.489   4.959
    1C        C  434   4.385   4.124   2.051
    1C        C  435   4.446   3.998   2.052
    1C        C  436   4.301   4.164   2.160
    1C        C  437   4.329   4.095   2.281
    1C        C  438   4.180   4.252   2.399
    1C        C  439   4.278   4.151   2.400
    1C        C  440   4.123   4.296   2.521
    1C        C  441   4.175   4.248   2.643
    1C        C  442   4.009   4.384   2.763
    1C        C  443   4.124   4.302   2.764
    1C        C  444   3.943   4.416   2.884
    1C        C  445   4.001   4.378   3.007
    1C        C  446   3.811   4.469   3.129
    1C        C  447   3.942   4.417   3.129
    1C        C  448   3.743   4.491   3.251
    1C        C  449   3.810   4.473   3.374
    1C        C  450   3.605   4.516   3.497
    1C        C  451   3.744   4.493   3.497
    1C        C  452   3.537   4.534   3.620
    1C        C  453   3.610   4.534   3.741
    1C        C  454   3.397   4.539   3.862
    1C        C  455   3.538   4.547   3.862
    1C        C  456   3.331   4.526   3.986
    1C        C  457   3.401   4.535   4.109
    1C        C  458   3.192   4.503   4.234
    1C        C  459   3.330   4.532   4.231
    1C        C  460   3.125   4.480   4.356
    1C        C  461   3.193   4.504   4.478
    1C        C  462   2.993   4.435   4.599
    1C        C  463   3.123   4.490   4.600
    1C        C  464   2.927   4.401   4.719
    1C        C  465   2.986   4.441   4.842
    1C        C  466   2.795   4.333   4.958
    1C        C  467   2.902   4.423   4.957
    1C        C  468   4.121   4.286   2.040
    1C        C  469   4.186   4.249   2.159
    1C        C  470   4.005   4.376   2.278
    1C        C  471   4.126   4.300   2.278
    1C        C  472   3.940   4.405   2.399
    1C        C  473   4.004   4.372   2.521
    1C        C  474   3.810   4.463   2.642
    1C        C  475   3.941   4.410   2.642
    1C        C  476   3.741   4.484   2.764
    1C        C  477   3.811   4.466   2.885
    1C        C  478   3.605   4.520   3.008
    1C        C  479   3.744   4.492   3.006
    1C        C  480   3.535   4.526   3.130
    1C        C  481   3.605   4.519   3.253
    1C        C  482   3.393   4.530   3.376
    1C        C  483   3.535   4.527   3.375
    1C        C  484   3.323   4.529   3.498
    1C        C  485   3.396   4.545   3.618
    1C        C  486   3.189   4.502   3.744
    1C        C  487   3.326   4.537   3.740
    1C        C  488   3.125   4.474   3.867
    1C        C  489   3.193   4.493   3.989
    1C        C  490   3.002   4.409   4.112
    1C        C  491   3.126   4.476   4.112
    1C        C  492   2.943   4.374   4.235
    1C        C  493   3.000   4.415   4.358
    1C        C  494   2.822   4.303   4.480
    1C        C  495   2.934   4.388   4.480
    1C        C  496   2.768   4.255   4.602
    1C        C  497   2.814   4.314   4.721
    1C        C  498   2.661   4.163   4.843
    1C        C  499   2.748   4.274   4.840
    1C        C  500   2.593   4.116   4.956
    1C        C  501   4.002   4.358   2.038
    1C        C  502   3.812   4.461   2.152
    1C        C  503   3.941   4.403   2.155
    1C        C  504   3.743   4.475   2.274
    1C        C  505   3.807   4.453   2.398
    1C        C  506   3.602   4.502   2.518
    1C        C  507   3.740   4.476   2.520
    1C        C  508   3.533   4.511   2.641
    1C        C  509   3.602   4.508   2.764
    1C        C  510   3.393   4.526   2.886
    1C        C  511   3.534   4.527   2.886
    1C        C  512   3.322   4.522   3.008
    1C        C  513   3.394   4.527   3.129
    1C        C  514   3.187   4.490   3.254
    1C        C  515   3.325   4.522   3.252
    1C        C  516   3.121   4.469   3.377
    1C        C  517   3.186   4.494   3.500
    1C        C  518   2.995   4.407   3.623
    1C        C  519   3.121   4.471   3.624
    1C        C  520   2.936   4.371   3.746
    1C        C  521   3.001   4.406   3.867
    1C        C  522   2.829   4.285   3.993
    1C        C  523   2.942   4.370   3.990
    1C        C  524   2.777   4.237   4.116
    1C        C  525   2.833   4.285   4.236
    1C        C  526   2.689   4.134   4.363
    1C        C  527   2.779   4.242   4.360
    1C        C  528   2.647   4.075   4.485
    1C        C  529   2.684   4.142   4.604
    1C        C  530   2.575   3.960   4.728
    1C        C  531   2.636   4.088   4.726
    1C        C  532   2.534   3.901   4.851
    1C        C  533   2.526   3.993   4.959
    1C        C  534   3.616   4.559   2.039
    1C        C  535   3.747   4.510   2.038
    1C        C  536   3.535   4.527   2.153
    1C        C  537   3.603   4.501   2.275
    1C        C  538   3.389   4.515   2.399
    1C        C  539   3.530   4.509   2.396
    1C        C  540   3.320   4.505   2.521
    1C        C  541   3.391   4.507   2.643
    1C        C  542   3.183   4.480   2.766
    1C        C  543   3.321   4.508   2.765
    1C        C  544   3.117   4.460   2.890
    1C        C  545   3.185   4.487   3.010
    1C        C  546   2.994   4.399   3.134
    1C        C  547   3.117   4.469   3.133
    1C        C  548   2.936   4.364   3.257
    1C        C  549   2.994   4.407   3.379
    1C        C  550   2.824   4.281   3.501
    1C        C  551   2.934   4.370   3.502
    1C        C  552   2.776   4.232   3.624
    1C        C  553   2.827   4.282   3.747
    1C        C  554   2.694   4.122   3.874
    1C        C  555   2.779   4.235   3.871
    1C        C  556   2.656   4.063   3.996
    1C        C  557   2.692   4.124   4.118
    1C        C  558   2.595   3.941   4.245
    1C        C  559   2.653   4.070   4.242
    1C        C  560   2.563   3.876   4.366
    1C        C  561   2.584   3.948   4.485
    1C        C  562   2.534   3.747   4.613
    1C        C  563   2.557   3.886   4.609
    1C        C  564   2.518   3.679   4.736
    1C        C  565   2.514   3.759   4.854
    1C        C  566   2.520   3.544   4.974
    1C        C  567   2.520   3.683   4.972
    1C        C  568   3.324   4.470   2.042
    1C        C  569   3.394   4.509   2.157
    1C        C  570   3.180   4.472   2.278
    1C        C  571   3.318   4.505   2.277
    1C        C  572   3.112   4.454   2.400
    1C        C  573   3.182   4.474   2.521
    1C        C  574   2.985   4.402   2.646
    1C        C  575   3.114   4.460   2.644
    1C        C  576   2.925   4.364   2.768
    1C        C  577   2.990   4.399   2.889
    1C        C  578   2.820   4.276   3.013
    1C        C  579   2.932   4.362   3.012
    1C        C  580   2.779   4.222   3.137
    1C        C  581   2.825   4.276   3.258
    1C        C  582   2.694   4.111   3.382
    1C        C  583   2.774   4.227   3.380
    1C        C  584   2.658   4.054   3.507
    1C        C  585   2.697   4.115   3.628
    1C        C  586   2.597   3.933   3.753
    1C        C  587   2.657   4.061   3.752
    1C        C  588   2.578   3.869   3.877
    1C        C  589   2.601   3.933   4.001
    1C        C  590   2.539   3.733   4.124
    1C        C  591   2.576   3.870   4.125
    1C        C  592   2.522   3.668   4.248
    1C        C  593   2.529   3.739   4.370
    1C        C  594   2.511   3.531   4.495
    1C        C  595   2.521   3.672   4.494
    1C        C  596   2.509   3.462   4.619
    1C        C  597   2.506   3.537   4.738
    1C        C  598   2.523   3.324   4.859
    1C        C  599   2.509   3.465   4.859
    1C        C  600   2.523   3.245   4.975
    1C        C  601   3.190   4.438   2.038
    1C        C  602   2.981   4.393   2.158
    1C        C  603   3.113   4.446   2.155
    1C        C  604   2.920   4.358   2.282
    1C        C  605   2.982   4.399   2.402
    1C        C  606   2.814   4.276   2.526
    1C        C  607   2.920   4.368   2.525
    1C        C  608   2.766   4.222   2.648
    1C        C  609   2.819   4.271   2.770
    1C        C  610   2.679   4.113   2.894
    1C        C  611   2.767   4.223   2.893
    1C        C  612   2.648   4.051   3.017
    1C        C  613   2.694   4.109   3.137
    1C        C  614   2.593   3.924   3.263
    1C        C  615   2.654   4.052   3.260
    1C        C  616   2.573   3.860   3.387
    1C        C  617   2.601   3.925   3.510
    1C        C  618   2.536   3.727   3.636
    1C        C  619   2.568   3.864   3.633
    1C        C  620   2.520   3.661   3.760
    1C        C  621   2.536   3.734   3.880
    1C        C  622   2.511   3.523   4.008
    1C        C  623   2.526   3.664   4.002
    1C        C  624   2.516   3.454   4.131
    1C        C  625   2.511   3.527   4.252
    1C        C  626   2.535   3.317   4.375
    1C        C  627   2.514   3.457   4.375
    1C        C  628   2.552   3.250   4.499
    1C        C  629   2.528   3.322   4.618
    1C        C  630   2.594   3.119   4.740
    1C        C  631   2.544   3.252   4.740
    1C        C  632   2.611   3.046   4.861
    1C        C  633   2.561   3.110   4.978
    1C        C  634   2.780   4.302   2.049
    1C        C  635   2.887   4.392   2.050
    1C        C  636   2.750   4.228   2.165
    1C        C  637   2.808   4.270   2.286
    1C        C  638   2.669   4.112   2.408
    1C        C  639   2.757   4.222   2.409
    1C        C  640   2.641   4.048   2.530
    1C        C  641   2.680   4.110   2.651
    1C        C  642   2.583   3.922   2.778
    1C        C  643   2.640   4.052   2.773
    1C        C  644   2.562   3.854   2.899
    1C        C  645   2.590   3.922   3.019
    1C        C  646   2.533   3.719   3.147
    1C        C  647   2.568   3.856   3.142
    1C        C  648   2.522   3.652   3.270
    1C        C  649   2.533   3.725   3.391
    1C        C  650   2.517   3.514   3.516
    1C        C  651   2.525   3.656   3.514
    1C        C  652   2.518   3.449   3.642
    1C        C  653   2.516   3.520   3.764
    1C        C  654   2.538   3.311   3.888
    1C        C  655   2.515   3.450   3.887
    1C        C  656   2.554   3.245   4.012
    1C        C  657   2.531   3.314   4.133
    1C        C  658   2.607   3.116   4.256
    1C        C  659   2.548   3.244   4.255
    1C        C  660   2.634   3.052   4.379
    1C        C  661   2.605   3.119   4.500
    1C        C  662   2.709   2.935   4.623
    1C        C  663   2.630   3.052   4.622
    1C        C  664   2.750   2.877   4.745
    1C        C  665   2.694   2.929   4.865
    1C        C  666   2.741   2.870   4.983
    1C        C  667   2.677   4.022   2.053
    1C        C  668   2.686   4.103   2.168
    1C        C  669   2.588   3.912   2.291
    1C        C  670   2.638   4.045   2.287
    1C        C  671   2.558   3.849   2.413
    1C        C  672   2.579   3.921   2.533
    1C        C  673   2.518   3.720   2.657
    1C        C  674   2.551   3.857   2.656
    1C        C  675   2.511   3.647   2.778
    1C        C  676   2.530   3.716   2.900
    1C        C  677   2.507   3.509   3.029
    1C        C  678   2.519   3.650   3.024
    1C        C  679   2.508   3.438   3.151
    1C        C  680   2.509   3.511   3.272
    1C        C  681   2.527   3.302   3.400
    1C        C  682   2.510   3.442   3.395
    1C        C  683   2.551   3.238   3.524
    1C        C  684   2.539   3.310   3.645
    1C        C  685   2.601   3.108   3.769
    1C        C  686   2.548   3.239   3.767
    1C        C  687   2.633   3.045   3.891
    1C        C  688   2.605   3.113   4.012
    1C        C  689   2.705   2.926   4.136
    1C        C  690   2.635   3.049   4.134
    1C        C  691   2.748   2.871   4.259
    1C        C  692   2.707   2.931   4.380
    1C        C  693   2.756   2.880   4.502
    1C        C  694   2.624   3.893   2.055
    1C        C  695   2.527   3.702   2.173
    1C        C  696   2.577   3.834   2.173
    1C        C  697   2.511   3.637   2.298
    1C        C  698   2.515   3.714   2.416
    1C        C  699   2.494   3.504   2.539
    1C        C  700   2.502   3.645   2.539
    1C        C  701   2.504   3.434   2.662
    1C        C  702   2.507   3.506   2.783
    1C        C  703   2.524   3.297   2.908
    1C        C  704   2.506   3.437   2.907
    1C        C  705   2.542   3.231   3.032
    1C        C  706   2.526   3.298   3.155
    1C        C  707   2.595   3.101   3.278
    1C        C  708   2.546   3.233   3.279
    1C        C  709   2.632   3.042   3.402
    1C        C  710   2.602   3.106   3.524
    1C        C  711   2.707   2.924   3.647
    1C        C  712   2.630   3.042   3.647
    1C        C  713   2.754   2.872   3.770
    1C        C  714   2.714   2.930   3.893
    1C        C  715   2.753   2.872   4.015
    1C        C  716   2.453   3.498   2.059
    1C        C  717   2.484   3.634   2.059
    1C        C  718   2.472   3.420   2.178
    1C        C  719   2.487   3.497   2.297
    1C        C  720   2.511   3.288   2.422
    1C        C  721   2.492   3.428   2.420
    1C        C  722   2.532   3.221   2.545
    1C        C  723   2.521   3.294   2.665
    1C        C  724   2.583   3.092   2.790
    1C        C  725   2.537   3.225   2.787
    1C        C  726   2.616   3.028   2.911
    1C        C  727   2.592   3.099   3.031
    1C        C  728   2.704   2.922   3.158
    1C        C  729   2.625   3.039   3.155
    1C        C  730   2.751   2.869   3.281
    1C        C  731   2.707   2.922   3.404
    1C        C  732   2.750   2.865   3.526
    1C        C  733   2.485   3.193   2.071
    1C        C  734   2.488   3.278   2.182
    1C        C  735   2.580   3.082   2.303
    1C        C  736   2.521   3.212   2.303
    1C        C  737   2.613   3.021   2.426
    1C        C  738   2.589   3.092   2.546
    1C        C  739   2.689   2.906   2.668
    1C        C  740   2.615   3.027   2.669
    1C        C  741   2.737   2.857   2.791
    1C        C  742   2.697   2.912   2.914
    1C        C  743   2.747   2.863   3.037
    1C        C  744   2.538   3.064   2.075
    1C        C  745   2.679   2.890   2.183
    1C        C  746   2.607   3.011   2.185
    1C        C  747   2.724   2.837   2.306
    1C        C  748   2.685   2.900   2.427
    1C        C  749   2.732   2.845   2.548
    1C        C  750   2.731   2.835   2.065
    1C        C  751   3.672   2.325   1.970
    1C        O  752   3.724   2.219   2.015
    1C        O  753   3.600   2.284   1.857
    1C        C  754   4.632   3.055   1.977
    1C        O  755   4.606   3.001   1.865
    1C        O  756   4.753   3.010   2.031
    1C        C  757   4.443   4.222   1.956
    1C        O  758   4.487   4.334   1.993
    1C        O  759   4.422   4.214   1.817
    1C        C  760   3.596   4.684   1.962
    1C        O  761   3.641   4.799   1.986
    1C        O  762   3.561   4.676   1.827
    1C        C  763   2.856   4.511   1.968
    1C        O  764   2.844   4.492   1.844
    1C        O  765   2.837   4.639   2.024
    1C        C  766   2.330   3.481   1.979
    1C        O  767   2.343   3.467   1.855
    1C        O  768   2.203   3.460   2.034
    1C        C  769   4.716   3.579   5.020
    1C        O  770   4.716   3.526   5.134
    1C        O  771   4.846   3.617   4.986
    1C        C  772   4.281   4.453   5.022
    1C        O  773   4.305   4.445   5.145
    1C        O  774   4.383   4.526   4.958
    1C        C  775   4.145   2.513   5.063
    1C        O  776   4.164   2.392   5.033
    1C        O  777   4.140   2.526   5.202
    1C        C  778   2.885   4.532   5.056
    1C        O  779   2.802   4.624   5.036
    1C        O  780   2.940   4.522   5.185
    1C        C  781   2.479   3.033   5.075
    1C        O  782   2.367   2.982   5.050
    1C        O  783   2.532   3.015   5.203
    1C        C  784   2.413   4.003   5.056
    1C        O  785   2.290   4.022   5.037
    1C        O  786   2.451   4.014   5.190
    1C        C  787   2.956   2.433   1.985
    1C        O  788   2.924   2.478   1.871
    1C        O  789   2.920   2.299   1.986
    1C        C  790   3.150   2.359   5.048
    1C        O  791   3.082   2.273   4.985
    1C        O  792   3.236   2.295   5.138
    1C        H  793   4.257   3.036   5.044
    1C        H  794   4.138   2.837   5.057
    1C        H  795   4.480   3.132   5.063
    1C        H  796   4.546   3.359   5.064
    1C        H  797   4.587   3.812   5.029
    1C        H  798   4.449   3.991   5.047
    1C        H  799   4.374   4.198   5.024
    1C        H  800   3.997   4.483   5.036
    1C        H  801   3.814   4.628   5.024
    1C        H  802   3.580   4.614   5.036
    1C        H  803   3.398   4.455   5.024
    1C        H  804   3.171   4.418   5.033
    1C        H  805   3.877   2.508   5.073
    1C        H  806   3.676   2.451   5.070
    1C        H  807   2.986   2.534   5.053
    1C        H  808   3.431   2.446   5.068
    1C        H  809   2.820   2.688   5.053
    1C        H  810   2.716   2.914   5.078
    1C        H  811   2.464   3.282   5.057
    1C        H  812   2.564   3.500   5.061
    1C        H  813   2.560   3.733   5.058
    1C        H  814   2.561   4.194   5.022
    1C        H  815   2.728   4.338   5.041
    1C        H  816   2.692   2.868   1.970
    1C        H  817   2.856   2.703   1.969
    1C        H  818   3.198   2.393   2.005
    1C        H  819   3.426   2.425   1.981
    1C        H  820   3.851   2.504   1.971
    1C        H  821   4.083   2.568   1.983
    1C        H  822   4.280   2.698   1.987
    1C        H  823   4.362   2.929   1.966
    1C        H  824   4.587   3.305   1.975
    1C        H  825   4.511   3.507   1.960
    1C        H  826   4.516   3.752   1.958
    1C        H  827   3.799   4.514   1.945
    1C        H  828   3.978   4.402   1.943
    1C        H  829   4.173   4.285   1.947
    1C        H  830   4.466   3.953   1.957
    1C        H  831   2.637   3.834   1.966
    1C        H  832   2.718   4.058   1.962
    1C        H  833   2.694   4.319   1.987
    1C        H  834   3.359   4.516   1.951
    1C        H  835   3.143   4.408   1.946
    1C        H  836   2.483   2.995   2.015
    1C        H  837   2.408   3.210   1.999
    1C        H  838   2.459   3.693   1.973
    2V3OU   H29  839   2.810   3.551   4.712
    2V3OU   C27  840   2.797   3.500   4.811
    2V3OU   H27  841   2.735   3.570   4.873
    2V3OU   H28  842   2.739   3.404   4.801
    2V3OU   O11  843   2.913   3.468   4.887
    2V3OU   C15  844   2.919   3.391   5.001
    2V3OU   C13  845   3.050   3.369   5.049
    2V3OU   C14  846   3.069   3.268   5.144
    2V3OU   C16  847   2.968   3.188   5.196
    2V3OU    H6  848   2.987   3.104   5.264
    2V3OU   C12  849   3.208   3.227   5.175
    2V3OU    O2  850   3.236   3.121   5.235
    2V3OU   C10  851   3.322   3.304   5.125
    2V3OU    C8  852   3.455   3.268   5.147
    2V3OU   O10  853   3.487   3.152   5.210
    2V3OU   H26  854   3.402   3.110   5.227
    2V3OU    C6  855   3.566   3.347   5.105
    2V3OU    C5  856   3.539   3.461   5.031
    2V3OU    C4  857   3.703   3.288   5.109
    2V3OU    H4  858   3.720   3.223   5.200
    2V3OU    H5  859   3.710   3.226   5.016
    2V3OU    C2  860   3.814   3.394   5.112
    2V3OU    O6  861   3.801   3.465   5.236
    2V3OU   H21  862   3.760   3.549   5.209
    2V3OU    C3  863   3.780   3.495   5.001
    2V3OU    H2  864   3.861   3.572   4.994
    2V3OU    H3  865   3.782   3.438   4.905
    2V3OU   C25  866   3.951   3.328   5.096
    2V3OU    O7  867   4.000   3.300   4.987
    2V3OU   C26  868   4.029   3.289   5.221
    2V3OU   H22  869   4.066   3.380   5.276
    2V3OU   H23  870   4.117   3.225   5.193
    2V3OU    O8  871   3.959   3.205   5.311
    2V3OU   H24  872   3.928   3.263   5.382
    2V3OU    C1  873   3.646   3.564   5.010
    2V3OU    H1  874   3.624   3.614   4.911
    2V3OU    O3  875   3.652   3.654   5.121
    2V3OU   C19  876   3.613   3.790   5.103
    2V3OU    H9  877   3.515   3.797   5.048
    2V3OU    O4  878   3.711   3.845   5.018
    2V3OU   C20  879   3.842   3.868   5.071
    2V3OU   H10  880   3.891   3.768   5.086
    2V3OU   C24  881   3.610   3.851   5.244
    2V3OU   H16  882   3.544   3.790   5.311
    2V3OU   H17  883   3.563   3.952   5.230
    2V3OU   C23  884   3.748   3.872   5.307
    2V3OU   H15  885   3.793   3.770   5.331
    2V3OU    N1  886   3.737   3.953   5.426
    2V3OU   H19  887   3.803   3.917   5.492
    2V3OU   H20  888   3.646   3.933   5.462
    2V3OU   C21  889   3.845   3.940   5.206
    2V3OU   H11  890   3.949   3.916   5.242
    2V3OU    O5  891   3.828   4.081   5.192
    2V3OU   H18  892   3.776   4.100   5.272
    2V3OU   C22  893   3.912   3.943   4.959
    2V3OU   H12  894   3.859   4.041   4.942
    2V3OU   H13  895   3.905   3.886   4.863
    2V3OU   H14  896   4.019   3.959   4.987
    2V3OU   C11  897   3.158   3.465   5.022
    2V3OU    O1  898   3.135   3.579   4.975
    2V3OU    C9  899   3.297   3.417   5.042
    2V3OU    C7  900   3.403   3.496   5.002
    2V3OU    O9  901   3.389   3.620   4.942
    2V3OU   H25  902   3.292   3.633   4.937
    2V3OU   C17  903   2.821   3.311   5.063
    2V3OU    H7  904   2.719   3.350   5.062
    2V3OU   C18  905   2.838   3.205   5.152
    2V3OU    H8  906   2.754   3.139   5.180
    3SOL     OW  907   3.658   4.179   4.731
    3SOL    HW1  908   3.746   4.216   4.701
    3SOL    HW2  909   3.666   4.081   4.748
    4SOL     OW  910   6.637   0.145   0.153
    4SOL    HW1  911   6.575   0.114   0.225
    4SOL    HW2  912   6.722   0.092   0.156
    5SOL     OW  913   3.980   1.314   1.184
    5SOL    HW1  914   3.965   1.287   1.089
    5SOL    HW2  915   4.035   1.244   1.230
    6SOL     OW  916   5.397   0.205   2.641
    6SOL    HW1  917   5.408   0.290   2.693
    6SOL    HW2  918   5.439   0.216   2.551
    7SOL     OW  919   1.872   4.497   3.825
    7SOL    HW1  920   1.794   4.472   3.882
    7SOL    HW2  921   1.845   4.499   3.729
    8SOL     OW  922   2.006   3.329   5.630
    8SOL    HW1  923   1.962   3.327   5.540
    8SOL    HW2  924   1.955   3.270   5.693
    9SOL     OW  925   6.288   1.035   6.539
    9SOL    HW1  926   6.193   1.015   6.560
    9SOL    HW2  927   6.347   0.998   6.610
   10SOL     OW  928   4.782   4.929   3.522
   10SOL    HW1  929   4.771   4.845   3.576
   10SOL    HW2  930   4.804   4.905   3.427
   11SOL     OW  931   1.984   1.121   0.584
   11SOL    HW1  932   2.072   1.105   0.540
   11SOL    HW2  933   1.912   1.074   0.533
   12SOL     OW  934   3.378   4.926   3.703
   12SOL    HW1  935   3.385   4.873   3.787
   12SOL    HW2  936   3.282   4.932   3.674
   13SOL     OW  937   4.578   5.820   1.971
   13SOL    HW1  938   4.671   5.806   2.005
   13SOL    HW2  939   4.579   5.885   1.895
   14SOL     OW  940   4.663   4.959   4.953
   14SOL    HW1  941   4.648   5.048   4.909
   14SOL    HW2  942   4.753   4.958   4.997
   15SOL     OW  943   0.428   5.794   5.948
   15SOL    HW1  944   0.404   5.773   6.043
   15SOL    HW2  945   0.451   5.891   5.940
   16SOL     OW  946   0.132   3.185   5.680
   16SOL    HW1  947   0.194   3.162   5.605
   16SOL    HW2  948   0.057   3.119   5.684
   17SOL     OW  949   6.201   1.192   5.075
   17SOL    HW1  950   6.254   1.218   4.994
   17SOL    HW2  951   6.161   1.101   5.061
   18SOL     OW  952   3.521   0.147   5.533
   18SOL    HW1  953   3.514   0.171   5.436
   18SOL    HW2  954   3.616   0.155   5.562
   19SOL     OW  955   1.020   1.413   2.929
   19SOL    HW1  956   0.970   1.405   2.843
   19SOL    HW2  957   1.101   1.471   2.915
   20SOL     OW  958   5.685   2.209   5.000
   20SOL    HW1  959   5.600   2.194   4.950
   20SOL    HW2  960   5.762   2.205   4.936
   21SOL     OW  961   3.167   5.896   2.234
   21SOL    HW1  962   3.234   5.904   2.161
   21SOL    HW2  963   3.206   5.846   2.311
   22SOL     OW  964   2.520   6.632   4.872
   22SOL    HW1  965   2.434   6.581   4.864
   22SOL    HW2  966   2.530   6.665   4.966
   23SOL     OW  967   5.355   4.348   2.378
   23SOL    HW1  968   5.321   4.412   2.309
   23SOL    HW2  969   5.453   4.335   2.366
   24SOL     OW  970   4.280   0.672   1.498
   24SOL    HW1  971   4.369   0.641   1.533
   24SOL    HW2  972   4.294   0.755   1.444
   25SOL     OW  973   2.533   0.147   3.528
   25SOL    HW1  974   2.622   0.165   3.571
   25SOL    HW2  975   2.537   0.062   3.477
   26SOL     OW  976   0.656   2.839   0.146
   26SOL    HW1  977   0.577   2.813   0.090
   26SOL    HW2  978   0.691   2.927   0.116
   27SOL     OW  979   6.028   1.438   1.450
   27SOL    HW1  980   6.016   1.471   1.544
   27SOL    HW2  981   6.125   1.432   1.429
   28SOL     OW  982   2.199   0.457   4.744
   28SOL    HW1  983   2.275   0.518   4.722
   28SOL    HW2  984   2.197   0.382   4.679
   29SOL     OW  985   0.025   0.622   0.376
   29SOL    HW1  986   6.946   0.604   0.385
   29SOL    HW2  987   0.041   0.685   0.299
   30SOL     OW  988   4.237   0.757   4.967
   30SOL    HW1  989   4.158   0.774   5.025
   30SOL    HW2  990   4.206   0.738   4.873
   31SOL     OW  991   1.208   3.104   5.616
   31SOL    HW1  992   1.131   3.061   5.569
   31SOL    HW2  993   1.190   3.201   5.628
   32SOL     OW  994   1.675   0.349   1.458
   32SOL    HW1  995   1.700   0.256   1.431
   32SOL    HW2  996   1.735   0.414   1.412
   33SOL     OW  997   0.340   4.541   5.798
   33SOL    HW1  998   0.325   4.443   5.804
   33SOL    HW2  999   0.432   4.560   5.766
   34SOL     OW 1000   1.709   4.962   5.260
   34SOL    HW1 1001   1.619   4.935   5.294
   34SOL    HW2 1002   1.741   4.894   5.194
   35SOL     OW 1003   3.672   2.650   0.192
   35SOL    HW1 1004   3.654   2.748   0.188
   35SOL    HW2 1005   3.598   2.601   0.146
   36SOL     OW 1006   4.878   0.753   4.052
   36SOL    HW1 1007   4.919   0.718   3.968
   36SOL    HW2 1008   4.875   0.853   4.048
   37SOL     OW 1009   2.061   1.242   3.781
   37SOL    HW1 1010   1.988   1.251   3.713
   37SOL    HW2 1011   2.150   1.241   3.735
   38SOL     OW 1012   1.294   4.629   2.117
   38SOL    HW1 1013   1.252   4.651   2.205
   38SOL    HW2 1014   1.281   4.706   2.055
   39SOL     OW 1015   6.560   5.355   6.611
   39SOL    HW1 1016   6.602   5.269   6.583
   39SOL    HW2 1017   6.630   5.415   6.651
   40SOL     OW 1018   3.482   0.925   6.191
   40SOL    HW1 1019   3.422   0.932   6.111
   40SOL    HW2 1020   3.464   1.001   6.253
   41SOL     OW 1021   6.159   4.062   2.022
   41SOL    HW1 1022   6.170   3.975   2.070
   41SOL    HW2 1023   6.248   4.105   2.009
   42SOL     OW 1024   2.077   5.788   5.425
   42SOL    HW1 1025   2.061   5.882   5.396
   42SOL    HW2 1026   2.157   5.785   5.485
   43SOL     OW 1027   5.204   6.741   4.937
   43SOL    HW1 1028   5.220   6.749   4.839
   43SOL    HW2 1029   5.229   6.650   4.968
   44SOL     OW 1030   6.197   2.364   5.610
   44SOL    HW1 1031   6.199   2.333   5.706
   44SOL    HW2 1032   6.189   2.284   5.550
   45SOL     OW 1033   3.975   4.980   7.005
   45SOL    HW1 1034   3.896   4.918   7.010
   45SOL    HW2 1035   3.994   5.017   0.077
   46SOL     OW 1036   0.605   3.230   4.711
   46SOL    HW1 1037   0.517   3.239   4.757
   46SOL    HW2 1038   0.627   3.315   4.664
   47SOL     OW 1039   5.736   2.828   1.730
   47SOL    HW1 1040   5.670   2.842   1.804
   47SOL    HW2 1041   5.820   2.788   1.767
   48SOL     OW 1042   6.760   3.860   6.995
   48SOL    HW1 1043   6.730   3.777   6.948
   48SOL    HW2 1044   6.699   3.879   0.053
   49SOL     OW 1045   4.581   3.191   6.842
   49SOL    HW1 1046   4.571   3.161   6.937
   49SOL    HW2 1047   4.545   3.284   6.832
   50SOL     OW 1048   6.148   3.185   6.319
   50SOL    HW1 1049   6.186   3.198   6.411
   50SOL    HW2 1050   6.125   3.274   6.279
   51SOL     OW 1051   2.272   5.147   3.386
   51SOL    HW1 1052   2.173   5.159   3.395
   51SOL    HW2 1053   2.291   5.064   3.335
   52SOL     OW 1054   5.883   2.783   1.487
   52SOL    HW1 1055   5.826   2.754   1.410
   52SOL    HW2 1056   5.846   2.744   1.572
   53SOL     OW 1057   3.893   0.566   2.853
   53SOL    HW1 1058   3.972   0.507   2.869
   53SOL    HW2 1059   3.811   0.520   2.888
   54SOL     OW 1060   5.187   6.608   6.745
   54SOL    HW1 1061   5.124   6.678   6.778
   54SOL    HW2 1062   5.216   6.631   6.651
   55SOL     OW 1063   1.651   3.075   6.293
   55SOL    HW1 1064   1.689   3.083   6.200
   55SOL    HW2 1065   1.567   3.129   6.299
   56SOL     OW 1066   1.664   2.440   6.930
   56SOL    HW1 1067   1.662   2.537   6.954
   56SOL    HW2 1068   1.754   2.416   6.894
   57SOL     OW 1069   4.360   0.739   0.144
   57SOL    HW1 1070   4.262   0.755   0.149
   57SOL    HW2 1071   4.384   0.662   0.203
   58SOL     OW 1072   0.843   1.052   6.386
   58SOL    HW1 1073   0.897   1.128   6.423
   58SOL    HW2 1074   0.832   0.982   6.456
   59SOL     OW 1075   5.377   3.450   6.617
   59SOL    HW1 1076   5.387   3.451   6.716
   59SOL    HW2 1077   5.458   3.408   6.576
   60SOL     OW 1078   5.430   0.629   2.967
   60SOL    HW1 1079   5.486   0.633   3.049
   60SOL    HW2 1080   5.399   0.721   2.943
   61SOL     OW 1081   0.253   6.968   5.105
   61SOL    HW1 1082   0.338   6.981   5.054
   61SOL    HW2 1083   0.267   6.991   5.201
   62SOL     OW 1084   6.931   2.328   2.179
   62SOL    HW1 1085   6.938   2.389   2.100
   62SOL    HW2 1086   6.947   2.380   2.263
   63SOL     OW 1087   4.134   6.210   4.567
   63SOL    HW1 1088   4.167   6.149   4.495
   63SOL    HW2 1089   4.095   6.292   4.527
   64SOL     OW 1090   1.212   5.017   6.768
   64SOL    HW1 1091   1.187   4.970   6.684
   64SOL    HW2 1092   1.311   5.025   6.775
   65SOL     OW 1093   0.336   0.419   5.169
   65SOL    HW1 1094   0.364   0.506   5.209
   65SOL    HW2 1095   0.406   0.350   5.188
   66SOL     OW 1096   4.270   0.742   1.910
   66SOL    HW1 1097   4.335   0.670   1.885
   66SOL    HW2 1098   4.299   0.786   1.995
   67SOL     OW 1099   0.498   2.895   1.045
   67SOL    HW1 1100   0.587   2.867   1.010
   67SOL    HW2 1101   0.465   2.975   0.993
   68SOL     OW 1102   6.696   2.385   5.507
   68SOL    HW1 1103   6.741   2.302   5.538
   68SOL    HW2 1104   6.699   2.454   5.580
   69SOL     OW 1105   0.879   5.457   6.098
   69SOL    HW1 1106   0.786   5.444   6.130
   69SOL    HW2 1107   0.877   5.495   6.005
   70SOL     OW 1108   5.395   3.161   4.649
   70SOL    HW1 1109   5.442   3.094   4.706
   70SOL    HW2 1110   5.302   3.129   4.629
   71SOL     OW 1111   4.095   1.679   4.408
   71SOL    HW1 1112   4.071   1.752   4.471
   71SOL    HW2 1113   4.104   1.593   4.458
   72SOL     OW 1114   6.631   0.714   3.577
   72SOL    HW1 1115   6.585   0.719   3.488
   72SOL    HW2 1116   6.646   0.806   3.612
   73SOL     OW 1117   2.699   0.723   0.623
   73SOL    HW1 1118   2.653   0.759   0.703
   73SOL    HW2 1119   2.660   0.634   0.599
   74SOL     OW 1120   1.720   1.690   0.258
   74SOL    HW1 1121   1.778   1.652   0.186
   74SOL    HW2 1122   1.771   1.758   0.311
   75SOL     OW 1123   4.602   1.618   0.720
   75SOL    HW1 1124   4.536   1.548   0.691
   75SOL    HW2 1125   4.651   1.653   0.640
   76SOL     OW 1126   3.048   4.289   5.299
   76SOL    HW1 1127   3.123   4.298   5.365
   76SOL    HW2 1128   3.035   4.376   5.252
   77SOL     OW 1129   1.700   4.414   4.011
   77SOL    HW1 1130   1.694   4.329   4.065
   77SOL    HW2 1131   1.608   4.450   3.997
   78SOL     OW 1132   4.409   1.308   1.093
   78SOL    HW1 1133   4.506   1.285   1.083
   78SOL    HW2 1134   4.353   1.241   1.045
   79SOL     OW 1135   1.754   5.117   2.171
   79SOL    HW1 1136   1.758   5.045   2.103
   79SOL    HW2 1137   1.730   5.078   2.260
   80SOL     OW 1138   5.144   1.889   5.095
   80SOL    HW1 1139   5.170   1.893   5.192
   80SOL    HW2 1140   5.045   1.888   5.088
   81SOL     OW 1141   3.322   5.900   1.323
   81SOL    HW1 1142   3.298   5.919   1.419
   81SOL    HW2 1143   3.253   5.939   1.263
   82SOL     OW 1144   1.147   6.324   1.368
   82SOL    HW1 1145   1.206   6.382   1.311
   82SOL    HW2 1146   1.204   6.267   1.428
   83SOL     OW 1147   5.628   1.608   5.167
   83SOL    HW1 1148   5.596   1.687   5.115
   83SOL    HW2 1149   5.565   1.531   5.153
   84SOL     OW 1150   6.224   2.739   3.187
   84SOL    HW1 1151   6.216   2.800   3.109
   84SOL    HW2 1152   6.140   2.684   3.195
   85SOL     OW 1153   2.222   0.465   4.118
   85SOL    HW1 1154   2.215   0.496   4.213
   85SOL    HW2 1155   2.268   0.535   4.063
   86SOL     OW 1156   5.888   1.118   6.357
   86SOL    HW1 1157   5.974   1.118   6.307
   86SOL    HW2 1158   5.885   1.198   6.417
   87SOL     OW 1159   3.366   3.873   6.448
   87SOL    HW1 1160   3.461   3.858   6.421
   87SOL    HW2 1161   3.338   3.966   6.421
   88SOL     OW 1162   3.182   3.693   6.368
   88SOL    HW1 1163   3.230   3.626   6.311
   88SOL    HW2 1164   3.249   3.758   6.405
   89SOL     OW 1165   3.204   3.718   3.193
   89SOL    HW1 1166   3.163   3.739   3.104
   89SOL    HW2 1167   3.195   3.797   3.254
   90SOL     OW 1168   4.614   4.308   3.066
   90SOL    HW1 1169   4.591   4.370   2.991
   90SOL    HW2 1170   4.690   4.347   3.119
   91SOL     OW 1171   5.632   5.128   6.296
   91SOL    HW1 1172   5.573   5.115   6.376
   91SOL    HW2 1173   5.592   5.197   6.236
   92SOL     OW 1174   5.544   4.189   6.846
   92SOL    HW1 1175   5.538   4.199   6.945
   92SOL    HW2 1176   5.629   4.139   6.824
   93SOL     OW 1177   2.740   3.080   1.360
   93SOL    HW1 1178   2.801   3.083   1.439
   93SOL    HW2 1179   2.649   3.052   1.389
   94SOL     OW 1180   3.136   1.104   6.104
   94SOL    HW1 1181   3.059   1.042   6.088
   94SOL    HW2 1182   3.210   1.054   6.150
   95SOL     OW 1183   0.009   0.415   3.784
   95SOL    HW1 1184   6.948   0.460   3.744
   95SOL    HW2 1185   0.077   0.400   3.713
   96SOL     OW 1186   4.618   5.012   0.366
   96SOL    HW1 1187   4.565   5.054   0.292
   96SOL    HW2 1188   4.656   4.925   0.335
   97SOL     OW 1189   1.757   5.135   5.479
   97SOL    HW1 1190   1.748   5.089   5.567
   97SOL    HW2 1191   1.742   5.068   5.406
   98SOL     OW 1192   1.291   3.186   3.000
   98SOL    HW1 1193   1.385   3.160   3.023
   98SOL    HW2 1194   1.253   3.117   2.938
   99SOL     OW 1195   4.062   3.204   3.827
   99SOL    HW1 1196   3.981   3.148   3.805
   99SOL    HW2 1197   4.136   3.144   3.856
  100SOL     OW 1198   6.810   0.186   3.671
  100SOL    HW1 1199   6.869   0.221   3.598
  100SOL    HW2 1200   6.858   0.195   3.759
  101SOL     OW 1201   0.171   3.498   2.635
  101SOL    HW1 1202   0.259   3.464   2.668
  101SOL    HW2 1203   0.131   3.431   2.572
  102SOL     OW 1204   2.439   6.336   0.986
  102SOL    HW1 1205   2.440   6.258   1.048
  102SOL    HW2 1206   2.350   6.382   0.991
  103SOL     OW 1207   1.802   1.181   2.112
  103SOL    HW1 1208   1.731   1.115   2.136
  103SOL    HW2 1209   1.870   1.185   2.184
  104SOL     OW 1210   1.358   4.530   1.634
  104SOL    HW1 1211   1.349   4.602   1.703
  104SOL    HW2 1212   1.285   4.539   1.566
  105SOL     OW 1213   4.672   1.963   6.377
  105SOL    HW1 1214   4.723   1.909   6.309
  105SOL    HW2 1215   4.592   1.911   6.407
  106SOL     OW 1216   5.891   4.853   2.294
  106SOL    HW1 1217   5.936   4.786   2.353
  106SOL    HW2 1218   5.794   4.833   2.288
  107SOL     OW 1219   6.339   0.738   0.729
  107SOL    HW1 1220   6.241   0.727   0.710
  107SOL    HW2 1221   6.392   0.702   0.652
  108SOL     OW 1222   1.657   0.266   6.076
  108SOL    HW1 1223   1.677   0.280   5.979
  108SOL    HW2 1224   1.740   0.280   6.130
  109SOL     OW 1225   2.463   1.369   3.688
  109SOL    HW1 1226   2.405   1.305   3.638
  109SOL    HW2 1227   2.556   1.333   3.692
  110SOL     OW 1228   2.741   4.532   5.571
  110SOL    HW1 1229   2.764   4.454   5.628
  110SOL    HW2 1230   2.713   4.500   5.480
  111SOL     OW 1231   6.380   1.895   2.140
  111SOL    HW1 1232   6.399   1.863   2.047
  111SOL    HW2 1233   6.286   1.872   2.165
  112SOL     OW 1234   4.906   0.142   6.609
  112SOL    HW1 1235   4.902   0.230   6.560
  112SOL    HW2 1236   4.857   0.151   6.695
  113SOL     OW 1237   6.613   6.300   2.583
  113SOL    HW1 1238   6.702   6.342   2.602
  113SOL    HW2 1239   6.584   6.324   2.490
  114SOL     OW 1240   1.087   4.109   3.506
  114SOL    HW1 1241   1.076   4.096   3.605
  114SOL    HW2 1242   1.066   4.023   3.459
  115SOL     OW 1243   5.588   1.409   3.360
  115SOL    HW1 1244   5.521   1.443   3.295
  115SOL    HW2 1245   5.545   1.400   3.450
  116SOL     OW 1246   1.514   5.139   0.477
  116SOL    HW1 1247   1.447   5.170   0.545
  116SOL    HW2 1248   1.466   5.110   0.395
  117SOL     OW 1249   2.356   1.372   0.055
  117SOL    HW1 1250   2.399   1.370   0.145
  117SOL    HW2 1251   2.279   1.308   0.054
  118SOL     OW 1252   1.360   1.437   4.722
  118SOL    HW1 1253   1.345   1.374   4.646
  118SOL    HW2 1254   1.458   1.449   4.736
  119SOL     OW 1255   6.896   6.253   6.349
  119SOL    HW1 1256   6.958   6.177   6.366
  119SOL    HW2 1257   6.946   6.339   6.355
  120SOL     OW 1258   4.701   1.634   4.777
  120SOL    HW1 1259   4.716   1.615   4.874
  120SOL    HW2 1260   4.736   1.725   4.756
  121SOL     OW 1261   1.104   3.854   6.351
  121SOL    HW1 1262   1.052   3.935   6.324
  121SOL    HW2 1263   1.061   3.811   6.430
  122SOL     OW 1264   1.178   4.154   0.465
  122SOL    HW1 1265   1.088   4.161   0.420
  122SOL    HW2 1266   1.166   4.124   0.559
  123SOL     OW 1267   0.998   1.552   1.982
  123SOL    HW1 1268   0.928   1.565   1.912
  123SOL    HW2 1269   1.089   1.555   1.939
  124SOL     OW 1270   2.647   2.571   0.585
  124SOL    HW1 1271   2.561   2.580   0.636
  124SOL    HW2 1272   2.724   2.576   0.649
  125SOL     OW 1273   3.358   2.810   0.227
  125SOL    HW1 1274   3.317   2.736   0.281
  125SOL    HW2 1275   3.410   2.870   0.287
  126SOL     OW 1276   3.868   3.205   4.109
  126SOL    HW1 1277   3.777   3.246   4.099
  126SOL    HW2 1278   3.898   3.167   4.022
  127SOL     OW 1279   0.758   6.297   5.817
  127SOL    HW1 1280   0.689   6.283   5.746
  127SOL    HW2 1281   0.713   6.320   5.903
  128SOL     OW 1282   4.655   3.560   0.847
  128SOL    HW1 1283   4.637   3.574   0.944
  128SOL    HW2 1284   4.727   3.492   0.835
  129SOL     OW 1285   2.222   6.044   0.790
  129SOL    HW1 1286   2.266   6.113   0.847
  129SOL    HW2 1287   2.289   5.973   0.767
  130SOL     OW 1288   5.500   2.431   4.619
  130SOL    HW1 1289   5.458   2.372   4.550
  130SOL    HW2 1290   5.458   2.521   4.616
  131SOL     OW 1291   6.676   2.527   3.532
  131SOL    HW1 1292   6.765   2.547   3.491
  131SOL    HW2 1293   6.604   2.572   3.480
  132SOL     OW 1294   3.409   4.054   1.948
  132SOL    HW1 1295   3.364   4.019   1.866
  132SOL    HW2 1296   3.493   4.102   1.922
  133SOL     OW 1297   5.333   6.668   5.562
  133SOL    HW1 1298   5.401   6.637   5.629
  133SOL    HW2 1299   5.343   6.617   5.477
  134SOL     OW 1300   5.688   1.017   1.887
  134SOL    HW1 1301   5.700   0.955   1.965
  134SOL    HW2 1302   5.715   1.110   1.915
  135SOL     OW 1303   4.934   3.658   4.437
  135SOL    HW1 1304   4.939   3.700   4.346
  135SOL    HW2 1305   4.941   3.728   4.507
  136SOL     OW 1306   3.406   6.934   5.519
  136SOL    HW1 1307   3.448   0.006   5.529
  136SOL    HW2 1308   3.322   6.930   5.573
  137SOL     OW 1309   3.004   2.118   5.192
  137SOL    HW1 1310   3.028   2.188   5.125
  137SOL    HW2 1311   3.087   2.070   5.220
  138SOL     OW 1312   1.319   5.506   5.295
  138SOL    HW1 1313   1.358   5.474   5.209
  138SOL    HW2 1314   1.256   5.436   5.330
  139SOL     OW 1315   2.467   6.162   6.662
  139SOL    HW1 1316   2.467   6.185   6.759
  139SOL    HW2 1317   2.502   6.240   6.610
  140SOL     OW 1318   2.204   0.761   2.737
  140SOL    HW1 1319   2.212   0.669   2.775
  140SOL    HW2 1320   2.108   0.785   2.725
  141SOL     OW 1321   6.908   4.541   0.212
  141SOL    HW1 1322   6.921   4.637   0.236
  141SOL    HW2 1323   6.913   4.530   0.113
  142SOL     OW 1324   1.359   4.138   2.090
  142SOL    HW1 1325   1.421   4.077   2.140
  142SOL    HW2 1326   1.301   4.083   2.030
  143SOL     OW 1327   4.798   6.903   1.762
  143SOL    HW1 1328   4.761   6.935   1.849
  143SOL    HW2 1329   4.782   6.805   1.752
  144SOL     OW 1330   3.051   4.855   3.401
  144SOL    HW1 1331   3.008   4.921   3.340
  144SOL    HW2 1332   3.106   4.903   3.469
  145SOL     OW 1333   0.025   4.573   2.853
  145SOL    HW1 1334   6.944   4.570   2.865
  145SOL    HW2 1335   0.056   4.668   2.859
  146SOL     OW 1336   6.141   1.489   6.173
  146SOL    HW1 1337   6.110   1.465   6.265
  146SOL    HW2 1338   6.083   1.562   6.136
  147SOL     OW 1339   4.556   1.441   5.630
  147SOL    HW1 1340   4.522   1.354   5.666
  147SOL    HW2 1341   4.652   1.432   5.605
  148SOL     OW 1342   1.454   4.782   1.266
  148SOL    HW1 1343   1.531   4.834   1.230
  148SOL    HW2 1344   1.403   4.740   1.191
  149SOL     OW 1345   2.054   2.435   5.589
  149SOL    HW1 1346   2.050   2.392   5.679
  149SOL    HW2 1347   2.149   2.444   5.560
  150SOL     OW 1348   4.472   1.802   4.715
  150SOL    HW1 1349   4.473   1.843   4.624
  150SOL    HW2 1350   4.480   1.703   4.708
  151SOL     OW 1351   4.318   2.351   0.691
  151SOL    HW1 1352   4.278   2.414   0.758
  151SOL    HW2 1353   4.392   2.299   0.734
  152SOL     OW 1354   0.725   1.128   0.167
  152SOL    HW1 1355   0.671   1.201   0.208
  152SOL    HW2 1356   0.797   1.100   0.230
  153SOL     OW 1357   2.704   1.114   4.075
  153SOL    HW1 1358   2.677   1.106   4.171
  153SOL    HW2 1359   2.631   1.157   4.023
  154SOL     OW 1360   5.663   2.277   1.393
  154SOL    HW1 1361   5.675   2.178   1.387
  154SOL    HW2 1362   5.720   2.323   1.325
  155SOL     OW 1363   1.360   6.757   1.956
  155SOL    HW1 1364   1.442   6.739   2.010
  155SOL    HW2 1365   1.361   6.852   1.924
  156SOL     OW 1366   5.223   2.328   0.440
  156SOL    HW1 1367   5.311   2.375   0.449
  156SOL    HW2 1368   5.159   2.387   0.392
  157SOL     OW 1369   5.211   4.898   0.301
  157SOL    HW1 1370   5.209   4.993   0.333
  157SOL    HW2 1371   5.119   4.859   0.309
  158SOL     OW 1372   0.518   3.065   2.878
  158SOL    HW1 1373   0.551   3.149   2.921
  158SOL    HW2 1374   0.427   3.044   2.912
  159SOL     OW 1375   5.418   5.704   0.524
  159SOL    HW1 1376   5.433   5.653   0.439
  159SOL    HW2 1377   5.506   5.719   0.569
  160SOL     OW 1378   6.335   6.858   1.522
  160SOL    HW1 1379   6.244   6.840   1.485
  160SOL    HW2 1380   6.329   6.927   1.594
  161SOL     OW 1381   0.709   0.230   0.434
  161SOL    HW1 1382   0.789   0.171   0.447
  161SOL    HW2 1383   0.731   0.302   0.369
  162SOL     OW 1384   3.756   6.773   0.412
  162SOL    HW1 1385   3.819   6.814   0.478
  162SOL    HW2 1386   3.809   6.732   0.338
  163SOL     OW 1387   0.407   3.766   3.734
  163SOL    HW1 1388   0.364   3.767   3.643
  163SOL    HW2 1389   0.344   3.726   3.800
  164SOL     OW 1390   1.910   1.711   3.469
  164SOL    HW1 1391   1.864   1.799   3.478
  164SOL    HW2 1392   1.911   1.665   3.558
  165SOL     OW 1393   0.980   5.385   3.115
  165SOL    HW1 1394   0.945   5.476   3.138
  165SOL    HW2 1395   0.915   5.316   3.147
  166SOL     OW 1396   6.821   3.918   2.714
  166SOL    HW1 1397   6.780   3.941   2.803
  166SOL    HW2 1398   6.841   3.820   2.711
  167SOL     OW 1399   4.747   2.050   0.266
  167SOL    HW1 1400   4.692   1.972   0.234
  167SOL    HW2 1401   4.736   2.127   0.203
  168SOL     OW 1402   4.958   3.730   1.899
  168SOL    HW1 1403   5.029   3.706   1.833
  168SOL    HW2 1404   4.922   3.821   1.877
  169SOL     OW 1405   6.056   2.460   0.994
  169SOL    HW1 1406   6.031   2.541   1.046
  169SOL    HW2 1407   6.105   2.396   1.053
  170SOL     OW 1408   0.752   4.958   2.119
  170SOL    HW1 1409   0.797   5.002   2.197
  170SOL    HW2 1410   0.779   4.862   2.115
  171SOL     OW 1411   2.839   3.377   0.368
  171SOL    HW1 1412   2.793   3.458   0.332
  171SOL    HW2 1413   2.814   3.365   0.464
  172SOL     OW 1414   6.130   2.124   1.496
  172SOL    HW1 1415   6.226   2.101   1.475
  172SOL    HW2 1416   6.083   2.042   1.528
  173SOL     OW 1417   6.696   2.025   5.833
  173SOL    HW1 1418   6.743   1.951   5.881
  173SOL    HW2 1419   6.660   2.090   5.899
  174SOL     OW 1420   5.984   5.282   5.532
  174SOL    HW1 1421   5.912   5.263   5.599
  174SOL    HW2 1422   5.953   5.353   5.469
  175SOL     OW 1423   0.830   0.504   0.582
  175SOL    HW1 1424   0.902   0.485   0.649
  175SOL    HW2 1425   0.741   0.475   0.619
  176SOL     OW 1426   5.180   4.549   2.914
  176SOL    HW1 1427   5.271   4.590   2.904
  176SOL    HW2 1428   5.162   4.488   2.837
  177SOL     OW 1429   5.715   2.281   4.268
  177SOL    HW1 1430   5.672   2.370   4.256
  177SOL    HW2 1431   5.751   2.274   4.361
  178SOL     OW 1432   1.970   6.327   5.874
  178SOL    HW1 1433   1.987   6.336   5.972
  178SOL    HW2 1434   1.947   6.416   5.836
  179SOL     OW 1435   4.143   5.118   0.886
  179SOL    HW1 1436   4.145   5.019   0.872
  179SOL    HW2 1437   4.235   5.155   0.877
  180SOL     OW 1438   4.248   1.113   0.915
  180SOL    HW1 1439   4.239   1.118   0.815
  180SOL    HW2 1440   4.157   1.109   0.956
  181SOL     OW 1441   3.447   2.517   5.439
  181SOL    HW1 1442   3.462   2.420   5.419
  181SOL    HW2 1443   3.355   2.543   5.412
  182SOL     OW 1444   4.849   2.089   6.573
  182SOL    HW1 1445   4.941   2.066   6.542
  182SOL    HW2 1446   4.782   2.040   6.517
  183SOL     OW 1447   3.376   1.552   3.741
  183SOL    HW1 1448   3.345   1.472   3.792
  183SOL    HW2 1449   3.417   1.524   3.655
  184SOL     OW 1450   6.618   6.714   2.710
  184SOL    HW1 1451   6.650   6.770   2.787
  184SOL    HW2 1452   6.694   6.657   2.677
  185SOL     OW 1453   0.383   1.170   4.210
  185SOL    HW1 1454   0.379   1.184   4.309
  185SOL    HW2 1455   0.306   1.113   4.181
  186SOL     OW 1456   4.546   5.660   3.671
  186SOL    HW1 1457   4.486   5.599   3.723
  186SOL    HW2 1458   4.507   5.676   3.580
  187SOL     OW 1459   4.408   6.184   2.107
  187SOL    HW1 1460   4.481   6.213   2.045
  187SOL    HW2 1461   4.334   6.251   2.105
  188SOL     OW 1462   2.374   2.674   3.171
  188SOL    HW1 1463   2.453   2.614   3.161
  188SOL    HW2 1464   2.342   2.702   3.080
  189SOL     OW 1465   6.167   5.231   6.356
  189SOL    HW1 1466   6.160   5.179   6.442
  189SOL    HW2 1467   6.215   5.317   6.373
  190SOL     OW 1468   5.761   7.008   0.192
  190SOL    HW1 1469   5.832   0.029   0.249
  190SOL    HW2 1470   5.725   0.059   0.130
  191SOL     OW 1471   5.940   0.934   5.756
  191SOL    HW1 1472   5.955   1.031   5.775
  191SOL    HW2 1473   5.912   0.922   5.660
  192SOL     OW 1474   0.576   5.033   0.287
  192SOL    HW1 1475   0.648   5.021   0.219
  192SOL    HW2 1476   0.491   5.059   0.241
  193SOL     OW 1477   2.877   5.120   6.091
  193SOL    HW1 1478   2.956   5.067   6.121
  193SOL    HW2 1479   2.798   5.101   6.149
  194SOL     OW 1480   3.469   6.846   2.242
  194SOL    HW1 1481   3.561   6.867   2.212
  194SOL    HW2 1482   3.436   6.918   2.303
  195SOL     OW 1483   2.676   0.890   1.560
  195SOL    HW1 1484   2.731   0.974   1.562
  195SOL    HW2 1485   2.590   0.907   1.608
  196SOL     OW 1486   2.103   0.710   6.802
  196SOL    HW1 1487   2.174   0.777   6.780
  196SOL    HW2 1488   2.118   0.627   6.748
  197SOL     OW 1489   2.252   5.711   0.318
  197SOL    HW1 1490   2.274   5.642   0.249
  197SOL    HW2 1491   2.171   5.683   0.369
  198SOL     OW 1492   4.141   6.681   7.012
  198SOL    HW1 1493   4.137   6.597   6.957
  198SOL    HW2 1494   4.098   6.756   6.962
  199SOL     OW 1495   6.081   6.714   2.987
  199SOL    HW1 1496   6.079   6.630   2.933
  199SOL    HW2 1497   6.116   6.789   2.931
  200SOL     OW 1498   0.518   4.059   3.021
  200SOL    HW1 1499   0.578   4.100   3.089
  200SOL    HW2 1500   0.493   3.967   3.049
  201SOL     OW 1501   2.867   0.804   7.015
  201SOL    HW1 1502   2.939   0.734   7.013
  201SOL    HW2 1503   2.909   0.894   7.015
  202SOL     OW 1504   3.796   7.004   3.516
  202SOL    HW1 1505   3.724   0.003   3.583
  202SOL    HW2 1506   3.884   0.014   3.552
  203SOL     OW 1507   5.410   3.679   6.175
  203SOL    HW1 1508   5.324   3.654   6.131
  203SOL    HW2 1509   5.435   3.609   6.241
  204SOL     OW 1510   2.123   6.692   0.643
  204SOL    HW1 1511   2.073   6.685   0.557
  204SOL    HW2 1512   2.217   6.719   0.625
  205SOL     OW 1513   5.745   2.007   1.100
  205SOL    HW1 1514   5.708   1.993   1.192
  205SOL    HW2 1515   5.711   1.935   1.039
  206SOL     OW 1516   0.128   4.906   1.714
  206SOL    HW1 1517   0.184   4.920   1.796
  206SOL    HW2 1518   0.058   4.976   1.709
  207SOL     OW 1519   4.809   0.682   5.773
  207SOL    HW1 1520   4.742   0.742   5.816
  207SOL    HW2 1521   4.762   0.611   5.721
  208SOL     OW 1522   4.843   5.313   6.093
  208SOL    HW1 1523   4.881   5.288   6.004
  208SOL    HW2 1524   4.745   5.331   6.083
  209SOL     OW 1525   6.715   5.428   5.966
  209SOL    HW1 1526   6.690   5.523   5.986
  209SOL    HW2 1527   6.814   5.416   5.979
  210SOL     OW 1528   3.837   2.016   1.253
  210SOL    HW1 1529   3.856   2.100   1.203
  210SOL    HW2 1530   3.876   1.938   1.203
  211SOL     OW 1531   0.792   1.406   1.083
  211SOL    HW1 1532   0.885   1.400   1.047
  211SOL    HW2 1533   0.751   1.315   1.087
  212SOL     OW 1534   1.032   5.178   3.581
  212SOL    HW1 1535   1.067   5.117   3.652
  212SOL    HW2 1536   1.108   5.221   3.532
  213SOL     OW 1537   5.283   1.789   0.259
  213SOL    HW1 1538   5.252   1.695   0.272
  213SOL    HW2 1539   5.204   1.850   0.255
  214SOL     OW 1540   1.084   6.235   2.292
  214SOL    HW1 1541   1.059   6.160   2.231
  214SOL    HW2 1542   1.089   6.320   2.239
  215SOL     OW 1543   3.519   3.053   2.303
  215SOL    HW1 1544   3.479   2.965   2.279
  215SOL    HW2 1545   3.526   3.110   2.222
  216SOL     OW 1546   0.766   0.369   5.094
  216SOL    HW1 1547   0.756   0.273   5.066
  216SOL    HW2 1548   0.749   0.428   5.016
  217SOL     OW 1549   1.250   3.259   4.044
  217SOL    HW1 1550   1.183   3.189   4.070
  217SOL    HW2 1551   1.326   3.215   3.996
  218SOL     OW 1552   1.070   3.045   5.368
  218SOL    HW1 1553   0.998   2.979   5.389
  218SOL    HW2 1554   1.121   3.014   5.288
  219SOL     OW 1555   4.652   4.727   0.361
  219SOL    HW1 1556   4.674   4.647   0.305
  219SOL    HW2 1557   4.552   4.739   0.364
  220SOL     OW 1558   2.601   5.105   0.029
  220SOL    HW1 1559   2.551   5.115   6.962
  220SOL    HW2 1560   2.698   5.089   0.010
  221SOL     OW 1561   5.664   2.908   4.141
  221SOL    HW1 1562   5.757   2.876   4.161
  221SOL    HW2 1563   5.613   2.915   4.226
  222SOL     OW 1564   0.953   5.997   5.734
  222SOL    HW1 1565   0.857   5.998   5.704
  222SOL    HW2 1566   1.013   6.005   5.654
  223SOL     OW 1567   0.360   3.678   2.183
  223SOL    HW1 1568   0.424   3.655   2.109
  223SOL    HW2 1569   0.411   3.716   2.260
  224SOL     OW 1570   2.763   2.120   2.106
  224SOL    HW1 1571   2.822   2.191   2.067
  224SOL    HW2 1572   2.670   2.131   2.071
  225SOL     OW 1573   5.767   0.559   0.156
  225SOL    HW1 1574   5.725   0.614   0.084
  225SOL    HW2 1575   5.696   0.511   0.208
  226SOL     OW 1576   1.073   6.011   0.574
  226SOL    HW1 1577   1.107   6.104   0.566
  226SOL    HW2 1578   1.003   5.994   0.505
  227SOL     OW 1579   1.821   3.662   3.974
  227SOL    HW1 1580   1.731   3.676   3.932
  227SOL    HW2 1581   1.846   3.566   3.968
  228SOL     OW 1582   4.287   6.114   3.774
  228SOL    HW1 1583   4.304   6.212   3.771
  228SOL    HW2 1584   4.359   6.066   3.724
  229SOL     OW 1585   5.929   6.150   1.647
  229SOL    HW1 1586   5.968   6.061   1.674
  229SOL    HW2 1587   5.850   6.135   1.587
  230SOL     OW 1588   2.127   4.222   4.973
  230SOL    HW1 1589   2.134   4.241   4.875
  230SOL    HW2 1590   2.193   4.151   4.997
  231SOL     OW 1591   0.327   3.672   6.285
  231SOL    HW1 1592   0.390   3.697   6.359
  231SOL    HW2 1593   0.344   3.578   6.257
  232SOL     OW 1594   1.426   3.724   0.064
  232SOL    HW1 1595   1.407   3.678   6.996
  232SOL    HW2 1596   1.430   3.656   0.138
  233SOL     OW 1597   2.039   1.512   5.631
  233SOL    HW1 1598   2.013   1.472   5.543
  233SOL    HW2 1599   1.980   1.591   5.651
  234SOL     OW 1600   2.636   4.770   6.867
  234SOL    HW1 1601   2.715   4.726   6.910
  234SOL    HW2 1602   2.560   4.706   6.862
  235SOL     OW 1603   3.038   3.347   4.090
  235SOL    HW1 1604   3.018   3.346   4.188
  235SOL    HW2 1605   2.964   3.394   4.041
  236SOL     OW 1606   6.558   2.660   5.446
  236SOL    HW1 1607   6.605   2.610   5.519
  236SOL    HW2 1608   6.461   2.635   5.446
  237SOL     OW 1609   0.444   0.238   1.513
  237SOL    HW1 1610   0.539   0.225   1.542
  237SOL    HW2 1611   0.398   0.150   1.509
  238SOL     OW 1612   5.643   3.417   2.500
  238SOL    HW1 1613   5.689   3.501   2.529
  238SOL    HW2 1614   5.561   3.440   2.448
  239SOL     OW 1615   6.775   5.984   6.899
  239SOL    HW1 1616   6.770   5.959   6.996
  239SOL    HW2 1617   6.696   6.040   6.875
  240SOL     OW 1618   0.332   4.274   5.843
  240SOL    HW1 1619   0.418   4.233   5.812
  240SOL    HW2 1620   0.310   4.241   5.935
  241SOL     OW 1621   0.388   0.773   3.397
  241SOL    HW1 1622   0.355   0.824   3.476
  241SOL    HW2 1623   0.311   0.742   3.342
  242SOL     OW 1624   1.434   3.421   4.625
  242SOL    HW1 1625   1.494   3.365   4.568
  242SOL    HW2 1626   1.388   3.489   4.568
  243SOL     OW 1627   5.610   6.994   5.101
  243SOL    HW1 1628   5.582   7.018   5.008
  243SOL    HW2 1629   5.548   6.925   5.138
  244SOL     OW 1630   5.401   2.011   4.953
  244SOL    HW1 1631   5.401   2.086   4.887
  244SOL    HW2 1632   5.311   2.005   4.996
  245SOL     OW 1633   6.901   2.612   4.174
  245SOL    HW1 1634   6.908   2.556   4.092
  245SOL    HW2 1635   6.929   2.706   4.153
  246SOL     OW 1636   4.862   3.587   3.506
  246SOL    HW1 1637   4.911   3.630   3.582
  246SOL    HW2 1638   4.849   3.654   3.433
  247SOL     OW 1639   1.999   1.648   3.852
  247SOL    HW1 1640   2.068   1.638   3.780
  247SOL    HW2 1641   1.907   1.644   3.812
  248SOL     OW 1642   5.286   1.771   3.921
  248SOL    HW1 1643   5.284   1.866   3.890
  248SOL    HW2 1644   5.356   1.721   3.870
  249SOL     OW 1645   3.540   6.744   4.331
  249SOL    HW1 1646   3.575   6.653   4.356
  249SOL    HW2 1647   3.608   6.791   4.274
  250SOL     OW 1648   5.337   3.340   5.661
  250SOL    HW1 1649   5.258   3.300   5.614
  250SOL    HW2 1650   5.367   3.278   5.734
  251SOL     OW 1651   4.440   2.784   6.717
  251SOL    HW1 1652   4.519   2.787   6.656
  251SOL    HW2 1653   4.398   2.693   6.713
  252SOL     OW 1654   6.594   0.703   5.935
  252SOL    HW1 1655   6.610   0.732   5.841
  252SOL    HW2 1656   6.546   0.615   5.935
  253SOL     OW 1657   2.750   2.954   0.249
  253SOL    HW1 1658   2.837   2.907   0.261
  253SOL    HW2 1659   2.765   3.042   0.205
  254SOL     OW 1660   5.924   3.395   4.780
  254SOL    HW1 1661   5.929   3.494   4.770
  254SOL    HW2 1662   5.923   3.352   4.690
  255SOL     OW 1663   2.876   2.155   3.320
  255SOL    HW1 1664   2.869   2.092   3.398
  255SOL    HW2 1665   2.857   2.248   3.351
  256SOL     OW 1666   5.571   5.274   0.121
  256SOL    HW1 1667   5.629   5.235   0.049
  256SOL    HW2 1668   5.507   5.205   0.154
  257SOL     OW 1669   2.857   5.606   6.340
  257SOL    HW1 1670   2.848   5.597   6.440
  257SOL    HW2 1671   2.896   5.523   6.302
  258SOL     OW 1672   5.623   4.288   4.288
  258SOL    HW1 1673   5.675   4.355   4.237
  258SOL    HW2 1674   5.530   4.281   4.250
  259SOL     OW 1675   1.406   2.426   2.678
  259SOL    HW1 1676   1.502   2.433   2.705
  259SOL    HW2 1677   1.399   2.385   2.588
  260SOL     OW 1678   5.907   0.071   5.886
  260SOL    HW1 1679   5.921   0.162   5.847
  260SOL    HW2 1680   5.814   0.039   5.864
  261SOL     OW 1681   1.081   4.002   2.307
  261SOL    HW1 1682   0.991   3.960   2.300
  261SOL    HW2 1683   1.152   3.933   2.296
  262SOL     OW 1684   0.887   3.970   1.987
  262SOL    HW1 1685   0.829   4.026   1.928
  262SOL    HW2 1686   0.831   3.925   2.056
  263SOL     OW 1687   0.869   1.518   5.168
  263SOL    HW1 1688   0.871   1.472   5.080
  263SOL    HW2 1689   0.959   1.557   5.188
  264SOL     OW 1690   1.836   4.523   6.412
  264SOL    HW1 1691   1.792   4.490   6.329
  264SOL    HW2 1692   1.766   4.548   6.479
  265SOL     OW 1693   5.406   4.460   4.016
  265SOL    HW1 1694   5.503   4.437   4.021
  265SOL    HW2 1695   5.369   4.430   3.927
  266SOL     OW 1696   4.406   1.432   0.666
  266SOL    HW1 1697   4.326   1.470   0.712
  266SOL    HW2 1698   4.376   1.365   0.598
  267SOL     OW 1699   1.296   2.068   6.447
  267SOL    HW1 1700   1.368   2.037   6.509
  267SOL    HW2 1701   1.337   2.120   6.372
  268SOL     OW 1702   4.072   4.846   4.570
  268SOL    HW1 1703   4.143   4.815   4.507
  268SOL    HW2 1704   4.107   4.842   4.664
  269SOL     OW 1705   0.911   2.259   5.995
  269SOL    HW1 1706   0.919   2.256   6.095
  269SOL    HW2 1707   0.981   2.202   5.953
  270SOL     OW 1708   5.208   1.087   2.632
  270SOL    HW1 1709   5.214   1.163   2.697
  270SOL    HW2 1710   5.117   1.046   2.637
  271SOL     OW 1711   1.511   0.539   0.158
  271SOL    HW1 1712   1.437   0.556   0.223
  271SOL    HW2 1713   1.514   0.613   0.091
  272SOL     OW 1714   3.205   5.741   3.636
  272SOL    HW1 1715   3.255   5.655   3.630
  272SOL    HW2 1716   3.251   5.803   3.700
  273SOL     OW 1717   2.481   6.110   5.400
  273SOL    HW1 1718   2.554   6.148   5.456
  273SOL    HW2 1719   2.392   6.143   5.434
  274SOL     OW 1720   6.222   2.766   2.753
  274SOL    HW1 1721   6.270   2.851   2.732
  274SOL    HW2 1722   6.268   2.719   2.829
  275SOL     OW 1723   6.720   6.203   5.406
  275SOL    HW1 1724   6.686   6.109   5.404
  275SOL    HW2 1725   6.798   6.212   5.345
  276SOL     OW 1726   6.488   6.307   3.713
  276SOL    HW1 1727   6.558   6.236   3.713
  276SOL    HW2 1728   6.516   6.380   3.649
  277SOL     OW 1729   4.122   1.573   5.334
  277SOL    HW1 1730   4.173   1.506   5.388
  277SOL    HW2 1731   4.185   1.639   5.294
  278SOL     OW 1732   5.620   3.472   2.958
  278SOL    HW1 1733   5.622   3.497   3.055
  278SOL    HW2 1734   5.525   3.462   2.929
  279SOL     OW 1735   0.131   2.544   3.602
  279SOL    HW1 1736   0.075   2.462   3.589
  279SOL    HW2 1737   0.077   2.624   3.577
  280SOL     OW 1738   3.973   0.384   4.595
  280SOL    HW1 1739   3.881   0.355   4.571
  280SOL    HW2 1740   4.012   0.321   4.662
  281SOL     OW 1741   4.999   6.343   3.864
  281SOL    HW1 1742   4.957   6.266   3.816
  281SOL    HW2 1743   4.945   6.425   3.848
  282SOL     OW 1744   4.421   2.004   0.131
  282SOL    HW1 1745   4.436   2.073   0.202
  282SOL    HW2 1746   4.326   1.975   0.132
  283SOL     OW 1747   6.336   1.294   4.865
  283SOL    HW1 1748   6.426   1.273   4.827
  283SOL    HW2 1749   6.280   1.336   4.793
  284SOL     OW 1750   6.197   5.263   4.455
  284SOL    HW1 1751   6.120   5.324   4.472
  284SOL    HW2 1752   6.204   5.196   4.529
  285SOL     OW 1753   4.297   0.358   6.591
  285SOL    HW1 1754   4.389   0.398   6.596
  285SOL    HW2 1755   4.231   0.421   6.632
  286SOL     OW 1756   3.896   4.954   4.941
  286SOL    HW1 1757   3.987   4.938   4.904
  286SOL    HW2 1758   3.836   4.989   4.870
  287SOL     OW 1759   2.724   6.285   5.522
  287SOL    HW1 1760   2.726   6.385   5.518
  287SOL    HW2 1761   2.732   6.255   5.617
  288SOL     OW 1762   3.460   1.256   0.281
  288SOL    HW1 1763   3.547   1.206   0.281
  288SOL    HW2 1764   3.392   1.205   0.228
  289SOL     OW 1765   0.568   6.508   4.048
  289SOL    HW1 1766   0.602   6.577   3.984
  289SOL    HW2 1767   0.528   6.554   4.128
  290SOL     OW 1768   3.681   0.629   4.383
  290SOL    HW1 1769   3.650   0.549   4.434
  290SOL    HW2 1770   3.756   0.603   4.322
  291SOL     OW 1771   4.164   0.673   4.710
  291SOL    HW1 1772   4.167   0.573   4.712
  291SOL    HW2 1773   4.120   0.703   4.625
  292SOL     OW 1774   3.553   0.183   3.564
  292SOL    HW1 1775   3.459   0.211   3.545
  292SOL    HW2 1776   3.617   0.247   3.520
  293SOL     OW 1777   5.840   6.699   3.212
  293SOL    HW1 1778   5.790   6.749   3.141
  293SOL    HW2 1779   5.937   6.693   3.186
  294SOL     OW 1780   5.985   1.167   5.895
  294SOL    HW1 1781   6.078   1.175   5.860
  294SOL    HW2 1782   5.934   1.250   5.873
  295SOL     OW 1783   1.283   1.816   5.362
  295SOL    HW1 1784   1.294   1.796   5.459
  295SOL    HW2 1785   1.365   1.862   5.328
  296SOL     OW 1786   6.756   1.573   1.501
  296SOL    HW1 1787   6.730   1.569   1.597
  296SOL    HW2 1788   6.825   1.503   1.482
  297SOL     OW 1789   5.706   4.221   3.823
  297SOL    HW1 1790   5.772   4.179   3.760
  297SOL    HW2 1791   5.671   4.152   3.886
  298SOL     OW 1792   3.720   0.845   0.379
  298SOL    HW1 1793   3.674   0.843   0.290
  298SOL    HW2 1794   3.686   0.923   0.432
  299SOL     OW 1795   2.352   1.528   6.821
  299SOL    HW1 1796   2.380   1.484   6.906
  299SOL    HW2 1797   2.387   1.475   6.743
  300SOL     OW 1798   4.122   1.177   2.958
  300SOL    HW1 1799   4.124   1.170   3.058
  300SOL    HW2 1800   4.027   1.177   2.927
  301SOL     OW 1801   5.965   6.015   1.271
  301SOL    HW1 1802   5.917   5.968   1.346
  301SOL    HW2 1803   6.059   5.980   1.266
  302SOL     OW 1804   6.362   6.273   1.134
  302SOL    HW1 1805   6.451   6.317   1.118
  302SOL    HW2 1806   6.297   6.304   1.065
  303SOL     OW 1807   5.967   5.880   2.195
  303SOL    HW1 1808   6.037   5.810   2.199
  303SOL    HW2 1809   5.988   5.945   2.121
  304SOL     OW 1810   1.427   0.084   5.189
  304SOL    HW1 1811   1.431   0.032   5.103
  304SOL    HW2 1812   1.336   0.126   5.199
  305SOL     OW 1813   1.686   2.498   2.353
  305SOL    HW1 1814   1.767   2.540   2.312
  305SOL    HW2 1815   1.640   2.564   2.412
  306SOL     OW 1816   6.460   1.032   3.222
  306SOL    HW1 1817   6.393   1.064   3.155
  306SOL    HW2 1818   6.473   1.101   3.292
  307SOL     OW 1819   3.195   3.177   2.242
  307SOL    HW1 1820   3.261   3.251   2.255
  307SOL    HW2 1821   3.109   3.215   2.207
  308SOL     OW 1822   5.565   1.431   4.094
  308SOL    HW1 1823   5.644   1.433   4.031
  308SOL    HW2 1824   5.589   1.379   4.175
  309SOL     OW 1825   0.886   6.468   6.137
  309SOL    HW1 1826   0.809   6.441   6.078
  309SOL    HW2 1827   0.972   6.437   6.095
  310SOL     OW 1828   5.441   5.481   5.145
  310SOL    HW1 1829   5.492   5.451   5.225
  310SOL    HW2 1830   5.447   5.581   5.137
  311SOL     OW 1831   1.901   5.371   2.958
  311SOL    HW1 1832   1.994   5.400   2.934
  311SOL    HW2 1833   1.861   5.321   2.882
  312SOL     OW 1834   4.759   2.452   3.289
  312SOL    HW1 1835   4.854   2.440   3.261
  312SOL    HW2 1836   4.721   2.364   3.316
  313SOL     OW 1837   3.624   3.443   3.373
  313SOL    HW1 1838   3.629   3.531   3.420
  313SOL    HW2 1839   3.530   3.425   3.345
  314SOL     OW 1840   2.273   6.564   5.217
  314SOL    HW1 1841   2.208   6.618   5.269
  314SOL    HW2 1842   2.252   6.467   5.227
  315SOL     OW 1843   6.337   1.337   3.758
  315SOL    HW1 1844   6.387   1.251   3.775
  315SOL    HW2 1845   6.363   1.404   3.828
  316SOL     OW 1846   3.942   1.525   5.106
  316SOL    HW1 1847   3.845   1.546   5.121
  316SOL    HW2 1848   3.991   1.534   5.193
  317SOL     OW 1849   1.310   1.489   1.846
  317SOL    HW1 1850   1.324   1.574   1.896
  317SOL    HW2 1851   1.330   1.504   1.749
  318SOL     OW 1852   0.151   0.663   5.273
  318SOL    HW1 1853   0.249   0.677   5.283
  318SOL    HW2 1854   0.121   0.692   5.182
  319SOL     OW 1855   1.158   2.230   2.398
  319SOL    HW1 1856   1.102   2.283   2.333
  319SOL    HW2 1857   1.247   2.274   2.409
  320SOL     OW 1858   6.071   2.351   6.957
  320SOL    HW1 1859   6.159   2.391   6.985
  320SOL    HW2 1860   6.062   2.260   6.996
  321SOL     OW 1861   3.861   3.116   0.715
  321SOL    HW1 1862   3.918   3.137   0.636
  321SOL    HW2 1863   3.766   3.137   0.694
  322SOL     OW 1864   4.493   3.057   6.596
  322SOL    HW1 1865   4.526   3.099   6.681
  322SOL    HW2 1866   4.486   2.958   6.608
  323SOL     OW 1867   0.514   3.265   3.608
  323SOL    HW1 1868   0.489   3.168   3.611
  323SOL    HW2 1869   0.613   3.273   3.618
  324SOL     OW 1870   1.446   0.276   3.129
  324SOL    HW1 1871   1.431   0.328   3.213
  324SOL    HW2 1872   1.365   0.222   3.108
  325SOL     OW 1873   0.753   3.644   2.651
  325SOL    HW1 1874   0.708   3.607   2.732
  325SOL    HW2 1875   0.685   3.680   2.588
  326SOL     OW 1876   2.014   6.248   6.421
  326SOL    HW1 1877   2.060   6.284   6.340
  326SOL    HW2 1878   2.051   6.292   6.503
  327SOL     OW 1879   4.153   5.332   3.651
  327SOL    HW1 1880   4.105   5.332   3.738
  327SOL    HW2 1881   4.095   5.373   3.580
  328SOL     OW 1882   2.454   4.414   2.287
  328SOL    HW1 1883   2.364   4.413   2.330
  328SOL    HW2 1884   2.521   4.453   2.350
  329SOL     OW 1885   3.123   4.171   1.526
  329SOL    HW1 1886   3.090   4.088   1.481
  329SOL    HW2 1887   3.056   4.203   1.592
  330SOL     OW 1888   4.081   4.916   0.258
  330SOL    HW1 1889   3.989   4.888   0.286
  330SOL    HW2 1890   4.128   4.838   0.215
  331SOL     OW 1891   4.622   5.472   0.274
  331SOL    HW1 1892   4.661   5.427   0.354
  331SOL    HW2 1893   4.689   5.473   0.200
  332SOL     OW 1894   5.357   1.992   2.777
  332SOL    HW1 1895   5.448   1.986   2.737
  332SOL    HW2 1896   5.336   2.087   2.798
  333SOL     OW 1897   3.590   1.263   5.541
  333SOL    HW1 1898   3.659   1.280   5.611
  333SOL    HW2 1899   3.615   1.182   5.488
  334SOL     OW 1900   4.055   3.798   3.172
  334SOL    HW1 1901   4.147   3.774   3.139
  334SOL    HW2 1902   4.016   3.721   3.222
  335SOL     OW 1903   3.596   0.225   6.380
  335SOL    HW1 1904   3.595   0.191   6.473
  335SOL    HW2 1905   3.511   0.198   6.333
  336SOL     OW 1906   2.587   1.806   3.295
  336SOL    HW1 1907   2.627   1.897   3.297
  336SOL    HW2 1908   2.497   1.811   3.251
  337SOL     OW 1909   1.615   1.820   6.033
  337SOL    HW1 1910   1.536   1.870   6.069
  337SOL    HW2 1911   1.588   1.726   6.012
  338SOL     OW 1912   4.372   2.639   1.207
  338SOL    HW1 1913   4.299   2.606   1.267
  338SOL    HW2 1914   4.394   2.734   1.230
  339SOL     OW 1915   4.094   5.143   4.622
  339SOL    HW1 1916   4.065   5.047   4.627
  339SOL    HW2 1917   4.068   5.190   4.706
  340SOL     OW 1918   4.860   2.304   4.402
  340SOL    HW1 1919   4.816   2.336   4.319
  340SOL    HW2 1920   4.939   2.362   4.423
  341SOL     OW 1921   5.914   6.365   3.549
  341SOL    HW1 1922   6.012   6.383   3.540
  341SOL    HW2 1923   5.868   6.390   3.464
  342SOL     OW 1924   4.589   2.564   1.053
  342SOL    HW1 1925   4.527   2.588   1.128
  342SOL    HW2 1926   4.683   2.577   1.082
  343SOL     OW 1927   1.238   5.493   3.313
  343SOL    HW1 1928   1.178   5.436   3.256
  343SOL    HW2 1929   1.315   5.525   3.259
  344SOL     OW 1930   1.889   1.215   1.590
  344SOL    HW1 1931   1.905   1.311   1.568
  344SOL    HW2 1932   1.801   1.186   1.551
  345SOL     OW 1933   6.433   2.495   4.276
  345SOL    HW1 1934   6.413   2.402   4.306
  345SOL    HW2 1935   6.421   2.501   4.177
  346SOL     OW 1936   1.537   0.343   2.675
  346SOL    HW1 1937   1.559   0.423   2.620
  346SOL    HW2 1938   1.546   0.260   2.618
  347SOL     OW 1939   2.877   5.188   0.317
  347SOL    HW1 1940   2.777   5.190   0.311
  347SOL    HW2 1941   2.916   5.254   0.253
  348SOL     OW 1942   5.104   5.580   2.013
  348SOL    HW1 1943   5.113   5.608   2.108
  348SOL    HW2 1944   5.189   5.536   1.984
  349SOL     OW 1945   0.012   3.860   1.297
  349SOL    HW1 1946   0.044   3.942   1.250
  349SOL    HW2 1947   6.931   3.859   1.298
  350SOL     OW 1948   3.685   2.832   6.897
  350SOL    HW1 1949   3.715   2.916   6.942
  350SOL    HW2 1950   3.587   2.819   6.911
  351SOL     OW 1951   3.526   4.608   0.490
  351SOL    HW1 1952   3.550   4.654   0.405
  351SOL    HW2 1953   3.483   4.673   0.553
  352SOL     OW 1954   4.481   5.728   3.411
  352SOL    HW1 1955   4.575   5.758   3.396
  352SOL    HW2 1956   4.434   5.721   3.323
  353SOL     OW 1957   2.503   6.823   6.230
  353SOL    HW1 1958   2.457   6.735   6.245
  353SOL    HW2 1959   2.567   6.839   6.305
  354SOL     OW 1960   5.774   2.762   1.004
  354SOL    HW1 1961   5.784   2.761   0.905
  354SOL    HW2 1962   5.863   2.747   1.047
  355SOL     OW 1963   1.926   2.679   2.464
  355SOL    HW1 1964   1.886   2.749   2.405
  355SOL    HW2 1965   1.946   2.718   2.554
  356SOL     OW 1966   1.679   0.553   5.487
  356SOL    HW1 1967   1.661   0.619   5.414
  356SOL    HW2 1968   1.595   0.535   5.537
  357SOL     OW 1969   5.601   6.890   4.729
  357SOL    HW1 1970   5.650   6.924   4.648
  357SOL    HW2 1971   5.664   6.882   4.806
  358SOL     OW 1972   4.991   5.885   0.883
  358SOL    HW1 1973   4.920   5.920   0.944
  358SOL    HW2 1974   5.032   5.803   0.923
  359SOL     OW 1975   3.140   1.907   2.047
  359SOL    HW1 1976   3.205   1.955   1.987
  359SOL    HW2 1977   3.172   1.814   2.063
  360SOL     OW 1978   0.784   5.148   4.305
  360SOL    HW1 1979   0.742   5.115   4.220
  360SOL    HW2 1980   0.749   5.095   4.382
  361SOL     OW 1981   6.667   5.904   3.299
  361SOL    HW1 1982   6.643   5.925   3.205
  361SOL    HW2 1983   6.647   5.808   3.319
  362SOL     OW 1984   4.080   4.378   0.661
  362SOL    HW1 1985   4.114   4.285   0.643
  362SOL    HW2 1986   3.990   4.388   0.618
  363SOL     OW 1987   6.118   4.900   2.676
  363SOL    HW1 1988   6.129   4.902   2.576
  363SOL    HW2 1989   6.067   4.981   2.704
  364SOL     OW 1990   0.893   5.535   6.558
  364SOL    HW1 1991   0.991   5.516   6.563
  364SOL    HW2 1992   0.842   5.450   6.570
  365SOL     OW 1993   3.250   0.903   2.183
  365SOL    HW1 1994   3.330   0.959   2.161
  365SOL    HW2 1995   3.255   0.874   2.279
  366SOL     OW 1996   5.830   3.323   0.306
  366SOL    HW1 1997   5.800   3.249   0.366
  366SOL    HW2 1998   5.777   3.406   0.326
  367SOL     OW 1999   4.606   1.948   5.750
  367SOL    HW1 2000   4.669   2.024   5.731
  367SOL    HW2 2001   4.618   1.877   5.680
  368SOL     OW 2002   6.426   2.385   6.063
  368SOL    HW1 2003   6.379   2.388   6.152
  368SOL    HW2 2004   6.503   2.448   6.064
  369SOL     OW 2005   5.832   3.786   3.021
  369SOL    HW1 2006   5.839   3.773   3.120
  369SOL    HW2 2007   5.913   3.748   2.976
  370SOL     OW 2008   1.963   2.409   3.989
  370SOL    HW1 2009   1.889   2.446   3.934
  370SOL    HW2 2010   1.946   2.429   4.086
  371SOL     OW 2011   1.864   3.900   6.817
  371SOL    HW1 2012   1.798   3.839   6.862
  371SOL    HW2 2013   1.916   3.848   6.749
  372SOL     OW 2014   2.493   6.687   5.139
  372SOL    HW1 2015   2.408   6.633   5.144
  372SOL    HW2 2016   2.527   6.702   5.231
  373SOL     OW 2017   5.771   6.879   4.939
  373SOL    HW1 2018   5.868   6.902   4.929
  373SOL    HW2 2019   5.735   6.921   5.022
  374SOL     OW 2020   2.544   1.676   2.496
  374SOL    HW1 2021   2.534   1.708   2.402
  374SOL    HW2 2022   2.622   1.722   2.539
  375SOL     OW 2023   0.510   5.537   5.091
  375SOL    HW1 2024   0.557   5.492   5.016
  375SOL    HW2 2025   0.413   5.511   5.091
  376SOL     OW 2026   2.791   1.417   4.293
  376SOL    HW1 2027   2.873   1.474   4.282
  376SOL    HW2 2028   2.789   1.380   4.385
  377SOL     OW 2029   1.474   2.286   0.073
  377SOL    HW1 2030   1.409   2.241   0.012
  377SOL    HW2 2031   1.550   2.323   0.021
  378SOL     OW 2032   2.831   1.375   0.051
  378SOL    HW1 2033   2.868   1.382   6.977
  378SOL    HW2 2034   2.905   1.379   0.117
  379SOL     OW 2035   5.807   2.403   6.494
  379SOL    HW1 2036   5.744   2.384   6.569
  379SOL    HW2 2037   5.815   2.502   6.482
  380SOL     OW 2038   3.331   1.271   1.099
  380SOL    HW1 2039   3.295   1.223   1.178
  380SOL    HW2 2040   3.273   1.350   1.079
  381SOL     OW 2041   1.368   4.935   4.184
  381SOL    HW1 2042   1.444   4.993   4.153
  381SOL    HW2 2043   1.361   4.940   4.283
  382SOL     OW 2044   6.073   0.522   0.204
  382SOL    HW1 2045   6.100   0.590   0.136
  382SOL    HW2 2046   5.975   0.503   0.196
  383SOL     OW 2047   3.927   2.982   0.935
  383SOL    HW1 2048   3.887   3.023   0.854
  383SOL    HW2 2049   3.936   3.051   1.007
  384SOL     OW 2050   0.010   4.002   4.233
  384SOL    HW1 2051   0.005   3.919   4.288
  384SOL    HW2 2052   6.961   3.997   4.160
  385SOL     OW 2053   3.981   5.444   6.128
  385SOL    HW1 2054   4.022   5.362   6.089
  385SOL    HW2 2055   4.053   5.507   6.157
  386SOL     OW 2056   4.564   0.331   4.005
  386SOL    HW1 2057   4.660   0.357   4.008
  386SOL    HW2 2058   4.538   0.288   4.091
  387SOL     OW 2059   2.377   5.234   3.011
  387SOL    HW1 2060   2.442   5.233   3.087
  387SOL    HW2 2061   2.293   5.280   3.039
  388SOL     OW 2062   2.044   2.053   6.525
  388SOL    HW1 2063   2.069   2.103   6.608
  388SOL    HW2 2064   2.067   1.957   6.536
  389SOL     OW 2065   3.683   4.116   2.788
  389SOL    HW1 2066   3.593   4.116   2.831
  389SOL    HW2 2067   3.754   4.115   2.858
  390SOL     OW 2068   2.409   0.948   3.757
  390SOL    HW1 2069   2.489   0.896   3.727
  390SOL    HW2 2070   2.432   0.999   3.840
  391SOL     OW 2071   1.762   2.878   0.371
  391SOL    HW1 2072   1.677   2.830   0.394
  391SOL    HW2 2073   1.770   2.884   0.271
  392SOL     OW 2074   2.091   5.023   1.580
  392SOL    HW1 2075   2.149   5.099   1.550
  392SOL    HW2 2076   2.147   4.942   1.596
  393SOL     OW 2077   6.126   4.634   5.409
  393SOL    HW1 2078   6.118   4.716   5.466
  393SOL    HW2 2079   6.217   4.629   5.369
  394SOL     OW 2080   0.377   6.600   0.492
  394SOL    HW1 2081   0.339   6.692   0.484
  394SOL    HW2 2082   0.310   6.540   0.535
  395SOL     OW 2083   5.005   3.680   2.306
  395SOL    HW1 2084   5.016   3.642   2.214
  395SOL    HW2 2085   4.993   3.605   2.372
  396SOL     OW 2086   3.815   3.560   3.048
  396SOL    HW1 2087   3.752   3.489   3.017
  396SOL    HW2 2088   3.890   3.568   2.982
  397SOL     OW 2089   4.077   2.536   5.623
  397SOL    HW1 2090   4.073   2.587   5.537
  397SOL    HW2 2091   4.169   2.544   5.662
  398SOL     OW 2092   0.954   5.777   2.268
  398SOL    HW1 2093   0.958   5.678   2.274
  398SOL    HW2 2094   0.943   5.816   2.359
  399SOL     OW 2095   4.894   5.741   2.389
  399SOL    HW1 2096   4.910   5.795   2.473
  399SOL    HW2 2097   4.980   5.700   2.360
  400SOL     OW 2098   0.029   0.489   5.443
  400SOL    HW1 2099   0.074   0.552   5.380
  400SOL    HW2 2100   6.960   0.528   5.471
  401SOL     OW 2101   4.743   0.904   6.331
  401SOL    HW1 2102   4.648   0.890   6.300
  401SOL    HW2 2103   4.806   0.881   6.257
  402SOL     OW 2104   6.590   6.411   3.146
  402SOL    HW1 2105   6.560   6.436   3.238
  402SOL    HW2 2106   6.647   6.329   3.151
  403SOL     OW 2107   4.722   2.525   5.908
  403SOL    HW1 2108   4.651   2.455   5.901
  403SOL    HW2 2109   4.796   2.491   5.966
  404SOL     OW 2110   1.605   6.940   3.375
  404SOL    HW1 2111   1.528   6.879   3.358
  404SOL    HW2 2112   1.623   6.993   3.292
  405SOL     OW 2113   1.912   2.103   1.163
  405SOL    HW1 2114   1.932   2.131   1.257
  405SOL    HW2 2115   1.998   2.083   1.115
  406SOL     OW 2116   1.272   2.905   4.110
  406SOL    HW1 2117   1.249   2.862   4.197
  406SOL    HW2 2118   1.330   2.985   4.127
  407SOL     OW 2119   2.569   6.985   4.291
  407SOL    HW1 2120   2.636   6.928   4.242
  407SOL    HW2 2121   2.616   0.021   4.360
  408SOL     OW 2122   1.499   0.872   3.338
  408SOL    HW1 2123   1.414   0.862   3.389
  408SOL    HW2 2124   1.520   0.786   3.291
  409SOL     OW 2125   5.621   3.130   2.794
  409SOL    HW1 2126   5.668   3.194   2.854
  409SOL    HW2 2127   5.615   3.040   2.838
  410SOL     OW 2128   2.508   0.292   0.176
  410SOL    HW1 2129   2.469   0.342   0.252
  410SOL    HW2 2130   2.582   0.233   0.209
  411SOL     OW 2131   5.795   6.056   6.895
  411SOL    HW1 2132   5.734   6.010   6.830
  411SOL    HW2 2133   5.890   6.047   6.864
  412SOL     OW 2134   3.928   6.675   2.428
  412SOL    HW1 2135   3.961   6.635   2.343
  412SOL    HW2 2136   3.907   6.603   2.494
  413SOL     OW 2137   4.075   4.515   0.892
  413SOL    HW1 2138   4.087   4.456   0.813
  413SOL    HW2 2139   3.980   4.511   0.923
  414SOL     OW 2140   4.612   5.290   2.392
  414SOL    HW1 2141   4.652   5.380   2.378
  414SOL    HW2 2142   4.555   5.291   2.474
  415SOL     OW 2143   1.714   5.714   0.460
  415SOL    HW1 2144   1.643   5.646   0.477
  415SOL    HW2 2145   1.672   5.803   0.445
  416SOL     OW 2146   4.508   5.485   4.827
  416SOL    HW1 2147   4.525   5.432   4.910
  416SOL    HW2 2148   4.547   5.437   4.748
  417SOL     OW 2149   3.005   6.529   1.331
  417SOL    HW1 2150   3.063   6.610   1.325
  417SOL    HW2 2151   2.927   6.547   1.390
  418SOL     OW 2152   4.820   6.034   0.391
  418SOL    HW1 2153   4.789   5.939   0.385
  418SOL    HW2 2154   4.867   6.059   0.307
  419SOL     OW 2155   0.857   0.417   1.582
  419SOL    HW1 2156   0.925   0.360   1.535
  419SOL    HW2 2157   0.900   0.462   1.661
  420SOL     OW 2158   6.160   3.742   1.133
  420SOL    HW1 2159   6.180   3.675   1.204
  420SOL    HW2 2160   6.100   3.701   1.064
  421SOL     OW 2161   0.476   5.248   6.219
  421SOL    HW1 2162   0.453   5.157   6.186
  421SOL    HW2 2163   0.520   5.242   6.308
  422SOL     OW 2164   6.559   5.720   0.915
  422SOL    HW1 2165   6.539   5.639   0.859
  422SOL    HW2 2166   6.651   5.713   0.953
  423SOL     OW 2167   6.216   3.319   0.093
  423SOL    HW1 2168   6.202   3.226   0.125
  423SOL    HW2 2169   6.313   3.332   0.071
  424SOL     OW 2170   3.111   3.352   0.384
  424SOL    HW1 2171   3.013   3.369   0.373
  424SOL    HW2 2172   3.127   3.254   0.393
  425SOL     OW 2173   5.165   1.232   1.775
  425SOL    HW1 2174   5.074   1.268   1.755
  425SOL    HW2 2175   5.179   1.228   1.874
  426SOL     OW 2176   5.754   2.503   5.322
  426SOL    HW1 2177   5.675   2.502   5.383
  426SOL    HW2 2178   5.722   2.501   5.227
  427SOL     OW 2179   5.539   4.974   2.824
  427SOL    HW1 2180   5.525   5.016   2.735
  427SOL    HW2 2181   5.451   4.938   2.858
  428SOL     OW 2182   4.372   0.339   5.307
  428SOL    HW1 2183   4.322   0.419   5.339
  428SOL    HW2 2184   4.330   0.306   5.222
  429SOL     OW 2185   2.856   5.316   0.972
  429SOL    HW1 2186   2.922   5.314   0.897
  429SOL    HW2 2187   2.804   5.230   0.974
  430SOL     OW 2188   0.868   6.819   4.095
  430SOL    HW1 2189   0.836   6.777   4.180
  430SOL    HW2 2190   0.967   6.834   4.100
  431SOL     OW 2191   2.966   1.048   0.098
  431SOL    HW1 2192   2.974   0.996   0.183
  431SOL    HW2 2193   2.872   1.080   0.088
  432SOL     OW 2194   6.519   2.556   0.745
  432SOL    HW1 2195   6.595   2.513   0.697
  432SOL    HW2 2196   6.554   2.629   0.804
  433SOL     OW 2197   2.682   0.225   4.061
  433SOL    HW1 2198   2.707   0.151   3.999
  433SOL    HW2 2199   2.583   0.225   4.075
  434SOL     OW 2200   4.900   5.135   1.356
  434SOL    HW1 2201   4.836   5.058   1.350
  434SOL    HW2 2202   4.988   5.109   1.318
  435SOL     OW 2203   3.752   2.741   5.412
  435SOL    HW1 2204   3.753   2.786   5.501
  435SOL    HW2 2205   3.832   2.681   5.404
  436SOL     OW 2206   2.106   6.712   0.979
  436SOL    HW1 2207   2.171   6.761   1.037
  436SOL    HW2 2208   2.138   6.711   0.885
  437SOL     OW 2209   0.210   0.298   6.472
  437SOL    HW1 2210   0.304   0.297   6.507
  437SOL    HW2 2211   0.203   0.360   6.395
  438SOL     OW 2212   1.783   3.259   2.443
  438SOL    HW1 2213   1.869   3.309   2.437
  438SOL    HW2 2214   1.713   3.307   2.389
  439SOL     OW 2215   5.725   4.474   3.578
  439SOL    HW1 2216   5.759   4.459   3.485
  439SOL    HW2 2217   5.781   4.424   3.643
  440SOL     OW 2218   1.159   1.996   4.776
  440SOL    HW1 2219   1.107   1.915   4.802
  440SOL    HW2 2220   1.157   2.062   4.851
  441SOL     OW 2221   0.387   1.689   3.133
  441SOL    HW1 2222   0.357   1.784   3.144
  441SOL    HW2 2223   0.483   1.682   3.158
  442SOL     OW 2224   1.613   4.540   6.983
  442SOL    HW1 2225   1.533   4.540   6.924
  442SOL    HW2 2226   1.661   4.452   6.975
  443SOL     OW 2227   1.123   4.095   5.069
  443SOL    HW1 2228   1.135   4.193   5.085
  443SOL    HW2 2229   1.210   4.048   5.082
  444SOL     OW 2230   5.107   2.439   5.964
  444SOL    HW1 2231   5.190   2.390   5.990
  444SOL    HW2 2232   5.126   2.537   5.961
  445SOL     OW 2233   1.700   5.576   3.291
  445SOL    HW1 2234   1.734   5.487   3.262
  445SOL    HW2 2235   1.737   5.598   3.382
  446SOL     OW 2236   4.018   4.769   3.346
  446SOL    HW1 2237   4.101   4.765   3.401
  446SOL    HW2 2238   3.994   4.677   3.315
  447SOL     OW 2239   0.642   3.586   6.828
  447SOL    HW1 2240   0.696   3.609   6.747
  447SOL    HW2 2241   0.545   3.583   6.804
  448SOL     OW 2242   3.441   0.645   4.866
  448SOL    HW1 2243   3.394   0.720   4.912
  448SOL    HW2 2244   3.380   0.565   4.863
  449SOL     OW 2245   4.686   0.807   5.459
  449SOL    HW1 2246   4.653   0.737   5.522
  449SOL    HW2 2247   4.752   0.865   5.506
  450SOL     OW 2248   0.979   5.900   2.986
  450SOL    HW1 2249   1.043   5.832   2.950
  450SOL    HW2 2250   0.896   5.900   2.931
  451SOL     OW 2251   0.935   2.149   2.560
  451SOL    HW1 2252   0.865   2.116   2.496
  451SOL    HW2 2253   1.003   2.202   2.510
  452SOL     OW 2254   6.260   5.773   0.356
  452SOL    HW1 2255   6.308   5.861   0.357
  452SOL    HW2 2256   6.267   5.731   0.266
  453SOL     OW 2257   2.992   0.088   5.519
  453SOL    HW1 2258   3.025   0.049   5.433
  453SOL    HW2 2259   3.069   0.104   5.580
  454SOL     OW 2260   0.144   5.598   5.874
  454SOL    HW1 2261   0.126   5.642   5.962
  454SOL    HW2 2262   0.241   5.604   5.852
  455SOL     OW 2263   6.533   0.391   4.136
  455SOL    HW1 2264   6.529   0.317   4.070
  455SOL    HW2 2265   6.447   0.441   4.135
  456SOL     OW 2266   4.363   6.051   4.891
  456SOL    HW1 2267   4.356   6.052   4.991
  456SOL    HW2 2268   4.341   5.959   4.857
  457SOL     OW 2269   2.120   3.731   3.596
  457SOL    HW1 2270   2.113   3.762   3.501
  457SOL    HW2 2271   2.090   3.804   3.657
  458SOL     OW 2272   4.733   5.628   4.919
  458SOL    HW1 2273   4.638   5.597   4.925
  458SOL    HW2 2274   4.785   5.563   4.863
  459SOL     OW 2275   1.569   0.301   3.977
  459SOL    HW1 2276   1.519   0.226   3.933
  459SOL    HW2 2277   1.572   0.286   4.076
  460SOL     OW 2278   0.594   0.898   2.334
  460SOL    HW1 2279   0.663   0.965   2.310
  460SOL    HW2 2280   0.503   0.932   2.309
  461SOL     OW 2281   5.817   6.511   4.607
  461SOL    HW1 2282   5.724   6.479   4.620
  461SOL    HW2 2283   5.816   6.597   4.557
  462SOL     OW 2284   4.050   2.157   5.754
  462SOL    HW1 2285   4.086   2.073   5.714
  462SOL    HW2 2286   3.958   2.175   5.717
  463SOL     OW 2287   6.148   6.453   2.858
  463SOL    HW1 2288   6.176   6.482   2.766
  463SOL    HW2 2289   6.227   6.457   2.919
  464SOL     OW 2290   2.775   2.034   6.173
  464SOL    HW1 2291   2.820   2.015   6.085
  464SOL    HW2 2292   2.840   2.019   6.247
  465SOL     OW 2293   1.357   2.113   3.848
  465SOL    HW1 2294   1.336   2.035   3.907
  465SOL    HW2 2295   1.455   2.132   3.851
  466SOL     OW 2296   0.744   5.687   3.156
  466SOL    HW1 2297   0.843   5.673   3.146
  466SOL    HW2 2298   0.705   5.715   3.068
  467SOL     OW 2299   1.146   0.544   6.100
  467SOL    HW1 2300   1.245   0.530   6.102
  467SOL    HW2 2301   1.100   0.456   6.117
  468SOL     OW 2302   3.058   6.097   0.234
  468SOL    HW1 2303   3.074   6.193   0.258
  468SOL    HW2 2304   3.093   6.080   0.141
  469SOL     OW 2305   2.588   4.438   1.089
  469SOL    HW1 2306   2.632   4.446   1.179
  469SOL    HW2 2307   2.489   4.430   1.101
  470SOL     OW 2308   3.373   0.626   2.479
  470SOL    HW1 2309   3.312   0.555   2.514
  470SOL    HW2 2310   3.463   0.617   2.524
  471SOL     OW 2311   1.636   2.257   4.587
  471SOL    HW1 2312   1.539   2.241   4.569
  471SOL    HW2 2313   1.649   2.288   4.681
  472SOL     OW 2314   5.426   3.940   0.041
  472SOL    HW1 2315   5.484   3.999   0.096
  472SOL    HW2 2316   5.406   3.985   6.973
  473SOL     OW 2317   0.206   3.095   1.347
  473SOL    HW1 2318   0.268   3.163   1.385
  473SOL    HW2 2319   0.159   3.133   1.267
  474SOL     OW 2320   4.642   4.889   3.906
  474SOL    HW1 2321   4.601   4.936   3.828
  474SOL    HW2 2322   4.580   4.893   3.984
  475SOL     OW 2323   6.032   0.992   6.622
  475SOL    HW1 2324   5.992   1.084   6.622
  475SOL    HW2 2325   6.010   0.947   6.709
  476SOL     OW 2326   0.562   4.357   2.366
  476SOL    HW1 2327   0.651   4.357   2.411
  476SOL    HW2 2328   0.497   4.303   2.420
  477SOL     OW 2329   2.109   4.694   5.089
  477SOL    HW1 2330   2.207   4.706   5.102
  477SOL    HW2 2331   2.060   4.758   5.148
  478SOL     OW 2332   3.325   6.506   2.442
  478SOL    HW1 2333   3.256   6.433   2.451
  478SOL    HW2 2334   3.285   6.583   2.392
  479SOL     OW 2335   4.457   2.246   0.011
  479SOL    HW1 2336   4.387   2.187   0.051
  479SOL    HW2 2337   4.430   2.270   6.936
  480SOL     OW 2338   2.337   0.698   0.409
  480SOL    HW1 2339   2.301   0.692   0.316
  480SOL    HW2 2340   2.410   0.767   0.412
  481SOL     OW 2341   1.843   0.022   0.148
  481SOL    HW1 2342   1.884   0.022   0.239
  481SOL    HW2 2343   1.745   0.041   0.154
  482SOL     OW 2344   4.373   4.830   2.794
  482SOL    HW1 2345   4.384   4.926   2.768
  482SOL    HW2 2346   4.318   4.783   2.725
  483SOL     OW 2347   6.495   2.219   1.650
  483SOL    HW1 2348   6.526   2.268   1.732
  483SOL    HW2 2349   6.551   2.247   1.572
  484SOL     OW 2350   0.979   2.991   4.972
  484SOL    HW1 2351   0.890   2.990   4.927
  484SOL    HW2 2352   0.997   2.901   5.013
  485SOL     OW 2353   4.268   5.791   1.828
  485SOL    HW1 2354   4.308   5.700   1.818
  485SOL    HW2 2355   4.333   5.860   1.795
  486SOL     OW 2356   0.097   1.693   1.016
  486SOL    HW1 2357   0.104   1.598   0.987
  486SOL    HW2 2358   0.079   1.697   1.114
  487SOL     OW 2359   0.452   2.043   0.522
  487SOL    HW1 2360   0.464   2.009   0.616
  487SOL    HW2 2361   0.508   2.125   0.509
  488SOL     OW 2362   0.348   1.134   1.613
  488SOL    HW1 2363   0.360   1.195   1.692
  488SOL    HW2 2364   0.251   1.132   1.587
  489SOL     OW 2365   3.830   6.266   6.543
  489SOL    HW1 2366   3.919   6.243   6.582
  489SOL    HW2 2367   3.764   6.281   6.616
  490SOL     OW 2368   6.747   6.343   3.456
  490SOL    HW1 2369   6.680   6.289   3.406
  490SOL    HW2 2370   6.813   6.282   3.501
  491SOL     OW 2371   0.273   2.861   2.660
  491SOL    HW1 2372   0.363   2.819   2.666
  491SOL    HW2 2373   0.208   2.811   2.718
  492SOL     OW 2374   2.978   0.324   4.906
  492SOL    HW1 2375   2.957   0.310   4.810
  492SOL    HW2 2376   2.947   0.415   4.934
  493SOL     OW 2377   5.260   6.026   5.458
  493SOL    HW1 2378   5.332   6.090   5.483
  493SOL    HW2 2379   5.290   5.971   5.379
  494SOL     OW 2380   0.829   0.136   6.768
  494SOL    HW1 2381   0.862   0.111   6.859
  494SOL    HW2 2382   0.866   0.226   6.742
  495SOL     OW 2383   5.194   6.083   2.852
  495SOL    HW1 2384   5.279   6.074   2.801
  495SOL    HW2 2385   5.211   6.134   2.936
  496SOL     OW 2386   5.366   3.448   2.862
  496SOL    HW1 2387   5.358   3.387   2.783
  496SOL    HW2 2388   5.303   3.525   2.851
  497SOL     OW 2389   3.134   1.413   5.623
  497SOL    HW1 2390   3.222   1.368   5.639
  497SOL    HW2 2391   3.079   1.409   5.707
  498SOL     OW 2392   1.403   3.822   1.713
  498SOL    HW1 2393   1.357   3.741   1.751
  498SOL    HW2 2394   1.496   3.798   1.687
  499SOL     OW 2395   3.075   0.287   4.154
  499SOL    HW1 2396   3.091   0.312   4.250
  499SOL    HW2 2397   3.134   0.210   4.130
  500SOL     OW 2398   1.000   3.511   2.613
  500SOL    HW1 2399   0.918   3.536   2.664
  500SOL    HW2 2400   1.068   3.473   2.675
  501SOL     OW 2401   3.254   0.262   0.541
  501SOL    HW1 2402   3.232   0.175   0.496
  501SOL    HW2 2403   3.172   0.319   0.545
  502SOL     OW 2404   6.377   4.695   6.264
  502SOL    HW1 2405   6.476   4.709   6.255
  502SOL    HW2 2406   6.329   4.769   6.218
  503SOL     OW 2407   5.778   5.634   5.879
  503SOL    HW1 2408   5.876   5.618   5.865
  503SOL    HW2 2409   5.758   5.632   5.977
  504SOL     OW 2410   2.755   5.799   2.853
  504SOL    HW1 2411   2.701   5.873   2.813
  504SOL    HW2 2412   2.761   5.813   2.952
  505SOL     OW 2413   3.740   6.803   5.578
  505SOL    HW1 2414   3.809   6.860   5.533
  505SOL    HW2 2415   3.696   6.744   5.511
  506SOL     OW 2416   1.406   5.374   4.636
  506SOL    HW1 2417   1.460   5.393   4.554
  506SOL    HW2 2418   1.426   5.442   4.706
  507SOL     OW 2419   3.584   0.827   4.198
  507SOL    HW1 2420   3.640   0.871   4.128
  507SOL    HW2 2421   3.640   0.764   4.251
  508SOL     OW 2422   6.421   3.915   2.755
  508SOL    HW1 2423   6.388   4.002   2.791
  508SOL    HW2 2424   6.363   3.841   2.788
  509SOL     OW 2425   2.857   1.072   0.809
  509SOL    HW1 2426   2.861   1.002   0.738
  509SOL    HW2 2427   2.827   1.031   0.895
  510SOL     OW 2428   6.307   5.027   5.668
  510SOL    HW1 2429   6.403   5.031   5.695
  510SOL    HW2 2430   6.264   5.116   5.683
  511SOL     OW 2431   0.664   6.765   6.763
  511SOL    HW1 2432   0.644   6.682   6.712
  511SOL    HW2 2433   0.714   6.742   6.847
  512SOL     OW 2434   6.680   3.011   0.464
  512SOL    HW1 2435   6.688   3.101   0.506
  512SOL    HW2 2436   6.760   2.956   0.489
  513SOL     OW 2437   5.721   6.300   3.096
  513SOL    HW1 2438   5.678   6.376   3.049
  513SOL    HW2 2439   5.798   6.266   3.042
  514SOL     OW 2440   6.783   2.570   3.870
  514SOL    HW1 2441   6.749   2.538   3.781
  514SOL    HW2 2442   6.882   2.576   3.867
  515SOL     OW 2443   1.314   0.447   6.631
  515SOL    HW1 2444   1.410   0.426   6.651
  515SOL    HW2 2445   1.284   0.394   6.552
  516SOL     OW 2446   2.944   4.690   1.668
  516SOL    HW1 2447   2.939   4.603   1.717
  516SOL    HW2 2448   2.882   4.756   1.711
  517SOL     OW 2449   4.815   6.395   2.259
  517SOL    HW1 2450   4.852   6.362   2.172
  517SOL    HW2 2451   4.727   6.352   2.277
  518SOL     OW 2452   3.053   2.151   2.174
  518SOL    HW1 2453   3.019   2.227   2.119
  518SOL    HW2 2454   3.072   2.072   2.115
  519SOL     OW 2455   0.066   0.747   4.506
  519SOL    HW1 2456   0.069   0.652   4.536
  519SOL    HW2 2457   0.158   0.777   4.482
  520SOL     OW 2458   6.127   4.846   6.722
  520SOL    HW1 2459   6.042   4.814   6.681
  520SOL    HW2 2460   6.194   4.864   6.650
  521SOL     OW 2461   6.191   2.940   6.466
  521SOL    HW1 2462   6.155   3.012   6.407
  521SOL    HW2 2463   6.283   2.914   6.437
  522SOL     OW 2464   3.627   2.984   5.023
  522SOL    HW1 2465   3.591   2.914   5.084
  522SOL    HW2 2466   3.607   3.074   5.061
  523SOL     OW 2467   0.217   4.767   2.475
  523SOL    HW1 2468   0.262   4.854   2.498
  523SOL    HW2 2469   0.158   4.780   2.395
  524SOL     OW 2470   1.984   1.298   6.819
  524SOL    HW1 2471   2.002   1.395   6.803
  524SOL    HW2 2472   2.047   1.243   6.763
  525SOL     OW 2473   2.782   3.585   6.303
  525SOL    HW1 2474   2.806   3.674   6.341
  525SOL    HW2 2475   2.733   3.597   6.216
  526SOL     OW 2476   2.475   0.342   4.797
  526SOL    HW1 2477   2.509   0.299   4.881
  526SOL    HW2 2478   2.454   0.438   4.814
  527SOL     OW 2479   5.780   3.302   6.060
  527SOL    HW1 2480   5.735   3.327   5.974
  527SOL    HW2 2481   5.832   3.219   6.047
  528SOL     OW 2482   0.862   1.589   4.297
  528SOL    HW1 2483   0.869   1.645   4.215
  528SOL    HW2 2484   0.778   1.612   4.346
  529SOL     OW 2485   0.522   5.502   4.245
  529SOL    HW1 2486   0.615   5.470   4.227
  529SOL    HW2 2487   0.523   5.601   4.259
  530SOL     OW 2488   2.916   2.812   5.402
  530SOL    HW1 2489   2.851   2.882   5.374
  530SOL    HW2 2490   3.001   2.855   5.432
  531SOL     OW 2491   0.294   0.673   1.722
  531SOL    HW1 2492   0.280   0.574   1.728
  531SOL    HW2 2493   0.392   0.693   1.718
  532SOL     OW 2494   0.934   2.733   6.906
  532SOL    HW1 2495   0.857   2.792   6.880
  532SOL    HW2 2496   0.919   2.699   6.999
  533SOL     OW 2497   4.352   5.891   4.168
  533SOL    HW1 2498   4.396   5.813   4.123
  533SOL    HW2 2499   4.407   5.973   4.154
  534SOL     OW 2500   5.388   5.107   3.541
  534SOL    HW1 2501   5.312   5.042   3.553
  534SOL    HW2 2502   5.404   5.121   3.443
  535SOL     OW 2503   1.120   3.993   4.725
  535SOL    HW1 2504   1.211   3.957   4.742
  535SOL    HW2 2505   1.081   4.028   4.810
  536SOL     OW 2506   0.006   4.742   1.950
  536SOL    HW1 2507   0.087   4.794   1.925
  536SOL    HW2 2508   6.943   4.799   1.937
  537SOL     OW 2509   1.974   6.108   3.837
  537SOL    HW1 2510   1.932   6.153   3.758
  537SOL    HW2 2511   2.023   6.176   3.891
  538SOL     OW 2512   1.901   5.845   3.886
  538SOL    HW1 2513   1.978   5.782   3.871
  538SOL    HW2 2514   1.931   5.938   3.866
  539SOL     OW 2515   0.481   5.947   0.074
  539SOL    HW1 2516   0.563   5.894   0.052
  539SOL    HW2 2517   0.404   5.885   0.090
  540SOL     OW 2518   0.096   1.427   1.830
  540SOL    HW1 2519   0.039   1.406   1.910
  540SOL    HW2 2520   0.084   1.357   1.761
  541SOL     OW 2521   2.954   6.975   4.358
  541SOL    HW1 2522   2.953   6.912   4.435
  541SOL    HW2 2523   3.043   6.973   4.313
  542SOL     OW 2524   6.826   6.903   0.608
  542SOL    HW1 2525   6.853   6.824   0.553
  542SOL    HW2 2526   6.838   6.987   0.555
  543SOL     OW 2527   0.052   5.271   5.438
  543SOL    HW1 2528   0.047   5.214   5.521
  543SOL    HW2 2529   0.108   5.225   5.370
  544SOL     OW 2530   1.966   4.079   1.377
  544SOL    HW1 2531   1.963   4.036   1.287
  544SOL    HW2 2532   1.934   4.173   1.371
  545SOL     OW 2533   3.663   1.216   3.437
  545SOL    HW1 2534   3.692   1.147   3.504
  545SOL    HW2 2535   3.596   1.176   3.375
  546SOL     OW 2536   1.627   3.157   1.155
  546SOL    HW1 2537   1.537   3.122   1.180
  546SOL    HW2 2538   1.630   3.256   1.169
  547SOL     OW 2539   2.534   0.959   6.671
  547SOL    HW1 2540   2.465   0.970   6.743
  547SOL    HW2 2541   2.622   0.936   6.712
  548SOL     OW 2542   3.843   3.113   2.647
  548SOL    HW1 2543   3.820   3.083   2.739
  548SOL    HW2 2544   3.806   3.048   2.580
  549SOL     OW 2545   4.513   3.869   1.544
  549SOL    HW1 2546   4.422   3.883   1.583
  549SOL    HW2 2547   4.515   3.782   1.495
  550SOL     OW 2548   0.020   3.532   3.366
  550SOL    HW1 2549   7.010   3.628   3.363
  550SOL    HW2 2550   6.976   3.479   3.423
  551SOL     OW 2551   6.997   1.029   0.968
  551SOL    HW1 2552   6.910   0.980   0.962
  551SOL    HW2 2553   6.994   1.110   0.908
  552SOL     OW 2554   4.394   5.235   0.842
  552SOL    HW1 2555   4.464   5.273   0.902
  552SOL    HW2 2556   4.435   5.169   0.780
  553SOL     OW 2557   1.745   6.815   2.347
  553SOL    HW1 2558   1.817   6.879   2.317
  553SOL    HW2 2559   1.763   6.786   2.441
  554SOL     OW 2560   4.980   6.898   6.553
  554SOL    HW1 2561   4.956   6.992   6.577
  554SOL    HW2 2562   5.080   6.890   6.546
  555SOL     OW 2563   2.281   5.229   4.507
  555SOL    HW1 2564   2.274   5.189   4.598
  555SOL    HW2 2565   2.269   5.328   4.513
  556SOL     OW 2566   6.119   1.759   4.284
  556SOL    HW1 2567   6.055   1.835   4.279
  556SOL    HW2 2568   6.213   1.795   4.288
  557SOL     OW 2569   0.018   5.352   6.598
  557SOL    HW1 2570   0.111   5.325   6.626
  557SOL    HW2 2571   0.013   5.353   6.498
  558SOL     OW 2572   3.940   4.000   4.516
  558SOL    HW1 2573   3.976   3.907   4.526
  558SOL    HW2 2574   4.012   4.066   4.538
  559SOL     OW 2575   6.062   6.047   6.793
  559SOL    HW1 2576   6.124   6.019   6.720
  559SOL    HW2 2577   6.095   6.010   6.880
  560SOL     OW 2578   3.727   6.390   1.078
  560SOL    HW1 2579   3.822   6.368   1.099
  560SOL    HW2 2580   3.680   6.308   1.045
  561SOL     OW 2581   6.527   6.885   6.591
  561SOL    HW1 2582   6.554   6.819   6.660
  561SOL    HW2 2583   6.428   6.897   6.593
  562SOL     OW 2584   4.594   0.523   6.356
  562SOL    HW1 2585   4.588   0.602   6.295
  562SOL    HW2 2586   4.658   0.544   6.431
  563SOL     OW 2587   2.750   0.159   3.194
  563SOL    HW1 2588   2.811   0.119   3.262
  563SOL    HW2 2589   2.742   0.257   3.210
  564SOL     OW 2590   2.281   2.185   5.983
  564SOL    HW1 2591   2.280   2.281   5.956
  564SOL    HW2 2592   2.358   2.168   6.044
  565SOL     OW 2593   4.409   3.263   5.487
  565SOL    HW1 2594   4.346   3.329   5.527
  565SOL    HW2 2595   4.458   3.305   5.411
  566SOL     OW 2596   4.495   4.601   3.548
  566SOL    HW1 2597   4.500   4.543   3.467
  566SOL    HW2 2598   4.497   4.697   3.520
  567SOL     OW 2599   3.204   3.738   3.938
  567SOL    HW1 2600   3.240   3.656   3.893
  567SOL    HW2 2601   3.241   3.820   3.895
  568SOL     OW 2602   3.704   2.622   1.016
  568SOL    HW1 2603   3.713   2.531   1.056
  568SOL    HW2 2604   3.758   2.627   0.932
  569SOL     OW 2605   1.501   3.060   0.642
  569SOL    HW1 2606   1.528   3.102   0.555
  569SOL    HW2 2607   1.581   3.048   0.699
  570SOL     OW 2608   1.480   6.819   6.481
  570SOL    HW1 2609   1.431   6.793   6.565
  570SOL    HW2 2610   1.436   6.777   6.402
  571SOL     OW 2611   3.366   6.203   2.479
  571SOL    HW1 2612   3.335   6.192   2.573
  571SOL    HW2 2613   3.293   6.176   2.416
  572SOL     OW 2614   2.694   4.783   5.861
  572SOL    HW1 2615   2.704   4.882   5.867
  572SOL    HW2 2616   2.656   4.757   5.772
  573SOL     OW 2617   3.671   1.605   5.028
  573SOL    HW1 2618   3.648   1.516   4.986
  573SOL    HW2 2619   3.635   1.678   4.970
  574SOL     OW 2620   2.254   2.416   4.320
  574SOL    HW1 2621   2.266   2.393   4.223
  574SOL    HW2 2622   2.280   2.511   4.335
  575SOL     OW 2623   6.184   4.237   6.534
  575SOL    HW1 2624   6.156   4.167   6.601
  575SOL    HW2 2625   6.281   4.256   6.544
  576SOL     OW 2626   1.406   1.896   1.902
  576SOL    HW1 2627   1.468   1.961   1.947
  576SOL    HW2 2628   1.314   1.907   1.939
  577SOL     OW 2629   2.136   1.436   3.547
  577SOL    HW1 2630   2.183   1.373   3.484
  577SOL    HW2 2631   2.045   1.401   3.567
  578SOL     OW 2632   6.985   3.358   3.580
  578SOL    HW1 2633   6.951   3.327   3.669
  578SOL    HW2 2634   0.065   3.369   3.585
  579SOL     OW 2635   3.510   2.328   1.124
  579SOL    HW1 2636   3.495   2.230   1.139
  579SOL    HW2 2637   3.604   2.352   1.149
  580SOL     OW 2638   0.459   4.996   6.057
  580SOL    HW1 2639   0.383   5.061   6.055
  580SOL    HW2 2640   0.433   4.913   6.007
  581SOL     OW 2641   3.327   2.917   3.054
  581SOL    HW1 2642   3.337   3.008   3.015
  581SOL    HW2 2643   3.277   2.859   2.990
  582SOL     OW 2644   5.603   4.534   2.659
  582SOL    HW1 2645   5.647   4.475   2.592
  582SOL    HW2 2646   5.668   4.558   2.731
  583SOL     OW 2647   2.677   4.766   6.521
  583SOL    HW1 2648   2.633   4.688   6.476
  583SOL    HW2 2649   2.610   4.818   6.574
  584SOL     OW 2650   0.229   5.156   6.074
  584SOL    HW1 2651   0.224   5.249   6.038
  584SOL    HW2 2652   0.175   5.095   6.016
  585SOL     OW 2653   6.428   2.786   6.110
  585SOL    HW1 2654   6.357   2.717   6.097
  585SOL    HW2 2655   6.492   2.755   6.181
  586SOL     OW 2656   3.301   6.767   0.343
  586SOL    HW1 2657   3.291   6.671   0.318
  586SOL    HW2 2658   3.255   6.783   0.431
  587SOL     OW 2659   1.989   1.943   5.009
  587SOL    HW1 2660   1.935   2.002   5.069
  587SOL    HW2 2661   1.938   1.859   4.991
  588SOL     OW 2662   3.426   6.937   1.483
  588SOL    HW1 2663   3.449   6.854   1.433
  588SOL    HW2 2664   3.475   7.015   1.443
  589SOL     OW 2665   3.925   5.216   1.802
  589SOL    HW1 2666   3.857   5.184   1.868
  589SOL    HW2 2667   3.908   5.173   1.713
  590SOL     OW 2668   6.918   2.811   2.631
  590SOL    HW1 2669   6.991   2.768   2.684
  590SOL    HW2 2670   6.831   2.799   2.678
  591SOL     OW 2671   4.001   6.908   3.722
  591SOL    HW1 2672   4.073   6.950   3.666
  591SOL    HW2 2673   4.043   6.852   3.793
  592SOL     OW 2674   4.453   0.865   0.396
  592SOL    HW1 2675   4.441   0.768   0.374
  592SOL    HW2 2676   4.378   0.895   0.455
  593SOL     OW 2677   4.505   1.969   3.739
  593SOL    HW1 2678   4.576   1.907   3.773
  593SOL    HW2 2679   4.471   1.937   3.651
  594SOL     OW 2680   4.173   2.670   6.392
  594SOL    HW1 2681   4.211   2.746   6.338
  594SOL    HW2 2682   4.074   2.665   6.377
  595SOL     OW 2683   4.659   6.945   4.035
  595SOL    HW1 2684   4.679   7.008   4.111
  595SOL    HW2 2685   4.673   6.992   3.948
  596SOL     OW 2686   1.048   4.190   1.491
  596SOL    HW1 2687   1.046   4.156   1.586
  596SOL    HW2 2688   1.053   4.112   1.429
  597SOL     OW 2689   4.079   6.609   6.152
  597SOL    HW1 2690   3.995   6.613   6.099
  597SOL    HW2 2691   4.155   6.579   6.094
  598SOL     OW 2692   3.584   4.349   0.594
  598SOL    HW1 2693   3.544   4.349   0.686
  598SOL    HW2 2694   3.549   4.427   0.543
  599SOL     OW 2695   0.538   1.006   3.059
  599SOL    HW1 2696   0.460   1.060   3.029
  599SOL    HW2 2697   0.617   1.026   3.001
  600SOL     OW 2698   0.401   0.061   0.609
  600SOL    HW1 2699   0.414   0.038   0.705
  600SOL    HW2 2700   0.354   0.150   0.602
  601SOL     OW 2701   2.774   5.820   3.120
  601SOL    HW1 2702   2.716   5.829   3.201
  601SOL    HW2 2703   2.822   5.732   3.123
  602SOL     OW 2704   1.124   0.897   0.547
  602SOL    HW1 2705   1.199   0.908   0.612
  602SOL    HW2 2706   1.052   0.962   0.567
  603SOL     OW 2707   3.854   1.835   3.853
  603SOL    HW1 2708   3.858   1.801   3.759
  603SOL    HW2 2709   3.822   1.930   3.852
  604SOL     OW 2710   0.843   2.940   0.513
  604SOL    HW1 2711   0.840   3.014   0.580
  604SOL    HW2 2712   0.931   2.940   0.466
  605SOL     OW 2713   6.930   6.053   3.306
  605SOL    HW1 2714   6.851   5.994   3.291
  605SOL    HW2 2715   7.003   6.028   3.242
  606SOL     OW 2716   4.669   0.808   5.153
  606SOL    HW1 2717   4.654   0.802   5.252
  606SOL    HW2 2718   4.707   0.898   5.131
  607SOL     OW 2719   5.668   1.307   4.306
  607SOL    HW1 2720   5.626   1.285   4.394
  607SOL    HW2 2721   5.729   1.232   4.278
  608SOL     OW 2722   3.245   0.041   0.813
  608SOL    HW1 2723   3.296   0.105   0.870
  608SOL    HW2 2724   3.162   0.085   0.779
  609SOL     OW 2725   3.618   3.128   4.725
  609SOL    HW1 2726   3.662   3.174   4.648
  609SOL    HW2 2727   3.673   3.049   4.752
  610SOL     OW 2728   5.494   2.395   3.091
  610SOL    HW1 2729   5.535   2.435   3.173
  610SOL    HW2 2730   5.410   2.348   3.114
  611SOL     OW 2731   0.460   0.724   6.853
  611SOL    HW1 2732   0.433   0.819   6.834
  611SOL    HW2 2733   0.552   0.723   6.892
  612SOL     OW 2734   3.410   5.647   6.046
  612SOL    HW1 2735   3.338   5.698   5.998
  612SOL    HW2 2736   3.443   5.574   5.987
  613SOL     OW 2737   3.954   1.119   5.421
  613SOL    HW1 2738   3.982   1.026   5.443
  613SOL    HW2 2739   3.964   1.134   5.323
  614SOL     OW 2740   6.125   5.326   0.801
  614SOL    HW1 2741   6.200   5.263   0.818
  614SOL    HW2 2742   6.073   5.340   0.886
  615SOL     OW 2743   0.983   0.476   6.458
  615SOL    HW1 2744   0.910   0.511   6.399
  615SOL    HW2 2745   1.001   0.380   6.436
  616SOL     OW 2746   5.608   1.897   4.239
  616SOL    HW1 2747   5.606   1.980   4.183
  616SOL    HW2 2748   5.544   1.830   4.202
  617SOL     OW 2749   0.134   4.796   6.189
  617SOL    HW1 2750   0.103   4.701   6.183
  617SOL    HW2 2751   0.234   4.798   6.193
  618SOL     OW 2752   6.320   3.266   1.665
  618SOL    HW1 2753   6.277   3.338   1.718
  618SOL    HW2 2754   6.283   3.177   1.692
  619SOL     OW 2755   3.404   6.891   6.642
  619SOL    HW1 2756   3.330   6.875   6.577
  619SOL    HW2 2757   3.374   6.865   6.734
  620SOL     OW 2758   6.005   3.586   2.278
  620SOL    HW1 2759   5.957   3.667   2.312
  620SOL    HW2 2760   5.973   3.564   2.186
  621SOL     OW 2761   2.483   0.023   5.464
  621SOL    HW1 2762   2.560   0.035   5.526
  621SOL    HW2 2763   2.481   0.097   5.398
  622SOL     OW 2764   0.944   2.818   5.703
  622SOL    HW1 2765   0.940   2.805   5.802
  622SOL    HW2 2766   1.038   2.803   5.671
  623SOL     OW 2767   6.075   6.363   5.056
  623SOL    HW1 2768   6.071   6.415   4.970
  623SOL    HW2 2769   6.162   6.313   5.060
  624SOL     OW 2770   6.261   1.051   6.881
  624SOL    HW1 2771   6.308   0.980   6.828
  624SOL    HW2 2772   6.211   1.111   6.818
  625SOL     OW 2773   2.195   0.944   0.441
  625SOL    HW1 2774   2.212   0.953   0.343
  625SOL    HW2 2775   2.224   0.853   0.471
  626SOL     OW 2776   1.555   5.850   3.370
  626SOL    HW1 2777   1.621   5.925   3.359
  626SOL    HW2 2778   1.591   5.768   3.325
  627SOL     OW 2779   6.464   6.363   0.615
  627SOL    HW1 2780   6.532   6.311   0.667
  627SOL    HW2 2781   6.510   6.429   0.556
  628SOL     OW 2782   5.493   3.790   5.126
  628SOL    HW1 2783   5.471   3.746   5.039
  628SOL    HW2 2784   5.508   3.888   5.111
  629SOL     OW 2785   0.294   0.940   0.032
  629SOL    HW1 2786   0.393   0.944   0.025
  629SOL    HW2 2787   0.255   1.027   0.002
  630SOL     OW 2788   6.729   0.815   0.871
  630SOL    HW1 2789   6.785   0.863   0.803
  630SOL    HW2 2790   6.632   0.826   0.849
  631SOL     OW 2791   2.674   2.381   4.790
  631SOL    HW1 2792   2.612   2.459   4.781
  631SOL    HW2 2793   2.711   2.380   4.883
  632SOL     OW 2794   4.542   3.243   0.546
  632SOL    HW1 2795   4.617   3.221   0.483
  632SOL    HW2 2796   4.523   3.163   0.603
  633SOL     OW 2797   2.241   5.048   1.218
  633SOL    HW1 2798   2.222   4.950   1.222
  633SOL    HW2 2799   2.319   5.064   1.158
  634SOL     OW 2800   3.711   3.715   3.461
  634SOL    HW1 2801   3.638   3.739   3.397
  634SOL    HW2 2802   3.680   3.730   3.555
  635SOL     OW 2803   4.637   0.900   0.191
  635SOL    HW1 2804   4.611   0.881   0.096
  635SOL    HW2 2805   4.557   0.889   0.250
  636SOL     OW 2806   3.071   0.275   5.170
  636SOL    HW1 2807   3.048   0.281   5.073
  636SOL    HW2 2808   3.138   0.201   5.185
  637SOL     OW 2809   6.351   1.548   2.403
  637SOL    HW1 2810   6.326   1.610   2.329
  637SOL    HW2 2811   6.269   1.504   2.439
  638SOL     OW 2812   6.161   3.561   4.193
  638SOL    HW1 2813   6.098   3.528   4.262
  638SOL    HW2 2814   6.243   3.504   4.192
  639SOL     OW 2815   5.691   4.802   3.225
  639SOL    HW1 2816   5.736   4.783   3.312
  639SOL    HW2 2817   5.613   4.863   3.241
  640SOL     OW 2818   0.165   3.335   3.256
  640SOL    HW1 2819   0.091   3.280   3.219
  640SOL    HW2 2820   0.127   3.414   3.306
  641SOL     OW 2821   1.685   4.439   5.172
  641SOL    HW1 2822   1.773   4.469   5.211
  641SOL    HW2 2823   1.645   4.369   5.231
  642SOL     OW 2824   1.311   3.763   4.461
  642SOL    HW1 2825   1.325   3.756   4.363
  642SOL    HW2 2826   1.256   3.685   4.492
  643SOL     OW 2827   6.543   6.399   0.085
  643SOL    HW1 2828   6.621   6.445   0.044
  643SOL    HW2 2829   6.504   6.334   0.019
  644SOL     OW 2830   0.351   0.363   4.454
  644SOL    HW1 2831   0.371   0.455   4.421
  644SOL    HW2 2832   0.282   0.367   4.526
  645SOL     OW 2833   3.482   5.172   2.843
  645SOL    HW1 2834   3.399   5.119   2.825
  645SOL    HW2 2835   3.563   5.116   2.824
  646SOL     OW 2836   3.940   0.654   4.904
  646SOL    HW1 2837   3.978   0.681   4.815
  646SOL    HW2 2838   3.852   0.699   4.917
  647SOL     OW 2839   4.964   2.432   4.833
  647SOL    HW1 2840   4.968   2.498   4.759
  647SOL    HW2 2841   4.874   2.435   4.876
  648SOL     OW 2842   6.195   2.295   3.537
  648SOL    HW1 2843   6.147   2.380   3.563
  648SOL    HW2 2844   6.288   2.317   3.509
  649SOL     OW 2845   2.583   4.238   0.641
  649SOL    HW1 2846   2.540   4.325   0.663
  649SOL    HW2 2847   2.572   4.219   0.543
  650SOL     OW 2848   6.578   5.550   0.586
  650SOL    HW1 2849   6.486   5.565   0.621
  650SOL    HW2 2850   6.637   5.518   0.660
  651SOL     OW 2851   1.553   0.786   5.833
  651SOL    HW1 2852   1.645   0.752   5.812
  651SOL    HW2 2853   1.490   0.710   5.842
  652SOL     OW 2854   3.876   0.241   1.830
  652SOL    HW1 2855   3.779   0.231   1.853
  652SOL    HW2 2856   3.886   0.300   1.750
  653SOL     OW 2857   0.271   6.344   0.533
  653SOL    HW1 2858   0.352   6.310   0.582
  653SOL    HW2 2859   0.215   6.267   0.504
  654SOL     OW 2860   0.057   5.899   5.775
  654SOL    HW1 2861   6.982   5.869   5.757
  654SOL    HW2 2862   0.107   5.826   5.822
  655SOL     OW 2863   0.174   5.445   1.881
  655SOL    HW1 2864   0.199   5.384   1.806
  655SOL    HW2 2865   0.098   5.504   1.853
  656SOL     OW 2866   3.028   6.296   0.681
  656SOL    HW1 2867   3.050   6.265   0.774
  656SOL    HW2 2868   2.942   6.347   0.683
  657SOL     OW 2869   3.138   3.290   1.740
  657SOL    HW1 2870   3.212   3.255   1.797
  657SOL    HW2 2871   3.092   3.365   1.787
  658SOL     OW 2872   1.850   4.287   4.492
  658SOL    HW1 2873   1.905   4.205   4.478
  658SOL    HW2 2874   1.909   4.366   4.505
  659SOL     OW 2875   3.487   5.704   5.154
  659SOL    HW1 2876   3.390   5.679   5.155
  659SOL    HW2 2877   3.497   5.798   5.122
  660SOL     OW 2878   4.846   5.171   2.728
  660SOL    HW1 2879   4.827   5.265   2.698
  660SOL    HW2 2880   4.794   5.107   2.672
  661SOL     OW 2881   5.014   4.309   4.074
  661SOL    HW1 2882   5.052   4.219   4.094
  661SOL    HW2 2883   5.033   4.371   4.150
  662SOL     OW 2884   4.663   1.870   6.845
  662SOL    HW1 2885   4.742   1.929   6.826
  662SOL    HW2 2886   4.580   1.924   6.843
  663SOL     OW 2887   0.475   4.972   6.749
  663SOL    HW1 2888   0.554   4.951   6.691
  663SOL    HW2 2889   0.393   4.930   6.709
  664SOL     OW 2890   1.769   5.155   6.777
  664SOL    HW1 2891   1.804   5.159   6.684
  664SOL    HW2 2892   1.670   5.139   6.775
  665SOL     OW 2893   4.142   5.681   1.418
  665SOL    HW1 2894   4.239   5.657   1.411
  665SOL    HW2 2895   4.108   5.708   1.328
  666SOL     OW 2896   3.507   2.107   0.332
  666SOL    HW1 2897   3.464   2.184   0.379
  666SOL    HW2 2898   3.557   2.050   0.397
  667SOL     OW 2899   0.145   2.410   4.321
  667SOL    HW1 2900   0.075   2.365   4.266
  667SOL    HW2 2901   0.102   2.470   4.388
  668SOL     OW 2902   4.168   6.459   0.140
  668SOL    HW1 2903   4.134   6.471   0.233
  668SOL    HW2 2904   4.160   6.546   0.090
  669SOL     OW 2905   1.429   6.767   3.052
  669SOL    HW1 2906   1.353   6.756   2.989
  669SOL    HW2 2907   1.509   6.803   3.003
  670SOL     OW 2908   2.908   3.324   3.018
  670SOL    HW1 2909   2.899   3.325   2.919
  670SOL    HW2 2910   2.868   3.240   3.055
  671SOL     OW 2911   1.987   5.554   6.243
  671SOL    HW1 2912   1.898   5.561   6.197
  671SOL    HW2 2913   2.060   5.573   6.178
  672SOL     OW 2914   0.820   3.171   3.771
  672SOL    HW1 2915   0.911   3.137   3.748
  672SOL    HW2 2916   0.759   3.094   3.791
  673SOL     OW 2917   4.426   0.138   6.858
  673SOL    HW1 2918   4.495   0.085   6.908
  673SOL    HW2 2919   4.432   0.234   6.886
  674SOL     OW 2920   0.808   2.640   4.498
  674SOL    HW1 2921   0.779   2.565   4.438
  674SOL    HW2 2922   0.752   2.640   4.580
  675SOL     OW 2923   0.875   2.167   4.803
  675SOL    HW1 2924   0.914   2.147   4.893
  675SOL    HW2 2925   0.879   2.266   4.787
  676SOL     OW 2926   2.807   4.766   3.985
  676SOL    HW1 2927   2.731   4.701   3.984
  676SOL    HW2 2928   2.773   4.857   3.961
  677SOL     OW 2929   5.866   0.246   0.076
  677SOL    HW1 2930   5.870   0.217   6.999
  677SOL    HW2 2931   5.858   0.345   0.080
  678SOL     OW 2932   2.327   1.634   5.131
  678SOL    HW1 2933   2.235   1.613   5.166
  678SOL    HW2 2934   2.376   1.688   5.199
  679SOL     OW 2935   3.971   0.699   3.755
  679SOL    HW1 2936   4.053   0.746   3.789
  679SOL    HW2 2937   3.924   0.655   3.831
  680SOL     OW 2938   6.057   4.313   6.319
  680SOL    HW1 2939   6.095   4.279   6.405
  680SOL    HW2 2940   6.082   4.250   6.244
  681SOL     OW 2941   6.941   6.386   0.812
  681SOL    HW1 2942   6.977   6.370   0.904
  681SOL    HW2 2943   6.887   6.470   0.812
  682SOL     OW 2944   2.315   6.815   6.567
  682SOL    HW1 2945   2.258   6.735   6.549
  682SOL    HW2 2946   2.314   6.875   6.488
  683SOL     OW 2947   4.076   0.691   5.790
  683SOL    HW1 2948   4.017   0.612   5.770
  683SOL    HW2 2949   4.021   0.773   5.797
  684SOL     OW 2950   6.768   0.322   6.525
  684SOL    HW1 2951   6.711   0.242   6.545
  684SOL    HW2 2952   6.795   0.320   6.429
  685SOL     OW 2953   5.124   0.391   6.117
  685SOL    HW1 2954   5.031   0.423   6.099
  685SOL    HW2 2955   5.143   0.398   6.215
  686SOL     OW 2956   5.420   3.489   3.450
  686SOL    HW1 2957   5.459   3.553   3.517
  686SOL    HW2 2958   5.391   3.540   3.369
  687SOL     OW 2959   7.004   3.249   6.385
  687SOL    HW1 2960   0.064   3.197   6.419
  687SOL    HW2 2961   6.920   3.209   6.420
  688SOL     OW 2962   1.814   3.350   0.518
  688SOL    HW1 2963   1.848   3.372   0.610
  688SOL    HW2 2964   1.763   3.264   0.521
  689SOL     OW 2965   1.159   4.275   5.674
  689SOL    HW1 2966   1.130   4.193   5.722
  689SOL    HW2 2967   1.082   4.315   5.624
  690SOL     OW 2968   1.299   2.695   3.693
  690SOL    HW1 2969   1.367   2.642   3.742
  690SOL    HW2 2970   1.267   2.771   3.750
  691SOL     OW 2971   1.474   2.221   6.298
  691SOL    HW1 2972   1.475   2.293   6.368
  691SOL    HW2 2973   1.447   2.260   6.210
  692SOL     OW 2974   3.070   6.793   3.106
  692SOL    HW1 2975   2.975   6.825   3.106
  692SOL    HW2 2976   3.078   6.714   3.045
  693SOL     OW 2977   6.422   1.666   3.146
  693SOL    HW1 2978   6.492   1.620   3.201
  693SOL    HW2 2979   6.446   1.661   3.049
  694SOL     OW 2980   3.762   5.748   1.369
  694SOL    HW1 2981   3.785   5.822   1.432
  694SOL    HW2 2982   3.669   5.762   1.334
  695SOL     OW 2983   4.918   5.148   4.599
  695SOL    HW1 2984   4.992   5.151   4.666
  695SOL    HW2 2985   4.831   5.137   4.647
  696SOL     OW 2986   3.243   5.469   2.760
  696SOL    HW1 2987   3.204   5.516   2.839
  696SOL    HW2 2988   3.223   5.371   2.767
  697SOL     OW 2989   0.927   3.443   5.371
  697SOL    HW1 2990   1.006   3.434   5.310
  697SOL    HW2 2991   0.865   3.512   5.334
  698SOL     OW 2992   5.073   6.974   3.949
  698SOL    HW1 2993   5.155   6.925   3.920
  698SOL    HW2 2994   5.005   6.908   3.982
  699SOL     OW 2995   1.939   4.444   1.215
  699SOL    HW1 2996   1.888   4.386   1.152
  699SOL    HW2 2997   1.876   4.504   1.264
  700SOL     OW 2998   3.025   1.841   3.311
  700SOL    HW1 2999   3.032   1.750   3.351
  700SOL    HW2 3000   2.943   1.887   3.347
  701SOL     OW 3001   1.536   4.816   6.997
  701SOL    HW1 3002   1.561   4.723   0.005
  701SOL    HW2 3003   1.606   4.880   0.010
  702SOL     OW 3004   5.132   6.247   5.779
  702SOL    HW1 3005   5.066   6.240   5.853
  702SOL    HW2 3006   5.104   6.319   5.715
  703SOL     OW 3007   4.531   3.471   6.880
  703SOL    HW1 3008   4.511   3.558   6.926
  703SOL    HW2 3009   4.614   3.481   6.825
  704SOL     OW 3010   0.715   1.381   5.986
  704SOL    HW1 3011   0.774   1.427   5.920
  704SOL    HW2 3012   0.762   1.372   6.074
  705SOL     OW 3013   4.968   0.644   3.816
  705SOL    HW1 3014   4.895   0.610   3.758
  705SOL    HW2 3015   5.007   0.727   3.775
  706SOL     OW 3016   3.855   1.766   3.578
  706SOL    HW1 3017   3.918   1.697   3.542
  706SOL    HW2 3018   3.787   1.788   3.508
  707SOL     OW 3019   4.455   0.192   1.736
  707SOL    HW1 3020   4.380   0.257   1.751
  707SOL    HW2 3021   4.429   0.127   1.665
  708SOL     OW 3022   4.833   0.417   0.731
  708SOL    HW1 3023   4.912   0.447   0.679
  708SOL    HW2 3024   4.814   0.321   0.710
  709SOL     OW 3025   1.725   4.951   1.715
  709SOL    HW1 3026   1.672   4.984   1.637
  709SOL    HW2 3027   1.793   5.020   1.741
  710SOL     OW 3028   3.195   4.053   3.001
  710SOL    HW1 3029   3.147   3.969   3.027
  710SOL    HW2 3030   3.158   4.087   2.915
  711SOL     OW 3031   6.641   2.392   5.183
  711SOL    HW1 3032   6.563   2.431   5.134
  711SOL    HW2 3033   6.637   2.420   5.279
  712SOL     OW 3034   1.282   3.638   1.273
  712SOL    HW1 3035   1.236   3.695   1.206
  712SOL    HW2 3036   1.320   3.695   1.346
  713SOL     OW 3037   3.441   3.741   1.916
  713SOL    HW1 3038   3.344   3.737   1.891
  713SOL    HW2 3039   3.494   3.685   1.852
  714SOL     OW 3040   5.456   4.139   5.424
  714SOL    HW1 3041   5.376   4.088   5.390
  714SOL    HW2 3042   5.522   4.150   5.350
  715SOL     OW 3043   4.478   5.905   6.772
  715SOL    HW1 3044   4.558   5.846   6.773
  715SOL    HW2 3045   4.439   5.908   6.680
  716SOL     OW 3046   0.806   5.210   1.117
  716SOL    HW1 3047   0.772   5.117   1.107
  716SOL    HW2 3048   0.881   5.212   1.183
  717SOL     OW 3049   5.899   4.725   6.666
  717SOL    HW1 3050   5.903   4.664   6.745
  717SOL    HW2 3051   5.873   4.672   6.585
  718SOL     OW 3052   4.282   2.429   6.337
  718SOL    HW1 3053   4.254   2.511   6.387
  718SOL    HW2 3054   4.265   2.348   6.393
  719SOL     OW 3055   6.746   2.677   1.326
  719SOL    HW1 3056   6.742   2.682   1.426
  719SOL    HW2 3057   6.686   2.746   1.286
  720SOL     OW 3058   2.464   1.859   5.319
  720SOL    HW1 3059   2.483   1.956   5.331
  720SOL    HW2 3060   2.413   1.826   5.399
  721SOL     OW 3061   1.282   1.020   5.565
  721SOL    HW1 3062   1.236   0.932   5.576
  721SOL    HW2 3063   1.287   1.043   5.468
  722SOL     OW 3064   4.336   6.615   4.857
  722SOL    HW1 3065   4.260   6.639   4.918
  722SOL    HW2 3066   4.345   6.685   4.786
  723SOL     OW 3067   2.241   2.637   2.303
  723SOL    HW1 3068   2.143   2.618   2.294
  723SOL    HW2 3069   2.257   2.692   2.385
  724SOL     OW 3070   1.106   1.975   5.704
  724SOL    HW1 3071   1.086   1.975   5.802
  724SOL    HW2 3072   1.021   1.961   5.653
  725SOL     OW 3073   2.744   5.088   2.005
  725SOL    HW1 3074   2.683   5.012   1.984
  725SOL    HW2 3075   2.839   5.054   2.007
  726SOL     OW 3076   3.289   4.751   6.932
  726SOL    HW1 3077   3.241   4.766   7.019
  726SOL    HW2 3078   3.296   4.837   6.882
  727SOL     OW 3079   4.085   6.238   4.206
  727SOL    HW1 3080   4.080   6.202   4.113
  727SOL    HW2 3081   4.144   6.179   4.261
  728SOL     OW 3082   6.984   3.690   5.252
  728SOL    HW1 3083   6.950   3.769   5.202
  728SOL    HW2 3084   7.009   3.718   5.345
  729SOL     OW 3085   2.141   0.575   0.696
  729SOL    HW1 3086   2.237   0.603   0.698
  729SOL    HW2 3087   2.094   0.623   0.622
  730SOL     OW 3088   5.287   0.791   3.225
  730SOL    HW1 3089   5.240   0.789   3.138
  730SOL    HW2 3090   5.281   0.702   3.269
  731SOL     OW 3091   5.710   2.950   5.458
  731SOL    HW1 3092   5.736   3.046   5.463
  731SOL    HW2 3093   5.618   2.942   5.419
  732SOL     OW 3094   0.729   3.217   1.608
  732SOL    HW1 3095   0.710   3.169   1.522
  732SOL    HW2 3096   0.668   3.183   1.679
  733SOL     OW 3097   5.154   3.884   3.994
  733SOL    HW1 3098   5.240   3.910   3.949
  733SOL    HW2 3099   5.169   3.801   4.047
  734SOL     OW 3100   0.261   5.225   2.016
  734SOL    HW1 3101   0.328   5.196   1.948
  734SOL    HW2 3102   0.210   5.304   1.982
  735SOL     OW 3103   2.168   3.183   0.918
  735SOL    HW1 3104   2.209   3.272   0.939
  735SOL    HW2 3105   2.145   3.179   0.821
  736SOL     OW 3106   6.371   6.762   2.551
  736SOL    HW1 3107   6.371   6.703   2.470
  736SOL    HW2 3108   6.461   6.757   2.595
  737SOL     OW 3109   4.456   3.352   1.439
  737SOL    HW1 3110   4.513   3.338   1.520
  737SOL    HW2 3111   4.444   3.450   1.423
  738SOL     OW 3112   1.064   4.977   3.774
  738SOL    HW1 3113   1.099   4.884   3.778
  738SOL    HW2 3114   1.098   5.028   3.854
  739SOL     OW 3115   4.725   6.768   5.691
  739SOL    HW1 3116   4.700   6.771   5.788
  739SOL    HW2 3117   4.766   6.856   5.665
  740SOL     OW 3118   5.233   0.225   0.824
  740SOL    HW1 3119   5.210   0.128   0.823
  740SOL    HW2 3120   5.318   0.239   0.774
  741SOL     OW 3121   1.673   6.498   3.406
  741SOL    HW1 3122   1.629   6.504   3.317
  741SOL    HW2 3123   1.604   6.493   3.478
  742SOL     OW 3124   2.053   6.753   2.967
  742SOL    HW1 3125   2.097   6.766   3.055
  742SOL    HW2 3126   2.122   6.741   2.896
  743SOL     OW 3127   1.743   4.151   4.117
  743SOL    HW1 3128   1.748   4.143   4.216
  743SOL    HW2 3129   1.791   4.074   4.075
  744SOL     OW 3130   0.485   6.566   6.672
  744SOL    HW1 3131   0.390   6.597   6.682
  744SOL    HW2 3132   0.498   6.530   6.579
  745SOL     OW 3133   0.952   6.016   4.126
  745SOL    HW1 3134   0.961   6.093   4.063
  745SOL    HW2 3135   0.864   6.022   4.174
  746SOL     OW 3136   0.166   6.351   5.341
  746SOL    HW1 3137   0.218   6.407   5.276
  746SOL    HW2 3138   0.141   6.407   5.419
  747SOL     OW 3139   4.133   5.212   4.101
  747SOL    HW1 3140   4.094   5.213   4.193
  747SOL    HW2 3141   4.071   5.166   4.038
  748SOL     OW 3142   4.510   5.193   1.856
  748SOL    HW1 3143   4.428   5.196   1.799
  748SOL    HW2 3144   4.487   5.154   1.945
  749SOL     OW 3145   6.878   2.869   4.999
  749SOL    HW1 3146   6.891   2.782   5.048
  749SOL    HW2 3147   6.960   2.926   5.011
  750SOL     OW 3148   2.391   3.015   0.618
  750SOL    HW1 3149   2.389   2.932   0.563
  750SOL    HW2 3150   2.300   3.058   0.616
  751SOL     OW 3151   4.322   2.238   6.562
  751SOL    HW1 3152   4.229   2.223   6.595
  751SOL    HW2 3153   4.346   2.167   6.496
  752SOL     OW 3154   4.516   2.497   1.805
  752SOL    HW1 3155   4.527   2.441   1.887
  752SOL    HW2 3156   4.525   2.593   1.828
  753SOL     OW 3157   2.198   3.150   4.699
  753SOL    HW1 3158   2.133   3.168   4.626
  753SOL    HW2 3159   2.252   3.233   4.717
  754SOL     OW 3160   5.962   3.605   6.681
  754SOL    HW1 3161   5.957   3.622   6.780
  754SOL    HW2 3162   5.870   3.589   6.645
  755SOL     OW 3163   1.075   5.480   0.113
  755SOL    HW1 3164   1.084   5.557   0.177
  755SOL    HW2 3165   1.091   5.395   0.162
  756SOL     OW 3166   5.102   0.441   1.750
  756SOL    HW1 3167   5.043   0.445   1.831
  756SOL    HW2 3168   5.197   0.450   1.779
  757SOL     OW 3169   1.119   6.075   3.114
  757SOL    HW1 3170   1.053   6.009   3.077
  757SOL    HW2 3171   1.193   6.027   3.160
  758SOL     OW 3172   3.384   1.430   1.376
  758SOL    HW1 3173   3.303   1.443   1.433
  758SOL    HW2 3174   3.419   1.337   1.388
  759SOL     OW 3175   0.091   0.998   0.668
  759SOL    HW1 3176   0.082   0.937   0.748
  759SOL    HW2 3177   0.033   0.965   0.594
  760SOL     OW 3178   4.931   1.430   6.324
  760SOL    HW1 3179   4.958   1.339   6.356
  760SOL    HW2 3180   4.833   1.442   6.336
  761SOL     OW 3181   5.781   3.993   0.071
  761SOL    HW1 3182   5.779   3.902   0.112
  761SOL    HW2 3183   5.792   3.984   6.990
  762SOL     OW 3184   1.888   5.997   3.318
  762SOL    HW1 3185   1.826   6.068   3.351
  762SOL    HW2 3186   1.858   5.966   3.228
  763SOL     OW 3187   3.832   5.548   6.343
  763SOL    HW1 3188   3.898   5.508   6.278
  763SOL    HW2 3189   3.745   5.500   6.335
  764SOL     OW 3190   3.861   0.303   4.254
  764SOL    HW1 3191   3.806   0.242   4.198
  764SOL    HW2 3192   3.807   0.337   4.331
  765SOL     OW 3193   1.338   6.285   0.855
  765SOL    HW1 3194   1.428   6.259   0.889
  765SOL    HW2 3195   1.270   6.273   0.928
  766SOL     OW 3196   6.660   1.110   7.019
  766SOL    HW1 3197   6.713   1.131   6.936
  766SOL    HW2 3198   6.683   1.176   0.071
  767SOL     OW 3199   0.733   6.453   1.990
  767SOL    HW1 3200   0.786   6.388   2.044
  767SOL    HW2 3201   0.655   6.485   2.044
  768SOL     OW 3202   2.276   1.171   2.693
  768SOL    HW1 3203   2.211   1.242   2.721
  768SOL    HW2 3204   2.351   1.212   2.642
  769SOL     OW 3205   3.272   6.690   4.327
  769SOL    HW1 3206   3.370   6.711   4.324
  769SOL    HW2 3207   3.256   6.616   4.392
  770SOL     OW 3208   2.589   4.949   2.839
  770SOL    HW1 3209   2.605   4.984   2.747
  770SOL    HW2 3210   2.555   4.855   2.834
  771SOL     OW 3211   1.883   5.362   2.633
  771SOL    HW1 3212   1.978   5.344   2.661
  771SOL    HW2 3213   1.826   5.284   2.656
  772SOL     OW 3214   6.761   5.073   0.949
  772SOL    HW1 3215   6.782   5.021   0.866
  772SOL    HW2 3216   6.811   5.033   1.026
  773SOL     OW 3217   0.436   2.761   3.727
  773SOL    HW1 3218   0.404   2.667   3.724
  773SOL    HW2 3219   0.466   2.789   3.635
  774SOL     OW 3220   1.514   1.759   1.710
  774SOL    HW1 3221   1.467   1.804   1.786
  774SOL    HW2 3222   1.604   1.729   1.740
  775SOL     OW 3223   1.304   2.162   4.136
  775SOL    HW1 3224   1.302   2.196   4.042
  775SOL    HW2 3225   1.382   2.101   4.148
  776SOL     OW 3226   0.303   0.420   6.250
  776SOL    HW1 3227   0.274   0.475   6.171
  776SOL    HW2 3228   0.397   0.388   6.236
  777SOL     OW 3229   3.456   0.250   0.931
  777SOL    HW1 3230   3.541   0.260   0.981
  777SOL    HW2 3231   3.466   0.289   0.839
  778SOL     OW 3232   3.795   1.273   3.879
  778SOL    HW1 3233   3.782   1.257   3.781
  778SOL    HW2 3234   3.889   1.251   3.905
  779SOL     OW 3235   0.207   1.961   1.945
  779SOL    HW1 3236   0.252   2.040   1.985
  779SOL    HW2 3237   0.111   1.983   1.926
  780SOL     OW 3238   5.474   3.257   4.377
  780SOL    HW1 3239   5.442   3.230   4.468
  780SOL    HW2 3240   5.557   3.206   4.354
  781SOL     OW 3241   6.351   1.273   5.617
  781SOL    HW1 3242   6.361   1.306   5.711
  781SOL    HW2 3243   6.432   1.220   5.592
  782SOL     OW 3244   1.638   3.935   0.789
  782SOL    HW1 3245   1.647   3.976   0.698
  782SOL    HW2 3246   1.622   3.837   0.779
  783SOL     OW 3247   3.824   4.816   0.292
  783SOL    HW1 3248   3.855   4.796   0.199
  783SOL    HW2 3249   3.725   4.803   0.298
  784SOL     OW 3250   4.589   0.491   5.214
  784SOL    HW1 3251   4.507   0.444   5.248
  784SOL    HW2 3252   4.567   0.585   5.190
  785SOL     OW 3253   6.338   2.128   2.694
  785SOL    HW1 3254   6.374   2.217   2.668
  785SOL    HW2 3255   6.407   2.078   2.746
  786SOL     OW 3256   0.593   0.754   0.312
  786SOL    HW1 3257   0.544   0.823   0.259
  786SOL    HW2 3258   0.557   0.751   0.405
  787SOL     OW 3259   2.726   0.937   5.839
  787SOL    HW1 3260   2.805   0.971   5.788
  787SOL    HW2 3261   2.676   1.014   5.878
  788SOL     OW 3262   2.294   2.355   4.579
  788SOL    HW1 3263   2.290   2.372   4.480
  788SOL    HW2 3264   2.306   2.442   4.627
  789SOL     OW 3265   5.945   4.249   2.024
  789SOL    HW1 3266   5.943   4.339   1.981
  789SOL    HW2 3267   6.039   4.225   2.047
  790SOL     OW 3268   2.072   1.651   4.108
  790SOL    HW1 3269   2.070   1.667   4.009
  790SOL    HW2 3270   2.162   1.677   4.143
  791SOL     OW 3271   3.792   0.025   3.848
  791SOL    HW1 3272   3.768   0.118   3.822
  791SOL    HW2 3273   3.859   7.007   3.783
  792SOL     OW 3274   6.618   6.701   1.770
  792SOL    HW1 3275   6.556   6.625   1.790
  792SOL    HW2 3276   6.612   6.769   1.844
  793SOL     OW 3277   4.586   6.297   1.952
  793SOL    HW1 3278   4.650   6.228   1.918
  793SOL    HW2 3279   4.637   6.377   1.983
  794SOL     OW 3280   2.128   4.626   5.409
  794SOL    HW1 3281   2.115   4.717   5.370
  794SOL    HW2 3282   2.204   4.628   5.474
  795SOL     OW 3283   3.081   5.074   5.402
  795SOL    HW1 3284   3.139   4.993   5.408
  795SOL    HW2 3285   3.136   5.152   5.370
  796SOL     OW 3286   0.209   2.303   6.641
  796SOL    HW1 3287   0.115   2.271   6.657
  796SOL    HW2 3288   0.252   2.325   6.728
  797SOL     OW 3289   5.180   2.549   2.359
  797SOL    HW1 3290   5.101   2.605   2.384
  797SOL    HW2 3291   5.261   2.582   2.407
  798SOL     OW 3292   4.860   0.600   0.945
  798SOL    HW1 3293   4.837   0.539   0.870
  798SOL    HW2 3294   4.871   0.693   0.910
  799SOL     OW 3295   6.492   1.714   3.516
  799SOL    HW1 3296   6.569   1.689   3.456
  799SOL    HW2 3297   6.479   1.813   3.512
  800SOL     OW 3298   5.676   0.531   2.470
  800SOL    HW1 3299   5.733   0.505   2.548
  800SOL    HW2 3300   5.586   0.561   2.502
  801SOL     OW 3301   1.565   3.274   3.228
  801SOL    HW1 3302   1.484   3.233   3.270
  801SOL    HW2 3303   1.568   3.249   3.132
  802SOL     OW 3304   5.045   1.392   0.488
  802SOL    HW1 3305   4.966   1.420   0.434
  802SOL    HW2 3306   5.035   1.297   0.516
  803SOL     OW 3307   6.288   6.222   5.037
  803SOL    HW1 3308   6.341   6.173   5.106
  803SOL    HW2 3309   6.294   6.174   4.950
  804SOL     OW 3310   6.763   6.223   0.227
  804SOL    HW1 3311   6.794   6.134   0.192
  804SOL    HW2 3312   6.711   6.270   0.156
  805SOL     OW 3313   4.432   2.637   5.861
  805SOL    HW1 3314   4.437   2.732   5.892
  805SOL    HW2 3315   4.435   2.576   5.940
  806SOL     OW 3316   3.597   2.065   5.017
  806SOL    HW1 3317   3.510   2.112   5.004
  806SOL    HW2 3318   3.599   1.981   4.962
  807SOL     OW 3319   1.089   1.325   3.563
  807SOL    HW1 3320   1.187   1.346   3.554
  807SOL    HW2 3321   1.045   1.332   3.474
  808SOL     OW 3322   5.263   3.201   6.537
  808SOL    HW1 3323   5.268   3.281   6.596
  808SOL    HW2 3324   5.173   3.198   6.493
  809SOL     OW 3325   1.525   5.037   1.500
  809SOL    HW1 3326   1.446   5.082   1.542
  809SOL    HW2 3327   1.550   5.085   1.416
  810SOL     OW 3328   4.243   2.945   0.644
  810SOL    HW1 3329   4.211   3.020   0.585
  810SOL    HW2 3330   4.342   2.949   0.652
  811SOL     OW 3331   4.692   5.275   3.761
  811SOL    HW1 3332   4.788   5.247   3.751
  811SOL    HW2 3333   4.662   5.321   3.677
  812SOL     OW 3334   0.066   0.772   1.616
  812SOL    HW1 3335   0.043   0.865   1.646
  812SOL    HW2 3336   0.160   0.750   1.645
  813SOL     OW 3337   4.302   5.789   3.174
  813SOL    HW1 3338   4.248   5.841   3.241
  813SOL    HW2 3339   4.251   5.709   3.145
  814SOL     OW 3340   5.212   6.578   3.134
  814SOL    HW1 3341   5.292   6.629   3.167
  814SOL    HW2 3342   5.239   6.517   3.061
  815SOL     OW 3343   6.022   2.870   2.282
  815SOL    HW1 3344   5.975   2.795   2.329
  815SOL    HW2 3345   5.989   2.957   2.316
  816SOL     OW 3346   0.362   6.970   0.160
  816SOL    HW1 3347   0.421   6.989   0.237
  816SOL    HW2 3348   0.344   6.872   0.155
  817SOL     OW 3349   1.960   4.203   2.158
  817SOL    HW1 3350   1.874   4.196   2.208
  817SOL    HW2 3351   1.941   4.231   2.064
  818SOL     OW 3352   6.480   2.687   0.480
  818SOL    HW1 3353   6.444   2.780   0.474
  818SOL    HW2 3354   6.416   2.630   0.532
  819SOL     OW 3355   6.346   2.853   4.408
  819SOL    HW1 3356   6.401   2.835   4.489
  819SOL    HW2 3357   6.362   2.947   4.376
  820SOL     OW 3358   1.295   3.074   5.902
  820SOL    HW1 3359   1.251   3.057   5.814
  820SOL    HW2 3360   1.376   3.017   5.910
  821SOL     OW 3361   2.656   4.698   0.561
  821SOL    HW1 3362   2.697   4.641   0.632
  821SOL    HW2 3363   2.712   4.693   0.478
  822SOL     OW 3364   0.795   5.418   4.230
  822SOL    HW1 3365   0.799   5.437   4.328
  822SOL    HW2 3366   0.788   5.319   4.215
  823SOL     OW 3367   4.608   4.184   6.656
  823SOL    HW1 3368   4.680   4.239   6.615
  823SOL    HW2 3369   4.544   4.243   6.706
  824SOL     OW 3370   5.217   1.170   5.226
  824SOL    HW1 3371   5.136   1.220   5.255
  824SOL    HW2 3372   5.202   1.072   5.237
  825SOL     OW 3373   2.193   3.053   2.177
  825SOL    HW1 3374   2.131   3.132   2.171
  825SOL    HW2 3375   2.250   3.062   2.258
  826SOL     OW 3376   6.168   4.288   0.560
  826SOL    HW1 3377   6.188   4.289   0.462
  826SOL    HW2 3378   6.212   4.366   0.604
  827SOL     OW 3379   3.232   5.527   5.693
  827SOL    HW1 3380   3.325   5.524   5.658
  827SOL    HW2 3381   3.169   5.491   5.623
  828SOL     OW 3382   6.149   0.617   5.077
  828SOL    HW1 3383   6.139   0.533   5.131
  828SOL    HW2 3384   6.082   0.616   5.002
  829SOL     OW 3385   3.009   3.356   4.369
  829SOL    HW1 3386   3.063   3.377   4.450
  829SOL    HW2 3387   2.966   3.440   4.335
  830SOL     OW 3388   5.331   4.553   5.834
  830SOL    HW1 3389   5.356   4.520   5.743
  830SOL    HW2 3390   5.318   4.652   5.831
  831SOL     OW 3391   0.138   6.662   4.406
  831SOL    HW1 3392   0.214   6.599   4.393
  831SOL    HW2 3393   0.061   6.633   4.349
  832SOL     OW 3394   2.173   1.164   0.079
  832SOL    HW1 3395   2.074   1.174   0.068
  832SOL    HW2 3396   2.192   1.084   0.136
  833SOL     OW 3397   6.749   6.030   6.241
  833SOL    HW1 3398   6.735   6.066   6.149
  833SOL    HW2 3399   6.811   6.091   6.291
  834SOL     OW 3400   3.504   3.276   2.456
  834SOL    HW1 3401   3.522   3.185   2.420
  834SOL    HW2 3402   3.433   3.320   2.401
  835SOL     OW 3403   4.342   6.382   3.792
  835SOL    HW1 3404   4.302   6.472   3.774
  835SOL    HW2 3405   4.438   6.392   3.817
  836SOL     OW 3406   3.255   6.195   6.707
  836SOL    HW1 3407   3.162   6.160   6.696
  836SOL    HW2 3408   3.321   6.123   6.687
  837SOL     OW 3409   4.796   0.441   6.858
  837SOL    HW1 3410   4.848   0.505   6.802
  837SOL    HW2 3411   4.815   0.458   6.954
  838SOL     OW 3412   0.797   0.118   4.972
  838SOL    HW1 3413   0.775   0.141   4.877
  838SOL    HW2 3414   0.774   0.022   4.989
  839SOL     OW 3415   2.794   1.414   2.862
  839SOL    HW1 3416   2.815   1.501   2.907
  839SOL    HW2 3417   2.719   1.369   2.910
  840SOL     OW 3418   6.785   1.236   5.763
  840SOL    HW1 3419   6.780   1.254   5.861
  840SOL    HW2 3420   6.874   1.194   5.741
  841SOL     OW 3421   5.904   4.465   0.579
  841SOL    HW1 3422   5.888   4.526   0.502
  841SOL    HW2 3423   6.003   4.447   0.587
  842SOL     OW 3424   4.437   5.458   3.222
  842SOL    HW1 3425   4.421   5.391   3.295
  842SOL    HW2 3426   4.350   5.484   3.182
  843SOL     OW 3427   5.813   2.160   0.304
  843SOL    HW1 3428   5.719   2.157   0.271
  843SOL    HW2 3429   5.859   2.073   0.282
  844SOL     OW 3430   4.656   6.175   0.554
  844SOL    HW1 3431   4.706   6.105   0.502
  844SOL    HW2 3432   4.570   6.137   0.587
  845SOL     OW 3433   6.185   2.821   4.947
  845SOL    HW1 3434   6.277   2.781   4.951
  845SOL    HW2 3435   6.163   2.862   5.035
  846SOL     OW 3436   5.713   1.706   6.505
  846SOL    HW1 3437   5.791   1.760   6.536
  846SOL    HW2 3438   5.628   1.757   6.522
  847SOL     OW 3439   6.145   3.167   0.716
  847SOL    HW1 3440   6.214   3.110   0.761
  847SOL    HW2 3441   6.055   3.144   0.752
  848SOL     OW 3442   5.879   0.812   6.424
  848SOL    HW1 3443   5.975   0.815   6.394
  848SOL    HW2 3444   5.852   0.902   6.459
  849SOL     OW 3445   6.968   5.647   5.181
  849SOL    HW1 3446   6.896   5.717   5.180
  849SOL    HW2 3447   0.025   5.677   5.123
  850SOL     OW 3448   4.454   0.353   3.514
  850SOL    HW1 3449   4.529   0.299   3.553
  850SOL    HW2 3450   4.483   0.392   3.427
  851SOL     OW 3451   0.200   1.427   0.589
  851SOL    HW1 3452   0.133   1.402   0.659
  851SOL    HW2 3453   0.152   1.464   0.509
  852SOL     OW 3454   2.275   2.404   6.625
  852SOL    HW1 3455   2.372   2.381   6.634
  852SOL    HW2 3456   2.224   2.323   6.596
  853SOL     OW 3457   0.713   3.735   3.052
  853SOL    HW1 3458   0.686   3.657   2.996
  853SOL    HW2 3459   0.736   3.812   2.992
  854SOL     OW 3460   5.220   6.483   2.000
  854SOL    HW1 3461   5.308   6.485   2.048
  854SOL    HW2 3462   5.180   6.575   2.001
  855SOL     OW 3463   6.239   0.118   1.555
  855SOL    HW1 3464   6.275   0.209   1.533
  855SOL    HW2 3465   6.146   0.109   1.521
  856SOL     OW 3466   1.864   0.875   5.400
  856SOL    HW1 3467   1.949   0.836   5.365
  856SOL    HW2 3468   1.883   0.962   5.446
  857SOL     OW 3469   5.489   4.911   1.464
  857SOL    HW1 3470   5.504   4.890   1.368
  857SOL    HW2 3471   5.556   4.862   1.520
  858SOL     OW 3472   2.785   4.848   1.839
  858SOL    HW1 3473   2.690   4.819   1.849
  858SOL    HW2 3474   2.843   4.794   1.900
  859SOL     OW 3475   5.372   5.300   6.791
  859SOL    HW1 3476   5.392   5.202   6.788
  859SOL    HW2 3477   5.338   5.330   6.702
  860SOL     OW 3478   4.282   3.850   0.115
  860SOL    HW1 3479   4.237   3.785   0.177
  860SOL    HW2 3480   4.349   3.802   0.059
  861SOL     OW 3481   2.383   6.970   4.473
  861SOL    HW1 3482   2.432   6.912   4.538
  861SOL    HW2 3483   2.438   6.983   4.391
  862SOL     OW 3484   5.741   4.489   5.071
  862SOL    HW1 3485   5.780   4.437   4.996
  862SOL    HW2 3486   5.793   4.573   5.085
  863SOL     OW 3487   1.284   0.329   0.960
  863SOL    HW1 3488   1.304   0.302   0.866
  863SOL    HW2 3489   1.340   0.409   0.984
  864SOL     OW 3490   5.035   4.490   3.615
  864SOL    HW1 3491   4.942   4.500   3.581
  864SOL    HW2 3492   5.096   4.548   3.561
  865SOL     OW 3493   0.849   0.093   4.194
  865SOL    HW1 3494   0.833   7.018   4.161
  865SOL    HW2 3495   0.789   0.156   4.145
  866SOL     OW 3496   2.668   1.432   2.096
  866SOL    HW1 3497   2.742   1.465   2.155
  866SOL    HW2 3498   2.680   1.469   2.004
  867SOL     OW 3499   3.313   2.619   0.420
  867SOL    HW1 3500   3.411   2.597   0.427
  867SOL    HW2 3501   3.273   2.567   0.345
  868SOL     OW 3502   6.051   0.280   1.930
  868SOL    HW1 3503   6.000   0.249   1.850
  868SOL    HW2 3504   6.007   0.247   2.013
  869SOL     OW 3505   6.689   5.675   2.919
  869SOL    HW1 3506   6.771   5.658   2.974
  869SOL    HW2 3507   6.639   5.752   2.957
  870SOL     OW 3508   6.465   2.775   1.481
  870SOL    HW1 3509   6.505   2.828   1.407
  870SOL    HW2 3510   6.430   2.688   1.446
  871SOL     OW 3511   6.993   2.973   1.949
  871SOL    HW1 3512   6.920   2.949   2.013
  871SOL    HW2 3513   0.061   2.978   1.998
  872SOL     OW 3514   6.492   2.895   4.631
  872SOL    HW1 3515   6.475   2.979   4.683
  872SOL    HW2 3516   6.568   2.845   4.671
  873SOL     OW 3517   3.867   0.125   3.082
  873SOL    HW1 3518   3.828   0.066   3.011
  873SOL    HW2 3519   3.810   0.206   3.093
  874SOL     OW 3520   1.945   4.126   5.290
  874SOL    HW1 3521   2.030   4.177   5.303
  874SOL    HW2 3522   1.953   4.068   5.210
  875SOL     OW 3523   5.196   4.760   0.589
  875SOL    HW1 3524   5.283   4.783   0.632
  875SOL    HW2 3525   5.177   4.663   0.602
  876SOL     OW 3526   6.614   3.748   2.980
  876SOL    HW1 3527   6.685   3.687   2.945
  876SOL    HW2 3528   6.639   3.843   2.962
  877SOL     OW 3529   4.780   4.825   6.938
  877SOL    HW1 3530   4.871   4.794   6.969
  877SOL    HW2 3531   4.714   4.752   6.952
  878SOL     OW 3532   3.530   5.178   6.515
  878SOL    HW1 3533   3.592   5.199   6.589
  878SOL    HW2 3534   3.462   5.111   6.546
  879SOL     OW 3535   4.386   1.820   2.801
  879SOL    HW1 3536   4.437   1.774   2.874
  879SOL    HW2 3537   4.297   1.775   2.789
  880SOL     OW 3538   3.604   4.329   6.804
  880SOL    HW1 3539   3.505   4.334   6.816
  880SOL    HW2 3540   3.626   4.259   6.736
  881SOL     OW 3541   4.364   4.594   4.692
  881SOL    HW1 3542   4.276   4.587   4.645
  881SOL    HW2 3543   4.354   4.562   4.787
  882SOL     OW 3544   1.710   0.924   4.755
  882SOL    HW1 3545   1.656   0.938   4.672
  882SOL    HW2 3546   1.656   0.877   4.824
  883SOL     OW 3547   3.988   5.082   5.583
  883SOL    HW1 3548   4.004   5.171   5.541
  883SOL    HW2 3549   4.060   5.018   5.553
  884SOL     OW 3550   6.540   3.170   1.878
  884SOL    HW1 3551   6.491   3.098   1.928
  884SOL    HW2 3552   6.504   3.176   1.785
  885SOL     OW 3553   5.720   6.404   0.304
  885SOL    HW1 3554   5.725   6.361   0.215
  885SOL    HW2 3555   5.663   6.348   0.365
  886SOL     OW 3556   4.254   1.089   6.902
  886SOL    HW1 3557   4.292   1.089   6.995
  886SOL    HW2 3558   4.195   1.168   6.890
  887SOL     OW 3559   4.515   7.016   6.159
  887SOL    HW1 3560   4.553   0.043   6.078
  887SOL    HW2 3561   4.416   7.004   6.146
  888SOL     OW 3562   6.968   6.314   3.863
  888SOL    HW1 3563   7.015   6.386   3.813
  888SOL    HW2 3564   6.949   6.344   3.957
  889SOL     OW 3565   0.288   6.196   5.538
  889SOL    HW1 3566   0.255   6.266   5.475
  889SOL    HW2 3567   0.225   6.188   5.615
  890SOL     OW 3568   2.743   4.781   2.227
  890SOL    HW1 3569   2.671   4.843   2.195
  890SOL    HW2 3570   2.762   4.713   2.157
  891SOL     OW 3571   5.511   3.527   1.640
  891SOL    HW1 3572   5.469   3.463   1.704
  891SOL    HW2 3573   5.549   3.605   1.690
  892SOL     OW 3574   2.830   4.263   0.822
  892SOL    HW1 3575   2.749   4.297   0.776
  892SOL    HW2 3576   2.834   4.163   0.813
  893SOL     OW 3577   1.695   0.082   0.498
  893SOL    HW1 3578   1.642   0.067   0.415
  893SOL    HW2 3579   1.634   0.083   0.577
  894SOL     OW 3580   1.184   5.091   3.994
  894SOL    HW1 3581   1.236   5.037   4.059
  894SOL    HW2 3582   1.234   5.174   3.971
  895SOL     OW 3583   2.082   0.066   4.261
  895SOL    HW1 3584   2.028   0.147   4.239
  895SOL    HW2 3585   2.179   0.085   4.249
  896SOL     OW 3586   6.003   6.241   3.844
  896SOL    HW1 3587   5.941   6.175   3.802
  896SOL    HW2 3588   5.955   6.328   3.858
  897SOL     OW 3589   5.159   2.077   0.435
  897SOL    HW1 3590   5.135   2.039   0.345
  897SOL    HW2 3591   5.173   2.176   0.427
  898SOL     OW 3592   5.367   6.489   3.691
  898SOL    HW1 3593   5.287   6.550   3.694
  898SOL    HW2 3594   5.349   6.409   3.748
  899SOL     OW 3595   0.673   4.872   6.587
  899SOL    HW1 3596   0.767   4.839   6.576
  899SOL    HW2 3597   0.618   4.838   6.511
  900SOL     OW 3598   6.815   6.065   1.972
  900SOL    HW1 3599   6.808   6.128   1.895
  900SOL    HW2 3600   6.788   5.973   1.943
  901SOL     OW 3601   0.017   1.371   4.341
  901SOL    HW1 3602   0.046   1.455   4.296
  901SOL    HW2 3603   0.016   1.385   4.440
  902SOL     OW 3604   6.496   0.444   6.556
  902SOL    HW1 3605   6.549   0.412   6.478
  902SOL    HW2 3606   6.405   0.403   6.553
  903SOL     OW 3607   6.846   4.431   0.841
  903SOL    HW1 3608   6.770   4.459   0.899
  903SOL    HW2 3609   6.816   4.360   0.777
  904SOL     OW 3610   1.374   1.354   3.212
  904SOL    HW1 3611   1.286   1.312   3.192
  904SOL    HW2 3612   1.409   1.399   3.130
  905SOL     OW 3613   4.932   2.116   6.162
  905SOL    HW1 3614   4.884   2.031   6.184
  905SOL    HW2 3615   4.993   2.140   6.238
  906SOL     OW 3616   0.446   4.219   7.016
  906SOL    HW1 3617   0.384   4.177   6.950
  906SOL    HW2 3618   0.452   4.161   0.078
  907SOL     OW 3619   6.099   2.321   2.406
  907SOL    HW1 3620   6.141   2.375   2.479
  907SOL    HW2 3621   6.107   2.224   2.427
  908SOL     OW 3622   1.350   0.045   4.154
  908SOL    HW1 3623   1.332   0.041   4.253
  908SOL    HW2 3624   1.448   0.040   4.139
  909SOL     OW 3625   2.565   0.823   0.382
  909SOL    HW1 3626   2.564   0.847   0.285
  909SOL    HW2 3627   2.650   0.776   0.404
  910SOL     OW 3628   1.245   0.596   0.272
  910SOL    HW1 3629   1.298   0.680   0.278
  910SOL    HW2 3630   1.169   0.600   0.336
  911SOL     OW 3631   0.299   4.908   1.490
  911SOL    HW1 3632   0.241   4.881   1.567
  911SOL    HW2 3633   0.322   4.827   1.435
  912SOL     OW 3634   0.405   1.629   5.488
  912SOL    HW1 3635   0.376   1.724   5.479
  912SOL    HW2 3636   0.490   1.624   5.541
  913SOL     OW 3637   2.167   0.584   3.776
  913SOL    HW1 3638   2.084   0.546   3.734
  913SOL    HW2 3639   2.155   0.683   3.788
  914SOL     OW 3640   2.455   5.916   4.129
  914SOL    HW1 3641   2.414   5.891   4.216
  914SOL    HW2 3642   2.541   5.867   4.116
  915SOL     OW 3643   0.705   3.667   0.276
  915SOL    HW1 3644   0.801   3.690   0.289
  915SOL    HW2 3645   0.674   3.703   0.188
  916SOL     OW 3646   2.361   1.968   2.634
  916SOL    HW1 3647   2.439   1.958   2.572
  916SOL    HW2 3648   2.392   1.959   2.728
  917SOL     OW 3649   3.596   0.780   1.201
  917SOL    HW1 3650   3.500   0.793   1.179
  917SOL    HW2 3651   3.608   0.781   1.300
  918SOL     OW 3652   2.637   6.134   6.232
  918SOL    HW1 3653   2.659   6.086   6.147
  918SOL    HW2 3654   2.545   6.108   6.262
  919SOL     OW 3655   1.409   5.016   2.172
  919SOL    HW1 3656   1.441   4.922   2.183
  919SOL    HW2 3657   1.467   5.063   2.106
  920SOL     OW 3658   2.449   0.510   2.856
  920SOL    HW1 3659   2.445   0.579   2.927
  920SOL    HW2 3660   2.534   0.458   2.865
  921SOL     OW 3661   6.129   4.840   4.245
  921SOL    HW1 3662   6.131   4.797   4.335
  921SOL    HW2 3663   6.170   4.931   4.250
  922SOL     OW 3664   2.845   3.745   6.709
  922SOL    HW1 3665   2.891   3.721   6.794
  922SOL    HW2 3666   2.746   3.753   6.725
  923SOL     OW 3667   2.497   5.924   6.896
  923SOL    HW1 3668   2.457   5.999   6.950
  923SOL    HW2 3669   2.428   5.886   6.835
  924SOL     OW 3670   5.638   3.466   3.240
  924SOL    HW1 3671   5.708   3.432   3.303
  924SOL    HW2 3672   5.550   3.424   3.261
  925SOL     OW 3673   0.441   2.074   5.905
  925SOL    HW1 3674   0.463   2.166   5.872
  925SOL    HW2 3675   0.525   2.029   5.935
  926SOL     OW 3676   5.886   6.332   0.744
  926SOL    HW1 3677   5.936   6.374   0.668
  926SOL    HW2 3678   5.834   6.253   0.711
  927SOL     OW 3679   4.772   4.163   4.157
  927SOL    HW1 3680   4.743   4.203   4.244
  927SOL    HW2 3681   4.841   4.222   4.114
  928SOL     OW 3682   1.589   7.007   0.746
  928SOL    HW1 3683   1.647   6.926   0.739
  928SOL    HW2 3684   1.498   6.986   0.711
  929SOL     OW 3685   0.549   2.679   2.167
  929SOL    HW1 3686   0.517   2.655   2.076
  929SOL    HW2 3687   0.479   2.657   2.234
  930SOL     OW 3688   5.426   4.552   4.585
  930SOL    HW1 3689   5.462   4.465   4.553
  930SOL    HW2 3690   5.429   4.554   4.685
  931SOL     OW 3691   0.606   2.665   3.016
  931SOL    HW1 3692   0.702   2.643   3.035
  931SOL    HW2 3693   0.584   2.635   2.923
  932SOL     OW 3694   4.142   6.084   1.248
  932SOL    HW1 3695   4.142   6.069   1.346
  932SOL    HW2 3696   4.191   6.009   1.203
  933SOL     OW 3697   1.318   4.434   3.069
  933SOL    HW1 3698   1.295   4.407   3.163
  933SOL    HW2 3699   1.335   4.533   3.066
  934SOL     OW 3700   3.361   0.690   5.194
  934SOL    HW1 3701   3.273   0.644   5.209
  934SOL    HW2 3702   3.346   0.775   5.143
  935SOL     OW 3703   4.761   3.561   6.313
  935SOL    HW1 3704   4.757   3.629   6.386
  935SOL    HW2 3705   4.710   3.479   6.341
  936SOL     OW 3706   0.529   0.278   1.161
  936SOL    HW1 3707   0.570   0.334   1.233
  936SOL    HW2 3708   0.454   0.328   1.119
  937SOL     OW 3709   4.553   1.790   4.349
  937SOL    HW1 3710   4.607   1.739   4.282
  937SOL    HW2 3711   4.573   1.887   4.341
  938SOL     OW 3712   6.874   3.722   5.577
  938SOL    HW1 3713   6.868   3.663   5.658
  938SOL    HW2 3714   6.970   3.733   5.552
  939SOL     OW 3715   5.281   1.201   6.097
  939SOL    HW1 3716   5.196   1.201   6.045
  939SOL    HW2 3717   5.350   1.146   6.049
  940SOL     OW 3718   0.032   1.045   3.164
  940SOL    HW1 3719   6.984   1.038   3.091
  940SOL    HW2 3720   7.013   1.004   3.248
  941SOL     OW 3721   5.399   1.312   3.895
  941SOL    HW1 3722   5.422   1.307   3.992
  941SOL    HW2 3723   5.383   1.407   3.870
  942SOL     OW 3724   5.317   6.892   5.126
  942SOL    HW1 3725   5.273   6.826   5.065
  942SOL    HW2 3726   5.382   6.845   5.186
  943SOL     OW 3727   6.480   2.930   2.584
  943SOL    HW1 3728   6.431   2.998   2.640
  943SOL    HW2 3729   6.508   2.972   2.498
  944SOL     OW 3730   6.153   3.081   4.666
  944SOL    HW1 3731   6.129   3.009   4.602
  944SOL    HW2 3732   6.112   3.062   4.756
  945SOL     OW 3733   4.611   4.550   4.085
  945SOL    HW1 3734   4.704   4.555   4.122
  945SOL    HW2 3735   4.594   4.630   4.028
  946SOL     OW 3736   5.722   2.642   6.063
  946SOL    HW1 3737   5.707   2.678   5.971
  946SOL    HW2 3738   5.636   2.644   6.114
  947SOL     OW 3739   3.341   3.253   6.209
  947SOL    HW1 3740   3.390   3.181   6.257
  947SOL    HW2 3741   3.242   3.238   6.217
  948SOL     OW 3742   3.253   1.236   0.471
  948SOL    HW1 3743   3.345   1.239   0.431
  948SOL    HW2 3744   3.253   1.286   0.558
  949SOL     OW 3745   6.158   5.140   6.604
  949SOL    HW1 3746   6.181   5.043   6.610
  949SOL    HW2 3747   6.219   5.192   6.665
  950SOL     OW 3748   4.069   5.027   1.570
  950SOL    HW1 3749   4.031   5.093   1.505
  950SOL    HW2 3750   4.096   4.944   1.522
  951SOL     OW 3751   0.779   0.562   1.959
  951SOL    HW1 3752   0.785   0.648   2.011
  951SOL    HW2 3753   0.855   0.558   1.894
  952SOL     OW 3754   5.071   0.834   3.043
  952SOL    HW1 3755   4.978   0.828   3.007
  952SOL    HW2 3756   5.102   0.929   3.039
  953SOL     OW 3757   4.607   6.513   5.341
  953SOL    HW1 3758   4.658   6.518   5.427
  953SOL    HW2 3759   4.622   6.597   5.288
  954SOL     OW 3760   6.321   0.060   1.801
  954SOL    HW1 3761   6.410   0.104   1.811
  954SOL    HW2 3762   6.282   0.081   1.712
  955SOL     OW 3763   0.691   4.883   3.352
  955SOL    HW1 3764   0.742   4.954   3.401
  955SOL    HW2 3765   0.597   4.914   3.338
  956SOL     OW 3766   1.191   1.257   1.592
  956SOL    HW1 3767   1.121   1.209   1.539
  956SOL    HW2 3768   1.216   1.203   1.672
  957SOL     OW 3769   1.267   4.746   5.672
  957SOL    HW1 3770   1.251   4.717   5.766
  957SOL    HW2 3771   1.364   4.737   5.650
  958SOL     OW 3772   4.955   2.171   1.051
  958SOL    HW1 3773   5.053   2.193   1.054
  958SOL    HW2 3774   4.927   2.131   1.138
  959SOL     OW 3775   2.990   4.913   2.728
  959SOL    HW1 3776   3.028   4.871   2.646
  959SOL    HW2 3777   3.056   4.979   2.765
  960SOL     OW 3778   2.164   6.193   4.277
  960SOL    HW1 3779   2.222   6.146   4.344
  960SOL    HW2 3780   2.068   6.176   4.298
  961SOL     OW 3781   3.895   0.104   2.307
  961SOL    HW1 3782   3.845   0.182   2.344
  961SOL    HW2 3783   3.833   0.045   2.256
  962SOL     OW 3784   1.944   1.182   3.297
  962SOL    HW1 3785   1.898   1.095   3.277
  962SOL    HW2 3786   2.042   1.165   3.306
  963SOL     OW 3787   5.981   0.151   1.450
  963SOL    HW1 3788   5.951   0.245   1.434
  963SOL    HW2 3789   5.925   0.088   1.396
  964SOL     OW 3790   5.478   3.365   0.728
  964SOL    HW1 3791   5.441   3.298   0.663
  964SOL    HW2 3792   5.404   3.406   0.780
  965SOL     OW 3793   6.577   1.610   0.825
  965SOL    HW1 3794   6.488   1.657   0.820
  965SOL    HW2 3795   6.592   1.577   0.918
  966SOL     OW 3796   6.145   1.628   3.115
  966SOL    HW1 3797   6.244   1.637   3.105
  966SOL    HW2 3798   6.101   1.717   3.100
  967SOL     OW 3799   1.528   5.517   0.478
  967SOL    HW1 3800   1.618   5.482   0.504
  967SOL    HW2 3801   1.495   5.468   0.397
  968SOL     OW 3802   4.674   2.741   2.610
  968SOL    HW1 3803   4.689   2.691   2.525
  968SOL    HW2 3804   4.729   2.825   2.610
  969SOL     OW 3805   3.878   6.592   5.990
  969SOL    HW1 3806   3.931   6.507   5.979
  969SOL    HW2 3807   3.787   6.579   5.953
  970SOL     OW 3808   4.293   1.724   5.171
  970SOL    HW1 3809   4.327   1.672   5.092
  970SOL    HW2 3810   4.214   1.779   5.143
  971SOL     OW 3811   6.988   1.489   2.389
  971SOL    HW1 3812   7.001   1.394   2.417
  971SOL    HW2 3813   6.961   1.544   2.468
  972SOL     OW 3814   6.485   4.597   0.767
  972SOL    HW1 3815   6.465   4.692   0.793
  972SOL    HW2 3816   6.507   4.544   0.849
  973SOL     OW 3817   6.989   4.603   6.383
  973SOL    HW1 3818   6.931   4.684   6.372
  973SOL    HW2 3819   6.960   4.532   6.318
  974SOL     OW 3820   3.160   0.476   2.597
  974SOL    HW1 3821   3.139   0.569   2.628
  974SOL    HW2 3822   3.113   0.410   2.656
  975SOL     OW 3823   3.113   5.840   6.244
  975SOL    HW1 3824   3.084   5.788   6.324
  975SOL    HW2 3825   3.099   5.938   6.261
  976SOL     OW 3826   0.044   3.305   2.465
  976SOL    HW1 3827   6.969   3.315   2.498
  976SOL    HW2 3828   0.047   3.241   2.389
  977SOL     OW 3829   1.165   1.027   3.748
  977SOL    HW1 3830   1.218   0.996   3.827
  977SOL    HW2 3831   1.156   1.126   3.751
  978SOL     OW 3832   6.142   4.290   4.121
  978SOL    HW1 3833   6.185   4.213   4.167
  978SOL    HW2 3834   6.110   4.356   4.189
  979SOL     OW 3835   6.030   1.634   3.437
  979SOL    HW1 3836   6.091   1.570   3.391
  979SOL    HW2 3837   5.941   1.633   3.391
  980SOL     OW 3838   5.514   2.757   3.427
  980SOL    HW1 3839   5.427   2.721   3.461
  980SOL    HW2 3840   5.552   2.694   3.360
  981SOL     OW 3841   1.179   1.699   4.958
  981SOL    HW1 3842   1.211   1.615   5.001
  981SOL    HW2 3843   1.140   1.760   5.027
  982SOL     OW 3844   1.336   2.758   2.102
  982SOL    HW1 3845   1.409   2.700   2.137
  982SOL    HW2 3846   1.263   2.765   2.170
  983SOL     OW 3847   6.060   2.171   3.348
  983SOL    HW1 3848   6.112   2.231   3.409
  983SOL    HW2 3849   6.068   2.204   3.254
  984SOL     OW 3850   4.483   1.000   5.453
  984SOL    HW1 3851   4.533   0.914   5.443
  984SOL    HW2 3852   4.389   0.987   5.420
  985SOL     OW 3853   4.200   5.531   0.177
  985SOL    HW1 3854   4.179   5.627   0.191
  985SOL    HW2 3855   4.157   5.476   0.249
  986SOL     OW 3856   5.129   5.464   6.308
  986SOL    HW1 3857   5.158   5.491   6.216
  986SOL    HW2 3858   5.029   5.461   6.312
  987SOL     OW 3859   2.993   6.681   1.766
  987SOL    HW1 3860   2.909   6.627   1.753
  987SOL    HW2 3861   3.058   6.629   1.821
  988SOL     OW 3862   3.628   2.722   0.588
  988SOL    HW1 3863   3.691   2.723   0.665
  988SOL    HW2 3864   3.534   2.725   0.622
  989SOL     OW 3865   0.374   0.710   6.219
  989SOL    HW1 3866   0.281   0.684   6.195
  989SOL    HW2 3867   0.438   0.638   6.192
  990SOL     OW 3868   4.716   0.124   4.221
  990SOL    HW1 3869   4.782   0.197   4.239
  990SOL    HW2 3870   4.700   0.073   4.306
  991SOL     OW 3871   1.205   2.222   4.962
  991SOL    HW1 3872   1.192   2.320   4.952
  991SOL    HW2 3873   1.301   2.199   4.947
  992SOL     OW 3874   0.364   2.954   6.837
  992SOL    HW1 3875   0.394   2.928   6.745
  992SOL    HW2 3876   0.392   3.049   6.855
  993SOL     OW 3877   3.069   5.337   2.474
  993SOL    HW1 3878   3.032   5.273   2.540
  993SOL    HW2 3879   3.068   5.429   2.513
  994SOL     OW 3880   3.554   4.070   2.540
  994SOL    HW1 3881   3.596   4.117   2.617
  994SOL    HW2 3882   3.553   3.971   2.557
  995SOL     OW 3883   2.046   2.753   5.801
  995SOL    HW1 3884   1.992   2.694   5.741
  995SOL    HW2 3885   2.135   2.710   5.819
  996SOL     OW 3886   1.701   3.902   3.540
  996SOL    HW1 3887   1.616   3.937   3.581
  996SOL    HW2 3888   1.685   3.812   3.501
  997SOL     OW 3889   0.658   0.448   1.374
  997SOL    HW1 3890   0.696   0.500   1.299
  997SOL    HW2 3891   0.729   0.428   1.441
  998SOL     OW 3892   4.094   0.134   2.939
  998SOL    HW1 3893   4.165   0.174   2.996
  998SOL    HW2 3894   4.006   0.135   2.987
  999SOL     OW 3895   5.645   5.704   1.048
  999SOL    HW1 3896   5.717   5.720   0.980
  999SOL    HW2 3897   5.556   5.707   1.004
 1000SOL     OW 3898   2.153   1.698   2.444
 1000SOL    HW1 3899   2.157   1.688   2.345
 1000SOL    HW2 3900   2.073   1.649   2.479
 1001SOL     OW 3901   4.057   6.802   6.356
 1001SOL    HW1 3902   4.132   6.866   6.373
 1001SOL    HW2 3903   4.077   6.748   6.274
 1002SOL     OW 3904   5.677   1.587   6.792
 1002SOL    HW1 3905   5.662   1.488   6.780
 1002SOL    HW2 3906   5.681   1.630   6.702
 1003SOL     OW 3907   2.153   6.913   2.361
 1003SOL    HW1 3908   2.240   6.925   2.312
 1003SOL    HW2 3909   2.084   6.878   2.298
 1004SOL     OW 3910   6.669   0.402   6.789
 1004SOL    HW1 3911   6.625   0.402   6.698
 1004SOL    HW2 3912   6.762   0.436   6.781
 1005SOL     OW 3913   0.265   0.677   2.806
 1005SOL    HW1 3914   0.252   0.580   2.830
 1005SOL    HW2 3915   0.201   0.702   2.734
 1006SOL     OW 3916   2.366   5.631   1.970
 1006SOL    HW1 3917   2.434   5.608   2.040
 1006SOL    HW2 3918   2.401   5.604   1.880
 1007SOL     OW 3919   6.010   0.945   3.354
 1007SOL    HW1 3920   6.030   1.033   3.396
 1007SOL    HW2 3921   6.054   0.872   3.406
 1008SOL     OW 3922   0.741   2.326   3.826
 1008SOL    HW1 3923   0.792   2.273   3.893
 1008SOL    HW2 3924   0.690   2.399   3.873
 1009SOL     OW 3925   6.775   5.692   3.869
 1009SOL    HW1 3926   6.752   5.746   3.788
 1009SOL    HW2 3927   6.693   5.648   3.905
 1010SOL     OW 3928   4.047   1.731   0.017
 1010SOL    HW1 3929   4.001   1.814   7.002
 1010SOL    HW2 3930   4.083   1.749   0.108
 1011SOL     OW 3931   3.217   5.556   3.960
 1011SOL    HW1 3932   3.131   5.510   3.939
 1011SOL    HW2 3933   3.284   5.536   3.889
 1012SOL     OW 3934   6.325   5.264   0.221
 1012SOL    HW1 3935   6.416   5.244   0.186
 1012SOL    HW2 3936   6.267   5.298   0.147
 1013SOL     OW 3937   0.434   0.994   6.797
 1013SOL    HW1 3938   0.395   1.083   6.774
 1013SOL    HW2 3939   0.514   1.006   6.855
 1014SOL     OW 3940   5.258   5.351   6.544
 1014SOL    HW1 3941   5.182   5.287   6.557
 1014SOL    HW2 3942   5.237   5.413   6.468
 1015SOL     OW 3943   3.875   6.753   4.847
 1015SOL    HW1 3944   3.882   6.697   4.930
 1015SOL    HW2 3945   3.781   6.783   4.835
 1016SOL     OW 3946   2.906   2.691   1.142
 1016SOL    HW1 3947   2.888   2.790   1.141
 1016SOL    HW2 3948   2.836   2.644   1.089
 1017SOL     OW 3949   5.280   2.545   1.018
 1017SOL    HW1 3950   5.253   2.617   1.082
 1017SOL    HW2 3951   5.299   2.461   1.069
 1018SOL     OW 3952   1.730   3.189   4.153
 1018SOL    HW1 3953   1.762   3.266   4.097
 1018SOL    HW2 3954   1.786   3.109   4.134
 1019SOL     OW 3955   0.329   1.221   0.429
 1019SOL    HW1 3956   0.312   1.309   0.475
 1019SOL    HW2 3957   0.284   1.222   0.339
 1020SOL     OW 3958   1.285   6.936   0.762
 1020SOL    HW1 3959   1.263   6.914   0.857
 1020SOL    HW2 3960   1.228   6.882   0.701
 1021SOL     OW 3961   5.787   1.294   2.018
 1021SOL    HW1 3962   5.823   1.320   2.107
 1021SOL    HW2 3963   5.860   1.297   1.949
 1022SOL     OW 3964   4.256   4.681   6.171
 1022SOL    HW1 3965   4.242   4.585   6.196
 1022SOL    HW2 3966   4.354   4.703   6.175
 1023SOL     OW 3967   6.243   6.910   1.989
 1023SOL    HW1 3968   6.278   6.971   1.918
 1023SOL    HW2 3969   6.150   6.882   1.967
 1024SOL     OW 3970   6.949   2.244   4.209
 1024SOL    HW1 3971   6.994   2.271   4.123
 1024SOL    HW2 3972   6.896   2.161   4.193
 1025SOL     OW 3973   3.835   4.686   0.059
 1025SOL    HW1 3974   3.929   4.672   0.027
 1025SOL    HW2 3975   3.775   4.619   0.016
 1026SOL     OW 3976   1.299   1.207   1.186
 1026SOL    HW1 3977   1.326   1.170   1.275
 1026SOL    HW2 3978   1.329   1.146   1.113
 1027SOL     OW 3979   3.073   5.543   1.091
 1027SOL    HW1 3980   3.165   5.533   1.128
 1027SOL    HW2 3981   3.011   5.481   1.139
 1028SOL     OW 3982   2.643   5.919   0.315
 1028SOL    HW1 3983   2.715   5.849   0.309
 1028SOL    HW2 3984   2.654   5.970   0.400
 1029SOL     OW 3985   1.804   0.581   0.307
 1029SOL    HW1 3986   1.754   0.508   0.354
 1029SOL    HW2 3987   1.880   0.541   0.255
 1030SOL     OW 3988   3.466   2.905   3.788
 1030SOL    HW1 3989   3.371   2.920   3.815
 1030SOL    HW2 3990   3.526   2.925   3.866
 1031SOL     OW 3991   3.761   5.181   1.503
 1031SOL    HW1 3992   3.837   5.171   1.438
 1031SOL    HW2 3993   3.723   5.273   1.495
 1032SOL     OW 3994   2.406   1.274   5.762
 1032SOL    HW1 3995   2.326   1.300   5.816
 1032SOL    HW2 3996   2.388   1.291   5.665
 1033SOL     OW 3997   1.873   5.807   1.452
 1033SOL    HW1 3998   1.837   5.854   1.532
 1033SOL    HW2 3999   1.843   5.854   1.369
 1034SOL     OW 4000   1.858   6.368   4.084
 1034SOL    HW1 4001   1.866   6.413   4.172
 1034SOL    HW2 4002   1.886   6.430   4.011
 1035SOL     OW 4003   2.972   2.082   3.755
 1035SOL    HW1 4004   2.945   1.988   3.778
 1035SOL    HW2 4005   3.000   2.130   3.839
 1036SOL     OW 4006   3.716   0.969   0.986
 1036SOL    HW1 4007   3.674   0.901   1.045
 1036SOL    HW2 4008   3.645   1.019   0.936
 1037SOL     OW 4009   0.711   1.134   1.104
 1037SOL    HW1 4010   0.738   1.124   1.200
 1037SOL    HW2 4011   0.616   1.107   1.093
 1038SOL     OW 4012   0.639   1.640   5.963
 1038SOL    HW1 4013   0.604   1.547   5.966
 1038SOL    HW2 4014   0.720   1.647   6.022
 1039SOL     OW 4015   4.378   1.557   4.965
 1039SOL    HW1 4016   4.402   1.513   4.879
 1039SOL    HW2 4017   4.340   1.489   5.028
 1040SOL     OW 4018   5.583   3.586   3.661
 1040SOL    HW1 4019   5.638   3.509   3.691
 1040SOL    HW2 4020   5.609   3.668   3.712
 1041SOL     OW 4021   6.265   6.928   4.182
 1041SOL    HW1 4022   6.192   6.913   4.115
 1041SOL    HW2 4023   6.327   6.850   4.182
 1042SOL     OW 4024   4.498   4.885   2.354
 1042SOL    HW1 4025   4.532   4.829   2.430
 1042SOL    HW2 4026   4.435   4.830   2.299
 1043SOL     OW 4027   3.944   1.324   6.498
 1043SOL    HW1 4028   4.021   1.261   6.487
 1043SOL    HW2 4029   3.917   1.360   6.408
 1044SOL     OW 4030   3.356   2.409   1.478
 1044SOL    HW1 4031   3.418   2.392   1.401
 1044SOL    HW2 4032   3.306   2.325   1.500
 1045SOL     OW 4033   3.081   0.673   1.339
 1045SOL    HW1 4034   3.005   0.738   1.336
 1045SOL    HW2 4035   3.115   0.664   1.432
 1046SOL     OW 4036   2.555   6.882   6.653
 1046SOL    HW1 4037   2.471   6.831   6.641
 1046SOL    HW2 4038   2.534   6.975   6.684
 1047SOL     OW 4039   1.564   5.277   3.054
 1047SOL    HW1 4040   1.622   5.277   3.136
 1047SOL    HW2 4041   1.512   5.363   3.051
 1048SOL     OW 4042   5.044   5.690   5.407
 1048SOL    HW1 4043   5.038   5.789   5.403
 1048SOL    HW2 4044   5.130   5.663   5.450
 1049SOL     OW 4045   6.891   3.896   5.074
 1049SOL    HW1 4046   6.801   3.882   5.033
 1049SOL    HW2 4047   6.960   3.903   5.002
 1050SOL     OW 4048   3.780   6.464   0.761
 1050SOL    HW1 4049   3.727   6.518   0.696
 1050SOL    HW2 4050   3.730   6.381   0.784
 1051SOL     OW 4051   4.060   4.592   6.973
 1051SOL    HW1 4052   4.015   4.588   6.884
 1051SOL    HW2 4053   4.060   4.501   7.015
 1052SOL     OW 4054   3.795   0.776   4.650
 1052SOL    HW1 4055   3.742   0.693   4.667
 1052SOL    HW2 4056   3.750   0.830   4.578
 1053SOL     OW 4057   5.751   5.875   3.542
 1053SOL    HW1 4058   5.655   5.902   3.534
 1053SOL    HW2 4059   5.809   5.947   3.504
 1054SOL     OW 4060   2.441   5.016   5.784
 1054SOL    HW1 4061   2.538   5.022   5.761
 1054SOL    HW2 4062   2.393   5.096   5.749
 1055SOL     OW 4063   5.889   5.103   4.459
 1055SOL    HW1 4064   5.905   5.036   4.531
 1055SOL    HW2 4065   5.889   5.057   4.370
 1056SOL     OW 4066   1.800   6.254   5.503
 1056SOL    HW1 4067   1.792   6.156   5.519
 1056SOL    HW2 4068   1.714   6.290   5.467
 1057SOL     OW 4069   3.289   3.929   3.529
 1057SOL    HW1 4070   3.374   3.960   3.487
 1057SOL    HW2 4071   3.303   3.838   3.569
 1058SOL     OW 4072   4.079   1.710   1.846
 1058SOL    HW1 4073   4.131   1.697   1.931
 1058SOL    HW2 4074   3.981   1.713   1.867
 1059SOL     OW 4075   3.857   0.423   1.630
 1059SOL    HW1 4076   3.922   0.448   1.558
 1059SOL    HW2 4077   3.782   0.371   1.591
 1060SOL     OW 4078   0.187   3.653   5.895
 1060SOL    HW1 4079   0.127   3.725   5.931
 1060SOL    HW2 4080   0.141   3.604   5.821
 1061SOL     OW 4081   3.511   4.400   0.855
 1061SOL    HW1 4082   3.428   4.418   0.906
 1061SOL    HW2 4083   3.578   4.473   0.871
 1062SOL     OW 4084   6.653   5.928   5.343
 1062SOL    HW1 4085   6.739   5.926   5.292
 1062SOL    HW2 4086   6.606   5.840   5.332
 1063SOL     OW 4087   1.014   3.579   1.105
 1063SOL    HW1 4088   1.021   3.673   1.136
 1063SOL    HW2 4089   0.926   3.565   1.059
 1064SOL     OW 4090   1.620   3.430   2.295
 1064SOL    HW1 4091   1.525   3.463   2.295
 1064SOL    HW2 4092   1.668   3.467   2.216
 1065SOL     OW 4093   5.096   0.177   4.072
 1065SOL    HW1 4094   5.092   0.093   4.018
 1065SOL    HW2 4095   5.079   0.256   4.012
 1066SOL     OW 4096   5.216   0.373   4.268
 1066SOL    HW1 4097   5.295   0.366   4.208
 1066SOL    HW2 4098   5.141   0.319   4.231
 1067SOL     OW 4099   1.716   2.354   1.049
 1067SOL    HW1 4100   1.739   2.267   1.094
 1067SOL    HW2 4101   1.644   2.400   1.101
 1068SOL     OW 4102   0.267   3.992   1.937
 1068SOL    HW1 4103   0.198   4.013   1.867
 1068SOL    HW2 4104   0.281   3.893   1.941
 1069SOL     OW 4105   4.392   4.554   0.968
 1069SOL    HW1 4106   4.425   4.531   0.876
 1069SOL    HW2 4107   4.295   4.534   0.975
 1070SOL     OW 4108   2.060   0.878   0.008
 1070SOL    HW1 4109   2.064   0.803   6.960
 1070SOL    HW2 4110   2.003   0.952   6.990
 1071SOL     OW 4111   3.987   0.008   3.309
 1071SOL    HW1 4112   3.916   7.005   3.377
 1071SOL    HW2 4113   3.944   0.028   3.221
 1072SOL     OW 4114   2.574   6.003   2.011
 1072SOL    HW1 4115   2.645   5.938   2.039
 1072SOL    HW2 4116   2.484   5.962   2.025
 1073SOL     OW 4117   3.731   5.122   2.310
 1073SOL    HW1 4118   3.703   5.195   2.248
 1073SOL    HW2 4119   3.685   5.037   2.285
 1074SOL     OW 4120   1.549   5.329   2.143
 1074SOL    HW1 4121   1.614   5.404   2.155
 1074SOL    HW2 4122   1.593   5.242   2.164
 1075SOL     OW 4123   4.922   4.995   3.169
 1075SOL    HW1 4124   4.833   4.988   3.214
 1075SOL    HW2 4125   4.912   4.970   3.073
 1076SOL     OW 4126   1.230   4.334   4.972
 1076SOL    HW1 4127   1.287   4.401   5.020
 1076SOL    HW2 4128   1.259   4.327   4.877
 1077SOL     OW 4129   5.769   6.617   0.561
 1077SOL    HW1 4130   5.782   6.545   0.493
 1077SOL    HW2 4131   5.791   6.706   0.520
 1078SOL     OW 4132   1.714   1.600   2.249
 1078SOL    HW1 4133   1.693   1.698   2.247
 1078SOL    HW2 4134   1.648   1.551   2.193
 1079SOL     OW 4135   2.476   5.534   3.270
 1079SOL    HW1 4136   2.562   5.583   3.285
 1079SOL    HW2 4137   2.426   5.527   3.356
 1080SOL     OW 4138   3.024   5.450   3.388
 1080SOL    HW1 4139   2.995   5.370   3.441
 1080SOL    HW2 4140   3.099   5.424   3.327
 1081SOL     OW 4141   1.138   1.360   5.977
 1081SOL    HW1 4142   1.098   1.335   5.889
 1081SOL    HW2 4143   1.230   1.396   5.963
 1082SOL     OW 4144   1.270   6.868   5.423
 1082SOL    HW1 4145   1.206   6.922   5.369
 1082SOL    HW2 4146   1.354   6.852   5.370
 1083SOL     OW 4147   3.754   3.284   2.279
 1083SOL    HW1 4148   3.681   3.264   2.343
 1083SOL    HW2 4149   3.726   3.359   2.218
 1084SOL     OW 4150   6.431   5.564   1.146
 1084SOL    HW1 4151   6.472   5.619   1.073
 1084SOL    HW2 4152   6.428   5.468   1.117
 1085SOL     OW 4153   2.295   4.572   3.918
 1085SOL    HW1 4154   2.282   4.544   4.013
 1085SOL    HW2 4155   2.362   4.512   3.874
 1086SOL     OW 4156   6.198   5.436   3.572
 1086SOL    HW1 4157   6.128   5.485   3.520
 1086SOL    HW2 4158   6.233   5.360   3.518
 1087SOL     OW 4159   5.018   3.130   4.831
 1087SOL    HW1 4160   5.108   3.095   4.856
 1087SOL    HW2 4161   4.961   3.137   4.913
 1088SOL     OW 4162   4.885   4.511   3.330
 1088SOL    HW1 4163   4.821   4.449   3.283
 1088SOL    HW2 4164   4.955   4.541   3.266
 1089SOL     OW 4165   6.959   0.043   4.367
 1089SOL    HW1 4166   0.030   0.048   4.322
 1089SOL    HW2 4167   6.893   0.099   4.317
 1090SOL     OW 4168   2.696   1.166   4.828
 1090SOL    HW1 4169   2.733   1.253   4.861
 1090SOL    HW2 4170   2.768   1.096   4.832
 1091SOL     OW 4171   1.511   1.992   4.091
 1091SOL    HW1 4172   1.598   1.997   4.140
 1091SOL    HW2 4173   1.523   1.942   4.006
 1092SOL     OW 4174   2.232   3.713   1.146
 1092SOL    HW1 4175   2.283   3.630   1.169
 1092SOL    HW2 4176   2.140   3.688   1.116
 1093SOL     OW 4177   1.692   2.270   2.537
 1093SOL    HW1 4178   1.714   2.341   2.470
 1093SOL    HW2 4179   1.769   2.207   2.546
 1094SOL     OW 4180   0.365   6.709   1.594
 1094SOL    HW1 4181   0.437   6.711   1.664
 1094SOL    HW2 4182   0.292   6.647   1.623
 1095SOL     OW 4183   6.088   2.390   6.697
 1095SOL    HW1 4184   6.069   2.371   6.794
 1095SOL    HW2 4185   6.061   2.311   6.642
 1096SOL     OW 4186   3.790   5.432   1.079
 1096SOL    HW1 4187   3.761   5.336   1.085
 1096SOL    HW2 4188   3.758   5.471   0.993
 1097SOL     OW 4189   1.815   5.399   4.932
 1097SOL    HW1 4190   1.881   5.454   4.983
 1097SOL    HW2 4191   1.809   5.432   4.838
 1098SOL     OW 4192   5.099   2.438   0.852
 1098SOL    HW1 4193   5.023   2.502   0.851
 1098SOL    HW2 4194   5.161   2.460   0.927
 1099SOL     OW 4195   4.041   2.172   4.445
 1099SOL    HW1 4196   4.111   2.172   4.374
 1099SOL    HW2 4197   4.057   2.249   4.507
 1100SOL     OW 4198   0.588   1.288   6.354
 1100SOL    HW1 4199   0.496   1.321   6.371
 1100SOL    HW2 4200   0.584   1.209   6.291
 1101SOL     OW 4201   5.608   3.412   1.397
 1101SOL    HW1 4202   5.658   3.478   1.341
 1101SOL    HW2 4203   5.598   3.449   1.490
 1102SOL     OW 4204   0.990   4.768   4.079
 1102SOL    HW1 4205   1.035   4.834   4.020
 1102SOL    HW2 4206   1.028   4.677   4.063
 1103SOL     OW 4207   1.935   1.582   2.091
 1103SOL    HW1 4208   1.973   1.491   2.102
 1103SOL    HW2 4209   1.848   1.588   2.141
 1104SOL     OW 4210   2.168   4.469   6.176
 1104SOL    HW1 4211   2.099   4.427   6.117
 1104SOL    HW2 4212   2.141   4.563   6.198
 1105SOL     OW 4213   4.873   4.087   6.755
 1105SOL    HW1 4214   4.779   4.113   6.777
 1105SOL    HW2 4215   4.901   4.131   6.670
 1106SOL     OW 4216   0.699   2.223   6.468
 1106SOL    HW1 4217   0.612   2.194   6.509
 1106SOL    HW2 4218   0.696   2.206   6.370
 1107SOL     OW 4219   0.940   0.432   6.728
 1107SOL    HW1 4220   1.022   0.464   6.776
 1107SOL    HW2 4221   0.953   0.441   6.629
 1108SOL     OW 4222   2.327   0.815   5.322
 1108SOL    HW1 4223   2.324   0.797   5.420
 1108SOL    HW2 4224   2.397   0.758   5.279
 1109SOL     OW 4225   4.010   5.865   4.472
 1109SOL    HW1 4226   3.942   5.791   4.468
 1109SOL    HW2 4227   3.985   5.928   4.546
 1110SOL     OW 4228   2.515   2.494   1.408
 1110SOL    HW1 4229   2.557   2.584   1.421
 1110SOL    HW2 4230   2.581   2.423   1.429
 1111SOL     OW 4231   5.227   6.995   6.726
 1111SOL    HW1 4232   5.204   0.048   6.791
 1111SOL    HW2 4233   5.231   0.015   6.634
 1112SOL     OW 4234   6.059   0.862   2.742
 1112SOL    HW1 4235   6.149   0.870   2.700
 1112SOL    HW2 4236   6.045   0.936   2.807
 1113SOL     OW 4237   6.363   3.261   2.592
 1113SOL    HW1 4238   6.418   3.272   2.510
 1113SOL    HW2 4239   6.270   3.295   2.574
 1114SOL     OW 4240   5.302   0.752   6.541
 1114SOL    HW1 4241   5.376   0.717   6.598
 1114SOL    HW2 4242   5.339   0.813   6.471
 1115SOL     OW 4243   3.944   2.549   0.517
 1115SOL    HW1 4244   4.018   2.591   0.569
 1115SOL    HW2 4245   3.966   2.551   0.420
 1116SOL     OW 4246   5.242   6.029   3.888
 1116SOL    HW1 4247   5.212   5.981   3.970
 1116SOL    HW2 4248   5.342   6.024   3.881
 1117SOL     OW 4249   2.519   2.556   1.678
 1117SOL    HW1 4250   2.600   2.612   1.661
 1117SOL    HW2 4251   2.479   2.526   1.592
 1118SOL     OW 4252   1.867   5.072   3.194
 1118SOL    HW1 4253   1.782   5.061   3.142
 1118SOL    HW2 4254   1.936   5.011   3.155
 1119SOL     OW 4255   4.293   4.078   1.633
 1119SOL    HW1 4256   4.334   4.134   1.705
 1119SOL    HW2 4257   4.261   4.138   1.559
 1120SOL     OW 4258   5.356   6.883   5.862
 1120SOL    HW1 4259   5.316   6.971   5.837
 1120SOL    HW2 4260   5.284   6.813   5.865
 1121SOL     OW 4261   5.139   2.720   2.040
 1121SOL    HW1 4262   5.074   2.688   2.109
 1121SOL    HW2 4263   5.089   2.762   1.965
 1122SOL     OW 4264   5.959   2.821   6.656
 1122SOL    HW1 4265   5.927   2.870   6.737
 1122SOL    HW2 4266   6.057   2.839   6.642
 1123SOL     OW 4267   4.665   1.452   1.978
 1123SOL    HW1 4268   4.660   1.472   1.880
 1123SOL    HW2 4269   4.572   1.448   2.015
 1124SOL     OW 4270   6.570   3.860   4.979
 1124SOL    HW1 4271   6.525   3.942   4.944
 1124SOL    HW2 4272   6.532   3.780   4.933
 1125SOL     OW 4273   2.841   2.561   5.332
 1125SOL    HW1 4274   2.886   2.649   5.350
 1125SOL    HW2 4275   2.744   2.576   5.314
 1126SOL     OW 4276   4.455   6.951   0.315
 1126SOL    HW1 4277   4.526   6.911   0.372
 1126SOL    HW2 4278   4.462   6.914   0.222
 1127SOL     OW 4279   2.293   4.213   6.706
 1127SOL    HW1 4280   2.314   4.289   6.767
 1127SOL    HW2 4281   2.298   4.243   6.611
 1128SOL     OW 4282   4.305   2.280   3.980
 1128SOL    HW1 4283   4.376   2.213   3.956
 1128SOL    HW2 4284   4.334   2.371   3.950
 1129SOL     OW 4285   4.297   0.287   0.641
 1129SOL    HW1 4286   4.212   0.241   0.617
 1129SOL    HW2 4287   4.337   0.327   0.558
 1130SOL     OW 4288   1.361   3.846   1.448
 1130SOL    HW1 4289   1.434   3.895   1.401
 1130SOL    HW2 4290   1.376   3.848   1.547
 1131SOL     OW 4291   0.397   6.079   5.908
 1131SOL    HW1 4292   0.298   6.087   5.910
 1131SOL    HW2 4293   0.435   6.144   5.842
 1132SOL     OW 4294   5.111   6.875   5.646
 1132SOL    HW1 4295   5.192   6.819   5.625
 1132SOL    HW2 4296   5.091   6.867   5.744
 1133SOL     OW 4297   0.630   2.560   1.213
 1133SOL    HW1 4298   0.533   2.558   1.188
 1133SOL    HW2 4299   0.680   2.494   1.158
 1134SOL     OW 4300   5.630   2.604   6.772
 1134SOL    HW1 4301   5.667   2.696   6.782
 1134SOL    HW2 4302   5.536   2.610   6.737
 1135SOL     OW 4303   3.169   2.188   3.404
 1135SOL    HW1 4304   3.083   2.173   3.452
 1135SOL    HW2 4305   3.150   2.207   3.307
 1136SOL     OW 4306   2.250   5.752   3.671
 1136SOL    HW1 4307   2.329   5.807   3.698
 1136SOL    HW2 4308   2.178   5.811   3.637
 1137SOL     OW 4309   0.916   1.972   6.961
 1137SOL    HW1 4310   0.900   1.932   0.033
 1137SOL    HW2 4311   1.004   1.941   6.926
 1138SOL     OW 4312   2.349   3.608   6.347
 1138SOL    HW1 4313   2.362   3.558   6.433
 1138SOL    HW2 4314   2.379   3.552   6.270
 1139SOL     OW 4315   1.292   5.968   3.319
 1139SOL    HW1 4316   1.207   5.968   3.372
 1139SOL    HW2 4317   1.369   5.949   3.380
 1140SOL     OW 4318   3.450   1.878   3.202
 1140SOL    HW1 4319   3.475   1.953   3.142
 1140SOL    HW2 4320   3.351   1.867   3.203
 1141SOL     OW 4321   5.228   5.853   5.981
 1141SOL    HW1 4322   5.319   5.835   6.016
 1141SOL    HW2 4323   5.160   5.842   6.054
 1142SOL     OW 4324   4.873   0.370   4.316
 1142SOL    HW1 4325   4.802   0.408   4.375
 1142SOL    HW2 4326   4.945   0.330   4.373
 1143SOL     OW 4327   4.230   2.262   2.612
 1143SOL    HW1 4328   4.294   2.185   2.604
 1143SOL    HW2 4329   4.179   2.253   2.698
 1144SOL     OW 4330   0.074   4.434   4.138
 1144SOL    HW1 4331   0.095   4.529   4.162
 1144SOL    HW2 4332   0.153   4.376   4.157
 1145SOL     OW 4333   0.003   5.811   3.817
 1145SOL    HW1 4334   0.002   5.895   3.870
 1145SOL    HW2 4335   6.928   5.776   3.810
 1146SOL     OW 4336   5.835   1.969   0.775
 1146SOL    HW1 4337   5.913   2.031   0.787
 1146SOL    HW2 4338   5.752   2.012   0.813
 1147SOL     OW 4339   0.950   3.744   1.611
 1147SOL    HW1 4340   0.867   3.800   1.610
 1147SOL    HW2 4341   0.943   3.675   1.683
 1148SOL     OW 4342   3.402   5.967   6.158
 1148SOL    HW1 4343   3.372   5.932   6.069
 1148SOL    HW2 4344   3.500   5.986   6.155
 1149SOL     OW 4345   6.497   3.419   3.058
 1149SOL    HW1 4346   6.522   3.443   2.965
 1149SOL    HW2 4347   6.473   3.322   3.062
 1150SOL     OW 4348   2.517   4.804   1.192
 1150SOL    HW1 4349   2.471   4.715   1.199
 1150SOL    HW2 4350   2.498   4.857   1.275
 1151SOL     OW 4351   5.947   5.887   6.400
 1151SOL    HW1 4352   5.896   5.924   6.322
 1151SOL    HW2 4353   5.895   5.814   6.443
 1152SOL     OW 4354   1.165   0.213   4.896
 1152SOL    HW1 4355   1.133   0.297   4.853
 1152SOL    HW2 4356   1.240   0.175   4.841
 1153SOL     OW 4357   2.522   6.279   2.963
 1153SOL    HW1 4358   2.481   6.286   2.872
 1153SOL    HW2 4359   2.453   6.300   3.033
 1154SOL     OW 4360   0.768   3.868   2.193
 1154SOL    HW1 4361   0.678   3.892   2.231
 1154SOL    HW2 4362   0.774   3.768   2.186
 1155SOL     OW 4363   3.364   6.100   0.494
 1155SOL    HW1 4364   3.337   6.007   0.519
 1155SOL    HW2 4365   3.401   6.101   0.402
 1156SOL     OW 4366   2.377   0.451   3.878
 1156SOL    HW1 4367   2.301   0.470   3.816
 1156SOL    HW2 4368   2.391   0.352   3.883
 1157SOL     OW 4369   6.921   2.264   4.820
 1157SOL    HW1 4370   6.871   2.243   4.736
 1157SOL    HW2 4371   6.996   2.199   4.831
 1158SOL     OW 4372   5.472   4.357   5.574
 1158SOL    HW1 4373   5.566   4.385   5.555
 1158SOL    HW2 4374   5.454   4.271   5.525
 1159SOL     OW 4375   3.499   6.454   2.654
 1159SOL    HW1 4376   3.435   6.464   2.578
 1159SOL    HW2 4377   3.494   6.361   2.690
 1160SOL     OW 4378   3.720   3.738   2.122
 1160SOL    HW1 4379   3.795   3.785   2.075
 1160SOL    HW2 4380   3.756   3.681   2.195
 1161SOL     OW 4381   5.645   0.336   4.631
 1161SOL    HW1 4382   5.738   0.364   4.608
 1161SOL    HW2 4383   5.624   0.248   4.588
 1162SOL     OW 4384   3.174   3.237   1.263
 1162SOL    HW1 4385   3.119   3.154   1.273
 1162SOL    HW2 4386   3.211   3.241   1.170
 1163SOL     OW 4387   4.923   2.413   1.971
 1163SOL    HW1 4388   4.925   2.457   2.061
 1163SOL    HW2 4389   4.912   2.483   1.901
 1164SOL     OW 4390   5.439   3.021   3.040
 1164SOL    HW1 4391   5.427   2.931   3.000
 1164SOL    HW2 4392   5.384   3.028   3.123
 1165SOL     OW 4393   1.326   3.460   3.535
 1165SOL    HW1 4394   1.317   3.394   3.610
 1165SOL    HW2 4395   1.268   3.431   3.459
 1166SOL     OW 4396   4.391   2.045   6.398
 1166SOL    HW1 4397   4.381   1.946   6.388
 1166SOL    HW2 4398   4.458   2.079   6.332
 1167SOL     OW 4399   3.572   0.795   5.311
 1167SOL    HW1 4400   3.656   0.741   5.303
 1167SOL    HW2 4401   3.495   0.743   5.273
 1168SOL     OW 4402   6.391   6.758   3.098
 1168SOL    HW1 4403   6.409   6.737   3.194
 1168SOL    HW2 4404   6.355   6.677   3.052
 1169SOL     OW 4405   0.367   3.421   0.822
 1169SOL    HW1 4406   0.398   3.516   0.811
 1169SOL    HW2 4407   0.287   3.420   0.883
 1170SOL     OW 4408   3.645   1.161   2.904
 1170SOL    HW1 4409   3.574   1.228   2.885
 1170SOL    HW2 4410   3.673   1.115   2.820
 1171SOL     OW 4411   3.097   6.261   0.944
 1171SOL    HW1 4412   3.181   6.314   0.954
 1171SOL    HW2 4413   3.018   6.320   0.962
 1172SOL     OW 4414   3.990   3.811   4.222
 1172SOL    HW1 4415   3.942   3.891   4.184
 1172SOL    HW2 4416   4.029   3.757   4.147
 1173SOL     OW 4417   3.378   0.364   5.569
 1173SOL    HW1 4418   3.433   0.281   5.578
 1173SOL    HW2 4419   3.400   0.409   5.482
 1174SOL     OW 4420   2.636   5.746   0.724
 1174SOL    HW1 4421   2.667   5.654   0.747
 1174SOL    HW2 4422   2.712   5.799   0.688
 1175SOL     OW 4423   5.996   4.360   6.784
 1175SOL    HW1 4424   6.074   4.397   6.734
 1175SOL    HW2 4425   5.947   4.296   6.726
 1176SOL     OW 4426   5.477   5.118   1.230
 1176SOL    HW1 4427   5.477   5.201   1.174
 1176SOL    HW2 4428   5.564   5.111   1.279
 1177SOL     OW 4429   6.933   2.458   5.396
 1177SOL    HW1 4430   6.924   2.552   5.430
 1177SOL    HW2 4431   6.845   2.412   5.402
 1178SOL     OW 4432   4.918   3.943   2.370
 1178SOL    HW1 4433   4.871   3.991   2.297
 1178SOL    HW2 4434   4.967   3.864   2.333
 1179SOL     OW 4435   1.870   3.706   1.110
 1179SOL    HW1 4436   1.874   3.619   1.159
 1179SOL    HW2 4437   1.911   3.695   1.019
 1180SOL     OW 4438   2.223   1.156   3.340
 1180SOL    HW1 4439   2.269   1.068   3.333
 1180SOL    HW2 4440   2.242   1.210   3.258
 1181SOL     OW 4441   0.759   5.059   4.571
 1181SOL    HW1 4442   0.845   5.050   4.621
 1181SOL    HW2 4443   0.687   5.009   4.618
 1182SOL     OW 4444   2.377   4.330   3.544
 1182SOL    HW1 4445   2.324   4.245   3.544
 1182SOL    HW2 4446   2.314   4.408   3.551
 1183SOL     OW 4447   4.617   5.435   1.399
 1183SOL    HW1 4448   4.547   5.492   1.441
 1183SOL    HW2 4449   4.708   5.470   1.423
 1184SOL     OW 4450   3.701   3.129   5.432
 1184SOL    HW1 4451   3.743   3.206   5.481
 1184SOL    HW2 4452   3.631   3.164   5.370
 1185SOL     OW 4453   2.346   0.401   0.375
 1185SOL    HW1 4454   2.250   0.380   0.389
 1185SOL    HW2 4455   2.367   0.490   0.415
 1186SOL     OW 4456   6.044   0.111   5.177
 1186SOL    HW1 4457   5.946   0.128   5.187
 1186SOL    HW2 4458   6.096   0.190   5.209
 1187SOL     OW 4459   5.868   6.141   4.813
 1187SOL    HW1 4460   5.916   6.227   4.798
 1187SOL    HW2 4461   5.874   6.116   4.910
 1188SOL     OW 4462   2.239   6.776   6.055
 1188SOL    HW1 4463   2.269   6.868   6.034
 1188SOL    HW2 4464   2.285   6.710   5.995
 1189SOL     OW 4465   5.492   1.448   1.745
 1189SOL    HW1 4466   5.541   1.389   1.681
 1189SOL    HW2 4467   5.397   1.458   1.716
 1190SOL     OW 4468   3.956   5.157   3.467
 1190SOL    HW1 4469   3.915   5.168   3.376
 1190SOL    HW2 4470   3.928   5.233   3.525
 1191SOL     OW 4471   3.342   5.084   6.271
 1191SOL    HW1 4472   3.255   5.038   6.258
 1191SOL    HW2 4473   3.369   5.078   6.367
 1192SOL     OW 4474   6.095   4.784   3.202
 1192SOL    HW1 4475   6.195   4.776   3.199
 1192SOL    HW2 4476   6.059   4.717   3.267
 1193SOL     OW 4477   5.348   0.099   4.592
 1193SOL    HW1 4478   5.444   0.104   4.567
 1193SOL    HW2 4479   5.297   0.052   4.521
 1194SOL     OW 4480   6.460   0.397   0.848
 1194SOL    HW1 4481   6.453   0.409   0.947
 1194SOL    HW2 4482   6.552   0.367   0.824
 1195SOL     OW 4483   6.408   1.167   6.303
 1195SOL    HW1 4484   6.344   1.199   6.232
 1195SOL    HW2 4485   6.357   1.122   6.376
 1196SOL     OW 4486   0.404   4.920   2.212
 1196SOL    HW1 4487   0.452   4.862   2.277
 1196SOL    HW2 4488   0.466   4.991   2.178
 1197SOL     OW 4489   3.858   5.993   5.573
 1197SOL    HW1 4490   3.876   5.955   5.664
 1197SOL    HW2 4491   3.906   5.940   5.504
 1198SOL     OW 4492   3.457   2.065   2.880
 1198SOL    HW1 4493   3.515   2.053   2.800
 1198SOL    HW2 4494   3.413   1.979   2.904
 1199SOL     OW 4495   3.018   3.849   2.113
 1199SOL    HW1 4496   3.061   3.939   2.105
 1199SOL    HW2 4497   3.013   3.805   2.024
 1200SOL     OW 4498   4.590   4.069   5.358
 1200SOL    HW1 4499   4.578   4.051   5.455
 1200SOL    HW2 4500   4.512   4.122   5.324
 1201SOL     OW 4501   1.468   1.483   5.221
 1201SOL    HW1 4502   1.459   1.394   5.266
 1201SOL    HW2 4503   1.422   1.480   5.132
 1202SOL     OW 4504   5.581   0.278   5.670
 1202SOL    HW1 4505   5.577   0.235   5.760
 1202SOL    HW2 4506   5.490   0.312   5.645
 1203SOL     OW 4507   5.312   0.185   1.162
 1203SOL    HW1 4508   5.247   0.250   1.122
 1203SOL    HW2 4509   5.402   0.199   1.121
 1204SOL     OW 4510   3.569   1.461   0.523
 1204SOL    HW1 4511   3.662   1.433   0.498
 1204SOL    HW2 4512   3.505   1.429   0.453
 1205SOL     OW 4513   5.458   2.666   6.178
 1205SOL    HW1 4514   5.392   2.615   6.233
 1205SOL    HW2 4515   5.467   2.759   6.215
 1206SOL     OW 4516   1.958   1.486   4.746
 1206SOL    HW1 4517   1.885   1.532   4.695
 1206SOL    HW2 4518   1.931   1.392   4.765
 1207SOL     OW 4519   6.144   6.774   0.381
 1207SOL    HW1 4520   6.060   6.800   0.429
 1207SOL    HW2 4521   6.132   6.789   0.283
 1208SOL     OW 4522   3.659   3.753   3.097
 1208SOL    HW1 4523   3.728   3.683   3.080
 1208SOL    HW2 4524   3.597   3.758   3.019
 1209SOL     OW 4525   5.931   6.121   5.500
 1209SOL    HW1 4526   6.011   6.158   5.452
 1209SOL    HW2 4527   5.940   6.022   5.507
 1210SOL     OW 4528   3.735   0.241   2.753
 1210SOL    HW1 4529   3.815   0.246   2.693
 1210SOL    HW2 4530   3.724   0.147   2.785
 1211SOL     OW 4531   1.106   3.343   4.341
 1211SOL    HW1 4532   1.066   3.253   4.323
 1211SOL    HW2 4533   1.061   3.412   4.285
 1212SOL     OW 4534   1.542   3.611   5.779
 1212SOL    HW1 4535   1.599   3.671   5.836
 1212SOL    HW2 4536   1.594   3.581   5.699
 1213SOL     OW 4537   6.564   2.801   5.193
 1213SOL    HW1 4538   6.541   2.777   5.287
 1213SOL    HW2 4539   6.643   2.748   5.163
 1214SOL     OW 4540   1.827   3.646   4.694
 1214SOL    HW1 4541   1.800   3.607   4.606
 1214SOL    HW2 4542   1.916   3.691   4.684
 1215SOL     OW 4543   2.388   4.598   2.550
 1215SOL    HW1 4544   2.333   4.517   2.534
 1215SOL    HW2 4545   2.466   4.599   2.487
 1216SOL     OW 4546   1.572   6.730   1.482
 1216SOL    HW1 4547   1.555   6.817   1.528
 1216SOL    HW2 4548   1.489   6.674   1.485
 1217SOL     OW 4549   1.495   6.455   0.076
 1217SOL    HW1 4550   1.594   6.437   0.078
 1217SOL    HW2 4551   1.478   6.553   0.083
 1218SOL     OW 4552   1.175   3.465   5.192
 1218SOL    HW1 4553   1.168   3.544   5.131
 1218SOL    HW2 4554   1.140   3.383   5.146
 1219SOL     OW 4555   4.420   5.345   0.152
 1219SOL    HW1 4556   4.344   5.409   0.151
 1219SOL    HW2 4557   4.494   5.382   0.208
 1220SOL     OW 4558   5.720   3.167   2.543
 1220SOL    HW1 4559   5.649   3.140   2.608
 1220SOL    HW2 4560   5.709   3.265   2.521
 1221SOL     OW 4561   5.954   4.021   0.283
 1221SOL    HW1 4562   5.875   3.993   0.338
 1221SOL    HW2 4563   5.927   4.033   0.188
 1222SOL     OW 4564   6.794   6.610   0.787
 1222SOL    HW1 4565   6.703   6.594   0.748
 1222SOL    HW2 4566   6.795   6.701   0.830
 1223SOL     OW 4567   6.239   6.735   6.561
 1223SOL    HW1 4568   6.252   6.732   6.462
 1223SOL    HW2 4569   6.270   6.824   6.596
 1224SOL     OW 4570   4.051   6.169   0.115
 1224SOL    HW1 4571   4.093   6.080   0.098
 1224SOL    HW2 4572   4.122   6.239   0.115
 1225SOL     OW 4573   4.205   1.842   0.718
 1225SOL    HW1 4574   4.146   1.905   0.769
 1225SOL    HW2 4575   4.264   1.895   0.656
 1226SOL     OW 4576   5.675   6.332   1.173
 1226SOL    HW1 4577   5.651   6.423   1.139
 1226SOL    HW2 4578   5.753   6.296   1.121
 1227SOL     OW 4579   5.884   4.343   5.631
 1227SOL    HW1 4580   5.872   4.244   5.631
 1227SOL    HW2 4581   5.981   4.365   5.624
 1228SOL     OW 4582   3.910   2.965   1.989
 1228SOL    HW1 4583   3.990   2.915   1.957
 1228SOL    HW2 4584   3.933   3.017   2.072
 1229SOL     OW 4585   2.025   5.937   2.068
 1229SOL    HW1 4586   1.952   5.905   2.127
 1229SOL    HW2 4587   1.996   6.021   2.021
 1230SOL     OW 4588   5.525   5.106   2.575
 1230SOL    HW1 4589   5.574   5.134   2.492
 1230SOL    HW2 4590   5.435   5.150   2.577
 1231SOL     OW 4591   1.611   2.740   6.297
 1231SOL    HW1 4592   1.536   2.728   6.362
 1231SOL    HW2 4593   1.668   2.817   6.325
 1232SOL     OW 4594   3.786   0.903   4.894
 1232SOL    HW1 4595   3.700   0.934   4.934
 1232SOL    HW2 4596   3.769   0.865   4.803
 1233SOL     OW 4597   1.085   4.380   3.585
 1233SOL    HW1 4598   1.075   4.284   3.558
 1233SOL    HW2 4599   1.074   4.438   3.504
 1234SOL     OW 4600   6.754   3.339   6.733
 1234SOL    HW1 4601   6.794   3.265   6.788
 1234SOL    HW2 4602   6.716   3.409   6.793
 1235SOL     OW 4603   6.086   4.909   0.080
 1235SOL    HW1 4604   6.006   4.894   0.022
 1235SOL    HW2 4605   6.124   4.999   0.061
 1236SOL     OW 4606   3.219   1.148   0.206
 1236SOL    HW1 4607   3.183   1.170   0.296
 1236SOL    HW2 4608   3.145   1.152   0.138
 1237SOL     OW 4609   1.376   0.700   4.752
 1237SOL    HW1 4610   1.345   0.722   4.660
 1237SOL    HW2 4611   1.427   0.777   4.790
 1238SOL     OW 4612   0.447   0.316   3.156
 1238SOL    HW1 4613   0.468   0.329   3.253
 1238SOL    HW2 4614   0.509   0.247   3.118
 1239SOL     OW 4615   6.619   5.241   4.537
 1239SOL    HW1 4616   6.578   5.292   4.612
 1239SOL    HW2 4617   6.670   5.163   4.573
 1240SOL     OW 4618   6.047   5.496   3.212
 1240SOL    HW1 4619   6.037   5.574   3.274
 1240SOL    HW2 4620   5.966   5.438   3.218
 1241SOL     OW 4621   6.492   5.404   4.729
 1241SOL    HW1 4622   6.453   5.434   4.642
 1241SOL    HW2 4623   6.564   5.468   4.757
 1242SOL     OW 4624   1.395   3.225   0.017
 1242SOL    HW1 4625   1.393   3.234   0.117
 1242SOL    HW2 4626   1.466   3.160   7.009
 1243SOL     OW 4627   0.745   3.797   5.614
 1243SOL    HW1 4628   0.706   3.888   5.599
 1243SOL    HW2 4629   0.837   3.794   5.577
 1244SOL     OW 4630   5.814   6.373   5.143
 1244SOL    HW1 4631   5.899   6.333   5.111
 1244SOL    HW2 4632   5.783   6.442   5.078
 1245SOL     OW 4633   5.366   5.792   0.938
 1245SOL    HW1 4634   5.343   5.787   0.841
 1245SOL    HW2 4635   5.379   5.888   0.964
 1246SOL     OW 4636   4.917   1.250   0.698
 1246SOL    HW1 4637   4.820   1.269   0.711
 1246SOL    HW2 4638   4.962   1.243   0.787
 1247SOL     OW 4639   6.612   6.929   3.879
 1247SOL    HW1 4640   6.640   6.841   3.917
 1247SOL    HW2 4641   6.660   6.945   3.793
 1248SOL     OW 4642   0.063   0.082   4.636
 1248SOL    HW1 4643   0.019   0.079   4.546
 1248SOL    HW2 4644   0.128   0.158   4.639
 1249SOL     OW 4645   0.421   4.700   1.354
 1249SOL    HW1 4646   0.367   4.622   1.324
 1249SOL    HW2 4647   0.514   4.670   1.375
 1250SOL     OW 4648   5.660   4.051   5.220
 1250SOL    HW1 4649   5.732   4.098   5.269
 1250SOL    HW2 4650   5.687   4.038   5.124
 1251SOL     OW 4651   2.102   0.949   2.991
 1251SOL    HW1 4652   2.028   0.925   2.928
 1251SOL    HW2 4653   2.103   1.048   3.005
 1252SOL     OW 4654   2.962   5.299   0.078
 1252SOL    HW1 4655   2.899   5.377   0.074
 1252SOL    HW2 4656   2.967   5.257   7.006
 1253SOL     OW 4657   3.152   0.699   0.602
 1253SOL    HW1 4658   3.212   0.751   0.542
 1253SOL    HW2 4659   3.126   0.613   0.557
 1254SOL     OW 4660   6.353   1.876   2.520
 1254SOL    HW1 4661   6.357   1.947   2.590
 1254SOL    HW2 4662   6.438   1.878   2.466
 1255SOL     OW 4663   5.764   2.508   5.020
 1255SOL    HW1 4664   5.699   2.577   4.988
 1255SOL    HW2 4665   5.724   2.417   5.010
 1256SOL     OW 4666   0.236   5.897   4.047
 1256SOL    HW1 4667   0.167   5.966   4.028
 1256SOL    HW2 4668   0.302   5.894   3.972
 1257SOL     OW 4669   0.722   4.348   3.517
 1257SOL    HW1 4670   0.657   4.424   3.506
 1257SOL    HW2 4671   0.751   4.344   3.613
 1258SOL     OW 4672   2.346   6.200   3.649
 1258SOL    HW1 4673   2.437   6.241   3.651
 1258SOL    HW2 4674   2.342   6.125   3.715
 1259SOL     OW 4675   4.611   0.340   4.971
 1259SOL    HW1 4676   4.705   0.316   4.995
 1259SOL    HW2 4677   4.574   0.403   5.038
 1260SOL     OW 4678   2.083   0.677   2.133
 1260SOL    HW1 4679   2.169   0.662   2.180
 1260SOL    HW2 4680   2.018   0.605   2.158
 1261SOL     OW 4681   0.361   3.701   6.742
 1261SOL    HW1 4682   0.285   3.671   6.800
 1261SOL    HW2 4683   0.328   3.770   6.677
 1262SOL     OW 4684   4.631   5.254   0.997
 1262SOL    HW1 4685   4.608   5.179   1.059
 1262SOL    HW2 4686   4.717   5.234   0.950
 1263SOL     OW 4687   6.622   2.125   0.840
 1263SOL    HW1 4688   6.610   2.066   0.919
 1263SOL    HW2 4689   6.642   2.070   0.759
 1264SOL     OW 4690   0.832   4.249   3.284
 1264SOL    HW1 4691   0.847   4.151   3.276
 1264SOL    HW2 4692   0.793   4.270   3.374
 1265SOL     OW 4693   0.107   3.514   4.215
 1265SOL    HW1 4694   0.129   3.441   4.149
 1265SOL    HW2 4695   0.168   3.592   4.200
 1266SOL     OW 4696   2.973   1.240   5.486
 1266SOL    HW1 4697   3.035   1.163   5.471
 1266SOL    HW2 4698   3.022   1.313   5.535
 1267SOL     OW 4699   0.010   5.327   2.829
 1267SOL    HW1 4700   0.055   5.284   2.751
 1267SOL    HW2 4701   6.937   5.289   2.839
 1268SOL     OW 4702   5.663   2.352   6.717
 1268SOL    HW1 4703   5.647   2.448   6.740
 1268SOL    HW2 4704   5.592   2.320   6.655
 1269SOL     OW 4705   6.662   6.760   4.786
 1269SOL    HW1 4706   6.671   6.855   4.815
 1269SOL    HW2 4707   6.584   6.752   4.723
 1270SOL     OW 4708   1.933   4.014   4.462
 1270SOL    HW1 4709   1.874   3.947   4.416
 1270SOL    HW2 4710   1.989   3.968   4.530
 1271SOL     OW 4711   3.302   1.809   2.890
 1271SOL    HW1 4712   3.243   1.824   2.969
 1271SOL    HW2 4713   3.251   1.831   2.806
 1272SOL     OW 4714   0.655   5.581   0.572
 1272SOL    HW1 4715   0.687   5.527   0.650
 1272SOL    HW2 4716   0.635   5.674   0.601
 1273SOL     OW 4717   2.666   4.559   0.835
 1273SOL    HW1 4718   2.590   4.543   0.899
 1273SOL    HW2 4719   2.752   4.534   0.879
 1274SOL     OW 4720   0.125   2.892   1.743
 1274SOL    HW1 4721   0.097   2.971   1.689
 1274SOL    HW2 4722   0.123   2.914   1.840
 1275SOL     OW 4723   4.600   0.603   3.947
 1275SOL    HW1 4724   4.564   0.512   3.969
 1275SOL    HW2 4725   4.695   0.595   3.918
 1276SOL     OW 4726   0.001   0.640   2.981
 1276SOL    HW1 4727   6.979   0.553   2.952
 1276SOL    HW2 4728   7.000   0.656   3.078
 1277SOL     OW 4729   0.356   0.890   4.817
 1277SOL    HW1 4730   0.265   0.909   4.781
 1277SOL    HW2 4731   0.422   0.888   4.742
 1278SOL     OW 4732   1.745   1.908   5.376
 1278SOL    HW1 4733   1.708   1.957   5.455
 1278SOL    HW2 4734   1.710   1.815   5.375
 1279SOL     OW 4735   2.885   6.737   0.387
 1279SOL    HW1 4736   2.920   6.800   0.457
 1279SOL    HW2 4737   2.831   6.665   0.431
 1280SOL     OW 4738   1.949   0.820   2.699
 1280SOL    HW1 4739   1.896   0.736   2.709
 1280SOL    HW2 4740   1.989   0.824   2.607
 1281SOL     OW 4741   1.406   5.825   3.081
 1281SOL    HW1 4742   1.468   5.861   3.011
 1281SOL    HW2 4743   1.396   5.892   3.155
 1282SOL     OW 4744   0.215   1.356   0.897
 1282SOL    HW1 4745   0.235   1.277   0.838
 1282SOL    HW2 4746   0.269   1.349   0.981
 1283SOL     OW 4747   5.540   3.847   5.457
 1283SOL    HW1 4748   5.557   3.880   5.364
 1283SOL    HW2 4749   5.451   3.878   5.488
 1284SOL     OW 4750   2.967   2.313   1.669
 1284SOL    HW1 4751   2.948   2.383   1.737
 1284SOL    HW2 4752   2.951   2.223   1.709
 1285SOL     OW 4753   5.576   3.305   6.549
 1285SOL    HW1 4754   5.602   3.220   6.595
 1285SOL    HW2 4755   5.562   3.288   6.452
 1286SOL     OW 4756   4.728   4.616   2.138
 1286SOL    HW1 4757   4.673   4.542   2.179
 1286SOL    HW2 4758   4.819   4.581   2.115
 1287SOL     OW 4759   6.049   4.892   6.348
 1287SOL    HW1 4760   5.970   4.938   6.307
 1287SOL    HW2 4761   6.026   4.796   6.366
 1288SOL     OW 4762   0.266   3.288   0.187
 1288SOL    HW1 4763   0.332   3.355   0.153
 1288SOL    HW2 4764   0.207   3.331   0.255
 1289SOL     OW 4765   0.356   6.266   1.685
 1289SOL    HW1 4766   0.442   6.268   1.735
 1289SOL    HW2 4767   0.286   6.221   1.741
 1290SOL     OW 4768   0.116   0.239   6.729
 1290SOL    HW1 4769   0.134   0.153   6.778
 1290SOL    HW2 4770   0.188   0.255   6.661
 1291SOL     OW 4771   1.971   4.880   6.529
 1291SOL    HW1 4772   2.069   4.893   6.521
 1291SOL    HW2 4773   1.951   4.824   6.610
 1292SOL     OW 4774   6.866   4.578   1.676
 1292SOL    HW1 4775   6.876   4.656   1.614
 1292SOL    HW2 4776   6.884   4.608   1.770
 1293SOL     OW 4777   2.407   1.029   6.429
 1293SOL    HW1 4778   2.466   0.998   6.503
 1293SOL    HW2 4779   2.453   1.101   6.377
 1294SOL     OW 4780   6.947   3.261   1.995
 1294SOL    HW1 4781   6.946   3.164   1.973
 1294SOL    HW2 4782   0.020   3.298   1.977
 1295SOL     OW 4783   6.049   3.936   2.707
 1295SOL    HW1 4784   6.065   3.932   2.805
 1295SOL    HW2 4785   5.973   3.875   2.684
 1296SOL     OW 4786   3.281   1.557   6.305
 1296SOL    HW1 4787   3.362   1.606   6.274
 1296SOL    HW2 4788   3.301   1.508   6.390
 1297SOL     OW 4789   5.744   1.797   5.611
 1297SOL    HW1 4790   5.663   1.855   5.622
 1297SOL    HW2 4791   5.728   1.731   5.538
 1298SOL     OW 4792   6.292   3.282   3.884
 1298SOL    HW1 4793   6.255   3.322   3.800
 1298SOL    HW2 4794   6.295   3.183   3.875
 1299SOL     OW 4795   2.047   4.310   3.369
 1299SOL    HW1 4796   2.135   4.306   3.320
 1299SOL    HW2 4797   2.060   4.273   3.461
 1300SOL     OW 4798   3.182   3.719   1.840
 1300SOL    HW1 4799   3.161   3.754   1.749
 1300SOL    HW2 4800   3.099   3.679   1.881
 1301SOL     OW 4801   1.487   6.262   2.871
 1301SOL    HW1 4802   1.517   6.252   2.965
 1301SOL    HW2 4803   1.566   6.274   2.811
 1302SOL     OW 4804   2.115   6.929   4.482
 1302SOL    HW1 4805   2.211   6.956   4.483
 1302SOL    HW2 4806   2.072   6.964   4.399
 1303SOL     OW 4807   3.839   1.263   0.939
 1303SOL    HW1 4808   3.827   1.362   0.951
 1303SOL    HW2 4809   3.756   1.215   0.968
 1304SOL     OW 4810   1.069   0.897   6.338
 1304SOL    HW1 4811   1.074   0.819   6.400
 1304SOL    HW2 4812   1.005   0.964   6.374
 1305SOL     OW 4813   5.445   5.748   5.065
 1305SOL    HW1 4814   5.391   5.754   4.981
 1305SOL    HW2 4815   5.515   5.819   5.066
 1306SOL     OW 4816   1.471   3.595   5.042
 1306SOL    HW1 4817   1.522   3.658   4.982
 1306SOL    HW2 4818   1.377   3.629   5.052
 1307SOL     OW 4819   1.825   3.262   5.036
 1307SOL    HW1 4820   1.846   3.207   5.116
 1307SOL    HW2 4821   1.859   3.216   4.954
 1308SOL     OW 4822   4.200   6.010   4.340
 1308SOL    HW1 4823   4.253   5.966   4.267
 1308SOL    HW2 4824   4.142   5.942   4.384
 1309SOL     OW 4825   6.037   3.116   5.420
 1309SOL    HW1 4826   6.092   3.057   5.478
 1309SOL    HW2 4827   5.953   3.141   5.469
 1310SOL     OW 4828   5.653   3.456   4.476
 1310SOL    HW1 4829   5.605   3.403   4.406
 1310SOL    HW2 4830   5.662   3.403   4.559
 1311SOL     OW 4831   5.772   6.781   4.139
 1311SOL    HW1 4832   5.723   6.729   4.209
 1311SOL    HW2 4833   5.794   6.872   4.175
 1312SOL     OW 4834   0.751   0.868   6.588
 1312SOL    HW1 4835   0.681   0.901   6.651
 1312SOL    HW2 4836   0.725   0.779   6.552
 1313SOL     OW 4837   2.947   5.432   5.219
 1313SOL    HW1 4838   2.967   5.479   5.133
 1313SOL    HW2 4839   3.029   5.386   5.252
 1314SOL     OW 4840   1.829   1.539   6.018
 1314SOL    HW1 4841   1.827   1.590   5.932
 1314SOL    HW2 4842   1.898   1.578   6.078
 1315SOL     OW 4843   0.895   1.121   0.892
 1315SOL    HW1 4844   0.824   1.131   0.962
 1315SOL    HW2 4845   0.979   1.165   0.923
 1316SOL     OW 4846   2.060   6.825   3.341
 1316SOL    HW1 4847   2.097   6.845   3.432
 1316SOL    HW2 4848   1.962   6.805   3.349
 1317SOL     OW 4849   0.608   4.190   4.517
 1317SOL    HW1 4850   0.602   4.115   4.450
 1317SOL    HW2 4851   0.529   4.185   4.579
 1318SOL     OW 4852   0.489   0.814   0.747
 1318SOL    HW1 4853   0.485   0.727   0.698
 1318SOL    HW2 4854   0.434   0.882   0.698
 1319SOL     OW 4855   6.098   0.757   0.437
 1319SOL    HW1 4856   6.134   0.757   0.344
 1319SOL    HW2 4857   6.124   0.671   0.482
 1320SOL     OW 4858   5.955   4.624   0.134
 1320SOL    HW1 4859   5.930   4.706   0.185
 1320SOL    HW2 4860   5.898   4.547   0.165
 1321SOL     OW 4861   4.277   3.128   0.013
 1321SOL    HW1 4862   4.188   3.168   0.035
 1321SOL    HW2 4863   4.265   3.031   7.010
 1322SOL     OW 4864   5.878   1.049   3.142
 1322SOL    HW1 4865   5.877   1.138   3.187
 1322SOL    HW2 4866   5.944   0.989   3.187
 1323SOL     OW 4867   5.700   1.623   5.424
 1323SOL    HW1 4868   5.682   1.534   5.465
 1323SOL    HW2 4869   5.679   1.620   5.327
 1324SOL     OW 4870   1.628   2.119   1.892
 1324SOL    HW1 4871   1.667   2.043   1.943
 1324SOL    HW2 4872   1.578   2.179   1.954
 1325SOL     OW 4873   1.609   6.952   2.855
 1325SOL    HW1 4874   1.701   6.922   2.829
 1325SOL    HW2 4875   1.544   6.923   2.785
 1326SOL     OW 4876   4.932   2.602   4.618
 1326SOL    HW1 4877   4.854   2.658   4.591
 1326SOL    HW2 4878   5.002   2.660   4.659
 1327SOL     OW 4879   2.543   5.054   2.598
 1327SOL    HW1 4880   2.448   5.075   2.620
 1327SOL    HW2 4881   2.581   5.125   2.538
 1328SOL     OW 4882   1.126   2.288   6.777
 1328SOL    HW1 4883   1.035   2.300   6.817
 1328SOL    HW2 4884   1.182   2.231   6.837
 1329SOL     OW 4885   6.944   1.295   0.657
 1329SOL    HW1 4886   6.885   1.217   0.677
 1329SOL    HW2 4887   6.922   1.330   0.565
 1330SOL     OW 4888   6.300   6.919   0.909
 1330SOL    HW1 4889   6.340   6.828   0.917
 1330SOL    HW2 4890   6.286   6.958   1.000
 1331SOL     OW 4891   5.236   1.325   2.785
 1331SOL    HW1 4892   5.305   1.389   2.818
 1331SOL    HW2 4893   5.149   1.372   2.772
 1332SOL     OW 4894   4.015   0.968   1.051
 1332SOL    HW1 4895   4.023   0.890   1.113
 1332SOL    HW2 4896   3.921   0.973   1.017
 1333SOL     OW 4897   3.615   4.220   5.077
 1333SOL    HW1 4898   3.705   4.177   5.066
 1333SOL    HW2 4899   3.544   4.160   5.040
 1334SOL     OW 4900   1.625   2.904   5.122
 1334SOL    HW1 4901   1.602   2.817   5.167
 1334SOL    HW2 4902   1.562   2.975   5.152
 1335SOL     OW 4903   2.265   6.663   2.594
 1335SOL    HW1 4904   2.341   6.598   2.585
 1335SOL    HW2 4905   2.251   6.711   2.508
 1336SOL     OW 4906   1.233   1.356   6.941
 1336SOL    HW1 4907   1.192   1.438   6.902
 1336SOL    HW2 4908   1.167   1.280   6.937
 1337SOL     OW 4909   1.902   2.665   5.572
 1337SOL    HW1 4910   1.948   2.593   5.519
 1337SOL    HW2 4911   1.875   2.739   5.510
 1338SOL     OW 4912   4.620   3.682   6.536
 1338SOL    HW1 4913   4.529   3.640   6.530
 1338SOL    HW2 4914   4.610   3.782   6.535
 1339SOL     OW 4915   7.004   4.875   6.653
 1339SOL    HW1 4916   6.938   4.857   6.580
 1339SOL    HW2 4917   6.988   4.966   6.691
 1340SOL     OW 4918   0.961   1.794   0.918
 1340SOL    HW1 4919   0.904   1.876   0.927
 1340SOL    HW2 4920   0.908   1.722   0.872
 1341SOL     OW 4921   3.870   1.125   5.136
 1341SOL    HW1 4922   3.770   1.130   5.128
 1341SOL    HW2 4923   3.912   1.170   5.058
 1342SOL     OW 4924   1.417   5.934   5.803
 1342SOL    HW1 4925   1.327   5.902   5.835
 1342SOL    HW2 4926   1.485   5.862   5.817
 1343SOL     OW 4927   3.462   6.499   2.200
 1343SOL    HW1 4928   3.469   6.598   2.192
 1343SOL    HW2 4929   3.448   6.474   2.296
 1344SOL     OW 4930   6.546   2.052   3.080
 1344SOL    HW1 4931   6.479   2.034   3.008
 1344SOL    HW2 4932   6.527   1.993   3.159
 1345SOL     OW 4933   0.705   1.336   3.604
 1345SOL    HW1 4934   0.793   1.316   3.558
 1345SOL    HW2 4935   0.706   1.297   3.696
 1346SOL     OW 4936   0.697   6.456   3.291
 1346SOL    HW1 4937   0.780   6.471   3.346
 1346SOL    HW2 4938   0.723   6.420   3.201
 1347SOL     OW 4939   6.653   6.609   3.374
 1347SOL    HW1 4940   6.697   6.691   3.337
 1347SOL    HW2 4941   6.717   6.533   3.373
 1348SOL     OW 4942   5.863   4.921   4.250
 1348SOL    HW1 4943   5.960   4.908   4.229
 1348SOL    HW2 4944   5.808   4.889   4.173
 1349SOL     OW 4945   4.559   2.539   0.073
 1349SOL    HW1 4946   4.500   2.459   0.089
 1349SOL    HW2 4947   4.522   2.618   0.121
 1350SOL     OW 4948   3.445   4.690   6.664
 1350SOL    HW1 4949   3.367   4.652   6.714
 1350SOL    HW2 4950   3.489   4.618   6.611
 1351SOL     OW 4951   1.117   0.317   3.076
 1351SOL    HW1 4952   1.164   0.317   3.164
 1351SOL    HW2 4953   1.173   0.364   3.008
 1352SOL     OW 4954   6.770   0.502   3.685
 1352SOL    HW1 4955   6.743   0.576   3.624
 1352SOL    HW2 4956   6.702   0.428   3.681
 1353SOL     OW 4957   6.632   4.448   5.362
 1353SOL    HW1 4958   6.600   4.427   5.455
 1353SOL    HW2 4959   6.582   4.391   5.296
 1354SOL     OW 4960   6.442   0.885   0.919
 1354SOL    HW1 4961   6.395   0.829   0.851
 1354SOL    HW2 4962   6.391   0.884   1.004
 1355SOL     OW 4963   5.104   4.236   0.688
 1355SOL    HW1 4964   5.022   4.221   0.633
 1355SOL    HW2 4965   5.121   4.156   0.745
 1356SOL     OW 4966   3.455   4.059   2.919
 1356SOL    HW1 4967   3.362   4.054   2.957
 1356SOL    HW2 4968   3.485   3.967   2.894
 1357SOL     OW 4969   2.825   3.234   5.962
 1357SOL    HW1 4970   2.725   3.233   5.951
 1357SOL    HW2 4971   2.852   3.163   6.026
 1358SOL     OW 4972   2.274   2.857   6.455
 1358SOL    HW1 4973   2.195   2.885   6.402
 1358SOL    HW2 4974   2.320   2.938   6.492
 1359SOL     OW 4975   6.348   3.779   1.732
 1359SOL    HW1 4976   6.296   3.865   1.732
 1359SOL    HW2 4977   6.438   3.795   1.693
 1360SOL     OW 4978   3.832   3.400   2.578
 1360SOL    HW1 4979   3.793   3.308   2.582
 1360SOL    HW2 4980   3.815   3.440   2.489
 1361SOL     OW 4981   0.906   0.127   5.974
 1361SOL    HW1 4982   0.945   0.110   5.884
 1361SOL    HW2 4983   0.817   0.081   5.981
 1362SOL     OW 4984   2.947   3.497   5.410
 1362SOL    HW1 4985   2.917   3.520   5.503
 1362SOL    HW2 4986   3.039   3.458   5.414
 1363SOL     OW 4987   6.584   6.157   3.380
 1363SOL    HW1 4988   6.484   6.153   3.382
 1363SOL    HW2 4989   6.620   6.070   3.346
 1364SOL     OW 4990   6.810   3.215   0.618
 1364SOL    HW1 4991   6.902   3.186   0.594
 1364SOL    HW2 4992   6.807   3.314   0.629
 1365SOL     OW 4993   1.296   3.319   5.399
 1365SOL    HW1 4994   1.211   3.267   5.404
 1365SOL    HW2 4995   1.297   3.372   5.314
 1366SOL     OW 4996   0.041   3.163   1.154
 1366SOL    HW1 4997   6.971   3.123   1.129
 1366SOL    HW2 4998   0.028   3.257   1.186
 1367SOL     OW 4999   1.395   4.698   3.583
 1367SOL    HW1 5000   1.485   4.721   3.546
 1367SOL    HW2 5001   1.374   4.759   3.660
 1368SOL     OW 5002   6.400   6.724   4.641
 1368SOL    HW1 5003   6.426   6.695   4.549
 1368SOL    HW2 5004   6.353   6.650   4.688
 1369SOL     OW 5005   1.934   6.079   1.676
 1369SOL    HW1 5006   1.835   6.072   1.659
 1369SOL    HW2 5007   1.973   6.146   1.612
 1370SOL     OW 5008   0.429   2.179   3.661
 1370SOL    HW1 5009   0.354   2.205   3.601
 1370SOL    HW2 5010   0.515   2.215   3.625
 1371SOL     OW 5011   5.639   1.050   4.698
 1371SOL    HW1 5012   5.722   1.080   4.745
 1371SOL    HW2 5013   5.559   1.067   4.757
 1372SOL     OW 5014   6.265   2.603   0.648
 1372SOL    HW1 5015   6.333   2.560   0.706
 1372SOL    HW2 5016   6.214   2.671   0.701
 1373SOL     OW 5017   4.460   2.324   1.025
 1373SOL    HW1 5018   4.491   2.416   1.050
 1373SOL    HW2 5019   4.469   2.311   0.927
 1374SOL     OW 5020   5.524   4.080   0.660
 1374SOL    HW1 5021   5.517   4.015   0.584
 1374SOL    HW2 5022   5.494   4.036   0.744
 1375SOL     OW 5023   6.711   5.771   6.209
 1375SOL    HW1 5024   6.705   5.869   6.229
 1375SOL    HW2 5025   6.742   5.758   6.115
 1376SOL     OW 5026   2.878   4.324   6.124
 1376SOL    HW1 5027   2.785   4.288   6.124
 1376SOL    HW2 5028   2.883   4.404   6.063
 1377SOL     OW 5029   1.227   2.510   4.087
 1377SOL    HW1 5030   1.186   2.546   4.003
 1377SOL    HW2 5031   1.165   2.525   4.164
 1378SOL     OW 5032   4.186   2.301   4.772
 1378SOL    HW1 5033   4.197   2.332   4.866
 1378SOL    HW2 5034   4.275   2.299   4.727
 1379SOL     OW 5035   4.826   5.799   2.130
 1379SOL    HW1 5036   4.852   5.732   2.061
 1379SOL    HW2 5037   4.852   5.765   2.221
 1380SOL     OW 5038   6.472   6.353   2.323
 1380SOL    HW1 5039   6.376   6.329   2.339
 1380SOL    HW2 5040   6.481   6.452   2.312
 1381SOL     OW 5041   5.815   2.269   6.234
 1381SOL    HW1 5042   5.855   2.322   6.160
 1381SOL    HW2 5043   5.809   2.325   6.317
 1382SOL     OW 5044   4.662   3.131   1.196
 1382SOL    HW1 5045   4.650   3.231   1.199
 1382SOL    HW2 5046   4.698   3.100   1.284
 1383SOL     OW 5047   1.434   6.416   1.697
 1383SOL    HW1 5048   1.408   6.325   1.665
 1383SOL    HW2 5049   1.412   6.424   1.795
 1384SOL     OW 5050   4.252   0.327   0.917
 1384SOL    HW1 5051   4.335   0.343   0.971
 1384SOL    HW2 5052   4.273   0.344   0.820
 1385SOL     OW 5053   2.368   5.268   4.091
 1385SOL    HW1 5054   2.330   5.203   4.156
 1385SOL    HW2 5055   2.389   5.354   4.138
 1386SOL     OW 5056   3.124   6.491   3.872
 1386SOL    HW1 5057   3.121   6.410   3.814
 1386SOL    HW2 5058   3.067   6.477   3.952
 1387SOL     OW 5059   3.746   5.480   1.336
 1387SOL    HW1 5060   3.776   5.464   1.242
 1387SOL    HW2 5061   3.747   5.578   1.355
 1388SOL     OW 5062   5.893   6.688   1.186
 1388SOL    HW1 5063   5.893   6.761   1.254
 1388SOL    HW2 5064   5.922   6.602   1.229
 1389SOL     OW 5065   5.414   1.563   3.172
 1389SOL    HW1 5066   5.335   1.548   3.231
 1389SOL    HW2 5067   5.413   1.498   3.097
 1390SOL     OW 5068   0.642   3.740   0.028
 1390SOL    HW1 5069   0.609   3.672   6.981
 1390SOL    HW2 5070   0.672   3.821   6.997
 1391SOL     OW 5071   6.522   0.651   3.858
 1391SOL    HW1 5072   6.582   0.655   3.778
 1391SOL    HW2 5073   6.565   0.700   3.934
 1392SOL     OW 5074   5.072   5.835   6.204
 1392SOL    HW1 5075   5.084   5.933   6.220
 1392SOL    HW2 5076   4.975   5.813   6.209
 1393SOL     OW 5077   6.194   5.019   5.180
 1393SOL    HW1 5078   6.242   5.107   5.176
 1393SOL    HW2 5079   6.120   5.024   5.248
 1394SOL     OW 5080   3.176   6.204   4.979
 1394SOL    HW1 5081   3.196   6.258   5.061
 1394SOL    HW2 5082   3.171   6.107   5.004
 1395SOL     OW 5083   2.445   4.439   6.163
 1395SOL    HW1 5084   2.348   4.464   6.154
 1395SOL    HW2 5085   2.501   4.511   6.123
 1396SOL     OW 5086   1.931   0.687   4.075
 1396SOL    HW1 5087   1.986   0.709   3.994
 1396SOL    HW2 5088   1.941   0.759   4.143
 1397SOL     OW 5089   0.198   0.313   3.603
 1397SOL    HW1 5090   0.265   0.281   3.669
 1397SOL    HW2 5091   0.216   0.271   3.514
 1398SOL     OW 5092   1.980   1.007   5.946
 1398SOL    HW1 5093   1.959   0.988   6.042
 1398SOL    HW2 5094   1.923   1.082   5.913
 1399SOL     OW 5095   4.202   6.654   0.782
 1399SOL    HW1 5096   4.184   6.732   0.841
 1399SOL    HW2 5097   4.120   6.633   0.728
 1400SOL     OW 5098   6.821   1.853   2.827
 1400SOL    HW1 5099   6.808   1.835   2.729
 1400SOL    HW2 5100   6.913   1.889   2.842
 1401SOL     OW 5101   6.633   1.667   4.924
 1401SOL    HW1 5102   6.541   1.669   4.886
 1401SOL    HW2 5103   6.631   1.698   5.019
 1402SOL     OW 5104   0.744   4.286   0.455
 1402SOL    HW1 5105   0.778   4.339   0.534
 1402SOL    HW2 5106   0.649   4.312   0.436
 1403SOL     OW 5107   3.085   1.497   1.840
 1403SOL    HW1 5108   3.181   1.498   1.812
 1403SOL    HW2 5109   3.026   1.495   1.759
 1404SOL     OW 5110   5.217   6.866   0.069
 1404SOL    HW1 5111   5.281   6.871   0.145
 1404SOL    HW2 5112   5.138   6.925   0.087
 1405SOL     OW 5113   2.104   3.288   1.218
 1405SOL    HW1 5114   2.118   3.319   1.124
 1405SOL    HW2 5115   2.184   3.309   1.273
 1406SOL     OW 5116   1.330   5.312   1.397
 1406SOL    HW1 5117   1.333   5.263   1.484
 1406SOL    HW2 5118   1.257   5.274   1.340
 1407SOL     OW 5119   0.691   2.138   2.018
 1407SOL    HW1 5120   0.755   2.065   1.995
 1407SOL    HW2 5121   0.740   2.225   2.021
 1408SOL     OW 5122   4.987   0.940   5.918
 1408SOL    HW1 5123   5.022   1.034   5.917
 1408SOL    HW2 5124   4.953   0.917   5.828
 1409SOL     OW 5125   0.585   0.054   5.202
 1409SOL    HW1 5126   0.559   0.014   5.114
 1409SOL    HW2 5127   0.520   0.024   5.272
 1410SOL     OW 5128   2.181   3.623   6.826
 1410SOL    HW1 5129   2.139   3.681   6.756
 1410SOL    HW2 5130   2.266   3.666   6.858
 1411SOL     OW 5131   2.920   6.497   2.419
 1411SOL    HW1 5132   2.937   6.595   2.429
 1411SOL    HW2 5133   2.825   6.483   2.394
 1412SOL     OW 5134   0.608   2.248   0.859
 1412SOL    HW1 5135   0.528   2.308   0.849
 1412SOL    HW2 5136   0.628   2.206   0.771
 1413SOL     OW 5137   2.185   1.201   4.832
 1413SOL    HW1 5138   2.102   1.200   4.777
 1413SOL    HW2 5139   2.265   1.214   4.772
 1414SOL     OW 5140   2.357   0.657   1.017
 1414SOL    HW1 5141   2.266   0.697   1.018
 1414SOL    HW2 5142   2.426   0.729   1.013
 1415SOL     OW 5143   2.449   1.130   4.721
 1415SOL    HW1 5144   2.543   1.151   4.746
 1415SOL    HW2 5145   2.427   1.037   4.750
 1416SOL     OW 5146   4.383   4.564   4.260
 1416SOL    HW1 5147   4.454   4.572   4.330
 1416SOL    HW2 5148   4.424   4.545   4.171
 1417SOL     OW 5149   2.279   1.743   0.169
 1417SOL    HW1 5150   2.339   1.800   0.112
 1417SOL    HW2 5151   2.224   1.684   0.110
 1418SOL     OW 5152   2.937   3.677   3.319
 1418SOL    HW1 5153   2.898   3.764   3.350
 1418SOL    HW2 5154   3.028   3.693   3.282
 1419SOL     OW 5155   2.966   6.487   4.340
 1419SOL    HW1 5156   3.059   6.483   4.377
 1419SOL    HW2 5157   2.915   6.406   4.370
 1420SOL     OW 5158   2.033   6.486   1.554
 1420SOL    HW1 5159   2.107   6.532   1.603
 1420SOL    HW2 5160   1.960   6.552   1.534
 1421SOL     OW 5161   2.142   3.539   3.217
 1421SOL    HW1 5162   2.142   3.592   3.131
 1421SOL    HW2 5163   2.231   3.548   3.261
 1422SOL     OW 5164   2.032   4.285   1.610
 1422SOL    HW1 5165   1.941   4.309   1.579
 1422SOL    HW2 5166   2.096   4.358   1.585
 1423SOL     OW 5167   5.046   6.541   2.837
 1423SOL    HW1 5168   5.043   6.494   2.749
 1423SOL    HW2 5169   4.955   6.575   2.860
 1424SOL     OW 5170   6.660   4.243   4.536
 1424SOL    HW1 5171   6.568   4.243   4.576
 1424SOL    HW2 5172   6.665   4.312   4.464
 1425SOL     OW 5173   1.334   6.213   4.532
 1425SOL    HW1 5174   1.344   6.121   4.571
 1425SOL    HW2 5175   1.415   6.236   4.479
 1426SOL     OW 5176   1.383   2.180   5.867
 1426SOL    HW1 5177   1.407   2.269   5.828
 1426SOL    HW2 5178   1.332   2.127   5.800
 1427SOL     OW 5179   0.067   6.856   3.206
 1427SOL    HW1 5180   0.012   6.776   3.181
 1427SOL    HW2 5181   0.075   6.860   3.306
 1428SOL     OW 5182   5.379   2.722   0.844
 1428SOL    HW1 5183   5.304   2.752   0.786
 1428SOL    HW2 5184   5.349   2.646   0.901
 1429SOL     OW 5185   5.545   2.163   0.477
 1429SOL    HW1 5186   5.468   2.103   0.501
 1429SOL    HW2 5187   5.609   2.168   0.553
 1430SOL     OW 5188   1.606   4.794   4.311
 1430SOL    HW1 5189   1.534   4.836   4.366
 1430SOL    HW2 5190   1.570   4.769   4.221
 1431SOL     OW 5191   2.090   1.793   1.169
 1431SOL    HW1 5192   2.064   1.883   1.135
 1431SOL    HW2 5193   2.072   1.788   1.267
 1432SOL     OW 5194   3.423   1.441   3.127
 1432SOL    HW1 5195   3.521   1.461   3.121
 1432SOL    HW2 5196   3.371   1.520   3.093
 1433SOL     OW 5197   4.258   1.413   4.016
 1433SOL    HW1 5198   4.232   1.490   4.074
 1433SOL    HW2 5199   4.342   1.436   3.966
 1434SOL     OW 5200   6.729   0.912   5.451
 1434SOL    HW1 5201   6.659   0.905   5.380
 1434SOL    HW2 5202   6.820   0.914   5.409
 1435SOL     OW 5203   5.706   0.800   2.065
 1435SOL    HW1 5204   5.657   0.826   2.148
 1435SOL    HW2 5205   5.793   0.757   2.089
 1436SOL     OW 5206   6.016   4.060   0.654
 1436SOL    HW1 5207   5.950   4.123   0.612
 1436SOL    HW2 5208   6.102   4.064   0.604
 1437SOL     OW 5209   2.451   2.489   3.739
 1437SOL    HW1 5210   2.530   2.443   3.780
 1437SOL    HW2 5211   2.398   2.535   3.811
 1438SOL     OW 5212   2.919   6.786   1.178
 1438SOL    HW1 5213   3.015   6.760   1.174
 1438SOL    HW2 5214   2.896   6.811   1.272
 1439SOL     OW 5215   0.182   5.441   0.940
 1439SOL    HW1 5216   0.242   5.521   0.948
 1439SOL    HW2 5217   0.119   5.454   0.864
 1440SOL     OW 5218   2.998   3.978   0.515
 1440SOL    HW1 5219   3.086   3.937   0.541
 1440SOL    HW2 5220   2.945   3.998   0.598
 1441SOL     OW 5221   5.831   0.495   2.714
 1441SOL    HW1 5222   5.834   0.412   2.771
 1441SOL    HW2 5223   5.909   0.495   2.652
 1442SOL     OW 5224   6.759   5.549   6.945
 1442SOL    HW1 5225   6.775   5.535   6.848
 1442SOL    HW2 5226   6.847   5.555   6.993
 1443SOL     OW 5227   0.587   2.453   2.328
 1443SOL    HW1 5228   0.601   2.413   2.419
 1443SOL    HW2 5229   0.641   2.537   2.320
 1444SOL     OW 5230   5.367   6.724   0.505
 1444SOL    HW1 5231   5.437   6.795   0.507
 1444SOL    HW2 5232   5.374   6.672   0.419
 1445SOL     OW 5233   0.963   3.051   2.381
 1445SOL    HW1 5234   0.867   3.022   2.375
 1445SOL    HW2 5235   0.967   3.148   2.404
 1446SOL     OW 5236   6.181   0.575   6.510
 1446SOL    HW1 5237   6.113   0.575   6.583
 1446SOL    HW2 5238   6.171   0.658   6.455
 1447SOL     OW 5239   6.020   5.660   4.086
 1447SOL    HW1 5240   6.081   5.715   4.142
 1447SOL    HW2 5241   6.064   5.573   4.062
 1448SOL     OW 5242   6.615   2.964   4.970
 1448SOL    HW1 5243   6.611   3.016   4.885
 1448SOL    HW2 5244   6.703   2.917   4.975
 1449SOL     OW 5245   1.534   3.988   5.556
 1449SOL    HW1 5246   1.521   4.045   5.475
 1449SOL    HW2 5247   1.544   4.046   5.637
 1450SOL     OW 5248   1.188   2.109   0.122
 1450SOL    HW1 5249   1.231   2.093   0.033
 1450SOL    HW2 5250   1.154   2.022   0.159
 1451SOL     OW 5251   1.607   6.320   2.588
 1451SOL    HW1 5252   1.670   6.331   2.511
 1451SOL    HW2 5253   1.558   6.405   2.604
 1452SOL     OW 5254   4.370   2.498   5.312
 1452SOL    HW1 5255   4.282   2.505   5.265
 1452SOL    HW2 5256   4.355   2.505   5.410
 1453SOL     OW 5257   6.981   4.541   5.425
 1453SOL    HW1 5258   0.002   4.524   5.335
 1453SOL    HW2 5259   0.016   4.494   5.495
 1454SOL     OW 5260   1.766   1.913   2.598
 1454SOL    HW1 5261   1.815   1.999   2.611
 1454SOL    HW2 5262   1.815   1.839   2.645
 1455SOL     OW 5263   1.451   6.746   2.315
 1455SOL    HW1 5264   1.497   6.835   2.316
 1455SOL    HW2 5265   1.465   6.700   2.403
 1456SOL     OW 5266   6.311   6.854   5.983
 1456SOL    HW1 5267   6.285   6.907   5.903
 1456SOL    HW2 5268   6.319   6.915   6.062
 1457SOL     OW 5269   1.747   5.013   0.003
 1457SOL    HW1 5270   1.773   5.043   6.930
 1457SOL    HW2 5271   1.830   4.990   0.055
 1458SOL     OW 5272   5.521   4.739   5.439
 1458SOL    HW1 5273   5.613   4.747   5.478
 1458SOL    HW2 5274   5.526   4.692   5.351
 1459SOL     OW 5275   4.172   6.786   5.877
 1459SOL    HW1 5276   4.157   6.703   5.822
 1459SOL    HW2 5277   4.271   6.801   5.887
 1460SOL     OW 5278   1.568   6.456   5.125
 1460SOL    HW1 5279   1.562   6.356   5.136
 1460SOL    HW2 5280   1.579   6.499   5.214
 1461SOL     OW 5281   0.310   4.173   3.209
 1461SOL    HW1 5282   0.362   4.170   3.294
 1461SOL    HW2 5283   0.366   4.138   3.134
 1462SOL     OW 5284   1.409   1.040   6.526
 1462SOL    HW1 5285   1.370   1.082   6.444
 1462SOL    HW2 5286   1.452   1.111   6.583
 1463SOL     OW 5287   0.963   4.601   5.732
 1463SOL    HW1 5288   1.050   4.647   5.715
 1463SOL    HW2 5289   0.954   4.521   5.671
 1464SOL     OW 5290   6.875   5.024   2.167
 1464SOL    HW1 5291   6.920   4.971   2.239
 1464SOL    HW2 5292   6.904   5.120   2.172
 1465SOL     OW 5293   1.767   1.573   3.719
 1465SOL    HW1 5294   1.722   1.545   3.635
 1465SOL    HW2 5295   1.735   1.517   3.795
 1466SOL     OW 5296   3.590   1.525   1.901
 1466SOL    HW1 5297   3.504   1.476   1.912
 1466SOL    HW2 5298   3.572   1.623   1.894
 1467SOL     OW 5299   1.838   1.221   4.188
 1467SOL    HW1 5300   1.875   1.256   4.274
 1467SOL    HW2 5301   1.856   1.288   4.116
 1468SOL     OW 5302   2.274   5.883   1.985
 1468SOL    HW1 5303   2.174   5.880   1.978
 1468SOL    HW2 5304   2.311   5.790   1.983
 1469SOL     OW 5305   6.779   6.503   2.650
 1469SOL    HW1 5306   6.854   6.484   2.713
 1469SOL    HW2 5307   6.814   6.508   2.556
 1470SOL     OW 5308   6.904   2.069   2.087
 1470SOL    HW1 5309   6.907   2.161   2.126
 1470SOL    HW2 5310   6.861   2.073   1.996
 1471SOL     OW 5311   1.078   0.635   0.470
 1471SOL    HW1 5312   1.084   0.713   0.533
 1471SOL    HW2 5313   0.994   0.583   0.490
 1472SOL     OW 5314   3.316   5.594   0.269
 1472SOL    HW1 5315   3.250   5.606   0.343
 1472SOL    HW2 5316   3.267   5.578   0.183
 1473SOL     OW 5317   2.697   5.809   5.109
 1473SOL    HW1 5318   2.651   5.724   5.134
 1473SOL    HW2 5319   2.635   5.886   5.124
 1474SOL     OW 5320   4.195   4.486   1.281
 1474SOL    HW1 5321   4.235   4.470   1.371
 1474SOL    HW2 5322   4.159   4.400   1.244
 1475SOL     OW 5323   5.449   1.057   0.036
 1475SOL    HW1 5324   5.358   1.096   0.019
 1475SOL    HW2 5325   5.518   1.120   0.001
 1476SOL     OW 5326   2.475   0.901   1.096
 1476SOL    HW1 5327   2.482   0.842   1.176
 1476SOL    HW2 5328   2.393   0.957   1.102
 1477SOL     OW 5329   3.493   6.635   6.894
 1477SOL    HW1 5330   3.431   6.712   6.907
 1477SOL    HW2 5331   3.440   6.549   6.896
 1478SOL     OW 5332   5.507   6.136   5.483
 1478SOL    HW1 5333   5.554   6.154   5.397
 1478SOL    HW2 5334   5.573   6.141   5.558
 1479SOL     OW 5335   3.223   3.070   1.493
 1479SOL    HW1 5336   3.306   3.121   1.470
 1479SOL    HW2 5337   3.248   2.977   1.520
 1480SOL     OW 5338   2.468   0.207   5.255
 1480SOL    HW1 5339   2.387   0.177   5.205
 1480SOL    HW2 5340   2.550   0.168   5.212
 1481SOL     OW 5341   5.757   3.529   5.441
 1481SOL    HW1 5342   5.697   3.455   5.472
 1481SOL    HW2 5343   5.750   3.538   5.342
 1482SOL     OW 5344   4.629   0.559   1.099
 1482SOL    HW1 5345   4.580   0.482   1.057
 1482SOL    HW2 5346   4.715   0.574   1.051
 1483SOL     OW 5347   6.057   2.247   5.182
 1483SOL    HW1 5348   5.987   2.316   5.166
 1483SOL    HW2 5349   6.141   2.272   5.136
 1484SOL     OW 5350   5.137   5.111   3.954
 1484SOL    HW1 5351   5.109   5.125   3.859
 1484SOL    HW2 5352   5.236   5.113   3.961
 1485SOL     OW 5353   5.364   0.606   4.019
 1485SOL    HW1 5354   5.399   0.513   4.030
 1485SOL    HW2 5355   5.266   0.608   4.039
 1486SOL     OW 5356   4.893   0.664   3.200
 1486SOL    HW1 5357   4.980   0.712   3.210
 1486SOL    HW2 5358   4.906   0.566   3.214
 1487SOL     OW 5359   6.965   1.494   0.125
 1487SOL    HW1 5360   6.951   1.574   0.184
 1487SOL    HW2 5361   6.968   1.523   0.029
 1488SOL     OW 5362   4.811   0.442   3.422
 1488SOL    HW1 5363   4.909   0.440   3.401
 1488SOL    HW2 5364   4.759   0.421   3.339
 1489SOL     OW 5365   4.174   4.555   5.884
 1489SOL    HW1 5366   4.196   4.643   5.926
 1489SOL    HW2 5367   4.109   4.569   5.810
 1490SOL     OW 5368   0.183   3.557   0.598
 1490SOL    HW1 5369   0.252   3.601   0.655
 1490SOL    HW2 5370   0.095   3.603   0.610
 1491SOL     OW 5371   6.581   3.642   2.622
 1491SOL    HW1 5372   6.647   3.694   2.568
 1491SOL    HW2 5373   6.504   3.615   2.565
 1492SOL     OW 5374   6.004   0.435   2.506
 1492SOL    HW1 5375   6.025   0.338   2.492
 1492SOL    HW2 5376   5.974   0.476   2.420
 1493SOL     OW 5377   3.706   0.781   6.198
 1493SOL    HW1 5378   3.742   0.790   6.291
 1493SOL    HW2 5379   3.611   0.814   6.195
 1494SOL     OW 5380   5.898   2.908   6.907
 1494SOL    HW1 5381   5.932   2.839   6.970
 1494SOL    HW2 5382   5.862   2.986   6.958
 1495SOL     OW 5383   6.537   4.550   4.692
 1495SOL    HW1 5384   6.610   4.514   4.634
 1495SOL    HW2 5385   6.524   4.647   4.672
 1496SOL     OW 5386   1.059   0.851   0.245
 1496SOL    HW1 5387   1.053   0.787   0.321
 1496SOL    HW2 5388   1.043   0.803   0.159
 1497SOL     OW 5389   5.161   3.034   2.293
 1497SOL    HW1 5390   5.205   2.952   2.330
 1497SOL    HW2 5391   5.064   3.017   2.278
 1498SOL     OW 5392   3.111   4.210   0.915
 1498SOL    HW1 5393   3.167   4.180   0.838
 1498SOL    HW2 5394   3.022   4.242   0.882
 1499SOL     OW 5395   0.342   3.390   6.354
 1499SOL    HW1 5396   0.411   3.342   6.299
 1499SOL    HW2 5397   0.258   3.401   6.301
 1500SOL     OW 5398   0.806   6.538   6.592
 1500SOL    HW1 5399   0.881   6.598   6.563
 1500SOL    HW2 5400   0.737   6.534   6.520
 1501SOL     OW 5401   6.128   1.833   6.216
 1501SOL    HW1 5402   6.219   1.794   6.208
 1501SOL    HW2 5403   6.135   1.927   6.251
 1502SOL     OW 5404   5.354   1.218   6.602
 1502SOL    HW1 5405   5.309   1.240   6.515
 1502SOL    HW2 5406   5.296   1.157   6.655
 1503SOL     OW 5407   0.763   3.046   2.781
 1503SOL    HW1 5408   0.824   3.078   2.853
 1503SOL    HW2 5409   0.668   3.059   2.808
 1504SOL     OW 5410   0.805   0.384   3.095
 1504SOL    HW1 5411   0.736   0.325   3.053
 1504SOL    HW2 5412   0.891   0.333   3.105
 1505SOL     OW 5413   5.038   0.288   5.701
 1505SOL    HW1 5414   5.023   0.340   5.785
 1505SOL    HW2 5415   5.128   0.245   5.704
 1506SOL     OW 5416   1.314   7.015   0.074
 1506SOL    HW1 5417   1.255   6.985   7.017
 1506SOL    HW2 5418   1.379   0.065   0.040
 1507SOL     OW 5419   0.061   1.905   5.245
 1507SOL    HW1 5420   0.072   1.930   5.149
 1507SOL    HW2 5421   7.005   1.958   5.285
 1508SOL     OW 5422   6.518   1.642   1.379
 1508SOL    HW1 5423   6.462   1.697   1.440
 1508SOL    HW2 5424   6.594   1.602   1.431
 1509SOL     OW 5425   4.796   1.909   4.657
 1509SOL    HW1 5426   4.889   1.885   4.630
 1509SOL    HW2 5427   4.764   1.986   4.603
 1510SOL     OW 5428   5.411   6.681   4.751
 1510SOL    HW1 5429   5.473   6.758   4.763
 1510SOL    HW2 5430   5.430   6.610   4.819
 1511SOL     OW 5431   3.570   3.151   4.119
 1511SOL    HW1 5432   3.481   3.141   4.163
 1511SOL    HW2 5433   3.585   3.248   4.096
 1512SOL     OW 5434   6.215   5.356   1.892
 1512SOL    HW1 5435   6.168   5.323   1.811
 1512SOL    HW2 5436   6.247   5.450   1.877
 1513SOL     OW 5437   3.270   0.187   4.876
 1513SOL    HW1 5438   3.201   0.158   4.810
 1513SOL    HW2 5439   3.263   0.286   4.890
 1514SOL     OW 5440   3.833   2.676   5.734
 1514SOL    HW1 5441   3.919   2.638   5.702
 1514SOL    HW2 5442   3.812   2.759   5.682
 1515SOL     OW 5443   6.295   1.191   2.659
 1515SOL    HW1 5444   6.362   1.262   2.635
 1515SOL    HW2 5445   6.343   1.112   2.699
 1516SOL     OW 5446   5.370   5.021   5.245
 1516SOL    HW1 5447   5.464   5.047   5.268
 1516SOL    HW2 5448   5.317   5.104   5.226
 1517SOL     OW 5449   4.236   6.062   2.956
 1517SOL    HW1 5450   4.221   6.026   2.864
 1517SOL    HW2 5451   4.263   5.987   3.017
 1518SOL     OW 5452   6.519   3.211   0.706
 1518SOL    HW1 5453   6.617   3.230   0.718
 1518SOL    HW2 5454   6.476   3.287   0.658
 1519SOL     OW 5455   6.636   4.491   1.240
 1519SOL    HW1 5456   6.581   4.560   1.287
 1519SOL    HW2 5457   6.732   4.501   1.265
 1520SOL     OW 5458   0.688   4.654   1.431
 1520SOL    HW1 5459   0.753   4.681   1.359
 1520SOL    HW2 5460   0.692   4.719   1.506
 1521SOL     OW 5461   1.907   4.843   6.831
 1521SOL    HW1 5462   1.911   4.753   6.875
 1521SOL    HW2 5463   1.991   4.894   6.852
 1522SOL     OW 5464   5.952   5.611   4.773
 1522SOL    HW1 5465   5.880   5.555   4.732
 1522SOL    HW2 5466   5.913   5.664   4.849
 1523SOL     OW 5467   3.577   6.748   6.435
 1523SOL    HW1 5468   3.508   6.767   6.365
 1523SOL    HW2 5469   3.535   6.702   6.512
 1524SOL     OW 5470   2.711   2.150   2.753
 1524SOL    HW1 5471   2.699   2.142   2.851
 1524SOL    HW2 5472   2.622   2.164   2.709
 1525SOL     OW 5473   5.585   2.877   0.528
 1525SOL    HW1 5474   5.622   2.813   0.461
 1525SOL    HW2 5475   5.486   2.881   0.520
 1526SOL     OW 5476   6.932   0.552   6.671
 1526SOL    HW1 5477   0.009   0.579   6.657
 1526SOL    HW2 5478   6.910   0.475   6.611
 1527SOL     OW 5479   3.387   0.833   4.485
 1527SOL    HW1 5480   3.459   0.892   4.448
 1527SOL    HW2 5481   3.304   0.843   4.430
 1528SOL     OW 5482   4.157   4.703   2.012
 1528SOL    HW1 5483   4.236   4.645   2.030
 1528SOL    HW2 5484   4.149   4.718   1.913
 1529SOL     OW 5485   4.759   1.119   6.974
 1529SOL    HW1 5486   4.680   1.166   7.013
 1529SOL    HW2 5487   4.818   1.085   0.028
 1530SOL     OW 5488   3.030   1.283   1.035
 1530SOL    HW1 5489   3.073   1.258   0.949
 1530SOL    HW2 5490   3.074   1.366   1.071
 1531SOL     OW 5491   4.603   1.067   4.927
 1531SOL    HW1 5492   4.673   1.047   4.995
 1531SOL    HW2 5493   4.638   1.044   4.836
 1532SOL     OW 5494   3.474   4.283   5.827
 1532SOL    HW1 5495   3.383   4.291   5.787
 1532SOL    HW2 5496   3.516   4.197   5.796
 1533SOL     OW 5497   5.498   5.508   0.351
 1533SOL    HW1 5498   5.418   5.461   0.314
 1533SOL    HW2 5499   5.576   5.445   0.351
 1534SOL     OW 5500   3.124   5.576   6.091
 1534SOL    HW1 5501   3.204   5.525   6.058
 1534SOL    HW2 5502   3.154   5.664   6.128
 1535SOL     OW 5503   5.538   5.884   4.666
 1535SOL    HW1 5504   5.473   5.875   4.741
 1535SOL    HW2 5505   5.547   5.796   4.619
 1536SOL     OW 5506   4.015   5.015   6.396
 1536SOL    HW1 5507   4.110   4.997   6.423
 1536SOL    HW2 5508   4.003   4.992   6.299
 1537SOL     OW 5509   4.248   5.793   3.822
 1537SOL    HW1 5510   4.263   5.695   3.816
 1537SOL    HW2 5511   4.325   5.837   3.868
 1538SOL     OW 5512   3.592   0.061   6.618
 1538SOL    HW1 5513   3.529   0.002   6.668
 1538SOL    HW2 5514   3.672   0.008   6.588
 1539SOL     OW 5515   4.997   3.342   2.302
 1539SOL    HW1 5516   4.925   3.279   2.333
 1539SOL    HW2 5517   5.030   3.312   2.212
 1540SOL     OW 5518   0.469   6.697   5.463
 1540SOL    HW1 5519   0.493   6.669   5.556
 1540SOL    HW2 5520   0.531   6.653   5.398
 1541SOL     OW 5521   3.428   3.611   4.149
 1541SOL    HW1 5522   3.364   3.628   4.074
 1541SOL    HW2 5523   3.447   3.696   4.196
 1542SOL     OW 5524   6.673   0.685   1.932
 1542SOL    HW1 5525   6.649   0.610   1.870
 1542SOL    HW2 5526   6.737   0.746   1.887
 1543SOL     OW 5527   3.877   5.234   5.148
 1543SOL    HW1 5528   3.781   5.221   5.125
 1543SOL    HW2 5529   3.920   5.146   5.168
 1544SOL     OW 5530   3.740   4.105   3.557
 1544SOL    HW1 5531   3.757   4.078   3.462
 1544SOL    HW2 5532   3.787   4.042   3.618
 1545SOL     OW 5533   4.595   0.865   2.671
 1545SOL    HW1 5534   4.633   0.935   2.732
 1545SOL    HW2 5535   4.498   0.884   2.655
 1546SOL     OW 5536   5.383   6.419   5.817
 1546SOL    HW1 5537   5.347   6.361   5.744
 1546SOL    HW2 5538   5.452   6.481   5.779
 1547SOL     OW 5539   1.399   3.388   1.271
 1547SOL    HW1 5540   1.380   3.485   1.285
 1547SOL    HW2 5541   1.480   3.361   1.323
 1548SOL     OW 5542   5.114   3.895   0.105
 1548SOL    HW1 5543   5.208   3.891   0.070
 1548SOL    HW2 5544   5.114   3.872   0.203
 1549SOL     OW 5545   3.869   0.964   2.144
 1549SOL    HW1 5546   3.899   0.871   2.123
 1549SOL    HW2 5547   3.863   1.017   2.060
 1550SOL     OW 5548   3.644   3.618   1.499
 1550SOL    HW1 5549   3.626   3.614   1.597
 1550SOL    HW2 5550   3.592   3.693   1.459
 1551SOL     OW 5551   1.618   4.623   6.565
 1551SOL    HW1 5552   1.589   4.567   6.642
 1551SOL    HW2 5553   1.634   4.717   6.596
 1552SOL     OW 5554   1.915   5.701   0.829
 1552SOL    HW1 5555   1.878   5.778   0.778
 1552SOL    HW2 5556   1.898   5.616   0.779
 1553SOL     OW 5557   7.010   1.701   6.494
 1553SOL    HW1 5558   6.926   1.713   6.547
 1553SOL    HW2 5559   0.037   1.790   6.483
 1554SOL     OW 5560   3.384   2.077   3.490
 1554SOL    HW1 5561   3.465   2.087   3.432
 1554SOL    HW2 5562   3.305   2.119   3.445
 1555SOL     OW 5563   5.693   3.388   6.900
 1555SOL    HW1 5564   5.739   3.338   6.827
 1555SOL    HW2 5565   5.671   3.326   6.974
 1556SOL     OW 5566   1.467   1.674   6.397
 1556SOL    HW1 5567   1.443   1.710   6.488
 1556SOL    HW2 5568   1.563   1.694   6.378
 1557SOL     OW 5569   2.397   3.382   5.658
 1557SOL    HW1 5570   2.370   3.392   5.754
 1557SOL    HW2 5571   2.443   3.294   5.646
 1558SOL     OW 5572   5.949   0.877   4.823
 1558SOL    HW1 5573   5.893   0.801   4.790
 1558SOL    HW2 5574   6.037   0.877   4.775
 1559SOL     OW 5575   1.964   3.059   6.618
 1559SOL    HW1 5576   1.880   3.111   6.631
 1559SOL    HW2 5577   1.943   2.972   6.573
 1560SOL     OW 5578   6.974   0.543   5.886
 1560SOL    HW1 5579   6.948   0.569   5.978
 1560SOL    HW2 5580   6.977   0.444   5.878
 1561SOL     OW 5581   4.919   6.348   3.535
 1561SOL    HW1 5582   4.850   6.364   3.465
 1561SOL    HW2 5583   4.984   6.279   3.503
 1562SOL     OW 5584   4.866   6.428   2.546
 1562SOL    HW1 5585   4.850   6.378   2.461
 1562SOL    HW2 5586   4.899   6.365   2.617
 1563SOL     OW 5587   2.946   0.839   5.330
 1563SOL    HW1 5588   2.923   0.744   5.312
 1563SOL    HW2 5589   2.866   0.887   5.366
 1564SOL     OW 5590   1.288   0.821   3.517
 1564SOL    HW1 5591   1.190   0.806   3.508
 1564SOL    HW2 5592   1.306   0.879   3.597
 1565SOL     OW 5593   4.490   4.478   3.306
 1565SOL    HW1 5594   4.447   4.560   3.268
 1565SOL    HW2 5595   4.485   4.404   3.239
 1566SOL     OW 5596   5.733   4.313   3.009
 1566SOL    HW1 5597   5.642   4.335   2.973
 1566SOL    HW2 5598   5.742   4.214   3.019
 1567SOL     OW 5599   6.772   6.125   0.965
 1567SOL    HW1 5600   6.726   6.163   0.884
 1567SOL    HW2 5601   6.868   6.106   0.943
 1568SOL     OW 5602   1.240   7.004   0.346
 1568SOL    HW1 5603   1.218   0.076   0.382
 1568SOL    HW2 5604   1.238   7.006   0.246
 1569SOL     OW 5605   4.599   6.152   3.213
 1569SOL    HW1 5606   4.546   6.200   3.143
 1569SOL    HW2 5607   4.573   6.186   3.304
 1570SOL     OW 5608   1.879   6.934   0.903
 1570SOL    HW1 5609   1.960   6.915   0.958
 1570SOL    HW2 5610   1.905   6.987   0.823
 1571SOL     OW 5611   5.624   3.181   0.895
 1571SOL    HW1 5612   5.570   3.111   0.943
 1571SOL    HW2 5613   5.565   3.258   0.872
 1572SOL     OW 5614   0.637   0.105   1.914
 1572SOL    HW1 5615   0.569   0.033   1.902
 1572SOL    HW2 5616   0.697   0.082   1.991
 1573SOL     OW 5617   5.003   1.698   2.163
 1573SOL    HW1 5618   4.917   1.715   2.115
 1573SOL    HW2 5619   5.000   1.742   2.252
 1574SOL     OW 5620   6.456   1.362   1.664
 1574SOL    HW1 5621   6.474   1.265   1.679
 1574SOL    HW2 5622   6.539   1.415   1.683
 1575SOL     OW 5623   2.614   1.440   0.373
 1575SOL    HW1 5624   2.703   1.396   0.377
 1575SOL    HW2 5625   2.583   1.463   0.465
 1576SOL     OW 5626   6.316   6.453   4.392
 1576SOL    HW1 5627   6.333   6.420   4.299
 1576SOL    HW2 5628   6.221   6.480   4.401
 1577SOL     OW 5629   2.753   1.906   4.192
 1577SOL    HW1 5630   2.781   1.972   4.262
 1577SOL    HW2 5631   2.834   1.873   4.144
 1578SOL     OW 5632   6.524   3.234   5.726
 1578SOL    HW1 5633   6.539   3.332   5.736
 1578SOL    HW2 5634   6.502   3.213   5.630
 1579SOL     OW 5635   0.046   1.525   3.472
 1579SOL    HW1 5636   0.138   1.498   3.504
 1579SOL    HW2 5637   7.016   1.570   3.546
 1580SOL     OW 5638   2.878   3.858   5.079
 1580SOL    HW1 5639   2.951   3.914   5.119
 1580SOL    HW2 5640   2.794   3.868   5.133
 1581SOL     OW 5641   0.010   4.762   4.483
 1581SOL    HW1 5642   6.999   4.684   4.538
 1581SOL    HW2 5643   6.958   4.783   4.415
 1582SOL     OW 5644   1.377   6.495   4.565
 1582SOL    HW1 5645   1.408   6.502   4.471
 1582SOL    HW2 5646   1.364   6.399   4.589
 1583SOL     OW 5647   1.081   2.823   4.349
 1583SOL    HW1 5648   1.033   2.847   4.434
 1583SOL    HW2 5649   1.061   2.727   4.326
 1584SOL     OW 5650   1.670   6.532   4.574
 1584SOL    HW1 5651   1.717   6.499   4.656
 1584SOL    HW2 5652   1.573   6.544   4.594
 1585SOL     OW 5653   5.620   1.797   3.456
 1585SOL    HW1 5654   5.561   1.829   3.382
 1585SOL    HW2 5655   5.685   1.729   3.420
 1586SOL     OW 5656   3.726   4.001   1.946
 1586SOL    HW1 5657   3.757   4.089   1.911
 1586SOL    HW2 5658   3.803   3.952   1.987
 1587SOL     OW 5659   2.842   5.000   6.978
 1587SOL    HW1 5660   2.887   5.033   6.895
 1587SOL    HW2 5661   2.858   4.902   6.989
 1588SOL     OW 5662   4.481   1.511   3.584
 1588SOL    HW1 5663   4.493   1.412   3.572
 1588SOL    HW2 5664   4.479   1.533   3.681
 1589SOL     OW 5665   5.495   4.084   3.431
 1589SOL    HW1 5666   5.537   4.093   3.341
 1589SOL    HW2 5667   5.486   4.174   3.473
 1590SOL     OW 5668   1.968   0.004   5.886
 1590SOL    HW1 5669   1.911   6.984   5.959
 1590SOL    HW2 5670   1.991   0.099   5.909
 1591SOL     OW 5671   1.584   5.009   3.132
 1591SOL    HW1 5672   1.550   5.084   3.076
 1591SOL    HW2 5673   1.528   5.000   3.214
 1592SOL     OW 5674   2.304   4.161   1.820
 1592SOL    HW1 5675   2.204   4.174   1.820
 1592SOL    HW2 5676   2.343   4.202   1.902
 1593SOL     OW 5677   0.906   6.529   3.641
 1593SOL    HW1 5678   0.826   6.477   3.670
 1593SOL    HW2 5679   0.887   6.627   3.648
 1594SOL     OW 5680   0.603   4.718   3.117
 1594SOL    HW1 5681   0.693   4.699   3.078
 1594SOL    HW2 5682   0.590   4.817   3.122
 1595SOL     OW 5683   0.400   4.725   6.179
 1595SOL    HW1 5684   0.432   4.685   6.264
 1595SOL    HW2 5685   0.444   4.679   6.101
 1596SOL     OW 5686   1.259   3.610   5.696
 1596SOL    HW1 5687   1.255   3.632   5.599
 1596SOL    HW2 5688   1.352   3.621   5.730
 1597SOL     OW 5689   2.790   5.463   0.566
 1597SOL    HW1 5690   2.788   5.411   0.481
 1597SOL    HW2 5691   2.872   5.440   0.618
 1598SOL     OW 5692   0.410   3.997   0.440
 1598SOL    HW1 5693   0.484   3.931   0.453
 1598SOL    HW2 5694   0.428   4.077   0.498
 1599SOL     OW 5695   4.545   3.683   5.648
 1599SOL    HW1 5696   4.550   3.679   5.748
 1599SOL    HW2 5697   4.473   3.620   5.616
 1600SOL     OW 5698   5.097   2.218   4.741
 1600SOL    HW1 5699   5.048   2.292   4.788
 1600SOL    HW2 5700   5.113   2.244   4.646
 1601SOL     OW 5701   0.809   5.140   4.870
 1601SOL    HW1 5702   0.830   5.065   4.933
 1601SOL    HW2 5703   0.893   5.170   4.825
 1602SOL     OW 5704   2.076   5.458   4.257
 1602SOL    HW1 5705   2.100   5.526   4.188
 1602SOL    HW2 5706   2.075   5.367   4.214
 1603SOL     OW 5707   1.285   6.306   1.922
 1603SOL    HW1 5708   1.328   6.217   1.908
 1603SOL    HW2 5709   1.185   6.295   1.916
 1604SOL     OW 5710   5.466   5.044   6.859
 1604SOL    HW1 5711   5.390   4.984   6.836
 1604SOL    HW2 5712   5.521   5.002   6.931
 1605SOL     OW 5713   6.566   0.241   1.875
 1605SOL    HW1 5714   6.602   0.312   1.814
 1605SOL    HW2 5715   6.493   0.279   1.931
 1606SOL     OW 5716   4.393   0.771   5.192
 1606SOL    HW1 5717   4.340   0.770   5.107
 1606SOL    HW2 5718   4.487   0.797   5.173
 1607SOL     OW 5719   5.191   2.759   1.175
 1607SOL    HW1 5720   5.232   2.850   1.160
 1607SOL    HW2 5721   5.164   2.751   1.271
 1608SOL     OW 5722   1.496   0.454   5.708
 1608SOL    HW1 5723   1.406   0.420   5.735
 1608SOL    HW2 5724   1.566   0.389   5.738
 1609SOL     OW 5725   5.323   1.506   6.369
 1609SOL    HW1 5726   5.271   1.421   6.358
 1609SOL    HW2 5727   5.317   1.538   6.463
 1610SOL     OW 5728   5.239   4.320   5.242
 1610SOL    HW1 5729   5.333   4.332   5.212
 1610SOL    HW2 5730   5.214   4.224   5.236
 1611SOL     OW 5731   3.981   3.576   2.011
 1611SOL    HW1 5732   4.015   3.486   1.984
 1611SOL    HW2 5733   4.055   3.643   2.006
 1612SOL     OW 5734   2.722   0.981   5.401
 1612SOL    HW1 5735   2.634   0.965   5.446
 1612SOL    HW2 5736   2.726   1.074   5.366
 1613SOL     OW 5737   2.408   5.851   1.103
 1613SOL    HW1 5738   2.362   5.835   1.190
 1613SOL    HW2 5739   2.341   5.846   1.029
 1614SOL     OW 5740   6.626   4.100   0.356
 1614SOL    HW1 5741   6.689   4.176   0.338
 1614SOL    HW2 5742   6.567   4.123   0.434
 1615SOL     OW 5743   6.486   4.667   1.406
 1615SOL    HW1 5744   6.448   4.666   1.498
 1615SOL    HW2 5745   6.541   4.750   1.394
 1616SOL     OW 5746   4.705   1.783   5.973
 1616SOL    HW1 5747   4.666   1.691   5.967
 1616SOL    HW2 5748   4.668   1.839   5.899
 1617SOL     OW 5749   6.003   6.922   1.832
 1617SOL    HW1 5750   6.012   7.012   1.790
 1617SOL    HW2 5751   6.043   6.853   1.772
 1618SOL     OW 5752   0.480   3.981   1.029
 1618SOL    HW1 5753   0.469   4.056   0.963
 1618SOL    HW2 5754   0.558   3.925   1.002
 1619SOL     OW 5755   1.609   2.797   4.334
 1619SOL    HW1 5756   1.622   2.807   4.433
 1619SOL    HW2 5757   1.697   2.778   4.291
 1620SOL     OW 5758   2.157   5.633   0.718
 1620SOL    HW1 5759   2.130   5.593   0.631
 1620SOL    HW2 5760   2.076   5.663   0.768
 1621SOL     OW 5761   0.565   0.922   0.051
 1621SOL    HW1 5762   0.618   0.996   0.092
 1621SOL    HW2 5763   0.628   0.849   0.021
 1622SOL     OW 5764   1.478   2.151   4.925
 1622SOL    HW1 5765   1.434   2.063   4.943
 1622SOL    HW2 5766   1.577   2.138   4.919
 1623SOL     OW 5767   2.344   2.851   6.066
 1623SOL    HW1 5768   2.301   2.932   6.106
 1623SOL    HW2 5769   2.394   2.802   6.137
 1624SOL     OW 5770   2.452   0.756   6.400
 1624SOL    HW1 5771   2.459   0.856   6.399
 1624SOL    HW2 5772   2.526   0.717   6.345
 1625SOL     OW 5773   1.591   5.132   2.845
 1625SOL    HW1 5774   1.613   5.169   2.754
 1625SOL    HW2 5775   1.586   5.208   2.911
 1626SOL     OW 5776   2.123   1.774   6.591
 1626SOL    HW1 5777   2.190   1.733   6.530
 1626SOL    HW2 5778   2.167   1.797   6.678
 1627SOL     OW 5779   0.061   1.891   4.206
 1627SOL    HW1 5780   0.040   1.855   4.297
 1627SOL    HW2 5781   7.009   1.955   4.179
 1628SOL     OW 5782   4.276   5.082   6.707
 1628SOL    HW1 5783   4.294   5.061   6.803
 1628SOL    HW2 5784   4.177   5.078   6.690
 1629SOL     OW 5785   2.802   2.347   4.030
 1629SOL    HW1 5786   2.784   2.304   4.118
 1629SOL    HW2 5787   2.888   2.312   3.993
 1630SOL     OW 5788   0.958   6.336   5.662
 1630SOL    HW1 5789   0.894   6.307   5.733
 1630SOL    HW2 5790   0.913   6.329   5.572
 1631SOL     OW 5791   6.709   0.504   5.686
 1631SOL    HW1 5792   6.625   0.504   5.740
 1631SOL    HW2 5793   6.785   0.473   5.743
 1632SOL     OW 5794   0.091   1.108   6.849
 1632SOL    HW1 5795   0.061   1.201   6.825
 1632SOL    HW2 5796   0.074   1.092   6.946
 1633SOL     OW 5797   5.368   2.510   2.881
 1633SOL    HW1 5798   5.424   2.475   2.957
 1633SOL    HW2 5799   5.391   2.606   2.865
 1634SOL     OW 5800   4.486   5.915   5.712
 1634SOL    HW1 5801   4.494   5.864   5.797
 1634SOL    HW2 5802   4.396   5.899   5.672
 1635SOL     OW 5803   6.155   5.548   4.978
 1635SOL    HW1 5804   6.107   5.588   5.057
 1635SOL    HW2 5805   6.094   5.547   4.899
 1636SOL     OW 5806   2.180   4.494   1.486
 1636SOL    HW1 5807   2.275   4.525   1.477
 1636SOL    HW2 5808   2.119   4.573   1.479
 1637SOL     OW 5809   6.649   1.703   2.995
 1637SOL    HW1 5810   6.673   1.607   2.978
 1637SOL    HW2 5811   6.718   1.763   2.954
 1638SOL     OW 5812   0.365   3.717   4.200
 1638SOL    HW1 5813   0.446   3.676   4.158
 1638SOL    HW2 5814   0.322   3.780   4.136
 1639SOL     OW 5815   5.230   6.233   2.453
 1639SOL    HW1 5816   5.213   6.318   2.403
 1639SOL    HW2 5817   5.186   6.157   2.405
 1640SOL     OW 5818   6.005   1.830   0.439
 1640SOL    HW1 5819   5.911   1.810   0.466
 1640SOL    HW2 5820   6.005   1.871   0.347
 1641SOL     OW 5821   6.118   2.768   3.848
 1641SOL    HW1 5822   6.088   2.741   3.756
 1641SOL    HW2 5823   6.060   2.842   3.881
 1642SOL     OW 5824   6.675   3.156   0.105
 1642SOL    HW1 5825   6.655   3.247   0.140
 1642SOL    HW2 5826   6.589   3.110   0.080
 1643SOL     OW 5827   3.435   6.216   4.447
 1643SOL    HW1 5828   3.440   6.117   4.436
 1643SOL    HW2 5829   3.452   6.261   4.359
 1644SOL     OW 5830   2.257   2.500   1.288
 1644SOL    HW1 5831   2.212   2.587   1.270
 1644SOL    HW2 5832   2.352   2.516   1.313
 1645SOL     OW 5833   3.345   6.611   5.192
 1645SOL    HW1 5834   3.315   6.620   5.097
 1645SOL    HW2 5835   3.276   6.564   5.245
 1646SOL     OW 5836   3.057   5.169   1.217
 1646SOL    HW1 5837   2.993   5.245   1.208
 1646SOL    HW2 5838   3.012   5.083   1.194
 1647SOL     OW 5839   5.542   2.485   4.255
 1647SOL    HW1 5840   5.508   2.482   4.349
 1647SOL    HW2 5841   5.466   2.506   4.193
 1648SOL     OW 5842   5.445   6.398   1.697
 1648SOL    HW1 5843   5.513   6.401   1.771
 1648SOL    HW2 5844   5.478   6.453   1.620
 1649SOL     OW 5845   3.287   0.647   3.263
 1649SOL    HW1 5846   3.387   0.643   3.256
 1649SOL    HW2 5847   3.260   0.732   3.309
 1650SOL     OW 5848   3.173   6.874   4.152
 1650SOL    HW1 5849   3.211   6.798   4.204
 1650SOL    HW2 5850   3.123   6.838   4.073
 1651SOL     OW 5851   0.783   0.593   1.179
 1651SOL    HW1 5852   0.848   0.545   1.120
 1651SOL    HW2 5853   0.820   0.682   1.204
 1652SOL     OW 5854   1.705   1.922   1.037
 1652SOL    HW1 5855   1.770   1.985   1.080
 1652SOL    HW2 5856   1.755   1.845   0.996
 1653SOL     OW 5857   0.516   5.481   1.382
 1653SOL    HW1 5858   0.531   5.559   1.443
 1653SOL    HW2 5859   0.421   5.451   1.388
 1654SOL     OW 5860   0.057   3.172   2.242
 1654SOL    HW1 5861   0.018   3.226   2.168
 1654SOL    HW2 5862   0.152   3.150   2.221
 1655SOL     OW 5863   5.545   3.797   5.911
 1655SOL    HW1 5864   5.499   3.746   5.984
 1655SOL    HW2 5865   5.584   3.881   5.948
 1656SOL     OW 5866   1.881   4.204   3.192
 1656SOL    HW1 5867   1.896   4.245   3.102
 1656SOL    HW2 5868   1.963   4.214   3.248
 1657SOL     OW 5869   0.619   1.392   5.301
 1657SOL    HW1 5870   0.678   1.454   5.249
 1657SOL    HW2 5871   0.527   1.392   5.260
 1658SOL     OW 5872   6.851   6.988   2.912
 1658SOL    HW1 5873   6.801   6.904   2.932
 1658SOL    HW2 5874   6.940   6.964   2.872
 1659SOL     OW 5875   3.491   1.927   6.281
 1659SOL    HW1 5876   3.517   1.999   6.217
 1659SOL    HW2 5877   3.414   1.960   6.337
 1660SOL     OW 5878   1.370   5.720   3.936
 1660SOL    HW1 5879   1.465   5.698   3.958
 1660SOL    HW2 5880   1.340   5.662   3.860
 1661SOL     OW 5881   3.589   1.602   1.581
 1661SOL    HW1 5882   3.546   1.519   1.617
 1661SOL    HW2 5883   3.677   1.617   1.627
 1662SOL     OW 5884   6.050   1.234   3.472
 1662SOL    HW1 5885   6.097   1.294   3.407
 1662SOL    HW2 5886   6.027   1.286   3.554
 1663SOL     OW 5887   2.403   0.621   3.133
 1663SOL    HW1 5888   2.376   0.697   3.073
 1663SOL    HW2 5889   2.449   0.657   3.214
 1664SOL     OW 5890   2.014   0.316   4.057
 1664SOL    HW1 5891   2.102   0.362   4.068
 1664SOL    HW2 5892   1.950   0.379   4.012
 1665SOL     OW 5893   6.875   1.461   3.281
 1665SOL    HW1 5894   6.898   1.379   3.229
 1665SOL    HW2 5895   6.949   1.482   3.345
 1666SOL     OW 5896   6.027   2.689   0.479
 1666SOL    HW1 5897   6.057   2.625   0.409
 1666SOL    HW2 5898   6.064   2.661   0.568
 1667SOL     OW 5899   5.372   6.942   0.268
 1667SOL    HW1 5900   5.462   6.916   0.301
 1667SOL    HW2 5901   5.365   0.023   0.266
 1668SOL     OW 5902   4.931   6.676   4.934
 1668SOL    HW1 5903   5.025   6.710   4.933
 1668SOL    HW2 5904   4.875   6.734   4.994
 1669SOL     OW 5905   6.300   6.550   0.396
 1669SOL    HW1 5906   6.252   6.637   0.390
 1669SOL    HW2 5907   6.393   6.561   0.361
 1670SOL     OW 5908   6.785   5.733   5.935
 1670SOL    HW1 5909   6.838   5.695   5.859
 1670SOL    HW2 5910   6.701   5.774   5.899
 1671SOL     OW 5911   4.097   2.434   1.108
 1671SOL    HW1 5912   4.123   2.363   1.173
 1671SOL    HW2 5913   4.054   2.511   1.156
 1672SOL     OW 5914   2.123   3.764   2.684
 1672SOL    HW1 5915   2.156   3.777   2.591
 1672SOL    HW2 5916   2.184   3.811   2.748
 1673SOL     OW 5917   0.662   2.610   4.727
 1673SOL    HW1 5918   0.700   2.607   4.819
 1673SOL    HW2 5919   0.576   2.558   4.725
 1674SOL     OW 5920   1.645   3.674   1.727
 1674SOL    HW1 5921   1.729   3.713   1.764
 1674SOL    HW2 5922   1.661   3.579   1.700
 1675SOL     OW 5923   4.846   0.322   6.416
 1675SOL    HW1 5924   4.782   0.314   6.340
 1675SOL    HW2 5925   4.847   0.417   6.448
 1676SOL     OW 5926   2.796   1.738   2.767
 1676SOL    HW1 5927   2.798   1.827   2.722
 1676SOL    HW2 5928   2.874   1.683   2.737
 1677SOL     OW 5929   4.696   2.148   5.381
 1677SOL    HW1 5930   4.751   2.215   5.331
 1677SOL    HW2 5931   4.655   2.083   5.317
 1678SOL     OW 5932   5.738   4.539   4.228
 1678SOL    HW1 5933   5.734   4.493   4.139
 1678SOL    HW2 5934   5.687   4.625   4.222
 1679SOL     OW 5935   1.683   3.622   5.523
 1679SOL    HW1 5936   1.664   3.583   5.433
 1679SOL    HW2 5937   1.781   3.637   5.533
 1680SOL     OW 5938   0.795   1.192   4.201
 1680SOL    HW1 5939   0.879   1.245   4.212
 1680SOL    HW2 5940   0.816   1.106   4.153
 1681SOL     OW 5941   6.623   5.605   1.398
 1681SOL    HW1 5942   6.565   5.550   1.458
 1681SOL    HW2 5943   6.599   5.587   1.302
 1682SOL     OW 5944   0.258   2.829   5.055
 1682SOL    HW1 5945   0.195   2.867   4.987
 1682SOL    HW2 5946   0.351   2.838   5.022
 1683SOL     OW 5947   4.268   4.825   0.626
 1683SOL    HW1 5948   4.304   4.814   0.718
 1683SOL    HW2 5949   4.195   4.759   0.610
 1684SOL     OW 5950   1.278   6.230   3.607
 1684SOL    HW1 5951   1.237   6.225   3.516
 1684SOL    HW2 5952   1.223   6.178   3.672
 1685SOL     OW 5953   1.792   1.139   6.502
 1685SOL    HW1 5954   1.858   1.183   6.441
 1685SOL    HW2 5955   1.732   1.080   6.449
 1686SOL     OW 5956   1.793   4.998   5.706
 1686SOL    HW1 5957   1.868   5.052   5.743
 1686SOL    HW2 5958   1.776   4.919   5.765
 1687SOL     OW 5959   2.013   2.830   1.858
 1687SOL    HW1 5960   2.057   2.915   1.828
 1687SOL    HW2 5961   2.065   2.791   1.934
 1688SOL     OW 5962   1.307   1.645   3.289
 1688SOL    HW1 5963   1.311   1.683   3.382
 1688SOL    HW2 5964   1.331   1.548   3.291
 1689SOL     OW 5965   3.457   1.145   1.916
 1689SOL    HW1 5966   3.501   1.176   2.000
 1689SOL    HW2 5967   3.503   1.064   1.881
 1690SOL     OW 5968   1.612   2.499   3.487
 1690SOL    HW1 5969   1.525   2.494   3.437
 1690SOL    HW2 5970   1.649   2.592   3.480
 1691SOL     OW 5971   4.922   4.190   3.271
 1691SOL    HW1 5972   4.881   4.123   3.209
 1691SOL    HW2 5973   4.856   4.215   3.342
 1692SOL     OW 5974   6.952   0.142   1.285
 1692SOL    HW1 5975   6.885   0.078   1.322
 1692SOL    HW2 5976   7.013   0.095   1.222
 1693SOL     OW 5977   1.973   2.813   3.091
 1693SOL    HW1 5978   1.949   2.903   3.055
 1693SOL    HW2 5979   2.036   2.823   3.167
 1694SOL     OW 5980   4.070   6.161   3.954
 1694SOL    HW1 5981   4.142   6.133   3.891
 1694SOL    HW2 5982   3.986   6.110   3.933
 1695SOL     OW 5983   2.502   1.723   4.512
 1695SOL    HW1 5984   2.408   1.730   4.478
 1695SOL    HW2 5985   2.565   1.711   4.435
 1696SOL     OW 5986   5.103   5.161   0.728
 1696SOL    HW1 5987   5.187   5.150   0.781
 1696SOL    HW2 5988   5.059   5.247   0.754
 1697SOL     OW 5989   0.527   6.740   1.216
 1697SOL    HW1 5990   0.590   6.768   1.288
 1697SOL    HW2 5991   0.434   6.739   1.252
 1698SOL     OW 5992   4.589   1.843   1.355
 1698SOL    HW1 5993   4.494   1.829   1.329
 1698SOL    HW2 5994   4.644   1.861   1.274
 1699SOL     OW 5995   2.803   1.941   1.647
 1699SOL    HW1 5996   2.736   2.015   1.636
 1699SOL    HW2 5997   2.854   1.954   1.732
 1700SOL     OW 5998   6.573   2.059   3.547
 1700SOL    HW1 5999   6.588   2.122   3.471
 1700SOL    HW2 6000   6.486   2.011   3.534
 1701SOL     OW 6001   5.669   2.808   4.580
 1701SOL    HW1 6002   5.722   2.723   4.584
 1701SOL    HW2 6003   5.592   2.796   4.518
 1702SOL     OW 6004   6.191   3.817   0.663
 1702SOL    HW1 6005   6.147   3.733   0.632
 1702SOL    HW2 6006   6.186   3.823   0.763
 1703SOL     OW 6007   3.255   4.051   2.495
 1703SOL    HW1 6008   3.352   4.058   2.520
 1703SOL    HW2 6009   3.240   4.099   2.408
 1704SOL     OW 6010   0.293   1.115   0.789
 1704SOL    HW1 6011   0.215   1.088   0.733
 1704SOL    HW2 6012   0.301   1.053   0.867
 1705SOL     OW 6013   3.287   2.043   1.870
 1705SOL    HW1 6014   3.273   2.141   1.853
 1705SOL    HW2 6015   3.378   2.029   1.910
 1706SOL     OW 6016   3.775   6.968   1.519
 1706SOL    HW1 6017   3.871   6.998   1.521
 1706SOL    HW2 6018   3.724   0.006   1.453
 1707SOL     OW 6019   3.879   1.521   1.765
 1707SOL    HW1 6020   3.882   1.449   1.696
 1707SOL    HW2 6021   3.824   1.490   1.843
 1708SOL     OW 6022   5.943   6.178   3.013
 1708SOL    HW1 6023   5.964   6.163   2.916
 1708SOL    HW2 6024   6.015   6.234   3.054
 1709SOL     OW 6025   2.679   6.862   1.536
 1709SOL    HW1 6026   2.687   6.955   1.500
 1709SOL    HW2 6027   2.659   6.799   1.462
 1710SOL     OW 6028   7.004   4.155   3.508
 1710SOL    HW1 6029   6.955   4.208   3.577
 1710SOL    HW2 6030   7.009   4.207   3.423
 1711SOL     OW 6031   1.471   4.530   5.035
 1711SOL    HW1 6032   1.554   4.501   5.081
 1711SOL    HW2 6033   1.493   4.559   4.942
 1712SOL     OW 6034   0.510   3.778   6.480
 1712SOL    HW1 6035   0.588   3.721   6.505
 1712SOL    HW2 6036   0.491   3.842   6.555
 1713SOL     OW 6037   2.492   1.976   1.217
 1713SOL    HW1 6038   2.417   2.035   1.247
 1713SOL    HW2 6039   2.544   1.947   1.297
 1714SOL     OW 6040   3.856   1.906   6.355
 1714SOL    HW1 6041   3.776   1.875   6.406
 1714SOL    HW2 6042   3.846   1.879   6.259
 1715SOL     OW 6043   7.017   3.302   2.872
 1715SOL    HW1 6044   0.036   3.238   2.804
 1715SOL    HW2 6045   6.927   3.332   2.842
 1716SOL     OW 6046   5.765   6.472   1.585
 1716SOL    HW1 6047   5.676   6.490   1.543
 1716SOL    HW2 6048   5.820   6.417   1.521
 1717SOL     OW 6049   2.679   6.260   6.469
 1717SOL    HW1 6050   2.652   6.356   6.463
 1717SOL    HW2 6051   2.671   6.217   6.379
 1718SOL     OW 6052   1.713   2.385   0.454
 1718SOL    HW1 6053   1.663   2.310   0.412
 1718SOL    HW2 6054   1.682   2.398   0.548
 1719SOL     OW 6055   2.375   3.892   1.370
 1719SOL    HW1 6056   2.284   3.890   1.412
 1719SOL    HW2 6057   2.368   3.857   1.276
 1720SOL     OW 6058   6.379   1.853   1.537
 1720SOL    HW1 6059   6.351   1.927   1.477
 1720SOL    HW2 6060   6.474   1.868   1.567
 1721SOL     OW 6061   1.199   6.690   2.442
 1721SOL    HW1 6062   1.152   6.607   2.413
 1721SOL    HW2 6063   1.280   6.704   2.386
 1722SOL     OW 6064   4.860   1.036   3.231
 1722SOL    HW1 6065   4.832   1.076   3.318
 1722SOL    HW2 6066   4.913   1.103   3.179
 1723SOL     OW 6067   6.729   1.919   3.753
 1723SOL    HW1 6068   6.787   1.876   3.684
 1723SOL    HW2 6069   6.672   1.989   3.710
 1724SOL     OW 6070   5.807   1.077   0.599
 1724SOL    HW1 6071   5.763   1.090   0.688
 1724SOL    HW2 6072   5.896   1.033   0.611
 1725SOL     OW 6073   3.337   4.425   0.379
 1725SOL    HW1 6074   3.290   4.345   0.417
 1725SOL    HW2 6075   3.392   4.469   0.450
 1726SOL     OW 6076   6.746   4.509   4.414
 1726SOL    HW1 6077   6.747   4.448   4.335
 1726SOL    HW2 6078   6.698   4.593   4.391
 1727SOL     OW 6079   3.648   2.913   4.004
 1727SOL    HW1 6080   3.635   2.999   4.053
 1727SOL    HW2 6081   3.594   2.841   4.048
 1728SOL     OW 6082   5.117   4.521   4.280
 1728SOL    HW1 6083   5.140   4.533   4.377
 1728SOL    HW2 6084   5.166   4.590   4.227
 1729SOL     OW 6085   1.943   4.021   3.643
 1729SOL    HW1 6086   1.863   3.986   3.594
 1729SOL    HW2 6087   1.913   4.071   3.724
 1730SOL     OW 6088   6.729   0.640   5.176
 1730SOL    HW1 6089   6.768   0.590   5.253
 1730SOL    HW2 6090   6.657   0.701   5.209
 1731SOL     OW 6091   1.127   5.133   2.549
 1731SOL    HW1 6092   1.144   5.047   2.500
 1731SOL    HW2 6093   1.189   5.204   2.514
 1732SOL     OW 6094   1.871   4.088   6.392
 1732SOL    HW1 6095   1.948   4.130   6.345
 1732SOL    HW2 6096   1.878   4.104   6.490
 1733SOL     OW 6097   2.029   3.361   2.402
 1733SOL    HW1 6098   2.045   3.307   2.319
 1733SOL    HW2 6099   2.093   3.331   2.474
 1734SOL     OW 6100   4.485   3.067   1.646
 1734SOL    HW1 6101   4.537   3.030   1.723
 1734SOL    HW2 6102   4.433   2.994   1.602
 1735SOL     OW 6103   5.819   5.687   1.780
 1735SOL    HW1 6104   5.818   5.643   1.869
 1735SOL    HW2 6105   5.737   5.742   1.768
 1736SOL     OW 6106   4.957   2.271   0.259
 1736SOL    HW1 6107   5.031   2.307   0.203
 1736SOL    HW2 6108   4.897   2.213   0.203
 1737SOL     OW 6109   3.082   0.210   3.814
 1737SOL    HW1 6110   3.176   0.212   3.848
 1737SOL    HW2 6111   3.019   0.205   3.891
 1738SOL     OW 6112   2.086   2.680   3.918
 1738SOL    HW1 6113   2.015   2.611   3.934
 1738SOL    HW2 6114   2.173   2.646   3.955
 1739SOL     OW 6115   4.724   2.728   5.107
 1739SOL    HW1 6116   4.640   2.734   5.160
 1739SOL    HW2 6117   4.705   2.686   5.019
 1740SOL     OW 6118   0.196   0.867   6.739
 1740SOL    HW1 6119   0.290   0.896   6.754
 1740SOL    HW2 6120   0.134   0.941   6.769
 1741SOL     OW 6121   2.468   1.320   2.592
 1741SOL    HW1 6122   2.566   1.337   2.597
 1741SOL    HW2 6123   2.418   1.398   2.630
 1742SOL     OW 6124   3.918   5.855   5.849
 1742SOL    HW1 6125   4.017   5.851   5.843
 1742SOL    HW2 6126   3.882   5.767   5.879
 1743SOL     OW 6127   2.097   1.421   2.551
 1743SOL    HW1 6128   2.184   1.412   2.502
 1743SOL    HW2 6129   2.033   1.475   2.495
 1744SOL     OW 6130   1.348   7.014   1.867
 1744SOL    HW1 6131   1.346   6.998   1.768
 1744SOL    HW2 6132   1.429   0.048   1.890
 1745SOL     OW 6133   6.603   1.605   4.529
 1745SOL    HW1 6134   6.651   1.569   4.450
 1745SOL    HW2 6135   6.668   1.622   4.603
 1746SOL     OW 6136   2.333   5.600   5.661
 1746SOL    HW1 6137   2.243   5.589   5.704
 1746SOL    HW2 6138   2.321   5.617   5.564
 1747SOL     OW 6139   5.093   6.787   2.713
 1747SOL    HW1 6140   5.166   6.856   2.717
 1747SOL    HW2 6141   5.115   6.712   2.775
 1748SOL     OW 6142   6.598   0.926   3.996
 1748SOL    HW1 6143   6.542   0.934   4.079
 1748SOL    HW2 6144   6.695   0.928   4.020
 1749SOL     OW 6145   3.373   6.304   5.475
 1749SOL    HW1 6146   3.440   6.319   5.549
 1749SOL    HW2 6147   3.285   6.341   5.502
 1750SOL     OW 6148   4.979   1.383   3.342
 1750SOL    HW1 6149   4.961   1.411   3.247
 1750SOL    HW2 6150   4.907   1.419   3.401
 1751SOL     OW 6151   3.013   4.974   4.574
 1751SOL    HW1 6152   3.038   5.012   4.664
 1751SOL    HW2 6153   2.934   4.915   4.585
 1752SOL     OW 6154   6.736   2.613   1.624
 1752SOL    HW1 6155   6.685   2.682   1.674
 1752SOL    HW2 6156   6.830   2.608   1.658
 1753SOL     OW 6157   0.559   1.316   0.297
 1753SOL    HW1 6158   0.612   1.361   0.369
 1753SOL    HW2 6159   0.488   1.259   0.338
 1754SOL     OW 6160   3.616   3.213   0.707
 1754SOL    HW1 6161   3.568   3.299   0.726
 1754SOL    HW2 6162   3.550   3.138   0.703
 1755SOL     OW 6163   5.682   5.168   1.936
 1755SOL    HW1 6164   5.596   5.177   1.986
 1755SOL    HW2 6165   5.663   5.153   1.839
 1756SOL     OW 6166   5.523   4.446   5.226
 1756SOL    HW1 6167   5.605   4.458   5.169
 1756SOL    HW2 6168   5.549   4.449   5.322
 1757SOL     OW 6169   2.052   6.719   4.615
 1757SOL    HW1 6170   2.074   6.804   4.567
 1757SOL    HW2 6171   1.963   6.728   4.659
 1758SOL     OW 6172   2.485   0.685   3.986
 1758SOL    HW1 6173   2.434   0.769   3.965
 1758SOL    HW2 6174   2.432   0.605   3.960
 1759SOL     OW 6175   0.288   5.543   6.443
 1759SOL    HW1 6176   0.282   5.453   6.486
 1759SOL    HW2 6177   0.223   5.548   6.367
 1760SOL     OW 6178   6.064   1.718   1.391
 1760SOL    HW1 6179   6.054   1.621   1.370
 1760SOL    HW2 6180   6.122   1.761   1.322
 1761SOL     OW 6181   6.782   0.174   0.536
 1761SOL    HW1 6182   6.881   0.167   0.526
 1761SOL    HW2 6183   6.760   0.247   0.601
 1762SOL     OW 6184   6.453   1.930   5.365
 1762SOL    HW1 6185   6.428   1.838   5.335
 1762SOL    HW2 6186   6.511   1.925   5.446
 1763SOL     OW 6187   1.494   4.191   4.019
 1763SOL    HW1 6188   1.583   4.168   4.059
 1763SOL    HW2 6189   1.440   4.108   4.008
 1764SOL     OW 6190   1.889   3.616   2.688
 1764SOL    HW1 6191   1.967   3.675   2.665
 1764SOL    HW2 6192   1.914   3.553   2.761
 1765SOL     OW 6193   3.472   1.936   6.726
 1765SOL    HW1 6194   3.451   1.861   6.789
 1765SOL    HW2 6195   3.571   1.947   6.718
 1766SOL     OW 6196   5.107   2.841   4.072
 1766SOL    HW1 6197   5.146   2.915   4.126
 1766SOL    HW2 6198   5.118   2.860   3.975
 1767SOL     OW 6199   4.963   3.903   2.890
 1767SOL    HW1 6200   4.973   3.996   2.854
 1767SOL    HW2 6201   5.007   3.898   2.980
 1768SOL     OW 6202   3.996   0.854   5.134
 1768SOL    HW1 6203   3.965   0.815   5.047
 1768SOL    HW2 6204   3.980   0.953   5.133
 1769SOL     OW 6205   4.218   2.273   4.232
 1769SOL    HW1 6206   4.250   2.275   4.137
 1769SOL    HW2 6207   4.293   2.299   4.293
 1770SOL     OW 6208   1.948   5.999   5.287
 1770SOL    HW1 6209   1.906   6.082   5.251
 1770SOL    HW2 6210   1.896   5.968   5.367
 1771SOL     OW 6211   2.706   5.422   6.763
 1771SOL    HW1 6212   2.791   5.460   6.729
 1771SOL    HW2 6213   2.713   5.407   6.862
 1772SOL     OW 6214   3.233   6.659   3.644
 1772SOL    HW1 6215   3.177   6.590   3.690
 1772SOL    HW2 6216   3.208   6.663   3.547
 1773SOL     OW 6217   2.242   4.971   5.982
 1773SOL    HW1 6218   2.276   4.924   6.063
 1773SOL    HW2 6219   2.315   4.978   5.914
 1774SOL     OW 6220   4.499   5.989   1.485
 1774SOL    HW1 6221   4.560   6.047   1.431
 1774SOL    HW2 6222   4.542   5.900   1.499
 1775SOL     OW 6223   1.723   4.347   3.385
 1775SOL    HW1 6224   1.707   4.293   3.468
 1775SOL    HW2 6225   1.806   4.314   3.339
 1776SOL     OW 6226   2.924   6.770   3.642
 1776SOL    HW1 6227   2.971   6.834   3.581
 1776SOL    HW2 6228   2.946   6.676   3.616
 1777SOL     OW 6229   3.795   5.204   5.773
 1777SOL    HW1 6230   3.859   5.167   5.705
 1777SOL    HW2 6231   3.702   5.190   5.741
 1778SOL     OW 6232   4.256   3.419   5.648
 1778SOL    HW1 6233   4.239   3.363   5.729
 1778SOL    HW2 6234   4.170   3.438   5.602
 1779SOL     OW 6235   4.540   1.249   4.607
 1779SOL    HW1 6236   4.624   1.198   4.623
 1779SOL    HW2 6237   4.527   1.316   4.680
 1780SOL     OW 6238   3.664   3.082   6.601
 1780SOL    HW1 6239   3.625   3.161   6.554
 1780SOL    HW2 6240   3.594   3.012   6.613
 1781SOL     OW 6241   4.188   5.709   3.479
 1781SOL    HW1 6242   4.164   5.765   3.558
 1781SOL    HW2 6243   4.288   5.699   3.475
 1782SOL     OW 6244   3.114   1.883   2.412
 1782SOL    HW1 6245   3.174   1.954   2.374
 1782SOL    HW2 6246   3.019   1.906   2.392
 1783SOL     OW 6247   1.527   5.069   6.193
 1783SOL    HW1 6248   1.569   4.979   6.205
 1783SOL    HW2 6249   1.487   5.077   6.102
 1784SOL     OW 6250   4.249   1.265   5.907
 1784SOL    HW1 6251   4.221   1.355   5.938
 1784SOL    HW2 6252   4.213   1.248   5.815
 1785SOL     OW 6253   6.138   4.014   3.355
 1785SOL    HW1 6254   6.236   4.006   3.334
 1785SOL    HW2 6255   6.087   4.032   3.271
 1786SOL     OW 6256   1.989   2.461   0.069
 1786SOL    HW1 6257   1.968   2.417   0.156
 1786SOL    HW2 6258   2.086   2.483   0.064
 1787SOL     OW 6259   3.331   0.898   4.994
 1787SOL    HW1 6260   3.266   0.974   5.002
 1787SOL    HW2 6261   3.394   0.916   4.919
 1788SOL     OW 6262   2.957   2.843   0.035
 1788SOL    HW1 6263   2.957   2.785   0.116
 1788SOL    HW2 6264   2.874   2.827   7.001
 1789SOL     OW 6265   6.003   1.934   3.123
 1789SOL    HW1 6266   6.062   1.936   3.042
 1789SOL    HW2 6267   6.056   1.964   3.203
 1790SOL     OW 6268   3.995   5.765   3.945
 1790SOL    HW1 6269   4.015   5.732   4.037
 1790SOL    HW2 6270   4.081   5.788   3.899
 1791SOL     OW 6271   5.666   0.839   3.279
 1791SOL    HW1 6272   5.611   0.893   3.344
 1791SOL    HW2 6273   5.743   0.894   3.247
 1792SOL     OW 6274   6.721   3.374   4.685
 1792SOL    HW1 6275   6.661   3.387   4.764
 1792SOL    HW2 6276   6.811   3.414   4.705
 1793SOL     OW 6277   6.153   6.768   3.444
 1793SOL    HW1 6278   6.093   6.718   3.507
 1793SOL    HW2 6279   6.234   6.799   3.493
 1794SOL     OW 6280   5.338   6.059   5.800
 1794SOL    HW1 6281   5.308   5.977   5.849
 1794SOL    HW2 6282   5.261   6.121   5.786
 1795SOL     OW 6283   0.878   1.989   0.653
 1795SOL    HW1 6284   0.919   1.960   0.566
 1795SOL    HW2 6285   0.821   1.915   0.689
 1796SOL     OW 6286   2.229   0.748   4.562
 1796SOL    HW1 6287   2.254   0.830   4.512
 1796SOL    HW2 6288   2.141   0.714   4.529
 1797SOL     OW 6289   1.558   6.713   0.334
 1797SOL    HW1 6290   1.487   6.688   0.400
 1797SOL    HW2 6291   1.518   6.718   0.242
 1798SOL     OW 6292   5.193   2.914   3.514
 1798SOL    HW1 6293   5.137   2.996   3.503
 1798SOL    HW2 6294   5.216   2.877   3.424
 1799SOL     OW 6295   0.101   2.575   6.044
 1799SOL    HW1 6296   0.062   2.567   5.952
 1799SOL    HW2 6297   0.091   2.488   6.092
 1800SOL     OW 6298   3.940   4.865   2.079
 1800SOL    HW1 6299   4.010   4.795   2.063
 1800SOL    HW2 6300   3.869   4.858   2.008
 1801SOL     OW 6301   0.431   0.372   1.755
 1801SOL    HW1 6302   0.444   0.348   1.658
 1801SOL    HW2 6303   0.386   0.296   1.802
 1802SOL     OW 6304   5.657   5.485   3.309
 1802SOL    HW1 6305   5.716   5.560   3.280
 1802SOL    HW2 6306   5.594   5.462   3.235
 1803SOL     OW 6307   0.699   5.808   0.001
 1803SOL    HW1 6308   0.702   5.720   6.971
 1803SOL    HW2 6309   0.738   5.879   6.961
 1804SOL     OW 6310   2.698   3.904   5.290
 1804SOL    HW1 6311   2.704   3.855   5.377
 1804SOL    HW2 6312   2.603   3.906   5.259
 1805SOL     OW 6313   5.846   3.763   5.927
 1805SOL    HW1 6314   5.793   3.846   5.941
 1805SOL    HW2 6315   5.818   3.719   5.841
 1806SOL     OW 6316   0.321   0.538   0.295
 1806SOL    HW1 6317   0.350   0.589   0.376
 1806SOL    HW2 6318   0.368   0.576   0.215
 1807SOL     OW 6319   5.610   2.695   4.902
 1807SOL    HW1 6320   5.518   2.664   4.876
 1807SOL    HW2 6321   5.653   2.740   4.824
 1808SOL     OW 6322   0.087   4.633   5.812
 1808SOL    HW1 6323   0.183   4.607   5.806
 1808SOL    HW2 6324   0.043   4.584   5.887
 1809SOL     OW 6325   2.154   2.212   4.765
 1809SOL    HW1 6326   2.091   2.150   4.717
 1809SOL    HW2 6327   2.200   2.270   4.699
 1810SOL     OW 6328   2.715   6.674   3.335
 1810SOL    HW1 6329   2.622   6.637   3.333
 1810SOL    HW2 6330   2.711   6.774   3.333
 1811SOL     OW 6331   6.203   5.512   3.904
 1811SOL    HW1 6332   6.171   5.600   3.869
 1811SOL    HW2 6333   6.212   5.447   3.829
 1812SOL     OW 6334   4.584   6.300   4.988
 1812SOL    HW1 6335   4.670   6.338   4.952
 1812SOL    HW2 6336   4.602   6.211   5.029
 1813SOL     OW 6337   6.483   5.076   1.230
 1813SOL    HW1 6338   6.545   5.143   1.271
 1813SOL    HW2 6339   6.521   4.984   1.240
 1814SOL     OW 6340   6.111   0.475   1.426
 1814SOL    HW1 6341   6.131   0.455   1.522
 1814SOL    HW2 6342   6.188   0.447   1.369
 1815SOL     OW 6343   0.126   2.051   2.434
 1815SOL    HW1 6344   0.101   1.971   2.379
 1815SOL    HW2 6345   0.213   2.033   2.481
 1816SOL     OW 6346   2.984   3.031   1.181
 1816SOL    HW1 6347   2.940   3.022   1.092
 1816SOL    HW2 6348   2.918   3.009   1.253
 1817SOL     OW 6349   2.653   6.986   2.572
 1817SOL    HW1 6350   2.668   6.973   2.670
 1817SOL    HW2 6351   2.559   7.017   2.556
 1818SOL     OW 6352   1.415   6.806   2.686
 1818SOL    HW1 6353   1.346   6.791   2.756
 1818SOL    HW2 6354   1.384   6.878   2.623
 1819SOL     OW 6355   1.591   4.287   1.384
 1819SOL    HW1 6356   1.534   4.218   1.429
 1819SOL    HW2 6357   1.532   4.358   1.346
 1820SOL     OW 6358   4.525   1.211   2.565
 1820SOL    HW1 6359   4.493   1.200   2.471
 1820SOL    HW2 6360   4.465   1.160   2.626
 1821SOL     OW 6361   0.434   1.071   2.024
 1821SOL    HW1 6362   0.488   0.986   2.020
 1821SOL    HW2 6363   0.472   1.130   2.095
 1822SOL     OW 6364   2.609   3.271   1.205
 1822SOL    HW1 6365   2.654   3.211   1.271
 1822SOL    HW2 6366   2.550   3.216   1.146
 1823SOL     OW 6367   3.224   5.894   3.134
 1823SOL    HW1 6368   3.137   5.928   3.098
 1823SOL    HW2 6369   3.208   5.848   3.221
 1824SOL     OW 6370   3.155   2.368   1.123
 1824SOL    HW1 6371   3.083   2.404   1.183
 1824SOL    HW2 6372   3.147   2.269   1.117
 1825SOL     OW 6373   0.996   1.067   2.706
 1825SOL    HW1 6374   1.094   1.057   2.726
 1825SOL    HW2 6375   0.965   0.989   2.653
 1826SOL     OW 6376   3.010   0.466   1.180
 1826SOL    HW1 6377   3.015   0.542   1.245
 1826SOL    HW2 6378   3.074   0.482   1.105
 1827SOL     OW 6379   0.329   5.664   2.140
 1827SOL    HW1 6380   0.369   5.637   2.228
 1827SOL    HW2 6381   0.280   5.586   2.101
 1828SOL     OW 6382   0.185   2.800   0.590
 1828SOL    HW1 6383   0.283   2.786   0.607
 1828SOL    HW2 6384   0.174   2.861   0.511
 1829SOL     OW 6385   4.265   0.050   3.222
 1829SOL    HW1 6386   4.168   0.038   3.245
 1829SOL    HW2 6387   4.296   0.140   3.255
 1830SOL     OW 6388   5.543   5.837   4.209
 1830SOL    HW1 6389   5.511   5.743   4.220
 1830SOL    HW2 6390   5.466   5.901   4.217
 1831SOL     OW 6391   5.878   0.249   2.856
 1831SOL    HW1 6392   5.870   0.176   2.788
 1831SOL    HW2 6393   5.847   0.216   2.945
 1832SOL     OW 6394   5.893   1.599   0.770
 1832SOL    HW1 6395   5.870   1.662   0.696
 1832SOL    HW2 6396   5.928   1.651   0.848
 1833SOL     OW 6397   5.759   0.977   5.276
 1833SOL    HW1 6398   5.783   0.983   5.179
 1833SOL    HW2 6399   5.738   1.069   5.310
 1834SOL     OW 6400   3.124   3.781   0.061
 1834SOL    HW1 6401   3.123   3.696   0.115
 1834SOL    HW2 6402   3.121   3.758   6.982
 1835SOL     OW 6403   1.586   4.265   1.969
 1835SOL    HW1 6404   1.548   4.356   1.983
 1835SOL    HW2 6405   1.511   4.199   1.961
 1836SOL     OW 6406   5.943   1.692   1.051
 1836SOL    HW1 6407   5.878   1.663   1.121
 1836SOL    HW2 6408   5.942   1.792   1.043
 1837SOL     OW 6409   0.861   2.807   3.629
 1837SOL    HW1 6410   0.881   2.733   3.565
 1837SOL    HW2 6411   0.774   2.850   3.605
 1838SOL     OW 6412   0.124   2.043   3.856
 1838SOL    HW1 6413   0.186   1.987   3.911
 1838SOL    HW2 6414   0.139   2.139   3.876
 1839SOL     OW 6415   4.655   2.587   4.894
 1839SOL    HW1 6416   4.617   2.496   4.876
 1839SOL    HW2 6417   4.637   2.646   4.815
 1840SOL     OW 6418   3.836   5.950   1.561
 1840SOL    HW1 6419   3.854   6.030   1.504
 1840SOL    HW2 6420   3.921   5.919   1.603
 1841SOL     OW 6421   2.316   2.720   4.586
 1841SOL    HW1 6422   2.298   2.763   4.675
 1841SOL    HW2 6423   2.237   2.732   4.527
 1842SOL     OW 6424   1.260   5.650   0.518
 1842SOL    HW1 6425   1.287   5.727   0.575
 1842SOL    HW2 6426   1.335   5.585   0.511
 1843SOL     OW 6427   0.807   1.966   4.576
 1843SOL    HW1 6428   0.727   1.940   4.629
 1843SOL    HW2 6429   0.866   2.024   4.631
 1844SOL     OW 6430   3.708   0.466   5.405
 1844SOL    HW1 6431   3.716   0.373   5.442
 1844SOL    HW2 6432   3.780   0.480   5.337
 1845SOL     OW 6433   2.262   7.006   5.658
 1845SOL    HW1 6434   2.166   0.016   5.650
 1845SOL    HW2 6435   2.305   7.009   5.568
 1846SOL     OW 6436   3.877   1.953   6.996
 1846SOL    HW1 6437   3.882   2.052   7.013
 1846SOL    HW2 6438   3.814   1.911   0.043
 1847SOL     OW 6439   1.578   1.285   6.948
 1847SOL    HW1 6440   1.482   1.298   6.974
 1847SOL    HW2 6441   1.582   1.236   6.860
 1848SOL     OW 6442   1.783   6.358   2.382
 1848SOL    HW1 6443   1.761   6.419   2.306
 1848SOL    HW2 6444   1.880   6.366   2.405
 1849SOL     OW 6445   3.920   1.611   0.675
 1849SOL    HW1 6446   3.898   1.514   0.682
 1849SOL    HW2 6447   4.010   1.627   0.716
 1850SOL     OW 6448   6.673   2.841   2.828
 1850SOL    HW1 6449   6.635   2.914   2.771
 1850SOL    HW2 6450   6.640   2.852   2.922
 1851SOL     OW 6451   0.397   1.619   0.904
 1851SOL    HW1 6452   0.378   1.521   0.907
 1851SOL    HW2 6453   0.458   1.644   0.979
 1852SOL     OW 6454   5.535   3.789   1.109
 1852SOL    HW1 6455   5.600   3.717   1.084
 1852SOL    HW2 6456   5.462   3.750   1.164
 1853SOL     OW 6457   0.751   2.858   2.356
 1853SOL    HW1 6458   0.756   2.819   2.264
 1853SOL    HW2 6459   0.680   2.928   2.359
 1854SOL     OW 6460   2.755   5.609   3.449
 1854SOL    HW1 6461   2.842   5.631   3.494
 1854SOL    HW2 6462   2.726   5.517   3.476
 1855SOL     OW 6463   4.296   4.079   6.991
 1855SOL    HW1 6464   4.306   4.012   0.046
 1855SOL    HW2 6465   4.341   4.044   6.908
 1856SOL     OW 6466   6.540   3.524   5.369
 1856SOL    HW1 6467   6.629   3.503   5.409
 1856SOL    HW2 6468   6.552   3.575   5.284
 1857SOL     OW 6469   3.264   1.161   5.861
 1857SOL    HW1 6470   3.203   1.171   5.940
 1857SOL    HW2 6471   3.247   1.073   5.817
 1858SOL     OW 6472   6.003   2.918   3.556
 1858SOL    HW1 6473   5.933   2.973   3.511
 1858SOL    HW2 6474   6.005   2.941   3.654
 1859SOL     OW 6475   4.016   1.570   3.456
 1859SOL    HW1 6476   4.049   1.496   3.515
 1859SOL    HW2 6477   3.929   1.544   3.415
 1860SOL     OW 6478   6.133   0.432   3.858
 1860SOL    HW1 6479   6.043   0.393   3.840
 1860SOL    HW2 6480   6.203   0.360   3.851
 1861SOL     OW 6481   4.679   6.630   2.532
 1861SOL    HW1 6482   4.743   6.557   2.555
 1861SOL    HW2 6483   4.655   6.681   2.615
 1862SOL     OW 6484   2.268   0.103   6.423
 1862SOL    HW1 6485   2.228   0.191   6.398
 1862SOL    HW2 6486   2.206   0.029   6.397
 1863SOL     OW 6487   2.112   2.145   0.131
 1863SOL    HW1 6488   2.030   2.173   0.181
 1863SOL    HW2 6489   2.086   2.118   0.038
 1864SOL     OW 6490   1.406   6.600   5.646
 1864SOL    HW1 6491   1.338   6.580   5.717
 1864SOL    HW2 6492   1.367   6.581   5.556
 1865SOL     OW 6493   3.554   6.842   5.789
 1865SOL    HW1 6494   3.635   6.900   5.792
 1865SOL    HW2 6495   3.526   6.828   5.694
 1866SOL     OW 6496   4.210   4.882   3.068
 1866SOL    HW1 6497   4.239   4.944   2.995
 1866SOL    HW2 6498   4.139   4.822   3.033
 1867SOL     OW 6499   1.130   4.444   0.599
 1867SOL    HW1 6500   1.219   4.412   0.631
 1867SOL    HW2 6501   1.118   4.540   0.623
 1868SOL     OW 6502   4.554   4.083   0.818
 1868SOL    HW1 6503   4.600   3.997   0.795
 1868SOL    HW2 6504   4.594   4.121   0.901
 1869SOL     OW 6505   6.752   2.167   5.028
 1869SOL    HW1 6506   6.728   2.234   5.098
 1869SOL    HW2 6507   6.789   2.215   4.948
 1870SOL     OW 6508   1.984   3.550   5.822
 1870SOL    HW1 6509   2.007   3.540   5.919
 1870SOL    HW2 6510   1.995   3.463   5.776
 1871SOL     OW 6511   1.096   0.063   6.601
 1871SOL    HW1 6512   1.175   0.113   6.636
 1871SOL    HW2 6513   1.068   7.013   6.668
 1872SOL     OW 6514   3.522   3.175   6.859
 1872SOL    HW1 6515   3.512   3.109   6.784
 1872SOL    HW2 6516   3.581   3.250   6.830
 1873SOL     OW 6517   4.836   1.003   5.101
 1873SOL    HW1 6518   4.882   0.950   5.030
 1873SOL    HW2 6519   4.856   1.100   5.088
 1874SOL     OW 6520   2.565   0.844   0.834
 1874SOL    HW1 6521   2.589   0.919   0.772
 1874SOL    HW2 6522   2.527   0.882   0.919
 1875SOL     OW 6523   0.227   1.207   0.186
 1875SOL    HW1 6524   0.240   1.302   0.158
 1875SOL    HW2 6525   0.135   1.177   0.162
 1876SOL     OW 6526   3.850   0.395   5.865
 1876SOL    HW1 6527   3.850   0.306   5.912
 1876SOL    HW2 6528   3.756   0.427   5.855
 1877SOL     OW 6529   0.508   0.168   2.547
 1877SOL    HW1 6530   0.470   0.164   2.455
 1877SOL    HW2 6531   0.467   0.245   2.597
 1878SOL     OW 6532   6.382   1.548   3.925
 1878SOL    HW1 6533   6.455   1.561   3.858
 1878SOL    HW2 6534   6.372   1.631   3.980
 1879SOL     OW 6535   1.122   4.176   4.016
 1879SOL    HW1 6536   1.036   4.129   4.036
 1879SOL    HW2 6537   1.195   4.108   4.005
 1880SOL     OW 6538   6.953   1.587   5.013
 1880SOL    HW1 6539   6.878   1.652   4.999
 1880SOL    HW2 6540   6.920   1.511   5.069
 1881SOL     OW 6541   5.762   2.218   3.141
 1881SOL    HW1 6542   5.688   2.275   3.107
 1881SOL    HW2 6543   5.736   2.121   3.132
 1882SOL     OW 6544   0.804   4.232   6.533
 1882SOL    HW1 6545   0.897   4.212   6.562
 1882SOL    HW2 6546   0.795   4.216   6.435
 1883SOL     OW 6547   6.973   2.192   2.816
 1883SOL    HW1 6548   6.917   2.187   2.734
 1883SOL    HW2 6549   6.914   2.187   2.897
 1884SOL     OW 6550   7.012   1.742   0.254
 1884SOL    HW1 6551   6.992   1.734   0.351
 1884SOL    HW2 6552   0.086   1.777   0.242
 1885SOL     OW 6553   1.850   1.869   6.626
 1885SOL    HW1 6554   1.919   1.801   6.604
 1885SOL    HW2 6555   1.837   1.930   6.548
 1886SOL     OW 6556   1.422   0.264   2.008
 1886SOL    HW1 6557   1.353   0.246   1.937
 1886SOL    HW2 6558   1.436   0.362   2.016
 1887SOL     OW 6559   0.495   5.208   5.427
 1887SOL    HW1 6560   0.429   5.137   5.453
 1887SOL    HW2 6561   0.507   5.271   5.504
 1888SOL     OW 6562   3.260   2.734   6.554
 1888SOL    HW1 6563   3.253   2.650   6.501
 1888SOL    HW2 6564   3.184   2.794   6.532
 1889SOL     OW 6565   0.276   3.740   5.256
 1889SOL    HW1 6566   0.202   3.713   5.317
 1889SOL    HW2 6567   0.259   3.833   5.222
 1890SOL     OW 6568   1.580   5.494   4.138
 1890SOL    HW1 6569   1.593   5.532   4.047
 1890SOL    HW2 6570   1.604   5.397   4.139
 1891SOL     OW 6571   4.667   2.715   1.559
 1891SOL    HW1 6572   4.702   2.758   1.475
 1891SOL    HW2 6573   4.624   2.628   1.536
 1892SOL     OW 6574   0.854   6.484   2.321
 1892SOL    HW1 6575   0.937   6.504   2.270
 1892SOL    HW2 6576   0.838   6.386   2.323
 1893SOL     OW 6577   3.478   2.888   1.919
 1893SOL    HW1 6578   3.539   2.890   1.840
 1893SOL    HW2 6579   3.404   2.823   1.902
 1894SOL     OW 6580   3.845   3.316   3.478
 1894SOL    HW1 6581   3.836   3.220   3.452
 1894SOL    HW2 6582   3.777   3.370   3.428
 1895SOL     OW 6583   4.147   0.076   0.802
 1895SOL    HW1 6584   4.133   0.077   0.703
 1895SOL    HW2 6585   4.159   0.169   0.836
 1896SOL     OW 6586   5.684   1.964   1.367
 1896SOL    HW1 6587   5.601   1.954   1.421
 1896SOL    HW2 6588   5.744   1.886   1.383
 1897SOL     OW 6589   2.194   5.259   1.837
 1897SOL    HW1 6590   2.192   5.270   1.936
 1897SOL    HW2 6591   2.179   5.347   1.793
 1898SOL     OW 6592   1.983   4.831   3.826
 1898SOL    HW1 6593   2.083   4.828   3.838
 1898SOL    HW2 6594   1.940   4.766   3.888
 1899SOL     OW 6595   0.270   1.844   0.812
 1899SOL    HW1 6596   0.307   1.760   0.850
 1899SOL    HW2 6597   0.175   1.855   0.842
 1900SOL     OW 6598   2.301   0.511   6.989
 1900SOL    HW1 6599   2.252   0.524   6.902
 1900SOL    HW2 6600   2.317   0.414   7.003
 1901SOL     OW 6601   2.341   2.075   0.647
 1901SOL    HW1 6602   2.358   2.068   0.746
 1901SOL    HW2 6603   2.409   2.021   0.598
 1902SOL     OW 6604   2.309   1.041   4.277
 1902SOL    HW1 6605   2.224   1.065   4.323
 1902SOL    HW2 6606   2.356   0.970   4.330
 1903SOL     OW 6607   0.929   3.072   2.998
 1903SOL    HW1 6608   0.987   3.112   2.927
 1903SOL    HW2 6609   0.984   3.050   3.078
 1904SOL     OW 6610   5.550   5.073   3.262
 1904SOL    HW1 6611   5.624   5.132   3.230
 1904SOL    HW2 6612   5.463   5.123   3.260
 1905SOL     OW 6613   0.784   0.169   3.442
 1905SOL    HW1 6614   0.853   0.202   3.378
 1905SOL    HW2 6615   0.828   0.143   3.528
 1906SOL     OW 6616   3.454   0.860   5.714
 1906SOL    HW1 6617   3.447   0.897   5.621
 1906SOL    HW2 6618   3.493   0.768   5.710
 1907SOL     OW 6619   4.137   2.259   1.328
 1907SOL    HW1 6620   4.165   2.190   1.261
 1907SOL    HW2 6621   4.058   2.227   1.379
 1908SOL     OW 6622   3.671   6.012   6.515
 1908SOL    HW1 6623   3.711   6.104   6.517
 1908SOL    HW2 6624   3.743   5.945   6.499
 1909SOL     OW 6625   0.639   2.996   3.580
 1909SOL    HW1 6626   0.570   2.934   3.543
 1909SOL    HW2 6627   0.700   3.026   3.506
 1910SOL     OW 6628   6.910   5.634   5.717
 1910SOL    HW1 6629   6.870   5.589   5.637
 1910SOL    HW2 6630   7.009   5.623   5.716
 1911SOL     OW 6631   0.098   3.724   4.694
 1911SOL    HW1 6632   0.105   3.647   4.631
 1911SOL    HW2 6633   0.176   3.786   4.680
 1912SOL     OW 6634   3.102   5.851   1.646
 1912SOL    HW1 6635   3.090   5.946   1.676
 1912SOL    HW2 6636   3.190   5.817   1.679
 1913SOL     OW 6637   3.084   0.812   4.985
 1913SOL    HW1 6638   3.180   0.824   4.958
 1913SOL    HW2 6639   3.080   0.794   5.083
 1914SOL     OW 6640   3.318   3.293   0.009
 1914SOL    HW1 6641   3.339   3.244   6.943
 1914SOL    HW2 6642   3.339   3.236   0.088
 1915SOL     OW 6643   4.994   2.840   6.164
 1915SOL    HW1 6644   4.992   2.881   6.255
 1915SOL    HW2 6645   4.911   2.787   6.150
 1916SOL     OW 6646   4.683   6.160   0.838
 1916SOL    HW1 6647   4.667   6.239   0.897
 1916SOL    HW2 6648   4.740   6.187   0.761
 1917SOL     OW 6649   2.143   3.411   0.263
 1917SOL    HW1 6650   2.198   3.333   0.292
 1917SOL    HW2 6651   2.116   3.400   0.168
 1918SOL     OW 6652   0.504   0.781   5.026
 1918SOL    HW1 6653   0.450   0.840   4.966
 1918SOL    HW2 6654   0.507   0.820   5.118
 1919SOL     OW 6655   1.624   1.372   1.731
 1919SOL    HW1 6656   1.563   1.403   1.657
 1919SOL    HW2 6657   1.714   1.350   1.692
 1920SOL     OW 6658   6.353   3.679   2.994
 1920SOL    HW1 6659   6.443   3.712   2.966
 1920SOL    HW2 6660   6.360   3.582   3.020
 1921SOL     OW 6661   2.059   2.688   0.360
 1921SOL    HW1 6662   2.079   2.765   0.421
 1921SOL    HW2 6663   1.994   2.716   0.290
 1922SOL     OW 6664   2.866   3.402   1.932
 1922SOL    HW1 6665   2.876   3.303   1.938
 1922SOL    HW2 6666   2.788   3.424   1.873
 1923SOL     OW 6667   3.972   1.806   6.657
 1923SOL    HW1 6668   3.985   1.708   6.670
 1923SOL    HW2 6669   4.043   1.842   6.596
 1924SOL     OW 6670   4.769   0.107   0.672
 1924SOL    HW1 6671   4.672   0.121   0.691
 1924SOL    HW2 6672   4.788   0.010   0.663
 1925SOL     OW 6673   1.365   4.803   1.728
 1925SOL    HW1 6674   1.326   4.855   1.651
 1925SOL    HW2 6675   1.465   4.810   1.725
 1926SOL     OW 6676   2.968   0.146   2.081
 1926SOL    HW1 6677   2.980   0.196   2.167
 1926SOL    HW2 6678   3.056   0.111   2.050
 1927SOL     OW 6679   2.522   3.650   0.414
 1927SOL    HW1 6680   2.605   3.644   0.359
 1927SOL    HW2 6681   2.540   3.704   0.496
 1928SOL     OW 6682   5.465   4.745   4.371
 1928SOL    HW1 6683   5.408   4.730   4.291
 1928SOL    HW2 6684   5.463   4.664   4.430
 1929SOL     OW 6685   2.104   0.730   1.867
 1929SOL    HW1 6686   2.090   0.705   1.963
 1929SOL    HW2 6687   2.116   0.829   1.860
 1930SOL     OW 6688   5.372   3.053   6.948
 1930SOL    HW1 6689   5.329   2.988   7.011
 1930SOL    HW2 6690   5.460   3.082   6.985
 1931SOL     OW 6691   0.877   2.245   6.891
 1931SOL    HW1 6692   0.850   2.297   6.971
 1931SOL    HW2 6693   0.896   2.150   6.918
 1932SOL     OW 6694   5.040   2.684   3.490
 1932SOL    HW1 6695   5.116   2.720   3.543
 1932SOL    HW2 6696   5.024   2.743   3.410
 1933SOL     OW 6697   1.016   2.358   0.695
 1933SOL    HW1 6698   0.989   2.300   0.772
 1933SOL    HW2 6699   0.945   2.354   0.625
 1934SOL     OW 6700   0.349   0.958   5.437
 1934SOL    HW1 6701   0.390   1.028   5.496
 1934SOL    HW2 6702   0.419   0.892   5.411
 1935SOL     OW 6703   4.328   4.893   3.720
 1935SOL    HW1 6704   4.411   4.947   3.705
 1935SOL    HW2 6705   4.253   4.954   3.746
 1936SOL     OW 6706   4.935   3.741   4.190
 1936SOL    HW1 6707   4.900   3.652   4.161
 1936SOL    HW2 6708   4.904   3.812   4.126
 1937SOL     OW 6709   4.477   6.418   0.153
 1937SOL    HW1 6710   4.386   6.453   0.134
 1937SOL    HW2 6711   4.476   6.318   0.142
 1938SOL     OW 6712   0.873   2.146   0.862
 1938SOL    HW1 6713   0.878   2.093   0.778
 1938SOL    HW2 6714   0.778   2.174   0.878
 1939SOL     OW 6715   0.435   6.103   4.392
 1939SOL    HW1 6716   0.368   6.049   4.341
 1939SOL    HW2 6717   0.411   6.200   4.387
 1940SOL     OW 6718   5.723   4.376   1.297
 1940SOL    HW1 6719   5.653   4.310   1.270
 1940SOL    HW2 6720   5.737   4.372   1.396
 1941SOL     OW 6721   1.046   3.065   3.388
 1941SOL    HW1 6722   1.022   3.048   3.483
 1941SOL    HW2 6723   1.059   2.978   3.341
 1942SOL     OW 6724   5.446   4.197   2.645
 1942SOL    HW1 6725   5.470   4.147   2.728
 1942SOL    HW2 6726   5.527   4.209   2.588
 1943SOL     OW 6727   1.225   1.609   2.850
 1943SOL    HW1 6728   1.270   1.636   2.765
 1943SOL    HW2 6729   1.279   1.643   2.928
 1944SOL     OW 6730   6.397   4.281   6.696
 1944SOL    HW1 6731   6.488   4.251   6.669
 1944SOL    HW2 6732   6.405   4.338   6.779
 1945SOL     OW 6733   3.942   6.486   1.374
 1945SOL    HW1 6734   3.909   6.402   1.418
 1945SOL    HW2 6735   3.885   6.563   1.403
 1946SOL     OW 6736   6.128   6.259   1.511
 1946SOL    HW1 6737   6.098   6.285   1.419
 1946SOL    HW2 6738   6.049   6.237   1.567
 1947SOL     OW 6739   6.189   5.723   4.315
 1947SOL    HW1 6740   6.127   5.744   4.391
 1947SOL    HW2 6741   6.273   5.681   4.351
 1948SOL     OW 6742   5.834   4.931   2.758
 1948SOL    HW1 6743   5.740   4.960   2.744
 1948SOL    HW2 6744   5.848   4.906   2.854
 1949SOL     OW 6745   3.924   3.997   0.357
 1949SOL    HW1 6746   3.983   3.922   0.387
 1949SOL    HW2 6747   3.869   4.029   0.434
 1950SOL     OW 6748   4.160   3.426   3.217
 1950SOL    HW1 6749   4.221   3.431   3.296
 1950SOL    HW2 6750   4.077   3.479   3.236
 1951SOL     OW 6751   6.760   4.495   5.717
 1951SOL    HW1 6752   6.824   4.418   5.715
 1951SOL    HW2 6753   6.672   4.467   5.680
 1952SOL     OW 6754   5.303   4.652   1.602
 1952SOL    HW1 6755   5.210   4.677   1.573
 1952SOL    HW2 6756   5.366   4.664   1.526
 1953SOL     OW 6757   0.187   1.407   6.179
 1953SOL    HW1 6758   0.233   1.451   6.102
 1953SOL    HW2 6759   0.142   1.324   6.148
 1954SOL     OW 6760   5.405   0.304   1.754
 1954SOL    HW1 6761   5.426   0.348   1.666
 1954SOL    HW2 6762   5.326   0.244   1.742
 1955SOL     OW 6763   0.024   1.198   1.194
 1955SOL    HW1 6764   0.122   1.210   1.177
 1955SOL    HW2 6765   7.004   1.139   1.123
 1956SOL     OW 6766   4.615   6.930   2.659
 1956SOL    HW1 6767   4.698   6.975   2.624
 1956SOL    HW2 6768   4.538   6.952   2.599
 1957SOL     OW 6769   5.371   3.247   4.121
 1957SOL    HW1 6770   5.405   3.267   4.213
 1957SOL    HW2 6771   5.447   3.216   4.064
 1958SOL     OW 6772   4.611   1.614   1.479
 1958SOL    HW1 6773   4.528   1.574   1.441
 1958SOL    HW2 6774   4.624   1.705   1.440
 1959SOL     OW 6775   6.680   6.390   3.944
 1959SOL    HW1 6776   6.733   6.357   3.867
 1959SOL    HW2 6777   6.586   6.409   3.914
 1960SOL     OW 6778   0.112   2.917   3.197
 1960SOL    HW1 6779   0.020   2.932   3.162
 1960SOL    HW2 6780   0.140   2.823   3.178
 1961SOL     OW 6781   6.399   4.298   4.267
 1961SOL    HW1 6782   6.364   4.299   4.360
 1961SOL    HW2 6783   6.380   4.209   4.225
 1962SOL     OW 6784   1.219   6.006   2.297
 1962SOL    HW1 6785   1.312   6.004   2.260
 1962SOL    HW2 6786   1.205   6.091   2.348
 1963SOL     OW 6787   0.753   1.657   1.505
 1963SOL    HW1 6788   0.828   1.688   1.445
 1963SOL    HW2 6789   0.695   1.593   1.454
 1964SOL     OW 6790   5.014   4.635   1.778
 1964SOL    HW1 6791   5.104   4.635   1.820
 1964SOL    HW2 6792   5.015   4.691   1.695
 1965SOL     OW 6793   1.403   3.484   4.064
 1965SOL    HW1 6794   1.337   3.409   4.076
 1965SOL    HW2 6795   1.474   3.476   4.134
 1966SOL     OW 6796   1.629   4.591   1.006
 1966SOL    HW1 6797   1.675   4.654   1.068
 1966SOL    HW2 6798   1.652   4.497   1.031
 1967SOL     OW 6799   0.036   2.305   3.947
 1967SOL    HW1 6800   6.972   2.258   3.917
 1967SOL    HW2 6801   0.054   2.383   3.887
 1968SOL     OW 6802   2.512   1.024   5.563
 1968SOL    HW1 6803   2.461   1.103   5.529
 1968SOL    HW2 6804   2.546   1.045   5.655
 1969SOL     OW 6805   2.885   0.769   1.734
 1969SOL    HW1 6806   2.946   0.843   1.706
 1969SOL    HW2 6807   2.805   0.766   1.674
 1970SOL     OW 6808   6.739   6.811   5.443
 1970SOL    HW1 6809   6.806   6.788   5.373
 1970SOL    HW2 6810   6.647   6.806   5.405
 1971SOL     OW 6811   0.544   0.288   5.305
 1971SOL    HW1 6812   0.596   0.205   5.283
 1971SOL    HW2 6813   0.606   0.359   5.338
 1972SOL     OW 6814   5.515   2.551   1.358
 1972SOL    HW1 6815   5.416   2.560   1.348
 1972SOL    HW2 6816   5.536   2.462   1.399
 1973SOL     OW 6817   2.325   3.902   1.645
 1973SOL    HW1 6818   2.242   3.900   1.590
 1973SOL    HW2 6819   2.341   3.995   1.678
 1974SOL     OW 6820   4.558   6.818   4.619
 1974SOL    HW1 6821   4.468   6.785   4.591
 1974SOL    HW2 6822   4.570   6.912   4.588
 1975SOL     OW 6823   1.896   2.993   4.049
 1975SOL    HW1 6824   1.988   3.030   4.037
 1975SOL    HW2 6825   1.867   2.950   3.964
 1976SOL     OW 6826   5.549   7.005   6.565
 1976SOL    HW1 6827   5.517   6.921   6.609
 1976SOL    HW2 6828   5.510   7.011   6.473
 1977SOL     OW 6829   2.439   3.463   6.140
 1977SOL    HW1 6830   2.476   3.380   6.100
 1977SOL    HW2 6831   2.400   3.521   6.068
 1978SOL     OW 6832   1.789   5.836   3.115
 1978SOL    HW1 6833   1.732   5.863   3.038
 1978SOL    HW2 6834   1.788   5.736   3.125
 1979SOL     OW 6835   5.846   4.918   6.935
 1979SOL    HW1 6836   5.873   4.999   6.883
 1979SOL    HW2 6837   5.848   4.838   6.875
 1980SOL     OW 6838   3.520   0.402   2.673
 1980SOL    HW1 6839   3.592   0.339   2.702
 1980SOL    HW2 6840   3.431   0.360   2.692
 1981SOL     OW 6841   5.405   2.665   2.519
 1981SOL    HW1 6842   5.466   2.596   2.558
 1981SOL    HW2 6843   5.365   2.720   2.592
 1982SOL     OW 6844   6.878   3.938   4.019
 1982SOL    HW1 6845   6.923   3.980   3.940
 1982SOL    HW2 6846   6.784   3.969   4.024
 1983SOL     OW 6847   0.658   0.278   0.889
 1983SOL    HW1 6848   0.716   0.201   0.863
 1983SOL    HW2 6849   0.634   0.271   0.986
 1984SOL     OW 6850   5.203   2.608   5.168
 1984SOL    HW1 6851   5.202   2.515   5.132
 1984SOL    HW2 6852   5.110   2.640   5.183
 1985SOL     OW 6853   6.707   5.414   1.798
 1985SOL    HW1 6854   6.783   5.429   1.861
 1985SOL    HW2 6855   6.633   5.366   1.846
 1986SOL     OW 6856   2.809   1.180   6.598
 1986SOL    HW1 6857   2.728   1.128   6.626
 1986SOL    HW2 6858   2.805   1.272   6.637
 1987SOL     OW 6859   1.929   1.401   3.998
 1987SOL    HW1 6860   1.976   1.487   4.017
 1987SOL    HW2 6861   1.974   1.355   3.921
 1988SOL     OW 6862   6.586   1.279   1.146
 1988SOL    HW1 6863   6.515   1.277   1.076
 1988SOL    HW2 6864   6.618   1.373   1.158
 1989SOL     OW 6865   2.847   5.977   4.581
 1989SOL    HW1 6866   2.842   6.047   4.652
 1989SOL    HW2 6867   2.759   5.928   4.577
 1990SOL     OW 6868   3.907   6.897   0.609
 1990SOL    HW1 6869   3.879   6.847   0.691
 1990SOL    HW2 6870   4.006   6.913   0.612
 1991SOL     OW 6871   2.509   4.894   0.177
 1991SOL    HW1 6872   2.575   4.954   0.133
 1991SOL    HW2 6873   2.494   4.813   0.120
 1992SOL     OW 6874   6.995   6.992   0.802
 1992SOL    HW1 6875   0.067   6.958   0.777
 1992SOL    HW2 6876   6.927   6.958   0.737
 1993SOL     OW 6877   2.899   2.024   4.392
 1993SOL    HW1 6878   2.950   1.939   4.380
 1993SOL    HW2 6879   2.830   2.011   4.463
 1994SOL     OW 6880   4.895   1.997   0.811
 1994SOL    HW1 6881   4.915   2.048   0.894
 1994SOL    HW2 6882   4.980   1.962   0.771
 1995SOL     OW 6883   5.698   3.192   4.279
 1995SOL    HW1 6884   5.744   3.110   4.246
 1995SOL    HW2 6885   5.737   3.272   4.235
 1996SOL     OW 6886   2.696   1.348   1.433
 1996SOL    HW1 6887   2.607   1.332   1.475
 1996SOL    HW2 6888   2.731   1.263   1.396
 1997SOL     OW 6889   3.330   1.482   4.103
 1997SOL    HW1 6890   3.410   1.511   4.155
 1997SOL    HW2 6891   3.247   1.510   4.152
 1998SOL     OW 6892   1.326   3.298   0.749
 1998SOL    HW1 6893   1.314   3.338   0.840
 1998SOL    HW2 6894   1.347   3.201   0.759
 1999SOL     OW 6895   0.171   1.091   4.688
 1999SOL    HW1 6896   0.165   1.113   4.785
 1999SOL    HW2 6897   0.083   1.057   4.655
 2000SOL     OW 6898   4.001   3.474   6.033
 2000SOL    HW1 6899   4.006   3.422   6.118
 2000SOL    HW2 6900   4.091   3.515   6.014
 2001SOL     OW 6901   1.369   1.683   6.892
 2001SOL    HW1 6902   1.425   1.678   6.975
 2001SOL    HW2 6903   1.363   1.592   6.851
 2002SOL     OW 6904   0.987   5.440   0.746
 2002SOL    HW1 6905   1.084   5.420   0.760
 2002SOL    HW2 6906   0.937   5.426   0.832
 2003SOL     OW 6907   6.089   5.300   2.134
 2003SOL    HW1 6908   6.145   5.314   2.052
 2003SOL    HW2 6909   6.031   5.220   2.121
 2004SOL     OW 6910   4.527   0.995   3.955
 2004SOL    HW1 6911   4.506   0.925   3.887
 2004SOL    HW2 6912   4.625   0.993   3.976
 2005SOL     OW 6913   6.734   5.935   0.161
 2005SOL    HW1 6914   6.635   5.946   0.165
 2005SOL    HW2 6915   6.763   5.866   0.227
 2006SOL     OW 6916   5.041   0.010   4.300
 2006SOL    HW1 6917   4.946   7.015   4.327
 2006SOL    HW2 6918   5.047   0.078   4.228
 2007SOL     OW 6919   5.336   4.228   1.254
 2007SOL    HW1 6920   5.417   4.171   1.260
 2007SOL    HW2 6921   5.328   4.284   1.337
 2008SOL     OW 6922   2.116   3.408   4.098
 2008SOL    HW1 6923   2.113   3.484   4.033
 2008SOL    HW2 6924   2.090   3.441   4.189
 2009SOL     OW 6925   5.561   6.138   1.696
 2009SOL    HW1 6926   5.570   6.106   1.602
 2009SOL    HW2 6927   5.477   6.192   1.704
 2010SOL     OW 6928   1.686   1.788   1.487
 2010SOL    HW1 6929   1.764   1.813   1.546
 2010SOL    HW2 6930   1.606   1.769   1.544
 2011SOL     OW 6931   6.985   0.256   5.544
 2011SOL    HW1 6932   6.901   0.253   5.488
 2011SOL    HW2 6933   0.024   0.332   5.513
 2012SOL     OW 6934   1.549   3.971   2.199
 2012SOL    HW1 6935   1.584   3.901   2.137
 2012SOL    HW2 6936   1.622   4.035   2.222
 2013SOL     OW 6937   6.945   3.133   3.417
 2013SOL    HW1 6938   6.919   3.164   3.325
 2013SOL    HW2 6939   6.967   3.213   3.473
 2014SOL     OW 6940   2.822   0.502   2.989
 2014SOL    HW1 6941   2.842   0.473   3.082
 2014SOL    HW2 6942   2.776   0.428   2.940
 2015SOL     OW 6943   3.770   0.244   0.996
 2015SOL    HW1 6944   3.772   0.336   1.036
 2015SOL    HW2 6945   3.862   0.205   0.997
 2016SOL     OW 6946   1.457   6.010   5.524
 2016SOL    HW1 6947   1.427   5.989   5.617
 2016SOL    HW2 6948   1.547   5.970   5.508
 2017SOL     OW 6949   4.203   0.377   3.625
 2017SOL    HW1 6950   4.290   0.357   3.579
 2017SOL    HW2 6951   4.210   0.352   3.721
 2018SOL     OW 6952   6.972   2.327   3.609
 2018SOL    HW1 6953   6.957   2.292   3.516
 2018SOL    HW2 6954   6.940   2.259   3.675
 2019SOL     OW 6955   6.276   4.562   6.506
 2019SOL    HW1 6956   6.290   4.501   6.428
 2019SOL    HW2 6957   6.300   4.655   6.480
 2020SOL     OW 6958   1.124   5.822   6.111
 2020SOL    HW1 6959   1.192   5.848   6.179
 2020SOL    HW2 6960   1.032   5.831   6.150
 2021SOL     OW 6961   6.169   6.588   3.225
 2021SOL    HW1 6962   6.172   6.662   3.292
 2021SOL    HW2 6963   6.154   6.626   3.134
 2022SOL     OW 6964   1.746   4.329   4.896
 2022SOL    HW1 6965   1.690   4.351   4.975
 2022SOL    HW2 6966   1.837   4.370   4.906
 2023SOL     OW 6967   0.225   6.608   6.580
 2023SOL    HW1 6968   0.229   6.699   6.538
 2023SOL    HW2 6969   0.132   6.590   6.612
 2024SOL     OW 6970   0.464   5.775   4.236
 2024SOL    HW1 6971   0.451   5.847   4.168
 2024SOL    HW2 6972   0.388   5.776   4.301
 2025SOL     OW 6973   2.970   0.650   3.414
 2025SOL    HW1 6974   3.036   0.688   3.479
 2025SOL    HW2 6975   2.886   0.626   3.463
 2026SOL     OW 6976   6.104   1.076   6.186
 2026SOL    HW1 6977   6.164   1.152   6.162
 2026SOL    HW2 6978   6.057   1.043   6.104
 2027SOL     OW 6979   0.776   6.070   1.747
 2027SOL    HW1 6980   0.753   6.062   1.650
 2027SOL    HW2 6981   0.800   5.981   1.784
 2028SOL     OW 6982   3.933   5.550   2.809
 2028SOL    HW1 6983   3.897   5.643   2.815
 2028SOL    HW2 6984   3.883   5.491   2.873
 2029SOL     OW 6985   6.504   1.572   6.853
 2029SOL    HW1 6986   6.468   1.546   6.942
 2029SOL    HW2 6987   6.531   1.669   6.854
 2030SOL     OW 6988   3.078   6.277   2.474
 2030SOL    HW1 6989   3.019   6.355   2.450
 2030SOL    HW2 6990   3.045   6.235   2.558
 2031SOL     OW 6991   6.879   5.661   2.464
 2031SOL    HW1 6992   6.881   5.746   2.412
 2031SOL    HW2 6993   6.971   5.621   2.466
 2032SOL     OW 6994   3.737   1.888   0.216
 2032SOL    HW1 6995   3.695   1.798   0.231
 2032SOL    HW2 6996   3.730   1.943   0.300
 2033SOL     OW 6997   1.408   1.093   0.462
 2033SOL    HW1 6998   1.329   1.128   0.413
 2033SOL    HW2 6999   1.429   1.001   0.429
 2034SOL     OW 7000   1.543   4.750   5.619
 2034SOL    HW1 7001   1.564   4.728   5.524
 2034SOL    HW2 7002   1.539   4.850   5.629
 2035SOL     OW 7003   6.881   0.470   2.170
 2035SOL    HW1 7004   6.887   0.570   2.160
 2035SOL    HW2 7005   6.886   0.428   2.079
 2036SOL     OW 7006   1.139   3.337   3.365
 2036SOL    HW1 7007   1.171   3.361   3.273
 2036SOL    HW2 7008   1.123   3.239   3.370
 2037SOL     OW 7009   6.998   2.853   6.040
 2037SOL    HW1 7010   0.057   2.888   6.092
 2037SOL    HW2 7011   7.000   2.753   6.041
 2038SOL     OW 7012   2.681   1.142   0.078
 2038SOL    HW1 7013   2.619   1.145   0.156
 2038SOL    HW2 7014   2.725   1.231   0.067
 2039SOL     OW 7015   7.006   5.710   1.887
 2039SOL    HW1 7016   0.049   5.773   1.839
 2039SOL    HW2 7017   6.912   5.742   1.878
 2040SOL     OW 7018   1.905   2.725   0.117
 2040SOL    HW1 7019   1.926   2.629   0.096
 2040SOL    HW2 7020   1.961   2.784   0.059
 2041SOL     OW 7021   2.079   6.631   5.412
 2041SOL    HW1 7022   2.145   6.678   5.471
 2041SOL    HW2 7023   2.001   6.601   5.467
 2042SOL     OW 7024   5.186   0.128   6.051
 2042SOL    HW1 7025   5.118   0.166   6.114
 2042SOL    HW2 7026   5.222   0.201   5.993
 2043SOL     OW 7027   6.321   2.492   1.620
 2043SOL    HW1 7028   6.397   2.488   1.555
 2043SOL    HW2 7029   6.358   2.503   1.713
 2044SOL     OW 7030   5.866   1.073   1.666
 2044SOL    HW1 7031   5.819   1.096   1.581
 2044SOL    HW2 7032   5.804   1.022   1.726
 2045SOL     OW 7033   1.766   5.423   5.494
 2045SOL    HW1 7034   1.681   5.472   5.475
 2045SOL    HW2 7035   1.747   5.324   5.494
 2046SOL     OW 7036   6.942   1.636   5.538
 2046SOL    HW1 7037   6.986   1.561   5.490
 2046SOL    HW2 7038   7.010   1.687   5.591
 2047SOL     OW 7039   6.331   2.124   0.966
 2047SOL    HW1 7040   6.380   2.044   0.999
 2047SOL    HW2 7041   6.396   2.190   0.929
 2048SOL     OW 7042   0.522   1.872   4.691
 2048SOL    HW1 7043   0.473   1.809   4.631
 2048SOL    HW2 7044   0.530   1.831   4.782
 2049SOL     OW 7045   4.806   1.227   4.772
 2049SOL    HW1 7046   4.775   1.293   4.704
 2049SOL    HW2 7047   4.806   1.270   4.863
 2050SOL     OW 7048   0.188   1.958   4.520
 2050SOL    HW1 7049   0.229   1.939   4.431
 2050SOL    HW2 7050   0.161   2.054   4.524
 2051SOL     OW 7051   2.210   6.452   0.008
 2051SOL    HW1 7052   2.208   6.412   0.099
 2051SOL    HW2 7053   2.125   6.502   7.010
 2052SOL     OW 7054   1.698   3.007   0.829
 2052SOL    HW1 7055   1.751   3.074   0.882
 2052SOL    HW2 7056   1.714   2.915   0.866
 2053SOL     OW 7057   0.880   5.478   4.505
 2053SOL    HW1 7058   0.945   5.405   4.480
 2053SOL    HW2 7059   0.810   5.441   4.566
 2054SOL     OW 7060   3.469   2.808   2.173
 2054SOL    HW1 7061   3.485   2.710   2.159
 2054SOL    HW2 7062   3.457   2.852   2.084
 2055SOL     OW 7063   0.064   2.684   5.196
 2055SOL    HW1 7064   0.118   2.655   5.275
 2055SOL    HW2 7065   0.117   2.748   5.140
 2056SOL     OW 7066   4.435   4.864   0.849
 2056SOL    HW1 7067   4.417   4.891   0.944
 2056SOL    HW2 7068   4.492   4.782   0.848
 2057SOL     OW 7069   5.918   2.980   4.228
 2057SOL    HW1 7070   5.972   2.910   4.182
 2057SOL    HW2 7071   5.977   3.056   4.253
 2058SOL     OW 7072   0.642   6.109   2.835
 2058SOL    HW1 7073   0.615   6.127   2.930
 2058SOL    HW2 7074   0.734   6.146   2.820
 2059SOL     OW 7075   2.359   0.414   5.377
 2059SOL    HW1 7076   2.413   0.341   5.336
 2059SOL    HW2 7077   2.377   0.417   5.476
 2060SOL     OW 7078   0.931   3.326   0.555
 2060SOL    HW1 7079   0.950   3.418   0.589
 2060SOL    HW2 7080   0.835   3.321   0.527
 2061SOL     OW 7081   1.944   2.726   2.739
 2061SOL    HW1 7082   1.903   2.810   2.776
 2061SOL    HW2 7083   1.999   2.681   2.809
 2062SOL     OW 7084   6.501   4.859   5.172
 2062SOL    HW1 7085   6.591   4.816   5.177
 2062SOL    HW2 7086   6.447   4.831   5.251
 2063SOL     OW 7087   1.525   6.169   5.136
 2063SOL    HW1 7088   1.496   6.185   5.231
 2063SOL    HW2 7089   1.484   6.084   5.103
 2064SOL     OW 7090   0.884   3.970   4.061
 2064SOL    HW1 7091   0.792   4.005   4.040
 2064SOL    HW2 7092   0.904   3.892   4.001
 2065SOL     OW 7093   5.458   2.921   5.296
 2065SOL    HW1 7094   5.473   2.837   5.245
 2065SOL    HW2 7095   5.370   2.917   5.343
 2066SOL     OW 7096   5.909   3.647   5.640
 2066SOL    HW1 7097   5.975   3.580   5.675
 2066SOL    HW2 7098   5.844   3.600   5.581
 2067SOL     OW 7099   6.352   4.673   1.995
 2067SOL    HW1 7100   6.285   4.607   1.962
 2067SOL    HW2 7101   6.444   4.635   1.984
 2068SOL     OW 7102   3.537   1.282   4.196
 2068SOL    HW1 7103   3.607   1.275   4.267
 2068SOL    HW2 7104   3.557   1.360   4.137
 2069SOL     OW 7105   6.995   1.733   4.417
 2069SOL    HW1 7106   0.010   1.776   4.501
 2069SOL    HW2 7107   6.976   1.636   4.434
 2070SOL     OW 7108   1.320   3.072   1.572
 2070SOL    HW1 7109   1.343   3.161   1.612
 2070SOL    HW2 7110   1.233   3.079   1.523
 2071SOL     OW 7111   6.620   1.344   6.232
 2071SOL    HW1 7112   6.659   1.369   6.320
 2071SOL    HW2 7113   6.589   1.249   6.235
 2072SOL     OW 7114   3.859   4.648   5.283
 2072SOL    HW1 7115   3.837   4.674   5.377
 2072SOL    HW2 7116   3.936   4.703   5.251
 2073SOL     OW 7117   3.747   6.288   6.253
 2073SOL    HW1 7118   3.744   6.266   6.351
 2073SOL    HW2 7119   3.742   6.388   6.242
 2074SOL     OW 7120   1.599   3.316   5.865
 2074SOL    HW1 7121   1.629   3.403   5.905
 2074SOL    HW2 7122   1.559   3.333   5.775
 2075SOL     OW 7123   6.896   2.541   2.026
 2075SOL    HW1 7124   6.976   2.585   2.066
 2075SOL    HW2 7125   6.829   2.610   1.999
 2076SOL     OW 7126   6.118   0.317   4.883
 2076SOL    HW1 7127   6.103   0.410   4.917
 2076SOL    HW2 7128   6.213   0.308   4.852
 2077SOL     OW 7129   0.605   2.805   1.307
 2077SOL    HW1 7130   0.533   2.848   1.252
 2077SOL    HW2 7131   0.625   2.714   1.270
 2078SOL     OW 7132   1.712   4.584   5.765
 2078SOL    HW1 7133   1.667   4.498   5.741
 2078SOL    HW2 7134   1.657   4.661   5.733
 2079SOL     OW 7135   5.147   0.890   1.976
 2079SOL    HW1 7136   5.066   0.869   2.031
 2079SOL    HW2 7137   5.144   0.986   1.948
 2080SOL     OW 7138   2.850   2.225   4.636
 2080SOL    HW1 7139   2.780   2.179   4.581
 2080SOL    HW2 7140   2.807   2.286   4.702
 2081SOL     OW 7141   0.167   6.588   3.394
 2081SOL    HW1 7142   0.222   6.619   3.317
 2081SOL    HW2 7143   0.151   6.490   3.386
 2082SOL     OW 7144   0.846   6.226   2.472
 2082SOL    HW1 7145   0.846   6.243   2.571
 2082SOL    HW2 7146   0.940   6.217   2.440
 2083SOL     OW 7147   0.357   6.190   3.541
 2083SOL    HW1 7148   0.313   6.167   3.628
 2083SOL    HW2 7149   0.334   6.120   3.473
 2084SOL     OW 7150   1.082   1.482   1.267
 2084SOL    HW1 7151   1.095   1.425   1.186
 2084SOL    HW2 7152   1.170   1.507   1.306
 2085SOL     OW 7153   5.101   5.969   0.524
 2085SOL    HW1 7154   5.105   5.871   0.543
 2085SOL    HW2 7155   5.009   5.992   0.491
 2086SOL     OW 7156   3.836   6.921   0.017
 2086SOL    HW1 7157   3.781   6.991   6.991
 2086SOL    HW2 7158   3.786   6.835   0.019
 2087SOL     OW 7159   4.165   2.034   6.834
 2087SOL    HW1 7160   4.156   2.091   6.752
 2087SOL    HW2 7161   4.087   1.971   6.840
 2088SOL     OW 7162   0.474   6.066   6.203
 2088SOL    HW1 7163   0.548   6.125   6.233
 2088SOL    HW2 7164   0.459   6.079   6.105
 2089SOL     OW 7165   4.068   2.689   5.407
 2089SOL    HW1 7166   4.101   2.630   5.333
 2089SOL    HW2 7167   4.052   2.781   5.371
 2090SOL     OW 7168   4.646   3.343   5.332
 2090SOL    HW1 7169   4.662   3.426   5.278
 2090SOL    HW2 7170   4.733   3.304   5.360
 2091SOL     OW 7171   6.256   5.775   1.568
 2091SOL    HW1 7172   6.243   5.868   1.534
 2091SOL    HW2 7173   6.268   5.713   1.491
 2092SOL     OW 7174   4.926   4.000   1.158
 2092SOL    HW1 7175   4.904   4.070   1.091
 2092SOL    HW2 7176   4.871   4.015   1.241
 2093SOL     OW 7177   3.804   2.067   2.202
 2093SOL    HW1 7178   3.756   2.128   2.138
 2093SOL    HW2 7179   3.859   2.002   2.151
 2094SOL     OW 7180   6.138   3.043   0.142
 2094SOL    HW1 7181   6.173   2.978   0.210
 2094SOL    HW2 7182   6.140   3.001   0.052
 2095SOL     OW 7183   6.201   6.211   4.037
 2095SOL    HW1 7184   6.120   6.180   3.987
 2095SOL    HW2 7185   6.283   6.189   3.985
 2096SOL     OW 7186   4.627   6.211   2.293
 2096SOL    HW1 7187   4.527   6.198   2.290
 2096SOL    HW2 7188   4.666   6.187   2.204
 2097SOL     OW 7189   2.129   4.609   6.622
 2097SOL    HW1 7190   2.065   4.585   6.696
 2097SOL    HW2 7191   2.110   4.554   6.542
 2098SOL     OW 7192   4.011   5.766   3.297
 2098SOL    HW1 7193   4.090   5.784   3.356
 2098SOL    HW2 7194   3.934   5.734   3.353
 2099SOL     OW 7195   4.416   1.738   0.404
 2099SOL    HW1 7196   4.356   1.661   0.384
 2099SOL    HW2 7197   4.511   1.710   0.395
 2100SOL     OW 7198   5.450   1.055   0.602
 2100SOL    HW1 7199   5.366   1.065   0.656
 2100SOL    HW2 7200   5.426   1.042   0.506
 2101SOL     OW 7201   0.339   6.191   0.972
 2101SOL    HW1 7202   0.245   6.207   1.003
 2101SOL    HW2 7203   0.364   6.096   0.990
 2102SOL     OW 7204   3.828   2.914   1.439
 2102SOL    HW1 7205   3.772   2.841   1.402
 2102SOL    HW2 7206   3.891   2.877   1.507
 2103SOL     OW 7207   3.170   4.787   0.156
 2103SOL    HW1 7208   3.102   4.837   0.210
 2103SOL    HW2 7209   3.184   4.696   0.196
 2104SOL     OW 7210   1.864   4.499   2.793
 2104SOL    HW1 7211   1.907   4.455   2.872
 2104SOL    HW2 7212   1.765   4.505   2.808
 2105SOL     OW 7213   5.169   4.561   0.191
 2105SOL    HW1 7214   5.136   4.549   0.285
 2105SOL    HW2 7215   5.268   4.577   0.192
 2106SOL     OW 7216   5.370   3.620   1.412
 2106SOL    HW1 7217   5.393   3.529   1.378
 2106SOL    HW2 7218   5.375   3.621   1.512
 2107SOL     OW 7219   5.133   3.567   6.052
 2107SOL    HW1 7220   5.140   3.644   6.115
 2107SOL    HW2 7221   5.133   3.600   5.958
 2108SOL     OW 7222   5.518   6.754   6.053
 2108SOL    HW1 7223   5.616   6.738   6.043
 2108SOL    HW2 7224   5.483   6.795   5.969
 2109SOL     OW 7225   3.484   5.264   2.464
 2109SOL    HW1 7226   3.438   5.316   2.391
 2109SOL    HW2 7227   3.543   5.325   2.516
 2110SOL     OW 7228   4.209   0.897   6.721
 2110SOL    HW1 7229   4.261   0.818   6.752
 2110SOL    HW2 7230   4.219   0.972   6.786
 2111SOL     OW 7231   0.985   2.907   6.009
 2111SOL    HW1 7232   1.013   2.996   6.046
 2111SOL    HW2 7233   0.932   2.858   6.079
 2112SOL     OW 7234   6.066   1.045   0.211
 2112SOL    HW1 7235   5.967   1.033   0.211
 2112SOL    HW2 7236   6.111   0.956   0.205
 2113SOL     OW 7237   1.701   6.782   4.179
 2113SOL    HW1 7238   1.622   6.841   4.161
 2113SOL    HW2 7239   1.692   6.697   4.128
 2114SOL     OW 7240   2.509   2.830   0.126
 2114SOL    HW1 7241   2.593   2.867   0.166
 2114SOL    HW2 7242   2.519   2.732   0.114
 2115SOL     OW 7243   0.814   4.614   2.589
 2115SOL    HW1 7244   0.722   4.651   2.576
 2115SOL    HW2 7245   0.830   4.599   2.687
 2116SOL     OW 7246   1.196   2.324   0.289
 2116SOL    HW1 7247   1.187   2.276   0.376
 2116SOL    HW2 7248   1.210   2.257   0.216
 2117SOL     OW 7249   5.570   2.473   2.616
 2117SOL    HW1 7250   5.605   2.445   2.705
 2117SOL    HW2 7251   5.538   2.393   2.565
 2118SOL     OW 7252   6.919   3.638   2.644
 2118SOL    HW1 7253   6.999   3.586   2.676
 2118SOL    HW2 7254   6.921   3.644   2.544
 2119SOL     OW 7255   2.383   0.463   6.561
 2119SOL    HW1 7256   2.365   0.444   6.465
 2119SOL    HW2 7257   2.464   0.411   6.591
 2120SOL     OW 7258   6.556   2.293   1.930
 2120SOL    HW1 7259   6.585   2.341   2.013
 2120SOL    HW2 7260   6.485   2.226   1.952
 2121SOL     OW 7261   1.719   1.305   6.112
 2121SOL    HW1 7262   1.750   1.380   6.055
 2121SOL    HW2 7263   1.658   1.245   6.059
 2122SOL     OW 7264   6.187   0.536   5.376
 2122SOL    HW1 7265   6.276   0.582   5.377
 2122SOL    HW2 7266   6.201   0.439   5.355
 2123SOL     OW 7267   0.549   5.746   2.974
 2123SOL    HW1 7268   0.502   5.694   2.904
 2123SOL    HW2 7269   0.485   5.807   3.020
 2124SOL     OW 7270   3.756   2.987   5.915
 2124SOL    HW1 7271   3.696   3.049   5.966
 2124SOL    HW2 7272   3.742   2.894   5.948
 2125SOL     OW 7273   1.854   5.658   3.513
 2125SOL    HW1 7274   1.868   5.748   3.473
 2125SOL    HW2 7275   1.937   5.604   3.504
 2126SOL     OW 7276   3.472   3.361   0.404
 2126SOL    HW1 7277   3.562   3.318   0.405
 2126SOL    HW2 7278   3.402   3.291   0.390
 2127SOL     OW 7279   0.098   3.174   6.042
 2127SOL    HW1 7280   0.147   3.256   6.072
 2127SOL    HW2 7281   0.075   3.183   5.945
 2128SOL     OW 7282   5.543   4.084   1.342
 2128SOL    HW1 7283   5.526   4.005   1.400
 2128SOL    HW2 7284   5.611   4.061   1.272
 2129SOL     OW 7285   5.138   3.998   3.545
 2129SOL    HW1 7286   5.153   4.089   3.507
 2129SOL    HW2 7287   5.042   3.972   3.535
 2130SOL     OW 7288   2.397   1.313   1.501
 2130SOL    HW1 7289   2.420   1.231   1.449
 2130SOL    HW2 7290   2.409   1.394   1.444
 2131SOL     OW 7291   5.566   1.781   5.907
 2131SOL    HW1 7292   5.605   1.842   5.975
 2131SOL    HW2 7293   5.532   1.834   5.829
 2132SOL     OW 7294   2.776   1.449   6.632
 2132SOL    HW1 7295   2.824   1.452   6.545
 2132SOL    HW2 7296   2.834   1.491   6.703
 2133SOL     OW 7297   2.307   1.585   1.875
 2133SOL    HW1 7298   2.353   1.663   1.916
 2133SOL    HW2 7299   2.372   1.511   1.860
 2134SOL     OW 7300   0.295   6.825   4.196
 2134SOL    HW1 7301   0.385   6.844   4.157
 2134SOL    HW2 7302   0.304   6.758   4.270
 2135SOL     OW 7303   0.901   1.093   3.609
 2135SOL    HW1 7304   0.974   1.134   3.554
 2135SOL    HW2 7305   0.887   1.148   3.692
 2136SOL     OW 7306   1.164   3.691   5.044
 2136SOL    HW1 7307   1.228   3.767   5.039
 2136SOL    HW2 7308   1.124   3.675   4.954
 2137SOL     OW 7309   1.190   6.072   5.566
 2137SOL    HW1 7310   1.283   6.050   5.534
 2137SOL    HW2 7311   1.194   6.152   5.627
 2138SOL     OW 7312   6.964   2.988   0.807
 2138SOL    HW1 7313   7.012   2.942   0.882
 2138SOL    HW2 7314   6.992   3.084   0.805
 2139SOL     OW 7315   2.420   0.869   4.422
 2139SOL    HW1 7316   2.465   0.808   4.356
 2139SOL    HW2 7317   2.457   0.851   4.514
 2140SOL     OW 7318   2.542   5.953   2.979
 2140SOL    HW1 7319   2.608   5.952   3.054
 2140SOL    HW2 7320   2.474   6.024   2.996
 2141SOL     OW 7321   6.325   2.723   1.086
 2141SOL    HW1 7322   6.238   2.702   1.041
 2141SOL    HW2 7323   6.337   2.661   1.164
 2142SOL     OW 7324   1.507   1.666   3.561
 2142SOL    HW1 7325   1.409   1.675   3.578
 2142SOL    HW2 7326   1.551   1.755   3.573
 2143SOL     OW 7327   4.205   6.749   1.735
 2143SOL    HW1 7328   4.187   6.710   1.644
 2143SOL    HW2 7329   4.230   6.845   1.726
 2144SOL     OW 7330   1.244   0.523   2.915
 2144SOL    HW1 7331   1.245   0.455   2.841
 2144SOL    HW2 7332   1.328   0.578   2.910
 2145SOL     OW 7333   3.190   5.817   4.051
 2145SOL    HW1 7334   3.192   5.725   4.013
 2145SOL    HW2 7335   3.282   5.843   4.080
 2146SOL     OW 7336   2.933   3.661   1.935
 2146SOL    HW1 7337   2.914   3.564   1.942
 2146SOL    HW2 7338   2.848   3.712   1.923
 2147SOL     OW 7339   0.375   1.960   6.791
 2147SOL    HW1 7340   0.470   1.981   6.816
 2147SOL    HW2 7341   0.355   1.865   6.815
 2148SOL     OW 7342   5.084   3.502   3.916
 2148SOL    HW1 7343   5.160   3.550   3.873
 2148SOL    HW2 7344   5.077   3.529   4.012
 2149SOL     OW 7345   4.023   0.701   2.049
 2149SOL    HW1 7346   3.959   0.678   1.976
 2149SOL    HW2 7347   4.103   0.747   2.010
 2150SOL     OW 7348   3.805   1.741   2.743
 2150SOL    HW1 7349   3.813   1.713   2.838
 2150SOL    HW2 7350   3.884   1.797   2.718
 2151SOL     OW 7351   3.896   2.438   5.917
 2151SOL    HW1 7352   3.989   2.403   5.918
 2151SOL    HW2 7353   3.892   2.522   5.864
 2152SOL     OW 7354   6.058   6.562   2.253
 2152SOL    HW1 7355   5.973   6.536   2.299
 2152SOL    HW2 7356   6.060   6.521   2.162
 2153SOL     OW 7357   4.785   1.848   3.611
 2153SOL    HW1 7358   4.706   1.885   3.562
 2153SOL    HW2 7359   4.805   1.756   3.578
 2154SOL     OW 7360   3.121   5.357   4.680
 2154SOL    HW1 7361   3.088   5.268   4.712
 2154SOL    HW2 7362   3.134   5.355   4.581
 2155SOL     OW 7363   2.006   4.679   0.278
 2155SOL    HW1 7364   2.038   4.593   0.319
 2155SOL    HW2 7365   1.992   4.747   0.349
 2156SOL     OW 7366   1.794   0.563   1.690
 2156SOL    HW1 7367   1.698   0.583   1.669
 2156SOL    HW2 7368   1.845   0.553   1.605
 2157SOL     OW 7369   0.169   1.205   5.212
 2157SOL    HW1 7370   0.080   1.217   5.257
 2157SOL    HW2 7371   0.242   1.220   5.279
 2158SOL     OW 7372   4.081   0.063   1.266
 2158SOL    HW1 7373   4.078   6.982   1.279
 2158SOL    HW2 7374   4.110   0.106   1.352
 2159SOL     OW 7375   1.571   6.803   4.867
 2159SOL    HW1 7376   1.663   6.771   4.890
 2159SOL    HW2 7377   1.504   6.733   4.895
 2160SOL     OW 7378   3.680   3.971   1.233
 2160SOL    HW1 7379   3.651   4.060   1.268
 2160SOL    HW2 7380   3.724   3.919   1.306
 2161SOL     OW 7381   4.848   3.828   3.316
 2161SOL    HW1 7382   4.871   3.882   3.397
 2161SOL    HW2 7383   4.780   3.877   3.262
 2162SOL     OW 7384   2.146   0.496   6.656
 2162SOL    HW1 7385   2.137   0.411   6.709
 2162SOL    HW2 7386   2.227   0.489   6.597
 2163SOL     OW 7387   1.933   6.989   0.408
 2163SOL    HW1 7388   1.964   6.897   0.429
 2163SOL    HW2 7389   1.849   7.009   0.458
 2164SOL     OW 7390   1.848   0.522   6.600
 2164SOL    HW1 7391   1.833   0.609   6.646
 2164SOL    HW2 7392   1.885   0.456   6.665
 2165SOL     OW 7393   1.152   0.431   2.661
 2165SOL    HW1 7394   1.186   0.463   2.572
 2165SOL    HW2 7395   1.053   0.442   2.665
 2166SOL     OW 7396   1.417   2.182   5.341
 2166SOL    HW1 7397   1.462   2.113   5.284
 2166SOL    HW2 7398   1.388   2.139   5.427
 2167SOL     OW 7399   2.367   0.765   2.238
 2167SOL    HW1 7400   2.382   0.754   2.337
 2167SOL    HW2 7401   2.447   0.808   2.197
 2168SOL     OW 7402   5.886   3.603   4.328
 2168SOL    HW1 7403   5.840   3.682   4.288
 2168SOL    HW2 7404   5.827   3.562   4.398
 2169SOL     OW 7405   5.500   2.922   5.922
 2169SOL    HW1 7406   5.440   2.843   5.929
 2169SOL    HW2 7407   5.572   2.904   5.854
 2170SOL     OW 7408   4.652   4.923   5.382
 2170SOL    HW1 7409   4.749   4.898   5.378
 2170SOL    HW2 7410   4.626   4.935   5.478
 2171SOL     OW 7411   6.597   3.432   0.076
 2171SOL    HW1 7412   6.531   3.401   0.008
 2171SOL    HW2 7413   6.658   3.500   0.035
 2172SOL     OW 7414   3.369   1.696   0.250
 2172SOL    HW1 7415   3.325   1.683   0.339
 2172SOL    HW2 7416   3.317   1.646   0.180
 2173SOL     OW 7417   4.101   0.384   5.668
 2173SOL    HW1 7418   4.064   0.296   5.696
 2173SOL    HW2 7419   4.190   0.370   5.625
 2174SOL     OW 7420   6.588   4.803   4.169
 2174SOL    HW1 7421   6.542   4.848   4.093
 2174SOL    HW2 7422   6.567   4.705   4.169
 2175SOL     OW 7423   2.479   0.169   3.126
 2175SOL    HW1 7424   2.421   0.089   3.111
 2175SOL    HW2 7425   2.572   0.139   3.148
 2176SOL     OW 7426   2.251   2.354   2.447
 2176SOL    HW1 7427   2.263   2.284   2.377
 2176SOL    HW2 7428   2.306   2.434   2.424
 2177SOL     OW 7429   6.584   2.127   1.251
 2177SOL    HW1 7430   6.614   2.154   1.342
 2177SOL    HW2 7431   6.662   2.089   1.200
 2178SOL     OW 7432   1.060   4.989   0.378
 2178SOL    HW1 7433   1.096   5.082   0.383
 2178SOL    HW2 7434   0.979   4.982   0.437
 2179SOL     OW 7435   1.286   5.334   4.340
 2179SOL    HW1 7436   1.238   5.401   4.283
 2179SOL    HW2 7437   1.302   5.373   4.431
 2180SOL     OW 7438   3.085   3.796   2.950
 2180SOL    HW1 7439   3.081   3.834   2.858
 2180SOL    HW2 7440   3.014   3.726   2.960
 2181SOL     OW 7441   4.755   5.632   5.671
 2181SOL    HW1 7442   4.752   5.715   5.726
 2181SOL    HW2 7443   4.847   5.593   5.674
 2182SOL     OW 7444   6.946   4.226   6.482
 2182SOL    HW1 7445   6.949   4.164   6.559
 2182SOL    HW2 7446   6.863   4.209   6.428
 2183SOL     OW 7447   3.169   2.811   0.563
 2183SOL    HW1 7448   3.098   2.781   0.499
 2183SOL    HW2 7449   3.258   2.774   0.535
 2184SOL     OW 7450   3.702   1.291   6.677
 2184SOL    HW1 7451   3.778   1.251   6.625
 2184SOL    HW2 7452   3.704   1.390   6.667
 2185SOL     OW 7453   1.692   0.376   0.413
 2185SOL    HW1 7454   1.712   0.279   0.425
 2185SOL    HW2 7455   1.667   0.416   0.501
 2186SOL     OW 7456   0.182   4.804   2.763
 2186SOL    HW1 7457   0.092   4.844   2.781
 2186SOL    HW2 7458   0.181   4.759   2.674
 2187SOL     OW 7459   6.341   1.732   0.822
 2187SOL    HW1 7460   6.323   1.680   0.905
 2187SOL    HW2 7461   6.255   1.762   0.781
 2188SOL     OW 7462   5.325   6.307   3.366
 2188SOL    HW1 7463   5.247   6.353   3.409
 2188SOL    HW2 7464   5.410   6.349   3.396
 2189SOL     OW 7465   2.197   0.285   5.896
 2189SOL    HW1 7466   2.124   0.340   5.936
 2189SOL    HW2 7467   2.220   0.321   5.805
 2190SOL     OW 7468   6.557   2.461   1.479
 2190SOL    HW1 7469   6.611   2.517   1.542
 2190SOL    HW2 7470   6.598   2.464   1.388
 2191SOL     OW 7471   3.457   3.034   6.305
 2191SOL    HW1 7472   3.419   2.942   6.291
 2191SOL    HW2 7473   3.493   3.042   6.398
 2192SOL     OW 7474   4.289   5.981   5.181
 2192SOL    HW1 7475   4.331   6.028   5.259
 2192SOL    HW2 7476   4.346   5.903   5.155
 2193SOL     OW 7477   0.820   5.159   5.443
 2193SOL    HW1 7478   0.759   5.169   5.364
 2193SOL    HW2 7479   0.786   5.085   5.501
 2194SOL     OW 7480   2.457   6.404   0.628
 2194SOL    HW1 7481   2.486   6.355   0.711
 2194SOL    HW2 7482   2.359   6.424   0.635
 2195SOL     OW 7483   1.359   5.438   2.744
 2195SOL    HW1 7484   1.324   5.391   2.825
 2195SOL    HW2 7485   1.408   5.521   2.772
 2196SOL     OW 7486   3.521   1.748   5.899
 2196SOL    HW1 7487   3.589   1.817   5.872
 2196SOL    HW2 7488   3.523   1.672   5.834
 2197SOL     OW 7489   5.028   4.604   1.344
 2197SOL    HW1 7490   4.936   4.579   1.373
 2197SOL    HW2 7491   5.044   4.570   1.251
 2198SOL     OW 7492   6.818   4.297   0.293
 2198SOL    HW1 7493   6.837   4.227   0.225
 2198SOL    HW2 7494   6.863   4.382   0.267
 2199SOL     OW 7495   4.871   6.840   0.661
 2199SOL    HW1 7496   4.820   6.791   0.732
 2199SOL    HW2 7497   4.967   6.815   0.665
 2200SOL     OW 7498   4.015   0.776   4.495
 2200SOL    HW1 7499   3.936   0.776   4.557
 2200SOL    HW2 7500   4.033   0.869   4.465
 2201SOL     OW 7501   6.309   3.183   2.221
 2201SOL    HW1 7502   6.292   3.092   2.183
 2201SOL    HW2 7503   6.397   3.184   2.268
 2202SOL     OW 7504   4.032   5.408   3.889
 2202SOL    HW1 7505   4.110   5.423   3.949
 2202SOL    HW2 7506   3.948   5.407   3.943
 2203SOL     OW 7507   3.608   2.144   3.113
 2203SOL    HW1 7508   3.699   2.179   3.089
 2203SOL    HW2 7509   3.555   2.131   3.029
 2204SOL     OW 7510   2.864   1.977   0.301
 2204SOL    HW1 7511   2.798   1.955   0.230
 2204SOL    HW2 7512   2.940   2.028   0.261
 2205SOL     OW 7513   1.935   6.697   0.408
 2205SOL    HW1 7514   1.961   6.601   0.400
 2205SOL    HW2 7515   1.942   6.742   0.319
 2206SOL     OW 7516   3.184   3.657   6.653
 2206SOL    HW1 7517   3.187   3.654   6.553
 2206SOL    HW2 7518   3.202   3.750   6.685
 2207SOL     OW 7519   1.541   4.775   6.140
 2207SOL    HW1 7520   1.465   4.816   6.090
 2207SOL    HW2 7521   1.510   4.691   6.184
 2208SOL     OW 7522   0.551   3.663   1.970
 2208SOL    HW1 7523   0.627   3.605   2.000
 2208SOL    HW2 7524   0.576   3.759   1.982
 2209SOL     OW 7525   1.196   5.350   6.362
 2209SOL    HW1 7526   1.177   5.448   6.359
 2209SOL    HW2 7527   1.183   5.311   6.271
 2210SOL     OW 7528   0.900   6.004   3.781
 2210SOL    HW1 7529   0.861   6.041   3.697
 2210SOL    HW2 7530   1.000   6.006   3.775
 2211SOL     OW 7531   6.170   1.497   5.592
 2211SOL    HW1 7532   6.226   1.414   5.587
 2211SOL    HW2 7533   6.154   1.533   5.500
 2212SOL     OW 7534   1.249   0.360   5.786
 2212SOL    HW1 7535   1.160   0.360   5.739
 2212SOL    HW2 7536   1.246   0.295   5.862
 2213SOL     OW 7537   4.201   2.323   3.291
 2213SOL    HW1 7538   4.249   2.363   3.213
 2213SOL    HW2 7539   4.177   2.228   3.271
 2214SOL     OW 7540   5.786   6.909   4.484
 2214SOL    HW1 7541   5.756   6.978   4.419
 2214SOL    HW2 7542   5.875   6.934   4.521
 2215SOL     OW 7543   6.850   2.016   5.344
 2215SOL    HW1 7544   6.829   2.055   5.434
 2215SOL    HW2 7545   6.778   1.951   5.319
 2216SOL     OW 7546   1.042   6.847   0.932
 2216SOL    HW1 7547   1.083   6.768   0.887
 2216SOL    HW2 7548   1.049   6.836   1.031
 2217SOL     OW 7549   4.542   0.147   1.348
 2217SOL    HW1 7550   4.538   0.247   1.344
 2217SOL    HW2 7551   4.637   0.118   1.362
 2218SOL     OW 7552   0.918   5.831   6.566
 2218SOL    HW1 7553   0.845   5.764   6.561
 2218SOL    HW2 7554   0.967   5.821   6.653
 2219SOL     OW 7555   1.899   4.191   2.860
 2219SOL    HW1 7556   1.896   4.094   2.835
 2219SOL    HW2 7557   1.807   4.228   2.862
 2220SOL     OW 7558   0.314   1.870   5.403
 2220SOL    HW1 7559   0.307   1.954   5.348
 2220SOL    HW2 7560   0.240   1.807   5.377
 2221SOL     OW 7561   6.749   2.208   1.459
 2221SOL    HW1 7562   6.798   2.167   1.536
 2221SOL    HW2 7563   6.802   2.284   1.422
 2222SOL     OW 7564   4.519   6.755   2.143
 2222SOL    HW1 7565   4.530   6.658   2.121
 2222SOL    HW2 7566   4.435   6.789   2.100
 2223SOL     OW 7567   5.873   5.311   3.962
 2223SOL    HW1 7568   5.816   5.367   4.023
 2223SOL    HW2 7569   5.828   5.224   3.945
 2224SOL     OW 7570   2.300   4.603   1.786
 2224SOL    HW1 7571   2.391   4.568   1.810
 2224SOL    HW2 7572   2.232   4.562   1.848
 2225SOL     OW 7573   6.597   5.193   2.353
 2225SOL    HW1 7574   6.661   5.268   2.341
 2225SOL    HW2 7575   6.647   5.112   2.387
 2226SOL     OW 7576   3.495   3.163   1.119
 2226SOL    HW1 7577   3.530   3.072   1.138
 2226SOL    HW2 7578   3.569   3.230   1.128
 2227SOL     OW 7579   6.617   3.932   5.959
 2227SOL    HW1 7580   6.585   4.015   5.914
 2227SOL    HW2 7581   6.567   3.853   5.922
 2228SOL     OW 7582   3.128   4.943   6.101
 2228SOL    HW1 7583   3.164   4.855   6.132
 2228SOL    HW2 7584   3.172   4.970   6.016
 2229SOL     OW 7585   4.359   1.286   3.244
 2229SOL    HW1 7586   4.390   1.359   3.306
 2229SOL    HW2 7587   4.259   1.289   3.237
 2230SOL     OW 7588   0.804   6.059   5.236
 2230SOL    HW1 7589   0.841   5.969   5.214
 2230SOL    HW2 7590   0.804   6.116   5.154
 2231SOL     OW 7591   1.934   0.107   1.889
 2231SOL    HW1 7592   1.860   0.135   1.828
 2231SOL    HW2 7593   2.019   0.153   1.863
 2232SOL     OW 7594   6.595   2.582   2.770
 2232SOL    HW1 7595   6.658   2.543   2.838
 2232SOL    HW2 7596   6.612   2.680   2.761
 2233SOL     OW 7597   3.543   6.556   0.155
 2233SOL    HW1 7598   3.460   6.573   0.208
 2233SOL    HW2 7599   3.525   6.578   0.059
 2234SOL     OW 7600   3.456   1.419   0.765
 2234SOL    HW1 7601   3.452   1.501   0.823
 2234SOL    HW2 7602   3.519   1.435   0.690
 2235SOL     OW 7603   0.912   0.090   0.881
 2235SOL    HW1 7604   0.879   0.095   0.976
 2235SOL    HW2 7605   0.923   7.013   0.854
 2236SOL     OW 7606   0.760   4.762   1.184
 2236SOL    HW1 7607   0.799   4.841   1.137
 2236SOL    HW2 7608   0.699   4.713   1.121
 2237SOL     OW 7609   6.662   3.111   4.740
 2237SOL    HW1 7610   6.714   3.065   4.668
 2237SOL    HW2 7611   6.666   3.210   4.727
 2238SOL     OW 7612   0.526   6.076   2.029
 2238SOL    HW1 7613   0.578   6.161   2.035
 2238SOL    HW2 7614   0.588   5.998   2.023
 2239SOL     OW 7615   3.863   4.920   3.578
 2239SOL    HW1 7616   3.942   4.911   3.639
 2239SOL    HW2 7617   3.879   4.995   3.513
 2240SOL     OW 7618   6.410   4.956   3.148
 2240SOL    HW1 7619   6.456   5.045   3.155
 2240SOL    HW2 7620   6.375   4.930   3.238
 2241SOL     OW 7621   6.839   6.625   1.985
 2241SOL    HW1 7622   6.779   6.546   1.975
 2241SOL    HW2 7623   6.866   6.659   1.894
 2242SOL     OW 7624   4.874   2.114   3.158
 2242SOL    HW1 7625   4.937   2.050   3.113
 2242SOL    HW2 7626   4.901   2.208   3.136
 2243SOL     OW 7627   2.493   6.004   5.136
 2243SOL    HW1 7628   2.541   6.060   5.068
 2243SOL    HW2 7629   2.508   6.044   5.227
 2244SOL     OW 7630   2.440   0.266   4.513
 2244SOL    HW1 7631   2.390   0.179   4.508
 2244SOL    HW2 7632   2.438   0.300   4.607
 2245SOL     OW 7633   0.652   1.404   2.551
 2245SOL    HW1 7634   0.560   1.386   2.516
 2245SOL    HW2 7635   0.675   1.500   2.537
 2246SOL     OW 7636   1.105   3.693   6.126
 2246SOL    HW1 7637   1.112   3.738   6.214
 2246SOL    HW2 7638   1.196   3.666   6.095
 2247SOL     OW 7639   2.060   2.825   6.283
 2247SOL    HW1 7640   1.973   2.811   6.330
 2247SOL    HW2 7641   2.046   2.879   6.200
 2248SOL     OW 7642   4.968   4.038   5.498
 2248SOL    HW1 7643   4.892   4.058   5.559
 2248SOL    HW2 7644   4.936   3.983   5.422
 2249SOL     OW 7645   5.493   5.974   3.490
 2249SOL    HW1 7646   5.433   5.917   3.546
 2249SOL    HW2 7647   5.438   6.037   3.436
 2250SOL     OW 7648   6.346   4.293   0.987
 2250SOL    HW1 7649   6.284   4.278   1.065
 2250SOL    HW2 7650   6.297   4.274   0.902
 2251SOL     OW 7651   5.753   0.813   0.322
 2251SOL    HW1 7652   5.655   0.798   0.332
 2251SOL    HW2 7653   5.794   0.740   0.267
 2252SOL     OW 7654   5.481   2.693   5.156
 2252SOL    HW1 7655   5.540   2.713   5.077
 2252SOL    HW2 7656   5.402   2.640   5.125
 2253SOL     OW 7657   2.640   2.969   6.629
 2253SOL    HW1 7658   2.630   2.883   6.680
 2253SOL    HW2 7659   2.672   2.950   6.537
 2254SOL     OW 7660   2.049   3.762   6.628
 2254SOL    HW1 7661   2.020   3.736   6.536
 2254SOL    HW2 7662   2.109   3.841   6.623
 2255SOL     OW 7663   5.974   2.709   1.848
 2255SOL    HW1 7664   6.020   2.654   1.917
 2255SOL    HW2 7665   6.041   2.763   1.797
 2256SOL     OW 7666   4.238   4.772   2.296
 2256SOL    HW1 7667   4.214   4.752   2.202
 2256SOL    HW2 7668   4.195   4.858   2.325
 2257SOL     OW 7669   1.764   4.169   3.846
 2257SOL    HW1 7670   1.700   4.215   3.785
 2257SOL    HW2 7671   1.743   4.194   3.941
 2258SOL     OW 7672   1.975   5.553   5.082
 2258SOL    HW1 7673   1.970   5.550   5.181
 2258SOL    HW2 7674   2.021   5.638   5.054
 2259SOL     OW 7675   5.561   3.705   0.147
 2259SOL    HW1 7676   5.657   3.683   0.133
 2259SOL    HW2 7677   5.547   3.803   0.133
 2260SOL     OW 7678   5.212   5.012   1.514
 2260SOL    HW1 7679   5.304   4.975   1.503
 2260SOL    HW2 7680   5.195   5.031   1.611
 2261SOL     OW 7681   5.541   6.952   0.596
 2261SOL    HW1 7682   5.561   6.939   0.499
 2261SOL    HW2 7683   5.605   6.897   0.650
 2262SOL     OW 7684   4.773   2.440   4.170
 2262SOL    HW1 7685   4.700   2.505   4.190
 2262SOL    HW2 7686   4.843   2.485   4.115
 2263SOL     OW 7687   1.559   5.117   5.886
 2263SOL    HW1 7688   1.611   5.054   5.829
 2263SOL    HW2 7689   1.496   5.170   5.828
 2264SOL     OW 7690   3.170   3.099   3.562
 2264SOL    HW1 7691   3.160   3.039   3.483
 2264SOL    HW2 7692   3.178   3.043   3.645
 2265SOL     OW 7693   0.361   6.982   1.841
 2265SOL    HW1 7694   0.370   6.997   1.743
 2265SOL    HW2 7695   0.310   6.897   1.857
 2266SOL     OW 7696   5.916   0.402   0.474
 2266SOL    HW1 7697   6.000   0.453   0.494
 2266SOL    HW2 7698   5.846   0.465   0.440
 2267SOL     OW 7699   6.286   2.561   5.412
 2267SOL    HW1 7700   6.235   2.499   5.471
 2267SOL    HW2 7701   6.329   2.509   5.339
 2268SOL     OW 7702   0.220   6.213   0.133
 2268SOL    HW1 7703   0.135   6.260   0.156
 2268SOL    HW2 7704   0.250   6.242   0.042
 2269SOL     OW 7705   6.494   5.331   6.127
 2269SOL    HW1 7706   6.588   5.333   6.093
 2269SOL    HW2 7707   6.431   5.332   6.049
 2270SOL     OW 7708   3.217   3.467   2.071
 2270SOL    HW1 7709   3.232   3.550   2.016
 2270SOL    HW2 7710   3.234   3.386   2.014
 2271SOL     OW 7711   5.807   4.446   2.256
 2271SOL    HW1 7712   5.801   4.367   2.195
 2271SOL    HW2 7713   5.902   4.477   2.262
 2272SOL     OW 7714   5.566   1.984   5.686
 2272SOL    HW1 7715   5.559   2.081   5.662
 2272SOL    HW2 7716   5.480   1.938   5.663
 2273SOL     OW 7717   0.494   1.362   3.421
 2273SOL    HW1 7718   0.580   1.352   3.472
 2273SOL    HW2 7719   0.435   1.428   3.468
 2274SOL     OW 7720   1.556   3.335   4.959
 2274SOL    HW1 7721   1.636   3.313   5.015
 2274SOL    HW2 7722   1.530   3.431   4.975
 2275SOL     OW 7723   5.551   6.148   4.297
 2275SOL    HW1 7724   5.630   6.086   4.290
 2275SOL    HW2 7725   5.583   6.241   4.316
 2276SOL     OW 7726   4.207   4.220   1.236
 2276SOL    HW1 7727   4.147   4.181   1.306
 2276SOL    HW2 7728   4.292   4.167   1.232
 2277SOL     OW 7729   3.097   3.375   6.675
 2277SOL    HW1 7730   2.997   3.375   6.672
 2277SOL    HW2 7731   3.130   3.469   6.668
 2278SOL     OW 7732   5.081   6.012   1.298
 2278SOL    HW1 7733   5.153   6.043   1.359
 2278SOL    HW2 7734   5.086   5.912   1.288
 2279SOL     OW 7735   5.861   2.891   5.105
 2279SOL    HW1 7736   5.781   2.951   5.105
 2279SOL    HW2 7737   5.855   2.827   5.182
 2280SOL     OW 7738   6.155   6.126   5.858
 2280SOL    HW1 7739   6.237   6.154   5.907
 2280SOL    HW2 7740   6.116   6.204   5.809
 2281SOL     OW 7741   3.493   2.163   1.466
 2281SOL    HW1 7742   3.429   2.169   1.542
 2281SOL    HW2 7743   3.505   2.067   1.440
 2282SOL     OW 7744   5.111   5.631   3.354
 2282SOL    HW1 7745   5.042   5.591   3.294
 2282SOL    HW2 7746   5.202   5.616   3.314
 2283SOL     OW 7747   0.246   3.226   3.588
 2283SOL    HW1 7748   0.228   3.142   3.640
 2283SOL    HW2 7749   0.333   3.265   3.618
 2284SOL     OW 7750   2.314   2.076   1.793
 2284SOL    HW1 7751   2.218   2.084   1.822
 2284SOL    HW2 7752   2.322   2.107   1.698
 2285SOL     OW 7753   1.299   3.449   0.988
 2285SOL    HW1 7754   1.294   3.549   0.990
 2285SOL    HW2 7755   1.316   3.415   1.081
 2286SOL     OW 7756   6.645   6.252   4.711
 2286SOL    HW1 7757   6.691   6.261   4.799
 2286SOL    HW2 7758   6.677   6.169   4.665
 2287SOL     OW 7759   2.344   2.471   1.874
 2287SOL    HW1 7760   2.400   2.522   1.809
 2287SOL    HW2 7761   2.375   2.491   1.967
 2288SOL     OW 7762   6.996   6.279   2.648
 2288SOL    HW1 7763   6.934   6.201   2.656
 2288SOL    HW2 7764   0.064   6.257   2.693
 2289SOL     OW 7765   5.566   1.651   2.523
 2289SOL    HW1 7766   5.535   1.556   2.518
 2289SOL    HW2 7767   5.488   1.710   2.539
 2290SOL     OW 7768   3.031   3.935   3.362
 2290SOL    HW1 7769   3.090   4.002   3.318
 2290SOL    HW2 7770   3.066   3.915   3.454
 2291SOL     OW 7771   2.268   2.302   0.955
 2291SOL    HW1 7772   2.192   2.332   0.897
 2291SOL    HW2 7773   2.355   2.325   0.910
 2292SOL     OW 7774   4.132   1.980   2.834
 2292SOL    HW1 7775   4.087   2.069   2.841
 2292SOL    HW2 7776   4.224   1.986   2.874
 2293SOL     OW 7777   5.496   1.345   0.516
 2293SOL    HW1 7778   5.528   1.388   0.600
 2293SOL    HW2 7779   5.507   1.246   0.523
 2294SOL     OW 7780   0.968   2.560   6.391
 2294SOL    HW1 7781   1.047   2.498   6.387
 2294SOL    HW2 7782   0.955   2.592   6.484
 2295SOL     OW 7783   6.769   0.022   1.992
 2295SOL    HW1 7784   6.680   0.041   1.950
 2295SOL    HW2 7785   6.757   6.979   2.070
 2296SOL     OW 7786   2.641   5.376   3.486
 2296SOL    HW1 7787   2.688   5.289   3.466
 2296SOL    HW2 7788   2.549   5.356   3.520
 2297SOL     OW 7789   4.410   5.005   5.617
 2297SOL    HW1 7790   4.447   5.097   5.623
 2297SOL    HW2 7791   4.383   4.974   5.708
 2298SOL     OW 7792   3.704   3.209   4.461
 2298SOL    HW1 7793   3.717   3.306   4.442
 2298SOL    HW2 7794   3.763   3.155   4.401
 2299SOL     OW 7795   5.208   2.879   5.082
 2299SOL    HW1 7796   5.179   2.950   5.146
 2299SOL    HW2 7797   5.218   2.792   5.130
 2300SOL     OW 7798   4.093   6.311   3.071
 2300SOL    HW1 7799   4.109   6.253   2.991
 2300SOL    HW2 7800   4.112   6.406   3.047
 2301SOL     OW 7801   3.450   3.198   4.487
 2301SOL    HW1 7802   3.434   3.293   4.462
 2301SOL    HW2 7803   3.547   3.175   4.474
 2302SOL     OW 7804   4.671   1.670   0.354
 2302SOL    HW1 7805   4.654   1.721   0.270
 2302SOL    HW2 7806   4.711   1.730   0.423
 2303SOL     OW 7807   2.535   1.864   0.520
 2303SOL    HW1 7808   2.523   1.840   0.424
 2303SOL    HW2 7809   2.630   1.892   0.535
 2304SOL     OW 7810   6.308   6.013   2.475
 2304SOL    HW1 7811   6.290   6.035   2.379
 2304SOL    HW2 7812   6.231   6.042   2.532
 2305SOL     OW 7813   1.448   1.286   5.446
 2305SOL    HW1 7814   1.512   1.231   5.393
 2305SOL    HW2 7815   1.468   1.276   5.544
 2306SOL     OW 7816   2.849   4.735   3.561
 2306SOL    HW1 7817   2.929   4.739   3.502
 2306SOL    HW2 7818   2.871   4.773   3.651
 2307SOL     OW 7819   1.206   2.770   5.659
 2307SOL    HW1 7820   1.246   2.805   5.743
 2307SOL    HW2 7821   1.267   2.790   5.582
 2308SOL     OW 7822   2.497   4.606   2.053
 2308SOL    HW1 7823   2.518   4.547   2.131
 2308SOL    HW2 7824   2.518   4.557   1.968
 2309SOL     OW 7825   1.146   6.633   4.193
 2309SOL    HW1 7826   1.068   6.575   4.168
 2309SOL    HW2 7827   1.231   6.588   4.164
 2310SOL     OW 7828   4.550   6.977   1.137
 2310SOL    HW1 7829   4.529   0.039   1.191
 2310SOL    HW2 7830   4.650   6.968   1.128
 2311SOL     OW 7831   2.479   6.128   1.158
 2311SOL    HW1 7832   2.563   6.152   1.207
 2311SOL    HW2 7833   2.477   6.030   1.141
 2312SOL     OW 7834   3.740   5.628   2.540
 2312SOL    HW1 7835   3.760   5.532   2.517
 2312SOL    HW2 7836   3.671   5.632   2.612
 2313SOL     OW 7837   5.136   4.905   2.117
 2313SOL    HW1 7838   5.046   4.867   2.140
 2313SOL    HW2 7839   5.204   4.873   2.183
 2314SOL     OW 7840   3.166   5.905   3.425
 2314SOL    HW1 7841   3.155   5.838   3.498
 2314SOL    HW2 7842   3.235   5.972   3.451
 2315SOL     OW 7843   4.148   3.362   6.317
 2315SOL    HW1 7844   4.232   3.414   6.332
 2315SOL    HW2 7845   4.164   3.265   6.338
 2316SOL     OW 7846   5.711   2.697   3.056
 2316SOL    HW1 7847   5.613   2.706   3.076
 2316SOL    HW2 7848   5.723   2.646   2.971
 2317SOL     OW 7849   2.095   4.595   3.366
 2317SOL    HW1 7850   2.074   4.500   3.344
 2317SOL    HW2 7851   2.169   4.598   3.434
 2318SOL     OW 7852   7.019   0.870   3.646
 2318SOL    HW1 7853   0.099   0.862   3.654
 2318SOL    HW2 7854   6.977   0.847   3.734
 2319SOL     OW 7855   1.383   4.908   4.451
 2319SOL    HW1 7856   1.327   4.850   4.511
 2319SOL    HW2 7857   1.408   4.991   4.500
 2320SOL     OW 7858   0.018   2.850   4.108
 2320SOL    HW1 7859   7.016   2.866   4.012
 2320SOL    HW2 7860   0.109   2.810   4.116
 2321SOL     OW 7861   3.082   6.990   5.293
 2321SOL    HW1 7862   3.144   0.007   5.222
 2321SOL    HW2 7863   3.014   6.930   5.252
 2322SOL     OW 7864   1.384   0.504   5.098
 2322SOL    HW1 7865   1.329   0.478   5.177
 2322SOL    HW2 7866   1.469   0.451   5.098
 2323SOL     OW 7867   4.360   5.900   2.099
 2323SOL    HW1 7868   4.384   5.997   2.103
 2323SOL    HW2 7869   4.424   5.852   2.039
 2324SOL     OW 7870   0.441   5.599   2.772
 2324SOL    HW1 7871   0.452   5.518   2.829
 2324SOL    HW2 7872   0.390   5.575   2.689
 2325SOL     OW 7873   1.146   3.730   0.816
 2325SOL    HW1 7874   1.097   3.642   0.808
 2325SOL    HW2 7875   1.220   3.732   0.749
 2326SOL     OW 7876   1.014   5.228   6.754
 2326SOL    HW1 7877   1.047   5.134   6.752
 2326SOL    HW2 7878   1.090   5.289   6.777
 2327SOL     OW 7879   5.100   2.888   3.771
 2327SOL    HW1 7880   5.112   2.882   3.672
 2327SOL    HW2 7881   5.030   2.956   3.792
 2328SOL     OW 7882   4.536   1.333   2.912
 2328SOL    HW1 7883   4.563   1.339   3.008
 2328SOL    HW2 7884   4.604   1.279   2.861
 2329SOL     OW 7885   1.177   5.782   4.109
 2329SOL    HW1 7886   1.248   5.777   4.038
 2329SOL    HW2 7887   1.124   5.866   4.097
 2330SOL     OW 7888   0.752   4.311   2.846
 2330SOL    HW1 7889   0.828   4.264   2.890
 2330SOL    HW2 7890   0.775   4.407   2.833
 2331SOL     OW 7891   0.633   4.631   5.388
 2331SOL    HW1 7892   0.720   4.589   5.361
 2331SOL    HW2 7893   0.651   4.714   5.442
 2332SOL     OW 7894   5.326   2.291   6.070
 2332SOL    HW1 7895   5.419   2.266   6.096
 2332SOL    HW2 7896   5.319   2.295   5.970
 2333SOL     OW 7897   1.121   5.694   3.435
 2333SOL    HW1 7898   1.170   5.624   3.384
 2333SOL    HW2 7899   1.026   5.665   3.447
 2334SOL     OW 7900   3.302   6.840   6.938
 2334SOL    HW1 7901   3.355   6.921   6.963
 2334SOL    HW2 7902   3.205   6.858   6.952
 2335SOL     OW 7903   5.047   0.051   3.389
 2335SOL    HW1 7904   5.121   0.096   3.441
 2335SOL    HW2 7905   4.989   0.000   3.452
 2336SOL     OW 7906   4.728   1.109   5.817
 2336SOL    HW1 7907   4.663   1.127   5.743
 2336SOL    HW2 7908   4.768   1.195   5.848
 2337SOL     OW 7909   5.274   0.018   3.238
 2337SOL    HW1 7910   5.188   0.040   3.283
 2337SOL    HW2 7911   5.302   6.944   3.261
 2338SOL     OW 7912   0.719   6.922   6.342
 2338SOL    HW1 7913   0.745   6.834   6.303
 2338SOL    HW2 7914   0.740   6.923   6.439
 2339SOL     OW 7915   3.520   4.618   0.013
 2339SOL    HW1 7916   3.571   4.595   6.948
 2339SOL    HW2 7917   3.453   4.689   7.011
 2340SOL     OW 7918   3.902   5.682   4.819
 2340SOL    HW1 7919   3.915   5.583   4.817
 2340SOL    HW2 7920   3.979   5.724   4.867
 2341SOL     OW 7921   5.492   5.375   1.088
 2341SOL    HW1 7922   5.514   5.399   1.182
 2341SOL    HW2 7923   5.559   5.417   1.026
 2342SOL     OW 7924   6.550   0.412   5.002
 2342SOL    HW1 7925   6.642   0.448   5.014
 2342SOL    HW2 7926   6.540   0.327   5.055
 2343SOL     OW 7927   1.366   5.534   0.887
 2343SOL    HW1 7928   1.395   5.486   0.804
 2343SOL    HW2 7929   1.312   5.614   0.861
 2344SOL     OW 7930   1.984   1.989   2.055
 2344SOL    HW1 7931   1.924   1.911   2.036
 2344SOL    HW2 7932   1.949   2.070   2.009
 2345SOL     OW 7933   1.954   0.717   4.808
 2345SOL    HW1 7934   2.021   0.786   4.838
 2345SOL    HW2 7935   1.888   0.702   4.881
 2346SOL     OW 7936   5.256   3.892   5.672
 2346SOL    HW1 7937   5.313   3.857   5.746
 2346SOL    HW2 7938   5.228   3.986   5.693
 2347SOL     OW 7939   1.383   2.681   1.798
 2347SOL    HW1 7940   1.361   2.676   1.895
 2347SOL    HW2 7941   1.420   2.594   1.767
 2348SOL     OW 7942   2.676   6.471   2.301
 2348SOL    HW1 7943   2.607   6.405   2.333
 2348SOL    HW2 7944   2.662   6.559   2.345
 2349SOL     OW 7945   6.168   6.622   5.692
 2349SOL    HW1 7946   6.242   6.580   5.745
 2349SOL    HW2 7947   6.207   6.685   5.624
 2350SOL     OW 7948   2.492   0.526   5.824
 2350SOL    HW1 7949   2.555   0.593   5.785
 2350SOL    HW2 7950   2.544   0.447   5.858
 2351SOL     OW 7951   2.408   5.513   4.231
 2351SOL    HW1 7952   2.401   5.503   4.331
 2351SOL    HW2 7953   2.498   5.549   4.208
 2352SOL     OW 7954   0.777   3.909   2.852
 2352SOL    HW1 7955   0.728   3.996   2.850
 2352SOL    HW2 7956   0.875   3.926   2.857
 2353SOL     OW 7957   3.016   4.505   5.795
 2353SOL    HW1 7958   2.989   4.409   5.791
 2353SOL    HW2 7959   2.954   4.556   5.855
 2354SOL     OW 7960   3.036   2.109   0.654
 2354SOL    HW1 7961   3.043   2.208   0.643
 2354SOL    HW2 7962   3.055   2.084   0.749
 2355SOL     OW 7963   0.655   6.478   0.759
 2355SOL    HW1 7964   0.735   6.423   0.782
 2355SOL    HW2 7965   0.575   6.443   0.809
 2356SOL     OW 7966   2.939   5.043   3.232
 2356SOL    HW1 7967   2.885   5.037   3.148
 2356SOL    HW2 7968   2.890   5.097   3.300
 2357SOL     OW 7969   6.340   4.368   2.120
 2357SOL    HW1 7970   6.343   4.352   2.021
 2357SOL    HW2 7971   6.352   4.281   2.168
 2358SOL     OW 7972   3.787   1.410   5.711
 2358SOL    HW1 7973   3.856   1.422   5.640
 2358SOL    HW2 7974   3.714   1.477   5.698
 2359SOL     OW 7975   1.656   1.672   5.353
 2359SOL    HW1 7976   1.657   1.606   5.428
 2359SOL    HW2 7977   1.582   1.650   5.290
 2360SOL     OW 7978   4.603   4.639   0.649
 2360SOL    HW1 7979   4.543   4.561   0.667
 2360SOL    HW2 7980   4.612   4.652   0.550
 2361SOL     OW 7981   3.103   6.793   2.050
 2361SOL    HW1 7982   3.088   6.773   2.147
 2361SOL    HW2 7983   3.030   6.752   1.996
 2362SOL     OW 7984   3.976   5.535   4.433
 2362SOL    HW1 7985   3.896   5.563   4.485
 2362SOL    HW2 7986   4.053   5.522   4.495
 2363SOL     OW 7987   3.234   3.268   0.618
 2363SOL    HW1 7988   3.170   3.258   0.542
 2363SOL    HW2 7989   3.201   3.214   0.696
 2364SOL     OW 7990   3.980   1.930   2.050
 2364SOL    HW1 7991   4.007   1.940   1.954
 2364SOL    HW2 7992   3.953   1.835   2.067
 2365SOL     OW 7993   5.788   3.409   4.164
 2365SOL    HW1 7994   5.748   3.450   4.082
 2365SOL    HW2 7995   5.828   3.481   4.221
 2366SOL     OW 7996   2.523   4.272   5.268
 2366SOL    HW1 7997   2.585   4.270   5.346
 2366SOL    HW2 7998   2.501   4.179   5.239
 2367SOL     OW 7999   0.741   4.143   5.962
 2367SOL    HW1 8000   0.723   4.052   5.923
 2367SOL    HW2 8001   0.677   4.160   6.037
 2368SOL     OW 8002   5.586   0.105   4.461
 2368SOL    HW1 8003   5.542   0.067   4.380
 2368SOL    HW2 8004   5.659   0.168   4.433
 2369SOL     OW 8005   2.969   1.132   3.587
 2369SOL    HW1 8006   2.990   1.046   3.633
 2369SOL    HW2 8007   3.033   1.202   3.618
 2370SOL     OW 8008   5.330   2.989   1.170
 2370SOL    HW1 8009   5.404   2.955   1.112
 2370SOL    HW2 8010   5.368   3.024   1.256
 2371SOL     OW 8011   0.745   6.733   3.018
 2371SOL    HW1 8012   0.751   6.633   3.018
 2371SOL    HW2 8013   0.751   6.767   2.924
 2372SOL     OW 8014   6.764   1.785   5.962
 2372SOL    HW1 8015   6.689   1.720   5.948
 2372SOL    HW2 8016   6.851   1.736   5.965
 2373SOL     OW 8017   6.366   6.671   6.337
 2373SOL    HW1 8018   6.463   6.664   6.361
 2373SOL    HW2 8019   6.345   6.609   6.261
 2374SOL     OW 8020   6.373   6.501   2.998
 2374SOL    HW1 8021   6.452   6.475   3.054
 2374SOL    HW2 8022   6.392   6.482   2.902
 2375SOL     OW 8023   1.094   0.713   4.053
 2375SOL    HW1 8024   1.012   0.709   3.997
 2375SOL    HW2 8025   1.076   0.669   4.142
 2376SOL     OW 8026   6.030   2.110   2.667
 2376SOL    HW1 8027   6.114   2.139   2.712
 2376SOL    HW2 8028   6.051   2.077   2.576
 2377SOL     OW 8029   4.569   4.899   5.951
 2377SOL    HW1 8030   4.509   4.888   5.871
 2377SOL    HW2 8031   4.632   4.822   5.955
 2378SOL     OW 8032   6.837   1.449   0.426
 2378SOL    HW1 8033   6.767   1.488   0.486
 2378SOL    HW2 8034   6.796   1.380   0.368
 2379SOL     OW 8035   6.958   5.325   0.377
 2379SOL    HW1 8036   6.870   5.368   0.361
 2379SOL    HW2 8037   6.950   5.256   0.449
 2380SOL     OW 8038   4.939   4.430   4.826
 2380SOL    HW1 8039   4.909   4.464   4.736
 2380SOL    HW2 8040   4.987   4.503   4.874
 2381SOL     OW 8041   2.703   5.369   5.088
 2381SOL    HW1 8042   2.671   5.276   5.100
 2381SOL    HW2 8043   2.783   5.384   5.147
 2382SOL     OW 8044   1.498   6.127   2.202
 2382SOL    HW1 8045   1.520   6.119   2.104
 2382SOL    HW2 8046   1.579   6.105   2.256
 2383SOL     OW 8047   5.019   5.736   5.089
 2383SOL    HW1 8048   5.019   5.809   5.157
 2383SOL    HW2 8049   4.958   5.762   5.013
 2384SOL     OW 8050   0.878   1.617   1.752
 2384SOL    HW1 8051   0.857   1.706   1.791
 2384SOL    HW2 8052   0.828   1.606   1.666
 2385SOL     OW 8053   0.161   2.151   0.491
 2385SOL    HW1 8054   0.169   2.250   0.507
 2385SOL    HW2 8055   0.239   2.104   0.533
 2386SOL     OW 8056   4.051   5.636   4.198
 2386SOL    HW1 8057   4.113   5.581   4.142
 2386SOL    HW2 8058   4.051   5.601   4.292
 2387SOL     OW 8059   1.039   1.719   3.271
 2387SOL    HW1 8060   1.036   1.804   3.218
 2387SOL    HW2 8061   1.134   1.686   3.276
 2388SOL     OW 8062   6.455   2.134   6.305
 2388SOL    HW1 8063   6.519   2.210   6.315
 2388SOL    HW2 8064   6.458   2.076   6.386
 2389SOL     OW 8065   5.269   4.736   3.788
 2389SOL    HW1 8066   5.252   4.813   3.726
 2389SOL    HW2 8067   5.218   4.749   3.873
 2390SOL     OW 8068   4.590   3.643   5.923
 2390SOL    HW1 8069   4.577   3.554   5.967
 2390SOL    HW2 8070   4.683   3.675   5.941
 2391SOL     OW 8071   3.332   3.445   5.728
 2391SOL    HW1 8072   3.253   3.387   5.744
 2391SOL    HW2 8073   3.302   3.536   5.698
 2392SOL     OW 8074   3.382   5.421   5.104
 2392SOL    HW1 8075   3.384   5.363   5.023
 2392SOL    HW2 8076   3.467   5.475   5.108
 2393SOL     OW 8077   3.678   5.116   1.049
 2393SOL    HW1 8078   3.749   5.097   0.981
 2393SOL    HW2 8079   3.661   5.034   1.104
 2394SOL     OW 8080   0.451   3.369   3.342
 2394SOL    HW1 8081   0.355   3.353   3.319
 2394SOL    HW2 8082   0.469   3.335   3.434
 2395SOL     OW 8083   0.421   3.022   5.934
 2395SOL    HW1 8084   0.505   3.040   5.984
 2395SOL    HW2 8085   0.357   2.972   5.993
 2396SOL     OW 8086   5.960   1.407   5.336
 2396SOL    HW1 8087   5.912   1.493   5.354
 2396SOL    HW2 8088   6.044   1.426   5.284
 2397SOL     OW 8089   0.743   4.884   5.514
 2397SOL    HW1 8090   0.741   4.884   5.414
 2397SOL    HW2 8091   0.833   4.856   5.546
 2398SOL     OW 8092   2.864   5.590   4.061
 2398SOL    HW1 8093   2.939   5.572   4.124
 2398SOL    HW2 8094   2.799   5.514   4.064
 2399SOL     OW 8095   2.726   2.378   3.394
 2399SOL    HW1 8096   2.768   2.393   3.484
 2399SOL    HW2 8097   2.665   2.455   3.374
 2400SOL     OW 8098   1.651   4.000   0.115
 2400SOL    HW1 8099   1.565   3.970   0.156
 2400SOL    HW2 8100   1.644   4.096   0.090
 2401SOL     OW 8101   3.816   6.941   5.102
 2401SOL    HW1 8102   3.775   0.013   5.118
 2401SOL    HW2 8103   3.901   6.952   5.051
 2402SOL     OW 8104   0.707   2.029   2.447
 2402SOL    HW1 8105   0.623   2.076   2.473
 2402SOL    HW2 8106   0.685   1.944   2.401
 2403SOL     OW 8107   3.355   3.485   2.293
 2403SOL    HW1 8108   3.307   3.499   2.379
 2403SOL    HW2 8109   3.289   3.479   2.218
 2404SOL     OW 8110   6.703   1.012   1.074
 2404SOL    HW1 8111   6.687   1.100   1.119
 2404SOL    HW2 8112   6.623   0.987   1.021
 2405SOL     OW 8113   2.728   4.069   0.131
 2405SOL    HW1 8114   2.761   4.153   0.175
 2405SOL    HW2 8115   2.770   3.990   0.175
 2406SOL     OW 8116   1.848   0.242   4.507
 2406SOL    HW1 8117   1.861   0.298   4.588
 2406SOL    HW2 8118   1.814   0.152   4.533
 2407SOL     OW 8119   3.784   1.475   3.383
 2407SOL    HW1 8120   3.746   1.383   3.388
 2407SOL    HW2 8121   3.755   1.518   3.297
 2408SOL     OW 8122   2.363   6.640   3.849
 2408SOL    HW1 8123   2.399   6.561   3.898
 2408SOL    HW2 8124   2.320   6.703   3.914
 2409SOL     OW 8125   2.349   2.590   0.625
 2409SOL    HW1 8126   2.276   2.655   0.645
 2409SOL    HW2 8127   2.310   2.498   0.615
 2410SOL     OW 8128   6.793   3.311   5.745
 2410SOL    HW1 8129   6.710   3.261   5.771
 2410SOL    HW2 8130   6.849   3.254   5.685
 2411SOL     OW 8131   2.834   3.391   6.606
 2411SOL    HW1 8132   2.819   3.348   6.517
 2411SOL    HW2 8133   2.780   3.474   6.613
 2412SOL     OW 8134   2.550   2.255   6.621
 2412SOL    HW1 8135   2.633   2.280   6.572
 2412SOL    HW2 8136   2.477   2.236   6.555
 2413SOL     OW 8137   6.811   2.446   6.515
 2413SOL    HW1 8138   6.725   2.475   6.558
 2413SOL    HW2 8139   6.877   2.521   6.518
 2414SOL     OW 8140   6.027   2.467   4.379
 2414SOL    HW1 8141   6.078   2.527   4.441
 2414SOL    HW2 8142   6.002   2.383   4.427
 2415SOL     OW 8143   3.019   6.261   1.352
 2415SOL    HW1 8144   3.079   6.232   1.427
 2415SOL    HW2 8145   3.018   6.361   1.349
 2416SOL     OW 8146   6.927   3.209   3.137
 2416SOL    HW1 8147   6.988   3.233   3.062
 2416SOL    HW2 8148   6.855   3.277   3.144
 2417SOL     OW 8149   3.566   2.503   0.438
 2417SOL    HW1 8150   3.623   2.495   0.356
 2417SOL    HW2 8151   3.600   2.578   0.495
 2418SOL     OW 8152   4.882   4.145   6.152
 2418SOL    HW1 8153   4.930   4.207   6.089
 2418SOL    HW2 8154   4.949   4.095   6.207
 2419SOL     OW 8155   2.096   6.536   4.370
 2419SOL    HW1 8156   2.102   6.585   4.457
 2419SOL    HW2 8157   2.187   6.531   4.329
 2420SOL     OW 8158   3.510   5.487   2.688
 2420SOL    HW1 8159   3.558   5.423   2.749
 2420SOL    HW2 8160   3.411   5.471   2.696
 2421SOL     OW 8161   3.090   0.112   4.679
 2421SOL    HW1 8162   3.115   0.019   4.655
 2421SOL    HW2 8163   3.017   0.144   4.619
 2422SOL     OW 8164   4.017   6.717   2.115
 2422SOL    HW1 8165   3.938   6.665   2.083
 2422SOL    HW2 8166   4.092   6.707   2.049
 2423SOL     OW 8167   1.892   5.534   2.435
 2423SOL    HW1 8168   1.886   5.483   2.520
 2423SOL    HW2 8169   1.800   5.555   2.402
 2424SOL     OW 8170   5.171   0.743   6.861
 2424SOL    HW1 8171   5.247   0.683   6.834
 2424SOL    HW2 8172   5.195   0.791   6.945
 2425SOL     OW 8173   4.614   5.387   5.702
 2425SOL    HW1 8174   4.541   5.364   5.638
 2425SOL    HW2 8175   4.656   5.474   5.676
 2426SOL     OW 8176   1.054   5.140   5.615
 2426SOL    HW1 8177   1.029   5.145   5.711
 2426SOL    HW2 8178   0.975   5.166   5.559
 2427SOL     OW 8179   5.271   0.070   6.475
 2427SOL    HW1 8180   5.232   0.003   6.412
 2427SOL    HW2 8181   5.335   0.129   6.424
 2428SOL     OW 8182   0.291   1.355   3.812
 2428SOL    HW1 8183   0.371   1.355   3.872
 2428SOL    HW2 8184   0.212   1.320   3.863
 2429SOL     OW 8185   5.250   5.217   2.448
 2429SOL    HW1 8186   5.221   5.196   2.355
 2429SOL    HW2 8187   5.306   5.300   2.448
 2430SOL     OW 8188   5.758   2.778   0.323
 2430SOL    HW1 8189   5.778   2.703   0.385
 2430SOL    HW2 8190   5.840   2.833   0.308
 2431SOL     OW 8191   6.278   2.062   1.761
 2431SOL    HW1 8192   6.200   2.105   1.716
 2431SOL    HW2 8193   6.363   2.094   1.719
 2432SOL     OW 8194   3.469   5.664   2.201
 2432SOL    HW1 8195   3.443   5.638   2.108
 2432SOL    HW2 8196   3.486   5.762   2.204
 2433SOL     OW 8197   6.897   5.728   0.281
 2433SOL    HW1 8198   6.980   5.696   0.328
 2433SOL    HW2 8199   6.921   5.755   0.188
 2434SOL     OW 8200   3.748   2.039   2.728
 2434SOL    HW1 8201   3.821   1.985   2.686
 2434SOL    HW2 8202   3.684   2.068   2.657
 2435SOL     OW 8203   5.736   0.381   6.484
 2435SOL    HW1 8204   5.666   0.430   6.431
 2435SOL    HW2 8205   5.697   0.295   6.519
 2436SOL     OW 8206   0.875   1.331   1.364
 2436SOL    HW1 8207   0.926   1.409   1.327
 2436SOL    HW2 8208   0.874   1.337   1.464
 2437SOL     OW 8209   6.525   5.960   2.176
 2437SOL    HW1 8210   6.565   6.051   2.160
 2437SOL    HW2 8211   6.587   5.906   2.233
 2438SOL     OW 8212   3.192   1.906   4.348
 2438SOL    HW1 8213   3.182   1.973   4.275
 2438SOL    HW2 8214   3.223   1.952   4.432
 2439SOL     OW 8215   0.271   4.829   6.645
 2439SOL    HW1 8216   0.302   4.849   6.552
 2439SOL    HW2 8217   0.171   4.829   6.648
 2440SOL     OW 8218   4.098   1.033   4.427
 2440SOL    HW1 8219   4.172   1.062   4.487
 2440SOL    HW2 8220   4.077   1.106   4.362
 2441SOL     OW 8221   5.829   6.995   6.595
 2441SOL    HW1 8222   5.830   0.016   6.686
 2441SOL    HW2 8223   5.738   7.006   6.555
 2442SOL     OW 8224   4.981   3.521   2.069
 2442SOL    HW1 8225   4.950   3.431   2.036
 2442SOL    HW2 8226   4.970   3.588   1.996
 2443SOL     OW 8227   2.265   0.947   6.766
 2443SOL    HW1 8228   2.208   0.992   6.697
 2443SOL    HW2 8229   2.304   1.015   6.827
 2444SOL     OW 8230   4.162   5.305   0.595
 2444SOL    HW1 8231   4.192   5.271   0.684
 2444SOL    HW2 8232   4.204   5.251   0.522
 2445SOL     OW 8233   0.004   2.036   1.283
 2445SOL    HW1 8234   6.966   1.968   1.328
 2445SOL    HW2 8235   0.071   2.073   1.347
 2446SOL     OW 8236   1.124   3.461   2.210
 2446SOL    HW1 8237   1.060   3.404   2.261
 2446SOL    HW2 8238   1.081   3.489   2.123
 2447SOL     OW 8239   2.015   0.727   0.520
 2447SOL    HW1 8240   2.021   0.814   0.471
 2447SOL    HW2 8241   1.944   0.670   0.478
 2448SOL     OW 8242   5.994   2.126   4.213
 2448SOL    HW1 8243   5.963   2.206   4.160
 2448SOL    HW2 8244   6.040   2.062   4.152
 2449SOL     OW 8245   2.148   4.425   2.002
 2449SOL    HW1 8246   2.051   4.426   1.981
 2449SOL    HW2 8247   2.173   4.510   2.048
 2450SOL     OW 8248   2.498   5.471   6.436
 2450SOL    HW1 8249   2.509   5.568   6.416
 2450SOL    HW2 8250   2.572   5.420   6.392
 2451SOL     OW 8251   0.717   0.521   3.882
 2451SOL    HW1 8252   0.726   0.425   3.859
 2451SOL    HW2 8253   0.620   0.545   3.891
 2452SOL     OW 8254   2.313   2.786   3.687
 2452SOL    HW1 8255   2.368   2.776   3.770
 2452SOL    HW2 8256   2.242   2.715   3.686
 2453SOL     OW 8257   6.759   1.945   0.681
 2453SOL    HW1 8258   6.810   1.973   0.599
 2453SOL    HW2 8259   6.819   1.892   0.741
 2454SOL     OW 8260   3.134   5.695   0.481
 2454SOL    HW1 8261   3.105   5.790   0.464
 2454SOL    HW2 8262   3.164   5.687   0.576
 2455SOL     OW 8263   2.985   1.190   6.837
 2455SOL    HW1 8264   2.941   1.147   6.915
 2455SOL    HW2 8265   2.941   1.160   6.752
 2456SOL     OW 8266   0.992   3.805   6.615
 2456SOL    HW1 8267   0.911   3.861   6.632
 2456SOL    HW2 8268   1.069   3.841   6.667
 2457SOL     OW 8269   5.557   1.458   5.769
 2457SOL    HW1 8270   5.651   1.442   5.801
 2457SOL    HW2 8271   5.521   1.541   5.813
 2458SOL     OW 8272   0.737   0.584   2.887
 2458SOL    HW1 8273   0.639   0.594   2.901
 2458SOL    HW2 8274   0.771   0.509   2.945
 2459SOL     OW 8275   2.958   5.371   6.607
 2459SOL    HW1 8276   3.030   5.403   6.546
 2459SOL    HW2 8277   2.999   5.317   6.680
 2460SOL     OW 8278   0.745   1.080   6.848
 2460SOL    HW1 8279   0.726   1.123   6.937
 2460SOL    HW2 8280   0.743   1.149   6.776
 2461SOL     OW 8281   4.399   0.242   4.237
 2461SOL    HW1 8282   4.360   0.195   4.316
 2461SOL    HW2 8283   4.329   0.300   4.195
 2462SOL     OW 8284   0.529   4.771   0.468
 2462SOL    HW1 8285   0.533   4.870   0.458
 2462SOL    HW2 8286   0.622   4.734   0.469
 2463SOL     OW 8287   6.606   1.387   0.274
 2463SOL    HW1 8288   6.557   1.352   0.354
 2463SOL    HW2 8289   6.585   1.484   0.262
 2464SOL     OW 8290   0.551   2.802   2.751
 2464SOL    HW1 8291   0.504   2.889   2.762
 2464SOL    HW2 8292   0.647   2.818   2.726
 2465SOL     OW 8293   6.720   5.520   6.322
 2465SOL    HW1 8294   6.702   5.617   6.300
 2465SOL    HW2 8295   6.656   5.490   6.392
 2466SOL     OW 8296   1.689   1.920   2.072
 2466SOL    HW1 8297   1.664   1.824   2.064
 2466SOL    HW2 8298   1.680   1.949   2.167
 2467SOL     OW 8299   4.338   1.871   6.164
 2467SOL    HW1 8300   4.386   1.802   6.220
 2467SOL    HW2 8301   4.240   1.853   6.167
 2468SOL     OW 8302   4.092   0.508   6.662
 2468SOL    HW1 8303   4.074   0.495   6.760
 2468SOL    HW2 8304   4.035   0.445   6.609
 2469SOL     OW 8305   4.272   2.866   6.181
 2469SOL    HW1 8306   4.183   2.906   6.157
 2469SOL    HW2 8307   4.331   2.867   6.100
 2470SOL     OW 8308   3.951   4.309   5.927
 2470SOL    HW1 8309   4.045   4.343   5.926
 2470SOL    HW2 8310   3.901   4.349   6.004
 2471SOL     OW 8311   3.829   6.751   0.828
 2471SOL    HW1 8312   3.906   6.784   0.882
 2471SOL    HW2 8313   3.829   6.651   0.828
 2472SOL     OW 8314   4.539   2.447   3.930
 2472SOL    HW1 8315   4.530   2.348   3.919
 2472SOL    HW2 8316   4.555   2.489   3.841
 2473SOL     OW 8317   1.187   4.431   4.668
 2473SOL    HW1 8318   1.175   4.360   4.599
 2473SOL    HW2 8319   1.099   4.474   4.688
 2474SOL     OW 8320   1.433   5.364   0.672
 2474SOL    HW1 8321   1.364   5.296   0.648
 2474SOL    HW2 8322   1.467   5.408   0.589
 2475SOL     OW 8323   4.473   0.587   0.667
 2475SOL    HW1 8324   4.519   0.657   0.721
 2475SOL    HW2 8325   4.541   0.526   0.627
 2476SOL     OW 8326   5.546   0.466   2.776
 2476SOL    HW1 8327   5.509   0.500   2.862
 2476SOL    HW2 8328   5.633   0.510   2.757
 2477SOL     OW 8329   4.142   0.573   3.444
 2477SOL    HW1 8330   4.222   0.633   3.449
 2477SOL    HW2 8331   4.155   0.496   3.506
 2478SOL     OW 8332   4.311   1.194   2.349
 2478SOL    HW1 8333   4.320   1.095   2.346
 2478SOL    HW2 8334   4.215   1.220   2.339
 2479SOL     OW 8335   1.210   2.526   1.499
 2479SOL    HW1 8336   1.272   2.602   1.478
 2479SOL    HW2 8337   1.150   2.509   1.421
 2480SOL     OW 8338   3.714   2.699   1.309
 2480SOL    HW1 8339   3.690   2.607   1.341
 2480SOL    HW2 8340   3.669   2.717   1.221
 2481SOL     OW 8341   2.594   0.167   1.190
 2481SOL    HW1 8342   2.597   0.110   1.108
 2481SOL    HW2 8343   2.502   0.162   1.229
 2482SOL     OW 8344   5.363   3.566   0.271
 2482SOL    HW1 8345   5.373   3.467   0.258
 2482SOL    HW2 8346   5.423   3.615   0.208
 2483SOL     OW 8347   1.338   1.981   0.389
 2483SOL    HW1 8348   1.292   1.979   0.300
 2483SOL    HW2 8349   1.365   1.888   0.414
 2484SOL     OW 8350   3.365   0.945   0.409
 2484SOL    HW1 8351   3.286   0.997   0.440
 2484SOL    HW2 8352   3.344   0.901   0.321
 2485SOL     OW 8353   4.751   3.203   0.396
 2485SOL    HW1 8354   4.834   3.184   0.448
 2485SOL    HW2 8355   4.769   3.273   0.328
 2486SOL     OW 8356   0.479   5.519   5.862
 2486SOL    HW1 8357   0.443   5.609   5.884
 2486SOL    HW2 8358   0.532   5.484   5.939
 2487SOL     OW 8359   3.880   6.259   0.356
 2487SOL    HW1 8360   3.790   6.301   0.360
 2487SOL    HW2 8361   3.888   6.205   0.272
 2488SOL     OW 8362   0.526   3.328   1.906
 2488SOL    HW1 8363   0.551   3.411   1.856
 2488SOL    HW2 8364   0.546   3.248   1.849
 2489SOL     OW 8365   1.008   5.985   3.411
 2489SOL    HW1 8366   0.948   6.034   3.474
 2489SOL    HW2 8367   1.026   5.893   3.446
 2490SOL     OW 8368   0.568   5.973   1.175
 2490SOL    HW1 8369   0.593   6.054   1.228
 2490SOL    HW2 8370   0.603   5.983   1.082
 2491SOL     OW 8371   3.740   4.664   1.123
 2491SOL    HW1 8372   3.708   4.759   1.126
 2491SOL    HW2 8373   3.760   4.638   1.029
 2492SOL     OW 8374   4.623   3.392   1.170
 2492SOL    HW1 8375   4.557   3.348   1.109
 2492SOL    HW2 8376   4.614   3.491   1.162
 2493SOL     OW 8377   6.742   0.017   1.404
 2493SOL    HW1 8378   6.726   0.046   1.498
 2493SOL    HW2 8379   6.674   0.060   1.344
 2494SOL     OW 8380   6.145   3.818   2.168
 2494SOL    HW1 8381   6.151   3.868   2.255
 2494SOL    HW2 8382   6.166   3.721   2.184
 2495SOL     OW 8383   5.782   5.436   3.525
 2495SOL    HW1 8384   5.806   5.340   3.511
 2495SOL    HW2 8385   5.727   5.468   3.447
 2496SOL     OW 8386   0.531   3.199   6.754
 2496SOL    HW1 8387   0.470   3.247   6.691
 2496SOL    HW2 8388   0.619   3.183   6.709
 2497SOL     OW 8389   0.360   0.071   1.231
 2497SOL    HW1 8390   0.325   0.078   1.324
 2497SOL    HW2 8391   0.425   0.144   1.214
 2498SOL     OW 8392   3.486   2.095   5.692
 2498SOL    HW1 8393   3.472   2.176   5.750
 2498SOL    HW2 8394   3.495   2.123   5.597
 2499SOL     OW 8395   6.104   3.320   2.358
 2499SOL    HW1 8396   6.074   3.403   2.311
 2499SOL    HW2 8397   6.190   3.289   2.319
 2500SOL     OW 8398   4.222   3.843   6.412
 2500SOL    HW1 8399   4.194   3.853   6.507
 2500SOL    HW2 8400   4.215   3.932   6.366
 2501SOL     OW 8401   5.044   5.763   0.071
 2501SOL    HW1 8402   5.006   5.689   0.125
 2501SOL    HW2 8403   5.139   5.741   0.046
 2502SOL     OW 8404   1.873   0.763   5.093
 2502SOL    HW1 8405   1.802   0.696   5.112
 2502SOL    HW2 8406   1.944   0.757   5.163
 2503SOL     OW 8407   3.005   6.801   4.828
 2503SOL    HW1 8408   2.964   6.800   4.736
 2503SOL    HW2 8409   2.943   6.756   4.892
 2504SOL     OW 8410   3.865   5.744   3.070
 2504SOL    HW1 8411   3.919   5.779   3.147
 2504SOL    HW2 8412   3.892   5.790   2.986
 2505SOL     OW 8413   0.185   6.166   2.796
 2505SOL    HW1 8414   0.206   6.122   2.883
 2505SOL    HW2 8415   0.260   6.150   2.732
 2506SOL     OW 8416   6.631   2.721   6.299
 2506SOL    HW1 8417   6.682   2.807   6.291
 2506SOL    HW2 8418   6.559   2.732   6.368
 2507SOL     OW 8419   6.728   3.606   0.298
 2507SOL    HW1 8420   6.824   3.578   0.304
 2507SOL    HW2 8421   6.678   3.543   0.239
 2508SOL     OW 8422   2.927   1.805   3.794
 2508SOL    HW1 8423   2.872   1.734   3.751
 2508SOL    HW2 8424   3.024   1.784   3.784
 2509SOL     OW 8425   6.903   4.633   1.255
 2509SOL    HW1 8426   6.962   4.658   1.332
 2509SOL    HW2 8427   6.893   4.711   1.194
 2510SOL     OW 8428   2.935   4.927   1.162
 2510SOL    HW1 8429   2.984   4.840   1.159
 2510SOL    HW2 8430   2.853   4.918   1.219
 2511SOL     OW 8431   2.689   1.666   3.943
 2511SOL    HW1 8432   2.668   1.737   4.010
 2511SOL    HW2 8433   2.604   1.625   3.910
 2512SOL     OW 8434   4.511   3.968   5.617
 2512SOL    HW1 8435   4.516   3.869   5.624
 2512SOL    HW2 8436   4.444   4.004   5.682
 2513SOL     OW 8437   1.798   5.463   4.671
 2513SOL    HW1 8438   1.713   5.514   4.661
 2513SOL    HW2 8439   1.820   5.417   4.584
 2514SOL     OW 8440   0.709   4.041   4.812
 2514SOL    HW1 8441   0.768   4.074   4.885
 2514SOL    HW2 8442   0.728   4.092   4.728
 2515SOL     OW 8443   1.723   6.463   0.578
 2515SOL    HW1 8444   1.729   6.561   0.561
 2515SOL    HW2 8445   1.632   6.440   0.612
 2516SOL     OW 8446   4.884   1.300   2.370
 2516SOL    HW1 8447   4.808   1.356   2.337
 2516SOL    HW2 8448   4.859   1.259   2.457
 2517SOL     OW 8449   0.979   0.748   6.117
 2517SOL    HW1 8450   0.998   0.785   6.207
 2517SOL    HW2 8451   1.041   0.671   6.099
 2518SOL     OW 8452   1.141   5.407   1.103
 2518SOL    HW1 8453   1.105   5.343   1.036
 2518SOL    HW2 8454   1.241   5.406   1.099
 2519SOL     OW 8455   3.383   0.429   1.844
 2519SOL    HW1 8456   3.317   0.392   1.779
 2519SOL    HW2 8457   3.337   0.489   1.909
 2520SOL     OW 8458   3.190   1.765   0.905
 2520SOL    HW1 8459   3.176   1.843   0.967
 2520SOL    HW2 8460   3.148   1.786   0.817
 2521SOL     OW 8461   3.156   0.670   5.454
 2521SOL    HW1 8462   3.093   0.728   5.402
 2521SOL    HW2 8463   3.105   0.594   5.494
 2522SOL     OW 8464   1.185   1.260   5.696
 2522SOL    HW1 8465   1.240   1.180   5.672
 2522SOL    HW2 8466   1.088   1.240   5.681
 2523SOL     OW 8467   1.146   2.763   0.907
 2523SOL    HW1 8468   1.240   2.731   0.911
 2523SOL    HW2 8469   1.111   2.752   0.814
 2524SOL     OW 8470   0.134   6.732   5.009
 2524SOL    HW1 8471   0.187   6.811   5.037
 2524SOL    HW2 8472   0.112   6.738   4.912
 2525SOL     OW 8473   1.115   2.598   5.272
 2525SOL    HW1 8474   1.145   2.576   5.365
 2525SOL    HW2 8475   1.195   2.608   5.212
 2526SOL     OW 8476   1.290   4.486   6.516
 2526SOL    HW1 8477   1.291   4.580   6.481
 2526SOL    HW2 8478   1.205   4.470   6.566
 2527SOL     OW 8479   5.908   6.673   5.743
 2527SOL    HW1 8480   6.005   6.658   5.723
 2527SOL    HW2 8481   5.879   6.760   5.703
 2528SOL     OW 8482   5.509   4.831   6.393
 2528SOL    HW1 8483   5.575   4.840   6.319
 2528SOL    HW2 8484   5.557   4.824   6.481
 2529SOL     OW 8485   6.866   6.408   6.803
 2529SOL    HW1 8486   6.790   6.441   6.747
 2529SOL    HW2 8487   6.881   6.470   6.880
 2530SOL     OW 8488   2.629   6.116   4.940
 2530SOL    HW1 8489   2.602   6.056   4.865
 2530SOL    HW2 8490   2.723   6.148   4.924
 2531SOL     OW 8491   5.883   6.026   5.122
 2531SOL    HW1 8492   5.966   5.999   5.074
 2531SOL    HW2 8493   5.902   6.035   5.219
 2532SOL     OW 8494   0.114   6.145   0.669
 2532SOL    HW1 8495   0.060   6.218   0.711
 2532SOL    HW2 8496   0.054   6.088   0.612
 2533SOL     OW 8497   4.200   7.016   3.569
 2533SOL    HW1 8498   4.269   0.060   3.606
 2533SOL    HW2 8499   4.245   6.946   3.514
 2534SOL     OW 8500   3.558   1.321   1.621
 2534SOL    HW1 8501   3.643   1.347   1.576
 2534SOL    HW2 8502   3.553   1.222   1.628
 2535SOL     OW 8503   3.612   3.564   6.045
 2535SOL    HW1 8504   3.644   3.624   5.972
 2535SOL    HW2 8505   3.551   3.494   6.007
 2536SOL     OW 8506   1.351   1.387   6.587
 2536SOL    HW1 8507   1.331   1.355   6.495
 2536SOL    HW2 8508   1.435   1.345   6.621
 2537SOL     OW 8509   3.380   0.134   6.214
 2537SOL    HW1 8510   3.304   0.153   6.152
 2537SOL    HW2 8511   3.457   0.096   6.163
 2538SOL     OW 8512   0.460   4.174   3.449
 2538SOL    HW1 8513   0.430   4.234   3.524
 2538SOL    HW2 8514   0.546   4.130   3.474
 2539SOL     OW 8515   5.608   1.091   4.045
 2539SOL    HW1 8516   5.559   1.005   4.052
 2539SOL    HW2 8517   5.623   1.129   4.136
 2540SOL     OW 8518   3.990   1.937   2.612
 2540SOL    HW1 8519   4.044   1.913   2.531
 2540SOL    HW2 8520   4.052   1.967   2.685
 2541SOL     OW 8521   3.513   0.913   4.799
 2541SOL    HW1 8522   3.521   0.827   4.750
 2541SOL    HW2 8523   3.523   0.989   4.735
 2542SOL     OW 8524   3.448   3.364   5.963
 2542SOL    HW1 8525   3.384   3.312   6.019
 2542SOL    HW2 8526   3.405   3.387   5.876
 2543SOL     OW 8527   0.248   0.764   3.797
 2543SOL    HW1 8528   0.237   0.675   3.754
 2543SOL    HW2 8529   0.266   0.833   3.727
 2544SOL     OW 8530   0.712   6.142   0.601
 2544SOL    HW1 8531   0.615   6.120   0.595
 2544SOL    HW2 8532   0.763   6.085   0.536
 2545SOL     OW 8533   1.599   6.657   2.089
 2545SOL    HW1 8534   1.553   6.649   2.177
 2545SOL    HW2 8535   1.673   6.590   2.083
 2546SOL     OW 8536   6.636   1.411   2.092
 2546SOL    HW1 8537   6.659   1.484   2.157
 2546SOL    HW2 8538   6.576   1.345   2.137
 2547SOL     OW 8539   0.525   4.006   0.165
 2547SOL    HW1 8540   0.472   4.000   0.249
 2547SOL    HW2 8541   0.549   3.914   0.134
 2548SOL     OW 8542   1.185   6.701   4.608
 2548SOL    HW1 8543   1.264   6.645   4.583
 2548SOL    HW2 8544   1.176   6.778   4.545
 2549SOL     OW 8545   0.821   0.239   1.147
 2549SOL    HW1 8546   0.725   0.226   1.171
 2549SOL    HW2 8547   0.874   0.160   1.179
 2550SOL     OW 8548   0.122   0.105   0.092
 2550SOL    HW1 8549   0.207   0.066   0.126
 2550SOL    HW2 8550   0.125   0.205   0.099
 2551SOL     OW 8551   3.567   4.740   0.250
 2551SOL    HW1 8552   3.552   4.684   0.168
 2551SOL    HW2 8553   3.488   4.799   0.265
 2552SOL     OW 8554   1.855   5.901   4.352
 2552SOL    HW1 8555   1.785   5.836   4.320
 2552SOL    HW2 8556   1.905   5.937   4.273
 2553SOL     OW 8557   4.042   3.611   5.585
 2553SOL    HW1 8558   4.040   3.659   5.498
 2553SOL    HW2 8559   4.084   3.670   5.654
 2554SOL     OW 8560   3.003   0.468   0.511
 2554SOL    HW1 8561   2.952   0.453   0.426
 2554SOL    HW2 8562   2.946   0.441   0.589
 2555SOL     OW 8563   6.125   0.924   5.011
 2555SOL    HW1 8564   6.056   0.922   4.939
 2555SOL    HW2 8565   6.146   0.831   5.040
 2556SOL     OW 8566   4.196   6.759   0.292
 2556SOL    HW1 8567   4.189   6.665   0.325
 2556SOL    HW2 8568   4.279   6.770   0.239
 2557SOL     OW 8569   2.141   4.051   0.628
 2557SOL    HW1 8570   2.156   4.010   0.538
 2557SOL    HW2 8571   2.198   4.005   0.696
 2558SOL     OW 8572   5.066   1.348   4.791
 2558SOL    HW1 8573   5.060   1.427   4.853
 2558SOL    HW2 8574   4.989   1.286   4.808
 2559SOL     OW 8575   0.891   4.569   5.308
 2559SOL    HW1 8576   0.881   4.547   5.210
 2559SOL    HW2 8577   0.950   4.649   5.318
 2560SOL     OW 8578   5.298   2.307   5.795
 2560SOL    HW1 8579   5.240   2.346   5.723
 2560SOL    HW2 8580   5.385   2.277   5.754
 2561SOL     OW 8581   2.510   5.219   5.361
 2561SOL    HW1 8582   2.561   5.156   5.303
 2561SOL    HW2 8583   2.561   5.236   5.445
 2562SOL     OW 8584   2.934   5.104   1.517
 2562SOL    HW1 8585   2.869   5.032   1.540
 2562SOL    HW2 8586   2.981   5.081   1.431
 2563SOL     OW 8587   3.232   1.627   0.507
 2563SOL    HW1 8588   3.193   1.708   0.551
 2563SOL    HW2 8589   3.210   1.546   0.562
 2564SOL     OW 8590   2.071   5.717   6.784
 2564SOL    HW1 8591   1.991   5.685   6.733
 2564SOL    HW2 8592   2.055   5.705   6.882
 2565SOL     OW 8593   1.198   6.936   6.385
 2565SOL    HW1 8594   1.204   6.850   6.435
 2565SOL    HW2 8595   1.164   7.008   6.445
 2566SOL     OW 8596   2.197   0.340   0.819
 2566SOL    HW1 8597   2.166   0.265   0.761
 2566SOL    HW2 8598   2.151   0.425   0.791
 2567SOL     OW 8599   1.049   0.482   0.781
 2567SOL    HW1 8600   1.113   0.553   0.809
 2567SOL    HW2 8601   0.964   0.491   0.833
 2568SOL     OW 8602   4.469   1.763   6.388
 2568SOL    HW1 8603   4.426   1.745   6.476
 2568SOL    HW2 8604   4.539   1.694   6.370
 2569SOL     OW 8605   2.833   0.511   2.431
 2569SOL    HW1 8606   2.773   0.558   2.366
 2569SOL    HW2 8607   2.815   0.545   2.524
 2570SOL     OW 8608   5.612   0.164   5.963
 2570SOL    HW1 8609   5.666   0.166   6.047
 2570SOL    HW2 8610   5.564   0.077   5.955
 2571SOL     OW 8611   2.315   5.018   5.062
 2571SOL    HW1 8612   2.305   5.111   5.098
 2571SOL    HW2 8613   2.315   4.953   5.137
 2572SOL     OW 8614   2.943   5.741   1.252
 2572SOL    HW1 8615   2.987   5.719   1.339
 2572SOL    HW2 8616   2.986   5.689   1.178
 2573SOL     OW 8617   0.434   1.836   1.446
 2573SOL    HW1 8618   0.442   1.759   1.508
 2573SOL    HW2 8619   0.389   1.807   1.361
 2574SOL     OW 8620   5.909   4.134   0.949
 2574SOL    HW1 8621   5.872   4.216   0.905
 2574SOL    HW2 8622   5.873   4.052   0.903
 2575SOL     OW 8623   5.294   6.099   0.354
 2575SOL    HW1 8624   5.225   6.097   0.427
 2575SOL    HW2 8625   5.362   6.169   0.375
 2576SOL     OW 8626   4.468   6.709   4.347
 2576SOL    HW1 8627   4.471   6.625   4.401
 2576SOL    HW2 8628   4.560   6.747   4.338
 2577SOL     OW 8629   4.191   6.356   2.092
 2577SOL    HW1 8630   4.110   6.299   2.104
 2577SOL    HW2 8631   4.181   6.411   2.009
 2578SOL     OW 8632   4.194   1.653   4.101
 2578SOL    HW1 8633   4.190   1.646   4.201
 2578SOL    HW2 8634   4.102   1.664   4.064
 2579SOL     OW 8635   1.449   6.612   3.576
 2579SOL    HW1 8636   1.407   6.650   3.494
 2579SOL    HW2 8637   1.377   6.588   3.642
 2580SOL     OW 8638   2.413   4.270   6.466
 2580SOL    HW1 8639   2.367   4.218   6.394
 2580SOL    HW2 8640   2.512   4.266   6.453
 2581SOL     OW 8641   2.518   5.222   1.955
 2581SOL    HW1 8642   2.446   5.167   1.915
 2581SOL    HW2 8643   2.601   5.167   1.966
 2582SOL     OW 8644   0.301   4.111   1.260
 2582SOL    HW1 8645   0.311   4.074   1.352
 2582SOL    HW2 8646   0.210   4.087   1.224
 2583SOL     OW 8647   0.652   1.262   6.645
 2583SOL    HW1 8648   0.558   1.251   6.675
 2583SOL    HW2 8649   0.655   1.276   6.546
 2584SOL     OW 8650   4.519   5.631   5.970
 2584SOL    HW1 8651   4.531   5.593   6.062
 2584SOL    HW2 8652   4.502   5.557   5.906
 2585SOL     OW 8653   3.350   3.638   0.458
 2585SOL    HW1 8654   3.386   3.658   0.366
 2585SOL    HW2 8655   3.367   3.542   0.481
 2586SOL     OW 8656   3.459   0.482   5.343
 2586SOL    HW1 8657   3.428   0.549   5.275
 2586SOL    HW2 8658   3.554   0.500   5.367
 2587SOL     OW 8659   5.841   1.281   3.291
 2587SOL    HW1 8660   5.900   1.287   3.372
 2587SOL    HW2 8661   5.753   1.325   3.310
 2588SOL     OW 8662   4.196   1.930   5.680
 2588SOL    HW1 8663   4.248   1.881   5.751
 2588SOL    HW2 8664   4.248   1.931   5.595
 2589SOL     OW 8665   1.625   6.757   5.660
 2589SOL    HW1 8666   1.700   6.717   5.713
 2589SOL    HW2 8667   1.539   6.712   5.685
 2590SOL     OW 8668   3.685   5.090   0.109
 2590SOL    HW1 8669   3.773   5.093   0.155
 2590SOL    HW2 8670   3.685   5.015   0.042
 2591SOL     OW 8671   0.023   4.716   3.230
 2591SOL    HW1 8672   0.087   4.649   3.194
 2591SOL    HW2 8673   0.041   4.805   3.188
 2592SOL     OW 8674   3.059   4.616   6.765
 2592SOL    HW1 8675   3.072   4.618   6.666
 2592SOL    HW2 8676   3.148   4.625   6.810
 2593SOL     OW 8677   3.532   5.686   0.468
 2593SOL    HW1 8678   3.573   5.747   0.537
 2593SOL    HW2 8679   3.595   5.676   0.391
 2594SOL     OW 8680   2.203   3.890   5.756
 2594SOL    HW1 8681   2.217   3.929   5.666
 2594SOL    HW2 8682   2.283   3.907   5.814
 2595SOL     OW 8683   6.918   1.082   4.016
 2595SOL    HW1 8684   6.972   1.160   3.985
 2595SOL    HW2 8685   6.920   1.077   4.116
 2596SOL     OW 8686   2.648   2.148   1.646
 2596SOL    HW1 8687   2.675   2.212   1.718
 2596SOL    HW2 8688   2.553   2.164   1.619
 2597SOL     OW 8689   0.277   5.419   6.082
 2597SOL    HW1 8690   0.330   5.357   6.140
 2597SOL    HW2 8691   0.205   5.461   6.136
 2598SOL     OW 8692   6.706   1.558   2.311
 2598SOL    HW1 8693   6.640   1.584   2.381
 2598SOL    HW2 8694   6.794   1.539   2.354
 2599SOL     OW 8695   1.780   5.900   0.693
 2599SOL    HW1 8696   1.760   5.833   0.621
 2599SOL    HW2 8697   1.823   5.981   0.653
 2600SOL     OW 8698   5.749   2.410   4.683
 2600SOL    HW1 8699   5.788   2.501   4.697
 2600SOL    HW2 8700   5.653   2.418   4.656
 2601SOL     OW 8701   1.353   1.547   1.052
 2601SOL    HW1 8702   1.449   1.546   1.026
 2601SOL    HW2 8703   1.298   1.585   0.977
 2602SOL     OW 8704   1.484   5.021   4.921
 2602SOL    HW1 8705   1.515   5.040   5.014
 2602SOL    HW2 8706   1.563   5.012   4.860
 2603SOL     OW 8707   2.963   1.348   3.245
 2603SOL    HW1 8708   3.037   1.388   3.191
 2603SOL    HW2 8709   2.982   1.252   3.262
 2604SOL     OW 8710   4.742   1.945   2.714
 2604SOL    HW1 8711   4.805   2.016   2.681
 2604SOL    HW2 8712   4.649   1.983   2.718
 2605SOL     OW 8713   1.711   3.243   2.721
 2605SOL    HW1 8714   1.723   3.275   2.627
 2605SOL    HW2 8715   1.667   3.315   2.775
 2606SOL     OW 8716   5.626   5.131   1.659
 2606SOL    HW1 8717   5.723   5.116   1.677
 2606SOL    HW2 8718   5.604   5.099   1.567
 2607SOL     OW 8719   0.605   1.515   1.323
 2607SOL    HW1 8720   0.664   1.463   1.261
 2607SOL    HW2 8721   0.534   1.455   1.359
 2608SOL     OW 8722   3.948   5.686   0.039
 2608SOL    HW1 8723   3.861   5.714   0.079
 2608SOL    HW2 8724   3.965   5.590   0.059
 2609SOL     OW 8725   6.191   1.322   2.214
 2609SOL    HW1 8726   6.094   1.333   2.190
 2609SOL    HW2 8727   6.207   1.227   2.243
 2610SOL     OW 8728   0.732   4.731   4.114
 2610SOL    HW1 8729   0.696   4.736   4.207
 2610SOL    HW2 8730   0.830   4.752   4.115
 2611SOL     OW 8731   4.651   6.552   6.978
 2611SOL    HW1 8732   4.605   6.611   6.911
 2611SOL    HW2 8733   4.582   6.506   0.016
 2612SOL     OW 8734   5.721   6.444   4.249
 2612SOL    HW1 8735   5.743   6.514   4.317
 2612SOL    HW2 8736   5.766   6.467   4.162
 2613SOL     OW 8737   2.284   5.281   6.473
 2613SOL    HW1 8738   2.321   5.254   6.384
 2613SOL    HW2 8739   2.350   5.339   6.520
 2614SOL     OW 8740   6.015   1.452   6.404
 2614SOL    HW1 8741   5.933   1.491   6.361
 2614SOL    HW2 8742   5.988   1.379   6.466
 2615SOL     OW 8743   0.449   3.260   1.339
 2615SOL    HW1 8744   0.535   3.210   1.347
 2615SOL    HW2 8745   0.468   3.358   1.332
 2616SOL     OW 8746   1.052   1.946   5.976
 2616SOL    HW1 8747   0.979   1.879   5.986
 2616SOL    HW2 8748   1.095   1.964   6.064
 2617SOL     OW 8749   4.848   0.705   0.651
 2617SOL    HW1 8750   4.769   0.734   0.705
 2617SOL    HW2 8751   4.926   0.765   0.671
 2618SOL     OW 8752   1.091   6.303   4.686
 2618SOL    HW1 8753   1.101   6.358   4.769
 2618SOL    HW2 8754   1.181   6.284   4.648
 2619SOL     OW 8755   4.048   2.000   1.775
 2619SOL    HW1 8756   4.059   2.049   1.689
 2619SOL    HW2 8757   4.135   1.961   1.803
 2620SOL     OW 8758   6.669   0.152   2.567
 2620SOL    HW1 8759   6.636   0.162   2.661
 2620SOL    HW2 8760   6.593   0.165   2.504
 2621SOL     OW 8761   0.987   4.500   2.421
 2621SOL    HW1 8762   0.909   4.537   2.471
 2621SOL    HW2 8763   0.957   4.465   2.332
 2622SOL     OW 8764   3.412   3.167   5.506
 2622SOL    HW1 8765   3.433   3.197   5.599
 2622SOL    HW2 8766   3.417   3.068   5.500
 2623SOL     OW 8767   0.572   0.204   4.056
 2623SOL    HW1 8768   0.476   0.233   4.054
 2623SOL    HW2 8769   0.630   0.282   4.081
 2624SOL     OW 8770   6.380   2.304   4.668
 2624SOL    HW1 8771   6.431   2.264   4.744
 2624SOL    HW2 8772   6.404   2.400   4.659
 2625SOL     OW 8773   2.013   4.808   5.608
 2625SOL    HW1 8774   1.947   4.880   5.583
 2625SOL    HW2 8775   2.013   4.737   5.538
 2626SOL     OW 8776   6.589   6.991   5.863
 2626SOL    HW1 8777   6.527   6.912   5.858
 2626SOL    HW2 8778   6.600   0.012   5.772
 2627SOL     OW 8779   1.177   0.698   6.512
 2627SOL    HW1 8780   1.103   0.635   6.488
 2627SOL    HW2 8781   1.259   0.646   6.535
 2628SOL     OW 8782   1.771   3.558   4.446
 2628SOL    HW1 8783   1.699   3.491   4.423
 2628SOL    HW2 8784   1.859   3.524   4.414
 2629SOL     OW 8785   3.918   3.592   3.309
 2629SOL    HW1 8786   3.868   3.555   3.231
 2629SOL    HW2 8787   3.856   3.643   3.368
 2630SOL     OW 8788   3.686   1.465   4.042
 2630SOL    HW1 8789   3.712   1.381   3.994
 2630SOL    HW2 8790   3.662   1.536   3.976
 2631SOL     OW 8791   5.696   0.756   6.695
 2631SOL    HW1 8792   5.770   0.705   6.652
 2631SOL    HW2 8793   5.675   0.838   6.642
 2632SOL     OW 8794   6.262   3.605   1.427
 2632SOL    HW1 8795   6.356   3.634   1.445
 2632SOL    HW2 8796   6.213   3.594   1.514
 2633SOL     OW 8797   6.457   2.191   5.330
 2633SOL    HW1 8798   6.535   2.214   5.272
 2633SOL    HW2 8799   6.453   2.092   5.343
 2634SOL     OW 8800   0.692   6.283   3.931
 2634SOL    HW1 8801   0.645   6.204   3.969
 2634SOL    HW2 8802   0.648   6.367   3.963
 2635SOL     OW 8803   6.283   5.382   4.136
 2635SOL    HW1 8804   6.357   5.436   4.177
 2635SOL    HW2 8805   6.256   5.423   4.049
 2636SOL     OW 8806   3.549   0.948   6.865
 2636SOL    HW1 8807   3.587   0.863   6.901
 2636SOL    HW2 8808   3.554   0.947   6.765
 2637SOL     OW 8809   6.229   1.381   4.188
 2637SOL    HW1 8810   6.300   1.387   4.117
 2637SOL    HW2 8811   6.140   1.401   4.147
 2638SOL     OW 8812   0.381   0.093   4.449
 2638SOL    HW1 8813   0.374   0.193   4.444
 2638SOL    HW2 8814   0.449   0.062   4.383
 2639SOL     OW 8815   4.927   5.095   5.486
 2639SOL    HW1 8816   4.880   5.051   5.563
 2639SOL    HW2 8817   4.875   5.175   5.457
 2640SOL     OW 8818   7.015   0.059   5.101
 2640SOL    HW1 8819   0.092   0.049   5.071
 2640SOL    HW2 8820   7.006   0.025   5.194
 2641SOL     OW 8821   4.653   2.181   1.202
 2641SOL    HW1 8822   4.626   2.247   1.132
 2641SOL    HW2 8823   4.640   2.222   1.293
 2642SOL     OW 8824   6.446   0.784   3.340
 2642SOL    HW1 8825   6.497   0.729   3.274
 2642SOL    HW2 8826   6.448   0.880   3.313
 2643SOL     OW 8827   0.989   3.463   4.148
 2643SOL    HW1 8828   0.903   3.425   4.112
 2643SOL    HW2 8829   1.027   3.527   4.081
 2644SOL     OW 8830   4.576   5.348   5.065
 2644SOL    HW1 8831   4.632   5.395   5.133
 2644SOL    HW2 8832   4.496   5.307   5.110
 2645SOL     OW 8833   5.477   4.853   3.897
 2645SOL    HW1 8834   5.395   4.805   3.866
 2645SOL    HW2 8835   5.558   4.812   3.854
 2646SOL     OW 8836   0.866   3.450   6.971
 2646SOL    HW1 8837   0.911   3.526   7.018
 2646SOL    HW2 8838   0.777   3.480   6.936
 2647SOL     OW 8839   5.392   6.942   1.802
 2647SOL    HW1 8840   5.294   6.924   1.793
 2647SOL    HW2 8841   5.440   6.858   1.826
 2648SOL     OW 8842   0.346   6.873   3.810
 2648SOL    HW1 8843   0.258   6.886   3.856
 2648SOL    HW2 8844   0.340   6.795   3.748
 2649SOL     OW 8845   5.221   3.239   2.064
 2649SOL    HW1 8846   5.129   3.223   2.028
 2649SOL    HW2 8847   5.229   3.198   2.155
 2650SOL     OW 8848   3.040   5.620   4.704
 2650SOL    HW1 8849   3.053   5.521   4.699
 2650SOL    HW2 8850   2.947   5.640   4.735
 2651SOL     OW 8851   3.646   1.186   6.920
 2651SOL    HW1 8852   3.665   1.240   6.838
 2651SOL    HW2 8853   3.594   1.104   6.894
 2652SOL     OW 8854   4.774   3.630   5.512
 2652SOL    HW1 8855   4.810   3.544   5.549
 2652SOL    HW2 8856   4.684   3.648   5.553
 2653SOL     OW 8857   3.605   6.061   5.644
 2653SOL    HW1 8858   3.671   6.016   5.583
 2653SOL    HW2 8859   3.592   6.004   5.725
 2654SOL     OW 8860   5.140   6.520   0.835
 2654SOL    HW1 8861   5.119   6.567   0.921
 2654SOL    HW2 8862   5.055   6.500   0.786
 2655SOL     OW 8863   4.762   5.793   3.308
 2655SOL    HW1 8864   4.761   5.861   3.234
 2655SOL    HW2 8865   4.819   5.826   3.383
 2656SOL     OW 8866   3.650   5.548   3.736
 2656SOL    HW1 8867   3.654   5.461   3.687
 2656SOL    HW2 8868   3.735   5.599   3.722
 2657SOL     OW 8869   2.177   3.445   0.709
 2657SOL    HW1 8870   2.268   3.443   0.670
 2657SOL    HW2 8871   2.113   3.483   0.643
 2658SOL     OW 8872   5.257   4.033   6.823
 2658SOL    HW1 8873   5.166   3.992   6.836
 2658SOL    HW2 8874   5.246   4.128   6.796
 2659SOL     OW 8875   5.107   2.733   4.750
 2659SOL    HW1 8876   5.082   2.746   4.846
 2659SOL    HW2 8877   5.168   2.807   4.721
 2660SOL     OW 8878   0.229   0.913   0.978
 2660SOL    HW1 8879   0.211   0.827   0.930
 2660SOL    HW2 8880   0.143   0.957   1.003
 2661SOL     OW 8881   1.272   0.834   2.045
 2661SOL    HW1 8882   1.243   0.758   1.987
 2661SOL    HW2 8883   1.353   0.808   2.096
 2662SOL     OW 8884   2.531   0.425   3.468
 2662SOL    HW1 8885   2.434   0.447   3.479
 2662SOL    HW2 8886   2.547   0.330   3.494
 2663SOL     OW 8887   3.784   6.430   5.592
 2663SOL    HW1 8888   3.872   6.394   5.621
 2663SOL    HW2 8889   3.711   6.388   5.647
 2664SOL     OW 8890   4.002   2.994   6.103
 2664SOL    HW1 8891   3.951   3.059   6.046
 2664SOL    HW2 8892   3.973   2.901   6.082
 2665SOL     OW 8893   2.629   3.349   5.355
 2665SOL    HW1 8894   2.668   3.348   5.447
 2665SOL    HW2 8895   2.650   3.436   5.311
 2666SOL     OW 8896   1.806   3.217   2.031
 2666SOL    HW1 8897   1.818   3.176   1.941
 2666SOL    HW2 8898   1.710   3.211   2.058
 2667SOL     OW 8899   0.483   5.022   3.579
 2667SOL    HW1 8900   0.558   4.970   3.620
 2667SOL    HW2 8901   0.397   4.973   3.593
 2668SOL     OW 8902   5.986   3.015   3.832
 2668SOL    HW1 8903   6.047   3.086   3.796
 2668SOL    HW2 8904   5.892   3.051   3.836
 2669SOL     OW 8905   2.863   5.720   6.641
 2669SOL    HW1 8906   2.938   5.720   6.706
 2669SOL    HW2 8907   2.789   5.778   6.675
 2670SOL     OW 8908   6.166   1.912   5.721
 2670SOL    HW1 8909   6.180   1.921   5.820
 2670SOL    HW2 8910   6.209   1.989   5.674
 2671SOL     OW 8911   4.040   6.402   6.340
 2671SOL    HW1 8912   4.039   6.318   6.286
 2671SOL    HW2 8913   4.051   6.480   6.278
 2672SOL     OW 8914   3.150   0.680   1.687
 2672SOL    HW1 8915   3.073   0.712   1.743
 2672SOL    HW2 8916   3.147   0.580   1.681
 2673SOL     OW 8917   5.318   0.845   2.538
 2673SOL    HW1 8918   5.272   0.825   2.452
 2673SOL    HW2 8919   5.286   0.934   2.573
 2674SOL     OW 8920   1.575   4.999   3.566
 2674SOL    HW1 8921   1.598   4.920   3.509
 2674SOL    HW2 8922   1.659   5.050   3.588
 2675SOL     OW 8923   0.502   0.238   3.445
 2675SOL    HW1 8924   0.468   0.200   3.531
 2675SOL    HW2 8925   0.597   0.210   3.431
 2676SOL     OW 8926   2.995   3.478   2.496
 2676SOL    HW1 8927   3.011   3.531   2.413
 2676SOL    HW2 8928   2.968   3.385   2.472
 2677SOL     OW 8929   3.178   4.508   0.742
 2677SOL    HW1 8930   3.205   4.413   0.731
 2677SOL    HW2 8931   3.244   4.555   0.800
 2678SOL     OW 8932   0.020   2.778   2.372
 2678SOL    HW1 8933   0.103   2.834   2.379
 2678SOL    HW2 8934   7.002   2.761   2.463
 2679SOL     OW 8935   2.109   5.250   2.760
 2679SOL    HW1 8936   2.131   5.292   2.848
 2679SOL    HW2 8937   2.186   5.194   2.730
 2680SOL     OW 8938   0.985   2.680   0.387
 2680SOL    HW1 8939   0.961   2.709   0.479
 2680SOL    HW2 8940   1.075   2.635   0.389
 2681SOL     OW 8941   1.236   2.932   5.178
 2681SOL    HW1 8942   1.284   3.005   5.130
 2681SOL    HW2 8943   1.235   2.850   5.121
 2682SOL     OW 8944   4.787   3.997   2.588
 2682SOL    HW1 8945   4.855   3.982   2.516
 2682SOL    HW2 8946   4.741   3.911   2.610
 2683SOL     OW 8947   1.965   4.315   2.555
 2683SOL    HW1 8948   1.986   4.217   2.548
 2683SOL    HW2 8949   1.935   4.335   2.648
 2684SOL     OW 8950   5.507   6.703   1.825
 2684SOL    HW1 8951   5.580   6.637   1.839
 2684SOL    HW2 8952   5.443   6.668   1.756
 2685SOL     OW 8953   6.533   4.793   4.535
 2685SOL    HW1 8954   6.625   4.830   4.542
 2685SOL    HW2 8955   6.488   4.829   4.453
 2686SOL     OW 8956   1.110   1.256   5.064
 2686SOL    HW1 8957   1.031   1.301   5.023
 2686SOL    HW2 8958   1.111   1.274   5.162
 2687SOL     OW 8959   4.089   6.797   1.284
 2687SOL    HW1 8960   4.126   6.769   1.373
 2687SOL    HW2 8961   4.017   6.733   1.257
 2688SOL     OW 8962   3.305   2.188   0.851
 2688SOL    HW1 8963   3.342   2.191   0.758
 2688SOL    HW2 8964   3.333   2.270   0.900
 2689SOL     OW 8965   0.821   4.201   2.436
 2689SOL    HW1 8966   0.851   4.223   2.529
 2689SOL    HW2 8967   0.794   4.105   2.432
 2690SOL     OW 8968   2.907   3.106   6.576
 2690SOL    HW1 8969   2.921   3.202   6.599
 2690SOL    HW2 8970   2.811   3.081   6.594
 2691SOL     OW 8971   0.359   4.805   4.174
 2691SOL    HW1 8972   0.434   4.769   4.228
 2691SOL    HW2 8973   0.390   4.819   4.079
 2692SOL     OW 8974   2.792   6.301   3.037
 2692SOL    HW1 8975   2.693   6.290   3.040
 2692SOL    HW2 8976   2.816   6.396   3.055
 2693SOL     OW 8977   2.215   4.943   4.130
 2693SOL    HW1 8978   2.142   5.011   4.132
 2693SOL    HW2 8979   2.293   4.976   4.183
 2694SOL     OW 8980   3.966   6.122   3.360
 2694SOL    HW1 8981   3.932   6.216   3.351
 2694SOL    HW2 8982   3.987   6.103   3.455
 2695SOL     OW 8983   6.191   0.133   3.011
 2695SOL    HW1 8984   6.154   0.223   2.988
 2695SOL    HW2 8985   6.121   0.080   3.060
 2696SOL     OW 8986   4.865   3.810   6.746
 2696SOL    HW1 8987   4.783   3.768   6.784
 2696SOL    HW2 8988   4.852   3.909   6.741
 2697SOL     OW 8989   4.429   1.485   1.340
 2697SOL    HW1 8990   4.360   1.444   1.400
 2697SOL    HW2 8991   4.441   1.428   1.259
 2698SOL     OW 8992   1.635   4.835   6.738
 2698SOL    HW1 8993   1.559   4.832   6.803
 2698SOL    HW2 8994   1.719   4.859   6.787
 2699SOL     OW 8995   3.021   5.635   1.485
 2699SOL    HW1 8996   3.042   5.692   1.564
 2699SOL    HW2 8997   3.005   5.541   1.514
 2700SOL     OW 8998   2.287   1.759   0.586
 2700SOL    HW1 8999   2.264   1.796   0.676
 2700SOL    HW2 9000   2.380   1.788   0.561
 2701SOL     OW 9001   5.158   2.619   5.471
 2701SOL    HW1 9002   5.113   2.539   5.511
 2701SOL    HW2 9003   5.165   2.607   5.372
 2702SOL     OW 9004   1.392   1.625   3.911
 2702SOL    HW1 9005   1.318   1.638   3.976
 2702SOL    HW2 9006   1.393   1.531   3.879
 2703SOL     OW 9007   1.505   5.646   1.076
 2703SOL    HW1 9008   1.478   5.588   1.152
 2703SOL    HW2 9009   1.452   5.620   0.994
 2704SOL     OW 9010   6.705   5.480   2.333
 2704SOL    HW1 9011   6.739   5.564   2.376
 2704SOL    HW2 9012   6.714   5.487   2.234
 2705SOL     OW 9013   6.813   1.286   6.020
 2705SOL    HW1 9014   6.730   1.303   6.073
 2705SOL    HW2 9015   6.875   1.229   6.073
 2706SOL     OW 9016   6.052   4.249   4.550
 2706SOL    HW1 9017   6.024   4.178   4.485
 2706SOL    HW2 9018   6.032   4.218   4.644
 2707SOL     OW 9019   3.822   6.386   3.623
 2707SOL    HW1 9020   3.774   6.422   3.703
 2707SOL    HW2 9021   3.921   6.393   3.637
 2708SOL     OW 9022   6.241   2.716   7.007
 2708SOL    HW1 9023   6.155   2.742   0.031
 2708SOL    HW2 9024   6.316   2.735   0.051
 2709SOL     OW 9025   5.094   6.448   6.169
 2709SOL    HW1 9026   5.149   6.401   6.101
 2709SOL    HW2 9027   5.102   6.547   6.156
 2710SOL     OW 9028   1.850   2.846   3.814
 2710SOL    HW1 9029   1.934   2.793   3.822
 2710SOL    HW2 9030   1.849   2.891   3.724
 2711SOL     OW 9031   3.241   1.602   3.417
 2711SOL    HW1 9032   3.307   1.529   3.432
 2711SOL    HW2 9033   3.272   1.686   3.462
 2712SOL     OW 9034   3.372   5.316   1.799
 2712SOL    HW1 9035   3.444   5.348   1.738
 2712SOL    HW2 9036   3.413   5.270   1.878
 2713SOL     OW 9037   4.227   4.130   6.382
 2713SOL    HW1 9038   4.162   4.159   6.312
 2713SOL    HW2 9039   4.188   4.148   6.473
 2714SOL     OW 9040   4.058   3.879   6.648
 2714SOL    HW1 9041   4.036   3.783   6.633
 2714SOL    HW2 9042   4.132   3.886   6.715
 2715SOL     OW 9043   5.265   1.889   1.093
 2715SOL    HW1 9044   5.258   1.841   1.006
 2715SOL    HW2 9045   5.262   1.988   1.077
 2716SOL     OW 9046   4.600   2.651   2.863
 2716SOL    HW1 9047   4.636   2.718   2.928
 2716SOL    HW2 9048   4.602   2.689   2.771
 2717SOL     OW 9049   0.125   0.107   2.279
 2717SOL    HW1 9050   0.025   0.108   2.273
 2717SOL    HW2 9051   0.162   0.066   2.195
 2718SOL     OW 9052   0.075   0.987   5.507
 2718SOL    HW1 9053   0.162   0.966   5.463
 2718SOL    HW2 9054   7.019   0.970   5.444
 2719SOL     OW 9055   1.717   4.198   2.272
 2719SOL    HW1 9056   1.734   4.166   2.365
 2719SOL    HW2 9057   1.648   4.269   2.272
 2720SOL     OW 9058   1.201   6.941   4.463
 2720SOL    HW1 9059   1.202   7.011   4.534
 2720SOL    HW2 9060   1.294   6.921   4.434
 2721SOL     OW 9061   3.203   6.541   1.881
 2721SOL    HW1 9062   3.267   6.485   1.828
 2721SOL    HW2 9063   3.229   6.538   1.977
 2722SOL     OW 9064   4.817   5.473   6.613
 2722SOL    HW1 9065   4.832   5.493   6.516
 2722SOL    HW2 9066   4.903   5.485   6.663
 2723SOL     OW 9067   3.119   6.445   6.661
 2723SOL    HW1 9068   3.154   6.353   6.671
 2723SOL    HW2 9069   3.130   6.475   6.566
 2724SOL     OW 9070   1.156   5.796   6.394
 2724SOL    HW1 9071   1.119   5.740   6.320
 2724SOL    HW2 9072   1.085   5.810   6.463
 2725SOL     OW 9073   5.115   4.082   4.158
 2725SOL    HW1 9074   5.089   4.036   4.243
 2725SOL    HW2 9075   5.130   4.014   4.087
 2726SOL     OW 9076   0.988   1.971   1.643
 2726SOL    HW1 9077   1.041   1.895   1.606
 2726SOL    HW2 9078   0.899   1.974   1.599
 2727SOL     OW 9079   2.004   4.316   3.991
 2727SOL    HW1 9080   1.919   4.284   4.034
 2727SOL    HW2 9081   1.982   4.371   3.910
 2728SOL     OW 9082   5.324   5.784   6.660
 2728SOL    HW1 9083   5.336   5.881   6.680
 2728SOL    HW2 9084   5.339   5.768   6.563
 2729SOL     OW 9085   6.385   6.284   6.916
 2729SOL    HW1 9086   6.318   6.248   6.982
 2729SOL    HW2 9087   6.339   6.350   6.857
 2730SOL     OW 9088   0.757   5.689   1.053
 2730SOL    HW1 9089   0.766   5.601   1.007
 2730SOL    HW2 9090   0.681   5.684   1.119
 2731SOL     OW 9091   2.997   3.288   3.355
 2731SOL    HW1 9092   2.944   3.347   3.294
 2731SOL    HW2 9093   3.026   3.206   3.306
 2732SOL     OW 9094   4.983   2.051   1.339
 2732SOL    HW1 9095   4.930   2.046   1.423
 2732SOL    HW2 9096   5.050   2.126   1.346
 2733SOL     OW 9097   6.551   1.387   5.177
 2733SOL    HW1 9098   6.536   1.425   5.269
 2733SOL    HW2 9099   6.497   1.438   5.111
 2734SOL     OW 9100   3.645   5.834   1.815
 2734SOL    HW1 9101   3.669   5.905   1.749
 2734SOL    HW2 9102   3.672   5.745   1.780
 2735SOL     OW 9103   1.281   2.469   0.658
 2735SOL    HW1 9104   1.344   2.393   0.675
 2735SOL    HW2 9105   1.187   2.440   0.677
 2736SOL     OW 9106   5.752   5.945   4.331
 2736SOL    HW1 9107   5.677   5.897   4.284
 2736SOL    HW2 9108   5.797   5.883   4.395
 2737SOL     OW 9109   2.867   2.314   5.958
 2737SOL    HW1 9110   2.900   2.379   5.889
 2737SOL    HW2 9111   2.894   2.222   5.931
 2738SOL     OW 9112   6.346   0.056   2.195
 2738SOL    HW1 9113   6.350   0.001   2.112
 2738SOL    HW2 9114   6.287   0.011   2.263
 2739SOL     OW 9115   1.079   5.210   0.936
 2739SOL    HW1 9116   1.162   5.158   0.917
 2739SOL    HW2 9117   0.999   5.153   0.921
 2740SOL     OW 9118   0.493   5.285   2.426
 2740SOL    HW1 9119   0.556   5.326   2.360
 2740SOL    HW2 9120   0.545   5.243   2.500
 2741SOL     OW 9121   1.035   1.557   4.731
 2741SOL    HW1 9122   1.093   1.600   4.801
 2741SOL    HW2 9123   0.991   1.627   4.676
 2742SOL     OW 9124   3.021   5.054   1.805
 2742SOL    HW1 9125   2.951   4.983   1.792
 2742SOL    HW2 9126   3.053   5.086   1.716
 2743SOL     OW 9127   6.641   4.665   2.030
 2743SOL    HW1 9128   6.698   4.736   1.991
 2743SOL    HW2 9129   6.661   4.656   2.128
 2744SOL     OW 9130   3.677   3.439   2.063
 2744SOL    HW1 9131   3.650   3.529   2.095
 2744SOL    HW2 9132   3.770   3.443   2.026
 2745SOL     OW 9133   6.438   1.446   5.422
 2745SOL    HW1 9134   6.520   1.491   5.456
 2745SOL    HW2 9135   6.413   1.371   5.484
 2746SOL     OW 9136   0.600   1.384   4.333
 2746SOL    HW1 9137   0.655   1.306   4.303
 2746SOL    HW2 9138   0.656   1.445   4.390
 2747SOL     OW 9139   4.438   5.821   6.481
 2747SOL    HW1 9140   4.424   5.730   6.521
 2747SOL    HW2 9141   4.406   5.821   6.386
 2748SOL     OW 9142   4.510   0.546   1.591
 2748SOL    HW1 9143   4.469   0.494   1.666
 2748SOL    HW2 9144   4.595   0.588   1.622
 2749SOL     OW 9145   1.373   3.762   0.648
 2749SOL    HW1 9146   1.374   3.671   0.607
 2749SOL    HW2 9147   1.390   3.831   0.577
 2750SOL     OW 9148   2.575   4.721   1.587
 2750SOL    HW1 9149   2.661   4.773   1.586
 2750SOL    HW2 9150   2.572   4.664   1.669
 2751SOL     OW 9151   1.685   1.524   1.415
 2751SOL    HW1 9152   1.692   1.483   1.325
 2751SOL    HW2 9153   1.687   1.624   1.407
 2752SOL     OW 9154   4.155   4.457   6.220
 2752SOL    HW1 9155   4.092   4.525   6.182
 2752SOL    HW2 9156   4.113   4.366   6.215
 2753SOL     OW 9157   6.393   6.077   5.265
 2753SOL    HW1 9158   6.367   6.136   5.342
 2753SOL    HW2 9159   6.484   6.039   5.282
 2754SOL     OW 9160   1.021   6.892   0.054
 2754SOL    HW1 9161   1.070   6.844   0.127
 2754SOL    HW2 9162   0.956   6.957   0.095
 2755SOL     OW 9163   3.027   0.018   2.903
 2755SOL    HW1 9164   3.072   0.084   2.963
 2755SOL    HW2 9165   3.096   6.979   2.860
 2756SOL     OW 9166   4.260   6.387   0.500
 2756SOL    HW1 9167   4.304   6.470   0.532
 2756SOL    HW2 9168   4.160   6.398   0.507
 2757SOL     OW 9169   2.066   5.526   0.432
 2757SOL    HW1 9170   1.982   5.549   0.382
 2757SOL    HW2 9171   2.104   5.440   0.396
 2758SOL     OW 9172   5.073   0.330   4.506
 2758SOL    HW1 9173   5.143   0.342   4.436
 2758SOL    HW2 9174   5.116   0.298   4.591
 2759SOL     OW 9175   5.098   6.418   4.222
 2759SOL    HW1 9176   5.014   6.380   4.183
 2759SOL    HW2 9177   5.157   6.343   4.252
 2760SOL     OW 9178   1.366   5.744   2.004
 2760SOL    HW1 9179   1.407   5.760   2.094
 2760SOL    HW2 9180   1.433   5.699   1.944
 2761SOL     OW 9181   1.907   4.668   4.093
 2761SOL    HW1 9182   1.851   4.742   4.057
 2761SOL    HW2 9183   1.895   4.586   4.036
 2762SOL     OW 9184   0.902   1.023   5.253
 2762SOL    HW1 9185   0.940   0.982   5.171
 2762SOL    HW2 9186   0.836   1.093   5.228
 2763SOL     OW 9187   5.521   2.313   3.943
 2763SOL    HW1 9188   5.505   2.393   4.001
 2763SOL    HW2 9189   5.535   2.342   3.849
 2764SOL     OW 9190   5.836   0.377   1.106
 2764SOL    HW1 9191   5.837   0.464   1.156
 2764SOL    HW2 9192   5.790   0.307   1.161
 2765SOL     OW 9193   5.124   0.461   0.878
 2765SOL    HW1 9194   5.051   0.461   0.946
 2765SOL    HW2 9195   5.161   0.368   0.870
 2766SOL     OW 9196   5.486   1.647   0.657
 2766SOL    HW1 9197   5.392   1.630   0.629
 2766SOL    HW2 9198   5.540   1.674   0.577
 2767SOL     OW 9199   0.171   5.226   6.918
 2767SOL    HW1 9200   0.161   5.281   7.001
 2767SOL    HW2 9201   0.207   5.284   6.844
 2768SOL     OW 9202   5.090   0.865   0.208
 2768SOL    HW1 9203   5.174   0.838   0.161
 2768SOL    HW2 9204   5.018   0.798   0.189
 2769SOL     OW 9205   0.113   4.332   3.879
 2769SOL    HW1 9206   0.074   4.362   3.792
 2769SOL    HW2 9207   0.101   4.404   3.947
 2770SOL     OW 9208   1.702   5.588   6.196
 2770SOL    HW1 9209   1.672   5.529   6.272
 2770SOL    HW2 9210   1.719   5.680   6.230
 2771SOL     OW 9211   5.583   1.262   1.538
 2771SOL    HW1 9212   5.555   1.168   1.523
 2771SOL    HW2 9213   5.596   1.308   1.450
 2772SOL     OW 9214   4.612   1.911   0.834
 2772SOL    HW1 9215   4.709   1.929   0.819
 2772SOL    HW2 9216   4.593   1.814   0.817
 2773SOL     OW 9217   4.893   3.453   6.113
 2773SOL    HW1 9218   4.848   3.505   6.187
 2773SOL    HW2 9219   4.988   3.482   6.105
 2774SOL     OW 9220   6.876   3.063   2.797
 2774SOL    HW1 9221   6.874   3.009   2.881
 2774SOL    HW2 9222   6.828   3.150   2.812
 2775SOL     OW 9223   0.121   5.320   0.173
 2775SOL    HW1 9224   0.174   5.404   0.165
 2775SOL    HW2 9225   0.057   5.328   0.249
 2776SOL     OW 9226   4.773   5.694   5.423
 2776SOL    HW1 9227   4.868   5.692   5.391
 2776SOL    HW2 9228   4.769   5.669   5.520
 2777SOL     OW 9229   2.986   1.283   1.959
 2777SOL    HW1 9230   2.959   1.333   2.041
 2777SOL    HW2 9231   3.046   1.341   1.903
 2778SOL     OW 9232   1.585   1.437   4.921
 2778SOL    HW1 9233   1.551   1.343   4.925
 2778SOL    HW2 9234   1.583   1.478   5.012
 2779SOL     OW 9235   4.573   0.178   0.282
 2779SOL    HW1 9236   4.529   0.090   0.297
 2779SOL    HW2 9237   4.670   0.171   0.306
 2780SOL     OW 9238   6.403   5.896   5.612
 2780SOL    HW1 9239   6.499   5.891   5.584
 2780SOL    HW2 9240   6.346   5.859   5.539
 2781SOL     OW 9241   6.211   5.702   2.178
 2781SOL    HW1 9242   6.270   5.659   2.246
 2781SOL    HW2 9243   6.267   5.744   2.107
 2782SOL     OW 9244   3.025   2.503   6.180
 2782SOL    HW1 9245   2.981   2.415   6.194
 2782SOL    HW2 9246   2.955   2.572   6.159
 2783SOL     OW 9247   5.864   3.236   5.022
 2783SOL    HW1 9248   5.930   3.169   5.056
 2783SOL    HW2 9249   5.895   3.271   4.934
 2784SOL     OW 9250   2.739   1.676   1.551
 2784SOL    HW1 9251   2.729   1.675   1.451
 2784SOL    HW2 9252   2.746   1.771   1.582
 2785SOL     OW 9253   6.264   1.232   0.266
 2785SOL    HW1 9254   6.202   1.153   0.263
 2785SOL    HW2 9255   6.331   1.224   0.192
 2786SOL     OW 9256   4.184   6.611   1.504
 2786SOL    HW1 9257   4.265   6.559   1.478
 2786SOL    HW2 9258   4.102   6.559   1.481
 2787SOL     OW 9259   2.320   3.088   6.236
 2787SOL    HW1 9260   2.407   3.126   6.269
 2787SOL    HW2 9261   2.245   3.119   6.295
 2788SOL     OW 9262   2.243   3.863   0.458
 2788SOL    HW1 9263   2.283   3.809   0.384
 2788SOL    HW2 9264   2.203   3.801   0.526
 2789SOL     OW 9265   1.452   2.506   3.801
 2789SOL    HW1 9266   1.498   2.495   3.889
 2789SOL    HW2 9267   1.515   2.481   3.728
 2790SOL     OW 9268   3.286   5.342   3.104
 2790SOL    HW1 9269   3.384   5.340   3.087
 2790SOL    HW2 9270   3.260   5.265   3.162
 2791SOL     OW 9271   1.248   4.709   4.567
 2791SOL    HW1 9272   1.182   4.651   4.616
 2791SOL    HW2 9273   1.291   4.656   4.494
 2792SOL     OW 9274   1.115   6.962   4.883
 2792SOL    HW1 9275   1.177   6.993   4.811
 2792SOL    HW2 9276   1.069   0.023   4.923
 2793SOL     OW 9277   5.024   2.562   2.715
 2793SOL    HW1 9278   4.962   2.520   2.648
 2793SOL    HW2 9279   4.974   2.583   2.799
 2794SOL     OW 9280   6.739   2.620   0.552
 2794SOL    HW1 9281   6.648   2.650   0.525
 2794SOL    HW2 9282   6.792   2.698   0.585
 2795SOL     OW 9283   3.023   3.608   1.360
 2795SOL    HW1 9284   3.085   3.538   1.397
 2795SOL    HW2 9285   2.930   3.574   1.361
 2796SOL     OW 9286   6.860   4.342   2.522
 2796SOL    HW1 9287   6.806   4.263   2.494
 2796SOL    HW2 9288   6.905   4.382   2.442
 2797SOL     OW 9289   4.891   5.514   4.719
 2797SOL    HW1 9290   4.937   5.597   4.687
 2797SOL    HW2 9291   4.881   5.450   4.642
 2798SOL     OW 9292   1.232   4.371   2.018
 2798SOL    HW1 9293   1.262   4.286   2.061
 2798SOL    HW2 9294   1.270   4.449   2.068
 2799SOL     OW 9295   0.438   5.617   6.892
 2799SOL    HW1 9296   0.401   5.710   6.881
 2799SOL    HW2 9297   0.538   5.622   6.891
 2800SOL     OW 9298   4.410   4.399   6.611
 2800SOL    HW1 9299   4.449   4.406   6.519
 2800SOL    HW2 9300   4.347   4.321   6.615
 2801SOL     OW 9301   4.327   5.749   4.530
 2801SOL    HW1 9302   4.414   5.799   4.529
 2801SOL    HW2 9303   4.264   5.790   4.465
 2802SOL     OW 9304   4.806   3.248   6.626
 2802SOL    HW1 9305   4.745   3.322   6.653
 2802SOL    HW2 9306   4.761   3.160   6.642
 2803SOL     OW 9307   2.823   5.890   6.410
 2803SOL    HW1 9308   2.845   5.793   6.421
 2803SOL    HW2 9309   2.781   5.924   6.494
 2804SOL     OW 9310   6.830   4.406   4.160
 2804SOL    HW1 9311   6.929   4.414   4.162
 2804SOL    HW2 9312   6.802   4.350   4.082
 2805SOL     OW 9313   4.785   3.392   1.413
 2805SOL    HW1 9314   4.743   3.414   1.501
 2805SOL    HW2 9315   4.718   3.406   1.340
 2806SOL     OW 9316   6.269   4.972   3.589
 2806SOL    HW1 9317   6.243   5.024   3.670
 2806SOL    HW2 9318   6.265   5.031   3.509
 2807SOL     OW 9319   5.643   4.985   3.691
 2807SOL    HW1 9320   5.547   4.991   3.663
 2807SOL    HW2 9321   5.649   4.997   3.790
 2808SOL     OW 9322   4.534   1.757   2.246
 2808SOL    HW1 9323   4.630   1.734   2.227
 2808SOL    HW2 9324   4.502   1.703   2.324
 2809SOL     OW 9325   6.568   2.914   1.252
 2809SOL    HW1 9326   6.554   2.994   1.310
 2809SOL    HW2 9327   6.552   2.939   1.157
 2810SOL     OW 9328   3.194   6.439   4.485
 2810SOL    HW1 9329   3.259   6.364   4.475
 2810SOL    HW2 9330   3.168   6.449   4.581
 2811SOL     OW 9331   0.440   0.600   3.909
 2811SOL    HW1 9332   0.387   0.680   3.881
 2811SOL    HW2 9333   0.452   0.538   3.831
 2812SOL     OW 9334   5.498   3.867   1.495
 2812SOL    HW1 9335   5.463   3.793   1.437
 2812SOL    HW2 9336   5.592   3.847   1.521
 2813SOL     OW 9337   6.286   6.991   5.754
 2813SOL    HW1 9338   6.196   7.004   5.712
 2813SOL    HW2 9339   6.355   0.014   5.695
 2814SOL     OW 9340   4.307   2.865   6.941
 2814SOL    HW1 9341   4.215   2.842   6.909
 2814SOL    HW2 9342   4.373   2.845   6.869
 2815SOL     OW 9343   0.178   1.660   5.146
 2815SOL    HW1 9344   0.094   1.624   5.105
 2815SOL    HW2 9345   0.161   1.753   5.180
 2816SOL     OW 9346   6.915   6.395   4.121
 2816SOL    HW1 9347   6.829   6.391   4.071
 2816SOL    HW2 9348   6.897   6.392   4.219
 2817SOL     OW 9349   2.076   0.344   1.252
 2817SOL    HW1 9350   2.032   0.342   1.162
 2817SOL    HW2 9351   2.134   0.426   1.259
 2818SOL     OW 9352   6.816   5.766   6.632
 2818SOL    HW1 9353   6.757   5.778   6.552
 2818SOL    HW2 9354   6.868   5.850   6.647
 2819SOL     OW 9355   0.280   2.250   1.002
 2819SOL    HW1 9356   0.281   2.275   0.905
 2819SOL    HW2 9357   0.309   2.155   1.012
 2820SOL     OW 9358   1.099   1.937   2.620
 2820SOL    HW1 9359   1.038   2.013   2.600
 2820SOL    HW2 9360   1.163   1.963   2.692
 2821SOL     OW 9361   3.775   3.327   6.817
 2821SOL    HW1 9362   3.844   3.295   6.751
 2821SOL    HW2 9363   3.721   3.400   6.775
 2822SOL     OW 9364   3.934   2.570   0.232
 2822SOL    HW1 9365   3.836   2.585   0.241
 2822SOL    HW2 9366   3.979   2.655   0.205
 2823SOL     OW 9367   2.279   6.412   1.383
 2823SOL    HW1 9368   2.262   6.321   1.344
 2823SOL    HW2 9369   2.218   6.478   1.341
 2824SOL     OW 9370   2.519   1.441   4.146
 2824SOL    HW1 9371   2.606   1.396   4.169
 2824SOL    HW2 9372   2.470   1.387   4.078
 2825SOL     OW 9373   0.042   6.959   0.412
 2825SOL    HW1 9374   7.004   6.962   0.330
 2825SOL    HW2 9375   0.038   0.029   0.459
 2826SOL     OW 9376   5.436   2.302   6.606
 2826SOL    HW1 9377   5.349   2.347   6.588
 2826SOL    HW2 9378   5.420   2.215   6.653
 2827SOL     OW 9379   6.164   1.062   5.567
 2827SOL    HW1 9380   6.235   1.130   5.584
 2827SOL    HW2 9381   6.122   1.078   5.478
 2828SOL     OW 9382   3.011   0.932   6.665
 2828SOL    HW1 9383   3.071   1.007   6.692
 2828SOL    HW2 9384   3.047   0.846   6.702
 2829SOL     OW 9385   3.269   4.119   6.379
 2829SOL    HW1 9386   3.190   4.100   6.321
 2829SOL    HW2 9387   3.300   4.212   6.363
 2830SOL     OW 9388   0.345   3.419   6.623
 2830SOL    HW1 9389   0.347   3.395   6.526
 2830SOL    HW2 9390   0.353   3.518   6.633
 2831SOL     OW 9391   6.924   6.159   3.574
 2831SOL    HW1 9392   6.996   6.151   3.643
 2831SOL    HW2 9393   6.954   6.114   3.490
 2832SOL     OW 9394   0.136   1.039   1.386
 2832SOL    HW1 9395   0.080   0.969   1.429
 2832SOL    HW2 9396   0.082   1.089   1.318
 2833SOL     OW 9397   5.466   2.731   2.045
 2833SOL    HW1 9398   5.500   2.818   2.010
 2833SOL    HW2 9399   5.369   2.740   2.067
 2834SOL     OW 9400   2.881   0.442   5.826
 2834SOL    HW1 9401   2.872   0.537   5.856
 2834SOL    HW2 9402   2.839   0.382   5.894
 2835SOL     OW 9403   0.227   0.432   1.443
 2835SOL    HW1 9404   0.286   0.363   1.485
 2835SOL    HW2 9405   0.132   0.416   1.469
 2836SOL     OW 9406   6.675   0.449   1.111
 2836SOL    HW1 9407   6.709   0.420   1.021
 2836SOL    HW2 9408   6.636   0.541   1.103
 2837SOL     OW 9409   6.013   3.486   3.126
 2837SOL    HW1 9410   6.079   3.454   3.194
 2837SOL    HW2 9411   6.049   3.566   3.079
 2838SOL     OW 9412   1.654   4.018   1.781
 2838SOL    HW1 9413   1.661   4.088   1.853
 2838SOL    HW2 9414   1.589   3.948   1.809
 2839SOL     OW 9415   6.030   1.157   1.912
 2839SOL    HW1 9416   6.038   1.081   1.976
 2839SOL    HW2 9417   5.996   1.122   1.824
 2840SOL     OW 9418   0.557   0.891   4.185
 2840SOL    HW1 9419   0.475   0.857   4.139
 2840SOL    HW2 9420   0.542   0.986   4.212
 2841SOL     OW 9421   0.130   0.717   5.733
 2841SOL    HW1 9422   0.048   0.662   5.748
 2841SOL    HW2 9423   0.114   0.811   5.763
 2842SOL     OW 9424   0.324   1.845   4.301
 2842SOL    HW1 9425   0.243   1.869   4.248
 2842SOL    HW2 9426   0.406   1.862   4.246
 2843SOL     OW 9427   3.619   1.782   3.402
 2843SOL    HW1 9428   3.590   1.814   3.312
 2843SOL    HW2 9429   3.586   1.845   3.472
 2844SOL     OW 9430   1.702   4.392   0.229
 2844SOL    HW1 9431   1.715   4.477   0.281
 2844SOL    HW2 9432   1.783   4.374   0.173
 2845SOL     OW 9433   1.181   3.234   0.501
 2845SOL    HW1 9434   1.085   3.263   0.509
 2845SOL    HW2 9435   1.235   3.279   0.571
 2846SOL     OW 9436   4.968   1.592   6.599
 2846SOL    HW1 9437   4.930   1.569   6.510
 2846SOL    HW2 9438   4.894   1.595   6.667
 2847SOL     OW 9439   5.103   3.874   3.143
 2847SOL    HW1 9440   5.166   3.940   3.185
 2847SOL    HW2 9441   5.054   3.825   3.215
 2848SOL     OW 9442   0.355   4.400   6.183
 2848SOL    HW1 9443   0.326   4.416   6.278
 2848SOL    HW2 9444   0.452   4.424   6.174
 2849SOL     OW 9445   3.461   0.301   1.467
 2849SOL    HW1 9446   3.511   0.217   1.449
 2849SOL    HW2 9447   3.491   0.339   1.555
 2850SOL     OW 9448   3.071   0.041   2.544
 2850SOL    HW1 9449   2.996   0.033   2.478
 2850SOL    HW2 9450   3.109   0.134   2.539
 2851SOL     OW 9451   0.403   3.544   5.660
 2851SOL    HW1 9452   0.395   3.485   5.740
 2851SOL    HW2 9453   0.493   3.531   5.617
 2852SOL     OW 9454   5.723   4.806   0.268
 2852SOL    HW1 9455   5.683   4.723   0.307
 2852SOL    HW2 9456   5.748   4.868   0.342
 2853SOL     OW 9457   2.716   2.265   0.098
 2853SOL    HW1 9458   2.703   2.269   7.018
 2853SOL    HW2 9459   2.640   2.217   0.141
 2854SOL     OW 9460   3.185   1.935   4.019
 2854SOL    HW1 9461   3.232   2.011   4.062
 2854SOL    HW2 9462   3.249   1.886   3.959
 2855SOL     OW 9463   1.894   0.971   6.207
 2855SOL    HW1 9464   1.987   0.957   6.242
 2855SOL    HW2 9465   1.831   0.911   6.255
 2856SOL     OW 9466   2.322   2.693   5.821
 2856SOL    HW1 9467   2.401   2.702   5.761
 2856SOL    HW2 9468   2.330   2.757   5.897
 2857SOL     OW 9469   3.307   1.689   2.087
 2857SOL    HW1 9470   3.326   1.591   2.079
 2857SOL    HW2 9471   3.369   1.740   2.027
 2858SOL     OW 9472   6.209   3.485   1.784
 2858SOL    HW1 9473   6.164   3.462   1.870
 2858SOL    HW2 9474   6.201   3.583   1.766
 2859SOL     OW 9475   5.201   2.223   0.715
 2859SOL    HW1 9476   5.203   2.254   0.620
 2859SOL    HW2 9477   5.169   2.297   0.774
 2860SOL     OW 9478   3.672   1.807   0.891
 2860SOL    HW1 9479   3.662   1.906   0.902
 2860SOL    HW2 9480   3.665   1.783   0.794
 2861SOL     OW 9481   4.867   5.287   5.758
 2861SOL    HW1 9482   4.908   5.332   5.679
 2861SOL    HW2 9483   4.777   5.327   5.776
 2862SOL     OW 9484   5.130   2.011   2.646
 2862SOL    HW1 9485   5.208   1.970   2.693
 2862SOL    HW2 9486   5.116   1.965   2.559
 2863SOL     OW 9487   6.031   1.300   6.858
 2863SOL    HW1 9488   5.969   1.313   6.936
 2863SOL    HW2 9489   6.102   1.371   6.860
 2864SOL     OW 9490   3.586   0.718   1.477
 2864SOL    HW1 9491   3.580   0.628   1.519
 2864SOL    HW2 9492   3.669   0.765   1.510
 2865SOL     OW 9493   5.076   3.973   5.884
 2865SOL    HW1 9494   5.058   3.890   5.830
 2865SOL    HW2 9495   5.087   4.051   5.822
 2866SOL     OW 9496   6.450   6.209   0.276
 2866SOL    HW1 9497   6.388   6.286   0.296
 2866SOL    HW2 9498   6.544   6.243   0.270
 2867SOL     OW 9499   5.760   4.094   2.573
 2867SOL    HW1 9500   5.848   4.048   2.584
 2867SOL    HW2 9501   5.694   4.030   2.533
 2868SOL     OW 9502   0.642   3.142   5.220
 2868SOL    HW1 9503   0.630   3.048   5.189
 2868SOL    HW2 9504   0.719   3.146   5.283
 2869SOL     OW 9505   5.505   1.329   3.598
 2869SOL    HW1 9506   5.566   1.268   3.649
 2869SOL    HW2 9507   5.419   1.339   3.648
 2870SOL     OW 9508   6.934   1.490   4.573
 2870SOL    HW1 9509   6.851   1.546   4.580
 2870SOL    HW2 9510   6.966   1.467   4.664
 2871SOL     OW 9511   1.638   1.528   6.821
 2871SOL    HW1 9512   1.723   1.575   6.846
 2871SOL    HW2 9513   1.631   1.443   6.872
 2872SOL     OW 9514   2.693   1.787   3.550
 2872SOL    HW1 9515   2.719   1.703   3.597
 2872SOL    HW2 9516   2.639   1.764   3.469
 2873SOL     OW 9517   1.405   5.011   3.351
 2873SOL    HW1 9518   1.458   5.015   3.436
 2873SOL    HW2 9519   1.373   4.918   3.336
 2874SOL     OW 9520   4.321   5.087   2.903
 2874SOL    HW1 9521   4.234   5.126   2.932
 2874SOL    HW2 9522   4.396   5.134   2.949
 2875SOL     OW 9523   4.511   6.466   6.578
 2875SOL    HW1 9524   4.539   6.375   6.608
 2875SOL    HW2 9525   4.463   6.513   6.653
 2876SOL     OW 9526   0.812   6.845   1.869
 2876SOL    HW1 9527   0.837   6.863   1.774
 2876SOL    HW2 9528   0.810   6.930   1.921
 2877SOL     OW 9529   3.553   2.852   5.270
 2877SOL    HW1 9530   3.631   2.793   5.289
 2877SOL    HW2 9531   3.469   2.805   5.296
 2878SOL     OW 9532   3.796   5.046   4.717
 2878SOL    HW1 9533   3.781   4.964   4.662
 2878SOL    HW2 9534   3.747   5.123   4.677
 2879SOL     OW 9535   5.222   5.297   0.005
 2879SOL    HW1 9536   5.276   5.295   6.939
 2879SOL    HW2 9537   5.135   5.344   7.005
 2880SOL     OW 9538   6.303   6.490   0.836
 2880SOL    HW1 9539   6.337   6.466   0.745
 2880SOL    HW2 9540   6.256   6.411   0.876
 2881SOL     OW 9541   5.801   6.236   1.386
 2881SOL    HW1 9542   5.883   6.207   1.336
 2881SOL    HW2 9543   5.737   6.280   1.323
 2882SOL     OW 9544   0.738   3.574   2.211
 2882SOL    HW1 9545   0.833   3.598   2.233
 2882SOL    HW2 9546   0.689   3.551   2.296
 2883SOL     OW 9547   5.254   6.593   4.089
 2883SOL    HW1 9548   5.194   6.535   4.144
 2883SOL    HW2 9549   5.344   6.549   4.080
 2884SOL     OW 9550   0.676   5.231   2.872
 2884SOL    HW1 9551   0.756   5.180   2.904
 2884SOL    HW2 9552   0.705   5.313   2.823
 2885SOL     OW 9553   0.146   3.095   2.743
 2885SOL    HW1 9554   0.210   3.019   2.729
 2885SOL    HW2 9555   0.052   3.062   2.735
 2886SOL     OW 9556   2.078   3.783   0.128
 2886SOL    HW1 9557   2.030   3.711   0.079
 2886SOL    HW2 9558   2.023   3.813   0.206
 2887SOL     OW 9559   1.836   6.790   4.904
 2887SOL    HW1 9560   1.891   6.872   4.882
 2887SOL    HW2 9561   1.883   6.737   4.974
 2888SOL     OW 9562   0.513   4.627   6.402
 2888SOL    HW1 9563   0.462   4.596   6.482
 2888SOL    HW2 9564   0.602   4.582   6.399
 2889SOL     OW 9565   1.269   1.057   2.409
 2889SOL    HW1 9566   1.334   1.122   2.370
 2889SOL    HW2 9567   1.197   1.038   2.342
 2890SOL     OW 9568   2.864   0.414   0.725
 2890SOL    HW1 9569   2.878   0.421   0.824
 2890SOL    HW2 9570   2.767   0.424   0.705
 2891SOL     OW 9571   2.497   4.406   3.772
 2891SOL    HW1 9572   2.566   4.472   3.740
 2891SOL    HW2 9573   2.463   4.354   3.694
 2892SOL     OW 9574   5.520   3.937   0.425
 2892SOL    HW1 9575   5.612   3.898   0.415
 2892SOL    HW2 9576   5.454   3.863   0.433
 2893SOL     OW 9577   0.903   6.855   5.039
 2893SOL    HW1 9578   1.001   6.865   5.056
 2893SOL    HW2 9579   0.873   6.763   5.064
 2894SOL     OW 9580   3.237   2.945   6.834
 2894SOL    HW1 9581   3.172   2.997   6.888
 2894SOL    HW2 9582   3.205   2.940   6.739
 2895SOL     OW 9583   4.115   2.864   6.624
 2895SOL    HW1 9584   4.033   2.814   6.649
 2895SOL    HW2 9585   4.171   2.808   6.563
 2896SOL     OW 9586   3.149   5.092   6.484
 2896SOL    HW1 9587   3.155   5.187   6.452
 2896SOL    HW2 9588   3.060   5.077   6.526
 2897SOL     OW 9589   2.940   6.067   3.435
 2897SOL    HW1 9590   3.011   5.997   3.440
 2897SOL    HW2 9591   2.960   6.131   3.361
 2898SOL     OW 9592   4.621   5.156   3.404
 2898SOL    HW1 9593   4.666   5.239   3.436
 2898SOL    HW2 9594   4.523   5.172   3.395
 2899SOL     OW 9595   0.297   1.648   6.892
 2899SOL    HW1 9596   0.291   1.578   6.963
 2899SOL    HW2 9597   0.211   1.651   6.841
 2900SOL     OW 9598   1.206   4.953   5.480
 2900SOL    HW1 9599   1.151   5.022   5.528
 2900SOL    HW2 9600   1.232   4.881   5.544
 2901SOL     OW 9601   1.349   0.103   2.832
 2901SOL    HW1 9602   1.306   0.107   2.742
 2901SOL    HW2 9603   1.445   0.130   2.825
 2902SOL     OW 9604   5.657   6.099   0.922
 2902SOL    HW1 9605   5.646   6.127   0.827
 2902SOL    HW2 9606   5.729   6.030   0.928
 2903SOL     OW 9607   3.120   0.287   1.335
 2903SOL    HW1 9608   3.063   0.205   1.337
 2903SOL    HW2 9609   3.083   0.351   1.267
 2904SOL     OW 9610   2.222   3.168   5.549
 2904SOL    HW1 9611   2.170   3.245   5.586
 2904SOL    HW2 9612   2.296   3.204   5.491
 2905SOL     OW 9613   0.790   2.371   3.287
 2905SOL    HW1 9614   0.844   2.317   3.352
 2905SOL    HW2 9615   0.785   2.323   3.200
 2906SOL     OW 9616   5.331   5.337   2.875
 2906SOL    HW1 9617   5.283   5.266   2.927
 2906SOL    HW2 9618   5.266   5.383   2.814
 2907SOL     OW 9619   6.679   0.588   4.267
 2907SOL    HW1 9620   6.659   0.499   4.226
 2907SOL    HW2 9621   6.723   0.646   4.199
 2908SOL     OW 9622   4.295   6.481   4.202
 2908SOL    HW1 9623   4.334   6.572   4.219
 2908SOL    HW2 9624   4.219   6.488   4.139
 2909SOL     OW 9625   0.319   6.164   3.909
 2909SOL    HW1 9626   0.321   6.264   3.899
 2909SOL    HW2 9627   0.393   6.136   3.969
 2910SOL     OW 9628   4.283   6.898   4.333
 2910SOL    HW1 9629   4.281   6.928   4.238
 2910SOL    HW2 9630   4.350   6.825   4.344
 2911SOL     OW 9631   2.407   5.299   3.590
 2911SOL    HW1 9632   2.386   5.237   3.514
 2911SOL    HW2 9633   2.421   5.246   3.673
 2912SOL     OW 9634   3.882   6.292   6.866
 2912SOL    HW1 9635   3.926   6.239   6.938
 2912SOL    HW2 9636   3.786   6.263   6.857
 2913SOL     OW 9637   2.059   5.004   2.394
 2913SOL    HW1 9638   2.013   5.085   2.358
 2913SOL    HW2 9639   2.021   4.981   2.483
 2914SOL     OW 9640   5.907   5.333   6.402
 2914SOL    HW1 9641   5.840   5.304   6.333
 2914SOL    HW2 9642   5.999   5.317   6.367
 2915SOL     OW 9643   4.997   1.561   5.006
 2915SOL    HW1 9644   5.092   1.573   5.036
 2915SOL    HW2 9645   4.937   1.619   5.062
 2916SOL     OW 9646   6.264   5.354   5.946
 2916SOL    HW1 9647   6.268   5.336   5.847
 2916SOL    HW2 9648   6.269   5.452   5.961
 2917SOL     OW 9649   4.645   0.871   1.649
 2917SOL    HW1 9650   4.600   0.880   1.738
 2917SOL    HW2 9651   4.684   0.779   1.641
 2918SOL     OW 9652   0.492   3.391   3.023
 2918SOL    HW1 9653   0.430   3.443   3.082
 2918SOL    HW2 9654   0.553   3.335   3.079
 2919SOL     OW 9655   6.261   0.828   0.210
 2919SOL    HW1 9656   6.339   0.889   0.198
 2919SOL    HW2 9657   6.287   0.735   0.184
 2920SOL     OW 9658   3.540   2.020   2.263
 2920SOL    HW1 9659   3.520   1.940   2.319
 2920SOL    HW2 9660   3.638   2.035   2.259
 2921SOL     OW 9661   0.240   0.734   3.162
 2921SOL    HW1 9662   0.187   0.743   3.077
 2921SOL    HW2 9663   0.329   0.776   3.150
 2922SOL     OW 9664   6.168   6.462   6.936
 2922SOL    HW1 9665   6.228   6.515   6.996
 2922SOL    HW2 9666   6.141   6.377   6.981
 2923SOL     OW 9667   6.880   5.046   1.695
 2923SOL    HW1 9668   6.878   5.046   1.795
 2923SOL    HW2 9669   6.947   5.114   1.664
 2924SOL     OW 9670   6.884   2.106   6.369
 2924SOL    HW1 9671   6.840   2.098   6.459
 2924SOL    HW2 9672   6.910   2.201   6.353
 2925SOL     OW 9673   5.059   0.880   3.357
 2925SOL    HW1 9674   5.137   0.892   3.296
 2925SOL    HW2 9675   4.975   0.908   3.310
 2926SOL     OW 9676   6.824   1.425   5.186
 2926SOL    HW1 9677   6.748   1.364   5.163
 2926SOL    HW2 9678   6.790   1.501   5.242
 2927SOL     OW 9679   2.362   1.933   2.232
 2927SOL    HW1 9680   2.342   2.027   2.206
 2927SOL    HW2 9681   2.293   1.872   2.192
 2928SOL     OW 9682   6.697   2.512   6.118
 2928SOL    HW1 9683   6.664   2.572   6.190
 2928SOL    HW2 9684   6.778   2.553   6.075
 2929SOL     OW 9685   0.883   1.417   5.773
 2929SOL    HW1 9686   0.829   1.428   5.690
 2929SOL    HW2 9687   0.916   1.323   5.780
 2930SOL     OW 9688   4.966   6.416   4.929
 2930SOL    HW1 9689   5.054   6.445   4.967
 2930SOL    HW2 9690   4.905   6.495   4.924
 2931SOL     OW 9691   5.697   6.375   6.585
 2931SOL    HW1 9692   5.779   6.407   6.631
 2931SOL    HW2 9693   5.720   6.299   6.524
 2932SOL     OW 9694   1.553   4.763   2.240
 2932SOL    HW1 9695   1.613   4.710   2.180
 2932SOL    HW2 9696   1.503   4.701   2.300
 2933SOL     OW 9697   5.380   3.038   3.309
 2933SOL    HW1 9698   5.439   2.974   3.358
 2933SOL    HW2 9699   5.347   3.108   3.373
 2934SOL     OW 9700   3.709   1.152   0.303
 2934SOL    HW1 9701   3.729   1.234   0.356
 2934SOL    HW2 9702   3.754   1.160   0.213
 2935SOL     OW 9703   6.202   3.048   1.729
 2935SOL    HW1 9704   6.135   3.087   1.793
 2935SOL    HW2 9705   6.233   2.959   1.763
 2936SOL     OW 9706   5.198   5.740   1.560
 2936SOL    HW1 9707   5.181   5.753   1.658
 2936SOL    HW2 9708   5.295   5.720   1.545
 2937SOL     OW 9709   3.838   4.771   0.854
 2937SOL    HW1 9710   3.928   4.802   0.886
 2937SOL    HW2 9711   3.781   4.851   0.835
 2938SOL     OW 9712   5.156   4.786   5.861
 2938SOL    HW1 9713   5.106   4.856   5.808
 2938SOL    HW2 9714   5.142   4.802   5.958
 2939SOL     OW 9715   0.572   0.040   4.290
 2939SOL    HW1 9716   0.584   0.112   4.222
 2939SOL    HW2 9717   0.569   6.970   4.244
 2940SOL     OW 9718   6.125   0.141   5.590
 2940SOL    HW1 9719   6.117   0.194   5.674
 2940SOL    HW2 9720   6.038   0.145   5.540
 2941SOL     OW 9721   2.060   2.441   4.881
 2941SOL    HW1 9722   1.983   2.462   4.821
 2941SOL    HW2 9723   2.108   2.360   4.847
 2942SOL     OW 9724   2.190   1.034   2.145
 2942SOL    HW1 9725   2.116   0.969   2.130
 2942SOL    HW2 9726   2.215   1.034   2.242
 2943SOL     OW 9727   5.822   3.688   3.292
 2943SOL    HW1 9728   5.788   3.733   3.375
 2943SOL    HW2 9729   5.758   3.616   3.265
 2944SOL     OW 9730   2.796   5.472   5.425
 2944SOL    HW1 9731   2.844   5.450   5.341
 2944SOL    HW2 9732   2.813   5.401   5.493
 2945SOL     OW 9733   4.052   3.199   3.092
 2945SOL    HW1 9734   4.106   3.253   3.156
 2945SOL    HW2 9735   3.954   3.212   3.111
 2946SOL     OW 9736   0.116   5.569   6.223
 2946SOL    HW1 9737   0.040   5.505   6.240
 2946SOL    HW2 9738   0.079   5.657   6.194
 2947SOL     OW 9739   0.863   4.454   0.626
 2947SOL    HW1 9740   0.956   4.420   0.610
 2947SOL    HW2 9741   0.865   4.523   0.699
 2948SOL     OW 9742   6.815   3.480   5.447
 2948SOL    HW1 9743   6.866   3.450   5.367
 2948SOL    HW2 9744   6.835   3.576   5.465
 2949SOL     OW 9745   1.952   6.298   1.196
 2949SOL    HW1 9746   1.976   6.382   1.244
 2949SOL    HW2 9747   2.013   6.286   1.117
 2950SOL     OW 9748   5.340   3.500   4.368
 2950SOL    HW1 9749   5.393   3.416   4.381
 2950SOL    HW2 9750   5.255   3.494   4.420
 2951SOL     OW 9751   6.353   2.472   0.327
 2951SOL    HW1 9752   6.323   2.489   0.421
 2951SOL    HW2 9753   6.434   2.413   0.329
 2952SOL     OW 9754   1.123   5.749   4.721
 2952SOL    HW1 9755   1.130   5.649   4.726
 2952SOL    HW2 9756   1.064   5.782   4.795
 2953SOL     OW 9757   4.656   2.671   2.338
 2953SOL    HW1 9758   4.673   2.723   2.254
 2953SOL    HW2 9759   4.593   2.596   2.318
 2954SOL     OW 9760   1.012   5.267   1.310
 2954SOL    HW1 9761   1.050   5.336   1.249
 2954SOL    HW2 9762   0.930   5.302   1.354
 2955SOL     OW 9763   0.772   3.578   0.892
 2955SOL    HW1 9764   0.849   3.567   0.828
 2955SOL    HW2 9765   0.755   3.676   0.906
 2956SOL     OW 9766   6.150   5.988   2.817
 2956SOL    HW1 9767   6.133   5.897   2.780
 2956SOL    HW2 9768   6.130   6.057   2.747
 2957SOL     OW 9769   6.542   3.133   1.428
 2957SOL    HW1 9770   6.615   3.194   1.458
 2957SOL    HW2 9771   6.460   3.148   1.484
 2958SOL     OW 9772   2.678   4.695   4.793
 2958SOL    HW1 9773   2.745   4.651   4.733
 2958SOL    HW2 9774   2.686   4.656   4.885
 2959SOL     OW 9775   4.754   4.510   0.259
 2959SOL    HW1 9776   4.780   4.419   0.229
 2959SOL    HW2 9777   4.816   4.539   0.332
 2960SOL     OW 9778   2.938   0.474   6.512
 2960SOL    HW1 9779   2.993   0.396   6.544
 2960SOL    HW2 9780   2.908   0.528   6.590
 2961SOL     OW 9781   5.365   2.656   4.556
 2961SOL    HW1 9782   5.316   2.660   4.469
 2961SOL    HW2 9783   5.307   2.695   4.628
 2962SOL     OW 9784   4.413   0.793   3.778
 2962SOL    HW1 9785   4.375   0.786   3.686
 2962SOL    HW2 9786   4.460   0.707   3.801
 2963SOL     OW 9787   1.844   1.693   5.756
 2963SOL    HW1 9788   1.751   1.722   5.732
 2963SOL    HW2 9789   1.881   1.755   5.825
 2964SOL     OW 9790   1.239   6.847   1.621
 2964SOL    HW1 9791   1.289   6.781   1.566
 2964SOL    HW2 9792   1.146   6.813   1.638
 2965SOL     OW 9793   0.069   1.121   4.975
 2965SOL    HW1 9794   0.090   1.162   5.063
 2965SOL    HW2 9795   6.994   1.084   4.976
 2966SOL     OW 9796   6.270   4.653   4.078
 2966SOL    HW1 9797   6.331   4.721   4.039
 2966SOL    HW2 9798   6.208   4.697   4.143
 2967SOL     OW 9799   6.317   2.271   4.406
 2967SOL    HW1 9800   6.357   2.300   4.493
 2967SOL    HW2 9801   6.229   2.227   4.423
 2968SOL     OW 9802   0.856   4.137   5.534
 2968SOL    HW1 9803   0.908   4.053   5.547
 2968SOL    HW2 9804   0.773   4.135   5.590
 2969SOL     OW 9805   5.822   1.251   4.776
 2969SOL    HW1 9806   5.766   1.321   4.731
 2969SOL    HW2 9807   5.906   1.294   4.810
 2970SOL     OW 9808   1.229   4.517   6.957
 2970SOL    HW1 9809   1.262   4.442   7.014
 2970SOL    HW2 9810   1.196   4.591   7.016
 2971SOL     OW 9811   4.966   2.712   5.282
 2971SOL    HW1 9812   4.949   2.751   5.372
 2971SOL    HW2 9813   4.881   2.712   5.229
 2972SOL     OW 9814   6.480   4.999   6.072
 2972SOL    HW1 9815   6.481   4.950   5.985
 2972SOL    HW2 9816   6.391   5.042   6.085
 2973SOL     OW 9817   5.239   1.143   4.356
 2973SOL    HW1 9818   5.198   1.234   4.360
 2973SOL    HW2 9819   5.335   1.148   4.386
 2974SOL     OW 9820   0.336   3.665   2.848
 2974SOL    HW1 9821   0.269   3.593   2.869
 2974SOL    HW2 9822   0.301   3.723   2.775
 2975SOL     OW 9823   0.600   1.815   5.276
 2975SOL    HW1 9824   0.506   1.825   5.311
 2975SOL    HW2 9825   0.618   1.719   5.256
 2976SOL     OW 9826   3.776   1.336   2.280
 2976SOL    HW1 9827   3.771   1.262   2.347
 2976SOL    HW2 9828   3.814   1.417   2.323
 2977SOL     OW 9829   1.716   0.389   4.250
 2977SOL    HW1 9830   1.753   0.407   4.158
 2977SOL    HW2 9831   1.783   0.338   4.303
 2978SOL     OW 9832   4.182   4.703   6.550
 2978SOL    HW1 9833   4.175   4.778   6.485
 2978SOL    HW2 9834   4.238   4.731   6.628
 2979SOL     OW 9835   4.555   6.663   4.053
 2979SOL    HW1 9836   4.626   6.650   4.121
 2979SOL    HW2 9837   4.575   6.744   3.998
 2980SOL     OW 9838   1.632   5.673   3.946
 2980SOL    HW1 9839   1.656   5.650   3.852
 2980SOL    HW2 9840   1.707   5.725   3.988
 2981SOL     OW 9841   0.868   0.227   5.584
 2981SOL    HW1 9842   0.905   0.316   5.613
 2981SOL    HW2 9843   0.877   0.219   5.485
 2982SOL     OW 9844   4.936   6.181   3.082
 2982SOL    HW1 9845   4.905   6.246   3.152
 2982SOL    HW2 9846   4.874   6.184   3.004
 2983SOL     OW 9847   0.686   1.074   4.464
 2983SOL    HW1 9848   0.617   1.143   4.442
 2983SOL    HW2 9849   0.740   1.054   4.382
 2984SOL     OW 9850   4.865   5.721   1.645
 2984SOL    HW1 9851   4.898   5.666   1.569
 2984SOL    HW2 9852   4.835   5.661   1.719
 2985SOL     OW 9853   0.923   2.434   5.129
 2985SOL    HW1 9854   1.005   2.464   5.178
 2985SOL    HW2 9855   0.925   2.334   5.120
 2986SOL     OW 9856   1.557   3.672   6.762
 2986SOL    HW1 9857   1.617   3.691   6.839
 2986SOL    HW2 9858   1.537   3.758   6.714
 2987SOL     OW 9859   4.655   0.904   3.652
 2987SOL    HW1 9860   4.688   0.896   3.558
 2987SOL    HW2 9861   4.562   0.868   3.658
 2988SOL     OW 9862   0.284   6.915   3.073
 2988SOL    HW1 9863   0.259   6.948   2.982
 2988SOL    HW2 9864   0.201   6.901   3.127
 2989SOL     OW 9865   6.625   5.999   1.136
 2989SOL    HW1 9866   6.657   5.905   1.150
 2989SOL    HW2 9867   6.684   6.044   1.069
 2990SOL     OW 9868   4.475   1.253   3.558
 2990SOL    HW1 9869   4.500   1.167   3.515
 2990SOL    HW2 9870   4.471   1.240   3.658
 2991SOL     OW 9871   6.779   3.899   0.484
 2991SOL    HW1 9872   6.837   3.971   0.523
 2991SOL    HW2 9873   6.704   3.940   0.432
 2992SOL     OW 9874   2.037   5.111   5.866
 2992SOL    HW1 9875   1.970   5.139   5.935
 2992SOL    HW2 9876   2.108   5.056   5.908
 2993SOL     OW 9877   1.212   4.862   1.959
 2993SOL    HW1 9878   1.264   4.863   1.874
 2993SOL    HW2 9879   1.220   4.950   2.004
 2994SOL     OW 9880   3.978   0.916   0.460
 2994SOL    HW1 9881   3.954   0.930   0.556
 2994SOL    HW2 9882   3.898   0.885   0.409
 2995SOL     OW 9883   0.790   3.041   0.013
 2995SOL    HW1 9884   0.872   3.038   0.070
 2995SOL    HW2 9885   0.814   3.021   6.937
 2996SOL     OW 9886   2.746   6.111   3.793
 2996SOL    HW1 9887   2.695   6.138   3.875
 2996SOL    HW2 9888   2.835   6.075   3.819
 2997SOL     OW 9889   4.688   6.546   1.985
 2997SOL    HW1 9890   4.705   6.587   1.895
 2997SOL    HW2 9891   4.771   6.554   2.041
 2998SOL     OW 9892   5.240   6.418   5.294
 2998SOL    HW1 9893   5.186   6.367   5.361
 2998SOL    HW2 9894   5.327   6.445   5.335
 2999SOL     OW 9895   3.603   5.656   3.997
 2999SOL    HW1 9896   3.685   5.683   4.045
 2999SOL    HW2 9897   3.624   5.641   3.900
 3000SOL     OW 9898   1.352   3.840   6.591
 3000SOL    HW1 9899   1.312   3.876   6.507
 3000SOL    HW2 9900   1.303   3.876   6.670
 3001SOL     OW 9901   5.534   0.226   6.857
 3001SOL    HW1 9902   5.470   0.281   6.804
 3001SOL    HW2 9903   5.494   0.135   6.873
 3002SOL     OW 9904   4.275   0.594   5.343
 3002SOL    HW1 9905   4.316   0.670   5.291
 3002SOL    HW2 9906   4.273   0.619   5.440
 3003SOL     OW 9907   2.591   6.607   6.735
 3003SOL    HW1 9908   2.581   6.562   6.646
 3003SOL    HW2 9909   2.635   6.696   6.723
 3004SOL     OW 9910   0.217   4.938   3.865
 3004SOL    HW1 9911   0.316   4.926   3.874
 3004SOL    HW2 9912   0.186   5.006   3.931
 3005SOL     OW 9913   3.170   2.427   0.599
 3005SOL    HW1 9914   3.176   2.525   0.583
 3005SOL    HW2 9915   3.142   2.411   0.694
 3006SOL     OW 9916   6.020   2.310   0.291
 3006SOL    HW1 9917   6.068   2.252   0.225
 3006SOL    HW2 9918   5.933   2.267   0.316
 3007SOL     OW 9919   6.230   5.155   2.340
 3007SOL    HW1 9920   6.201   5.215   2.265
 3007SOL    HW2 9921   6.162   5.084   2.355
 3008SOL     OW 9922   4.018   0.782   6.563
 3008SOL    HW1 9923   4.080   0.842   6.614
 3008SOL    HW2 9924   4.046   0.687   6.574
 3009SOL     OW 9925   0.618   6.456   2.718
 3009SOL    HW1 9926   0.607   6.377   2.658
 3009SOL    HW2 9927   0.664   6.530   2.668
 3010SOL     OW 9928   3.689   6.011   3.420
 3010SOL    HW1 9929   3.752   6.066   3.366
 3010SOL    HW2 9930   3.612   5.983   3.363
 3011SOL     OW 9931   5.479   1.046   0.322
 3011SOL    HW1 9932   5.572   1.083   0.323
 3011SOL    HW2 9933   5.447   1.039   0.228
 3012SOL     OW 9934   1.569   4.043   5.060
 3012SOL    HW1 9935   1.617   3.962   5.093
 3012SOL    HW2 9936   1.624   4.088   4.989
 3013SOL     OW 9937   5.692   5.872   3.981
 3013SOL    HW1 9938   5.790   5.851   3.983
 3013SOL    HW2 9939   5.655   5.868   4.074
 3014SOL     OW 9940   4.991   2.567   4.080
 3014SOL    HW1 9941   5.002   2.660   4.114
 3014SOL    HW2 9942   4.972   2.569   3.982
 3015SOL     OW 9943   3.604   2.237   0.702
 3015SOL    HW1 9944   3.523   2.222   0.645
 3015SOL    HW2 9945   3.681   2.264   0.644
 3016SOL     OW 9946   2.914   6.172   4.383
 3016SOL    HW1 9947   2.858   6.114   4.442
 3016SOL    HW2 9948   3.009   6.170   4.414
 3017SOL     OW 9949   1.090   5.114   1.736
 3017SOL    HW1 9950   1.007   5.059   1.741
 3017SOL    HW2 9951   1.127   5.128   1.828
 3018SOL     OW 9952   3.291   6.944   5.850
 3018SOL    HW1 9953   3.385   6.932   5.817
 3018SOL    HW2 9954   3.259   0.017   5.825
 3019SOL     OW 9955   2.389   6.711   0.902
 3019SOL    HW1 9956   2.428   6.756   0.822
 3019SOL    HW2 9957   2.462   6.676   0.961
 3020SOL     OW 9958   3.451   4.320   1.585
 3020SOL    HW1 9959   3.435   4.383   1.509
 3020SOL    HW2 9960   3.367   4.269   1.604
 3021SOL     OW 9961   1.939   1.525   0.507
 3021SOL    HW1 9962   1.981   1.463   0.441
 3021SOL    HW2 9963   1.974   1.617   0.493
 3022SOL     OW 9964   4.389   5.804   2.923
 3022SOL    HW1 9965   4.367   5.783   3.018
 3022SOL    HW2 9966   4.448   5.731   2.886
 3023SOL     OW 9967   3.872   6.478   2.621
 3023SOL    HW1 9968   3.833   6.390   2.647
 3023SOL    HW2 9969   3.893   6.531   2.704
 3024SOL     OW 9970   3.796   0.167   6.017
 3024SOL    HW1 9971   3.814   0.183   6.114
 3024SOL    HW2 9972   3.861   0.099   5.983
 3025SOL     OW 9973   3.500   2.533   0.035
 3025SOL    HW1 9974   3.431   2.467   0.006
 3025SOL    HW2 9975   3.545   2.572   6.974
 3026SOL     OW 9976   1.728   2.386   0.735
 3026SOL    HW1 9977   1.762   2.303   0.692
 3026SOL    HW2 9978   1.751   2.386   0.832
 3027SOL     OW 9979   4.250   0.963   1.651
 3027SOL    HW1 9980   4.282   0.875   1.685
 3027SOL    HW2 9981   4.320   1.003   1.592
 3028SOL     OW 9982   0.980   4.393   6.288
 3028SOL    HW1 9983   1.074   4.398   6.255
 3028SOL    HW2 9984   0.952   4.297   6.295
 3029SOL     OW 9985   0.293   5.192   4.907
 3029SOL    HW1 9986   0.247   5.117   4.859
 3029SOL    HW2 9987   0.290   5.175   5.005
 3030SOL     OW 9988   0.538   2.313   5.836
 3030SOL    HW1 9989   0.471   2.366   5.888
 3030SOL    HW2 9990   0.611   2.374   5.806
 3031SOL     OW 9991   0.061   3.949   0.897
 3031SOL    HW1 9992   0.015   3.870   0.936
 3031SOL    HW2 9993   0.006   3.986   0.822
 3032SOL     OW 9994   5.097   6.878   0.341
 3032SOL    HW1 9995   5.194   6.896   0.324
 3032SOL    HW2 9996   5.084   6.849   0.436
 3033SOL     OW 9997   1.223   2.509   1.127
 3033SOL    HW1 9998   1.174   2.422   1.118
 3033SOL    HW2 9999   1.249   2.541   1.036
 3034SOL     OW10000   2.123   6.288   4.005
 3034SOL    HW110001   2.092   6.383   3.997
 3034SOL    HW210002   2.148   6.269   4.100
 3035SOL     OW10003   6.780   2.938   0.232
 3035SOL    HW110004   6.727   2.949   0.316
 3035SOL    HW210005   6.759   3.013   0.169
 3036SOL     OW10006   1.614   3.077   6.925
 3036SOL    HW110007   1.680   3.114   6.859
 3036SOL    HW210008   1.662   3.025   6.995
 3037SOL     OW10009   5.987   5.643   5.161
 3037SOL    HW110010   6.038   5.720   5.198
 3037SOL    HW210011   5.914   5.676   5.101
 3038SOL     OW10012   5.985   6.591   6.558
 3038SOL    HW110013   6.016   6.513   6.503
 3038SOL    HW210014   6.060   6.656   6.569
 3039SOL     OW10015   6.539   3.754   2.318
 3039SOL    HW110016   6.595   3.787   2.243
 3039SOL    HW210017   6.494   3.669   2.292
 3040SOL     OW10018   5.134   3.775   6.254
 3040SOL    HW110019   5.135   3.872   6.229
 3040SOL    HW210020   5.187   3.762   6.338
 3041SOL     OW10021   2.340   2.446   5.410
 3041SOL    HW110022   2.297   2.386   5.343
 3041SOL    HW210023   2.307   2.540   5.396
 3042SOL     OW10024   5.562   6.812   2.082
 3042SOL    HW110025   5.507   6.785   2.161
 3042SOL    HW210026   5.528   6.767   2.000
 3043SOL     OW10027   0.777   5.423   0.959
 3043SOL    HW110028   0.773   5.344   1.020
 3043SOL    HW210029   0.734   5.400   0.872
 3044SOL     OW10030   2.858   4.595   5.999
 3044SOL    HW110031   2.810   4.672   5.958
 3044SOL    HW210032   2.844   4.595   6.098
 3045SOL     OW10033   4.857   0.665   2.682
 3045SOL    HW110034   4.760   0.689   2.684
 3045SOL    HW210035   4.871   0.577   2.727
 3046SOL     OW10036   1.624   2.062   5.590
 3046SOL    HW110037   1.549   2.122   5.563
 3046SOL    HW210038   1.705   2.117   5.609
 3047SOL     OW10039   4.911   5.938   2.589
 3047SOL    HW110040   4.953   5.928   2.680
 3047SOL    HW210041   4.840   6.007   2.592
 3048SOL     OW10042   3.678   3.037   1.633
 3048SOL    HW110043   3.726   2.981   1.565
 3048SOL    HW210044   3.612   3.096   1.586
 3049SOL     OW10045   1.349   6.155   1.466
 3049SOL    HW110046   1.321   6.072   1.515
 3049SOL    HW210047   1.408   6.130   1.389
 3050SOL     OW10048   3.397   0.533   3.660
 3050SOL    HW110049   3.495   0.532   3.643
 3050SOL    HW210050   3.380   0.554   3.756
 3051SOL     OW10051   2.780   3.362   6.884
 3051SOL    HW110052   2.794   3.378   6.786
 3051SOL    HW210053   2.735   3.273   6.897
 3052SOL     OW10054   4.223   0.964   2.110
 3052SOL    HW110055   4.212   0.999   2.017
 3052SOL    HW210056   4.135   0.966   2.158
 3053SOL     OW10057   6.656   0.677   6.564
 3053SOL    HW110058   6.593   0.600   6.573
 3053SOL    HW210059   6.741   0.657   6.614
 3054SOL     OW10060   0.742   2.837   0.931
 3054SOL    HW110061   0.714   2.757   0.877
 3054SOL    HW210062   0.777   2.907   0.869
 3055SOL     OW10063   4.743   6.818   3.657
 3055SOL    HW110064   4.720   6.880   3.731
 3055SOL    HW210065   4.716   6.859   3.569
 3056SOL     OW10066   6.807   0.350   6.242
 3056SOL    HW110067   6.804   0.443   6.205
 3056SOL    HW210068   6.718   0.306   6.229
 3057SOL     OW10069   4.299   5.460   2.852
 3057SOL    HW110070   4.393   5.491   2.861
 3057SOL    HW210071   4.292   5.395   2.776
 3058SOL     OW10072   6.855   5.518   1.603
 3058SOL    HW110073   6.811   5.589   1.548
 3058SOL    HW210074   6.786   5.475   1.661
 3059SOL     OW10075   1.838   2.334   5.061
 3059SOL    HW110076   1.812   2.423   5.099
 3059SOL    HW210077   1.921   2.344   5.006
 3060SOL     OW10078   0.613   6.073   0.307
 3060SOL    HW110079   0.596   6.035   0.216
 3060SOL    HW210080   0.629   6.171   0.300
 3061SOL     OW10081   6.504   0.925   4.889
 3061SOL    HW110082   6.491   0.827   4.901
 3061SOL    HW210083   6.448   0.957   4.813
 3062SOL     OW10084   1.520   0.059   0.299
 3062SOL    HW110085   1.481   0.150   0.285
 3062SOL    HW210086   1.446   7.013   0.320
 3063SOL     OW10087   2.996   5.467   1.789
 3063SOL    HW110088   2.937   5.527   1.843
 3063SOL    HW210089   3.050   5.409   1.850
 3064SOL     OW10090   6.048   3.312   3.676
 3064SOL    HW110091   6.131   3.270   3.639
 3064SOL    HW210092   6.044   3.408   3.650
 3065SOL     OW10093   1.724   0.758   6.751
 3065SOL    HW110094   1.773   0.844   6.755
 3065SOL    HW210095   1.628   0.775   6.727
 3066SOL     OW10096   5.696   4.704   0.732
 3066SOL    HW110097   5.698   4.691   0.831
 3066SOL    HW210098   5.775   4.759   0.704
 3067SOL     OW10099   3.367   1.678   4.312
 3067SOL    HW110100   3.365   1.622   4.395
 3067SOL    HW210101   3.307   1.757   4.324
 3068SOL     OW10102   5.683   6.195   0.580
 3068SOL    HW110103   5.618   6.121   0.597
 3068SOL    HW210104   5.633   6.277   0.553
 3069SOL     OW10105   6.784   6.178   1.716
 3069SOL    HW110106   6.826   6.089   1.696
 3069SOL    HW210107   6.701   6.189   1.663
 3070SOL     OW10108   1.908   1.177   2.363
 3070SOL    HW110109   1.912   1.173   2.463
 3070SOL    HW210110   1.997   1.203   2.327
 3071SOL     OW10111   6.214   6.201   3.646
 3071SOL    HW110112   6.151   6.228   3.718
 3071SOL    HW210113   6.295   6.260   3.648
 3072SOL     OW10114   0.572   6.818   0.604
 3072SOL    HW110115   0.516   6.900   0.592
 3072SOL    HW210116   0.518   6.737   0.582
 3073SOL     OW10117   0.822   3.294   5.068
 3073SOL    HW110118   0.770   3.231   5.126
 3073SOL    HW210119   0.907   3.249   5.039
 3074SOL     OW10120   5.799   2.849   0.724
 3074SOL    HW110121   5.731   2.882   0.659
 3074SOL    HW210122   5.876   2.808   0.675
 3075SOL     OW10123   1.761   6.238   1.398
 3075SOL    HW110124   1.844   6.239   1.342
 3075SOL    HW210125   1.772   6.300   1.476
 3076SOL     OW10126   6.492   0.934   4.246
 3076SOL    HW110127   6.497   0.861   4.315
 3076SOL    HW210128   6.405   0.927   4.196
 3077SOL     OW10129   5.194   5.094   2.969
 3077SOL    HW110130   5.101   5.085   3.003
 3077SOL    HW210131   5.218   5.014   2.915
 3078SOL     OW10132   2.122   3.029   1.297
 3078SOL    HW110133   2.182   3.022   1.377
 3078SOL    HW210134   2.124   3.123   1.263
 3079SOL     OW10135   2.064   2.791   4.454
 3079SOL    HW110136   1.991   2.778   4.387
 3079SOL    HW210137   2.032   2.852   4.527
 3080SOL     OW10138   5.554   4.582   3.107
 3080SOL    HW110139   5.511   4.519   3.172
 3080SOL    HW210140   5.605   4.652   3.158
 3081SOL     OW10141   0.540   4.116   6.152
 3081SOL    HW110142   0.472   4.169   6.203
 3081SOL    HW210143   0.505   4.024   6.135
 3082SOL     OW10144   3.874   6.371   3.362
 3082SOL    HW110145   3.832   6.372   3.453
 3082SOL    HW210146   3.938   6.447   3.354
 3083SOL     OW10147   4.092   6.412   3.638
 3083SOL    HW110148   4.169   6.351   3.620
 3083SOL    HW210149   4.069   6.462   3.554
 3084SOL     OW10150   4.825   4.806   4.573
 3084SOL    HW110151   4.762   4.833   4.500
 3084SOL    HW210152   4.774   4.791   4.658
 3085SOL     OW10153   0.593   4.765   2.325
 3085SOL    HW110154   0.544   4.692   2.373
 3085SOL    HW210155   0.665   4.726   2.268
 3086SOL     OW10156   4.075   1.692   1.403
 3086SOL    HW110157   4.010   1.761   1.436
 3086SOL    HW210158   4.028   1.627   1.345
 3087SOL     OW10159   0.751   5.142   4.036
 3087SOL    HW110160   0.814   5.096   3.972
 3087SOL    HW210161   0.718   5.227   3.994
 3088SOL     OW10162   2.256   5.063   5.420
 3088SOL    HW110163   2.341   5.114   5.410
 3088SOL    HW210164   2.185   5.121   5.458
 3089SOL     OW10165   0.639   2.766   0.410
 3089SOL    HW110166   0.718   2.812   0.450
 3089SOL    HW210167   0.620   2.805   0.320
 3090SOL     OW10168   1.863   2.205   1.909
 3090SOL    HW110169   1.770   2.185   1.880
 3090SOL    HW210170   1.861   2.271   1.985
 3091SOL     OW10171   2.715   6.300   0.175
 3091SOL    HW110172   2.737   6.219   0.120
 3091SOL    HW210173   2.690   6.375   0.114
 3092SOL     OW10174   5.090   0.398   6.710
 3092SOL    HW110175   5.068   0.312   6.756
 3092SOL    HW210176   5.049   0.474   6.760
 3093SOL     OW10177   5.599   4.800   5.817
 3093SOL    HW110178   5.597   4.708   5.856
 3093SOL    HW210179   5.525   4.810   5.750
 3094SOL     OW10180   3.503   6.885   4.855
 3094SOL    HW110181   3.534   6.794   4.826
 3094SOL    HW210182   3.461   6.879   4.945
 3095SOL     OW10183   2.613   5.143   4.210
 3095SOL    HW110184   2.521   5.128   4.248
 3095SOL    HW210185   2.681   5.135   4.282
 3096SOL     OW10186   0.762   0.371   4.131
 3096SOL    HW110187   0.766   0.460   4.085
 3096SOL    HW210188   0.792   0.381   4.226
 3097SOL     OW10189   0.754   2.373   1.068
 3097SOL    HW110190   0.712   2.305   1.008
 3097SOL    HW210191   0.825   2.422   1.017
 3098SOL     OW10192   2.491   3.630   1.417
 3098SOL    HW110193   2.470   3.619   1.514
 3098SOL    HW210194   2.484   3.727   1.392
 3099SOL     OW10195   6.892   6.012   5.230
 3099SOL    HW110196   6.940   5.997   5.144
 3099SOL    HW210197   6.956   6.002   5.306
 3100SOL     OW10198   6.743   0.299   4.471
 3100SOL    HW110199   6.778   0.312   4.564
 3100SOL    HW210200   6.809   0.335   4.405
 3101SOL     OW10201   4.778   6.172   5.321
 3101SOL    HW110202   4.736   6.218   5.399
 3101SOL    HW210203   4.725   6.091   5.297
 3102SOL     OW10204   0.863   5.274   2.517
 3102SOL    HW110205   0.880   5.229   2.430
 3102SOL    HW210206   0.927   5.240   2.586
 3103SOL     OW10207   3.139   1.514   1.473
 3103SOL    HW110208   3.083   1.582   1.425
 3103SOL    HW210209   3.079   1.453   1.525
 3104SOL     OW10210   6.016   0.141   4.393
 3104SOL    HW110211   6.088   0.138   4.323
 3104SOL    HW210212   6.057   0.124   4.483
 3105SOL     OW10213   6.687   5.180   2.669
 3105SOL    HW110214   6.713   5.176   2.765
 3105SOL    HW210215   6.654   5.091   2.639
 3106SOL     OW10216   6.748   1.442   2.972
 3106SOL    HW110217   6.840   1.448   2.932
 3106SOL    HW210218   6.750   1.382   3.052
 3107SOL     OW10219   3.430   0.303   4.150
 3107SOL    HW110220   3.400   0.396   4.170
 3107SOL    HW210221   3.421   0.247   4.232
 3108SOL     OW10222   1.708   0.642   4.366
 3108SOL    HW110223   1.711   0.542   4.364
 3108SOL    HW210224   1.698   0.677   4.273
 3109SOL     OW10225   5.896   5.773   2.876
 3109SOL    HW110226   5.964   5.846   2.868
 3109SOL    HW210227   5.924   5.708   2.946
 3110SOL     OW10228   1.077   1.693   3.713
 3110SOL    HW110229   1.052   1.605   3.753
 3110SOL    HW210230   1.107   1.755   3.786
 3111SOL     OW10231   6.510   5.605   3.986
 3111SOL    HW110232   6.496   5.589   4.084
 3111SOL    HW210233   6.431   5.654   3.950
 3112SOL     OW10234   5.095   2.404   6.504
 3112SOL    HW110235   5.002   2.438   6.490
 3112SOL    HW210236   5.100   2.359   6.593
 3113SOL     OW10237   1.749   6.970   4.376
 3113SOL    HW110238   1.781   6.889   4.328
 3113SOL    HW210239   1.736   6.949   4.473
 3114SOL     OW10240   4.551   3.118   0.092
 3114SOL    HW110241   4.564   3.063   0.174
 3114SOL    HW210242   4.456   3.110   0.061
 3115SOL     OW10243   5.069   3.594   0.254
 3115SOL    HW110244   5.021   3.575   0.169
 3115SOL    HW210245   5.168   3.594   0.237
 3116SOL     OW10246   0.378   3.660   0.215
 3116SOL    HW110247   0.434   3.579   0.196
 3116SOL    HW210248   0.386   3.725   0.139
 3117SOL     OW10249   4.402   3.580   5.284
 3117SOL    HW110250   4.328   3.552   5.223
 3117SOL    HW210251   4.483   3.601   5.231
 3118SOL     OW10252   7.013   4.542   6.665
 3118SOL    HW110253   0.022   4.639   6.668
 3118SOL    HW210254   7.005   4.513   6.570
 3119SOL     OW10255   2.004   3.811   5.922
 3119SOL    HW110256   1.993   3.725   5.872
 3119SOL    HW210257   2.081   3.862   5.883
 3120SOL     OW10258   2.330   6.434   4.261
 3120SOL    HW110259   2.395   6.426   4.337
 3120SOL    HW210260   2.250   6.377   4.280
 3121SOL     OW10261   0.498   1.788   2.496
 3121SOL    HW110262   0.428   1.716   2.499
 3121SOL    HW210263   0.517   1.812   2.401
 3122SOL     OW10264   2.963   5.949   6.017
 3122SOL    HW110265   2.974   5.908   6.108
 3122SOL    HW210266   2.866   5.966   6.000
 3123SOL     OW10267   3.354   6.355   3.494
 3123SOL    HW110268   3.416   6.431   3.518
 3123SOL    HW210269   3.347   6.349   3.395
 3124SOL     OW10270   3.961   0.170   4.810
 3124SOL    HW110271   3.994   0.097   4.870
 3124SOL    HW210272   3.932   0.248   4.865
 3125SOL     OW10273   6.141   2.137   6.210
 3125SOL    HW110274   6.126   2.134   6.111
 3125SOL    HW210275   6.224   2.189   6.229
 3126SOL     OW10276   5.105   4.266   6.452
 3126SOL    HW110277   5.138   4.350   6.492
 3126SOL    HW210278   5.178   4.197   6.452
 3127SOL     OW10279   0.407   2.587   3.199
 3127SOL    HW110280   0.468   2.627   3.130
 3127SOL    HW210281   0.446   2.602   3.290
 3128SOL     OW10282   2.223   6.870   6.852
 3128SOL    HW110283   2.235   6.855   6.754
 3128SOL    HW210284   2.291   6.818   6.902
 3129SOL     OW10285   0.590   4.313   6.737
 3129SOL    HW110286   0.658   4.255   6.692
 3129SOL    HW210287   0.637   4.382   6.793
 3130SOL     OW10288   2.239   4.372   2.520
 3130SOL    HW110289   2.235   4.314   2.439
 3130SOL    HW210290   2.151   4.369   2.568
 3131SOL     OW10291   0.562   3.066   1.781
 3131SOL    HW110292   0.635   3.049   1.848
 3131SOL    HW210293   0.516   2.980   1.761
 3132SOL     OW10294   4.823   5.879   5.781
 3132SOL    HW110295   4.779   5.968   5.770
 3132SOL    HW210296   4.912   5.880   5.735
 3133SOL     OW10297   2.654   2.279   3.813
 3133SOL    HW110298   2.599   2.202   3.846
 3133SOL    HW210299   2.718   2.307   3.885
 3134SOL     OW10300   5.219   4.159   2.143
 3134SOL    HW110301   5.177   4.075   2.110
 3134SOL    HW210302   5.272   4.139   2.225
 3135SOL     OW10303   4.624   2.030   4.853
 3135SOL    HW110304   4.541   1.981   4.829
 3135SOL    HW210305   4.701   1.992   4.802
 3136SOL     OW10306   6.372   6.447   5.379
 3136SOL    HW110307   6.453   6.484   5.333
 3136SOL    HW210308   6.290   6.482   5.333
 3137SOL     OW10309   5.340   0.582   3.610
 3137SOL    HW110310   5.436   0.566   3.631
 3137SOL    HW210311   5.299   0.638   3.682
 3138SOL     OW10312   6.524   1.727   4.158
 3138SOL    HW110313   6.618   1.730   4.125
 3138SOL    HW210314   6.514   1.790   4.235
 3139SOL     OW10315   5.023   0.115   6.317
 3139SOL    HW110316   5.107   0.139   6.366
 3139SOL    HW210317   4.945   0.159   6.362
 3140SOL     OW10318   6.340   6.050   6.258
 3140SOL    HW110319   6.339   6.099   6.345
 3140SOL    HW210320   6.253   6.002   6.245
 3141SOL     OW10321   0.683   6.967   6.038
 3141SOL    HW110322   0.677   6.871   6.012
 3141SOL    HW210323   0.673   6.975   6.137
 3142SOL     OW10324   5.010   6.247   0.586
 3142SOL    HW110325   5.080   6.209   0.647
 3142SOL    HW210326   5.010   6.196   0.500
 3143SOL     OW10327   6.699   2.637   6.886
 3143SOL    HW110328   6.765   2.605   6.955
 3143SOL    HW210329   6.699   2.737   6.884
 3144SOL     OW10330   2.674   3.654   0.887
 3144SOL    HW110331   2.682   3.562   0.927
 3144SOL    HW210332   2.763   3.684   0.855
 3145SOL     OW10333   2.358   5.583   2.793
 3145SOL    HW110334   2.338   5.586   2.695
 3145SOL    HW210335   2.436   5.524   2.810
 3146SOL     OW10336   1.159   6.247   3.365
 3146SOL    HW110337   1.104   6.169   3.337
 3146SOL    HW210338   1.151   6.320   3.297
 3147SOL     OW10339   4.155   5.279   6.350
 3147SOL    HW110340   4.126   5.242   6.262
 3147SOL    HW210341   4.090   5.252   6.421
 3148SOL     OW10342   4.227   5.444   4.604
 3148SOL    HW110343   4.282   5.514   4.559
 3148SOL    HW210344   4.287   5.377   4.647
 3149SOL     OW10345   2.869   0.291   5.373
 3149SOL    HW110346   2.924   0.296   5.290
 3149SOL    HW210347   2.915   0.231   5.439
 3150SOL     OW10348   5.344   5.916   4.411
 3150SOL    HW110349   5.301   5.942   4.498
 3150SOL    HW210350   5.439   5.889   4.428
 3151SOL     OW10351   4.776   1.446   6.793
 3151SOL    HW110352   4.763   1.367   6.733
 3151SOL    HW210353   4.704   1.513   6.775
 3152SOL     OW10354   1.347   5.201   1.670
 3152SOL    HW110355   1.249   5.185   1.678
 3152SOL    HW210356   1.381   5.242   1.755
 3153SOL     OW10357   6.237   4.445   1.853
 3153SOL    HW110358   6.296   4.377   1.808
 3153SOL    HW210359   6.141   4.421   1.836
 3154SOL     OW10360   6.069   1.585   0.293
 3154SOL    HW110361   6.066   1.504   0.353
 3154SOL    HW210362   6.086   1.666   0.349
 3155SOL     OW10363   0.227   5.360   1.337
 3155SOL    HW110364   0.158   5.383   1.267
 3155SOL    HW210365   0.235   5.260   1.343
 3156SOL     OW10366   3.697   3.303   3.721
 3156SOL    HW110367   3.742   3.238   3.782
 3156SOL    HW210368   3.755   3.319   3.641
 3157SOL     OW10369   2.063   3.130   4.979
 3157SOL    HW110370   2.088   3.069   4.905
 3157SOL    HW210371   2.105   3.099   5.064
 3158SOL     OW10372   4.481   0.339   1.100
 3158SOL    HW110373   4.445   0.364   1.191
 3158SOL    HW210374   4.567   0.290   1.111
 3159SOL     OW10375   5.051   6.236   6.915
 3159SOL    HW110376   4.993   6.318   6.917
 3159SOL    HW210377   5.138   6.258   6.872
 3160SOL     OW10378   6.225   5.130   6.104
 3160SOL    HW110379   6.238   5.202   6.037
 3160SOL    HW210380   6.210   5.170   6.194
 3161SOL     OW10381   1.242   1.296   2.621
 3161SOL    HW110382   1.142   1.299   2.625
 3161SOL    HW210383   1.273   1.201   2.623
 3162SOL     OW10384   0.779   5.249   6.902
 3162SOL    HW110385   0.869   5.243   6.859
 3162SOL    HW210386   0.787   5.299   6.989
 3163SOL     OW10387   3.558   2.689   6.148
 3163SOL    HW110388   3.458   2.696   6.148
 3163SOL    HW210389   3.590   2.666   6.056
 3164SOL     OW10390   5.041   4.047   1.590
 3164SOL    HW110391   5.105   4.041   1.514
 3164SOL    HW210392   5.016   3.955   1.621
 3165SOL     OW10393   1.672   6.684   1.803
 3165SOL    HW110394   1.624   6.660   1.888
 3165SOL    HW210395   1.748   6.621   1.788
 3166SOL     OW10396   4.864   2.619   6.464
 3166SOL    HW110397   4.912   2.630   6.376
 3166SOL    HW210398   4.830   2.526   6.472
 3167SOL     OW10399   6.362   4.793   2.240
 3167SOL    HW110400   6.373   4.743   2.155
 3167SOL    HW210401   6.420   4.753   2.311
 3168SOL     OW10402   5.116   2.799   0.745
 3168SOL    HW110403   5.095   2.716   0.693
 3168SOL    HW210404   5.072   2.794   0.835
 3169SOL     OW10405   0.634   3.555   6.095
 3169SOL    HW110406   0.552   3.526   6.046
 3169SOL    HW210407   0.628   3.653   6.115
 3170SOL     OW10408   3.936   0.260   0.195
 3170SOL    HW110409   3.970   0.173   0.232
 3170SOL    HW210410   3.876   0.303   0.261
 3171SOL     OW10411   6.577   6.795   1.358
 3171SOL    HW110412   6.493   6.813   1.409
 3171SOL    HW210413   6.623   6.882   1.339
 3172SOL     OW10414   6.990   6.024   4.971
 3172SOL    HW110415   0.024   6.080   4.906
 3172SOL    HW210416   6.923   5.970   4.920
 3173SOL     OW10417   2.839   0.807   1.323
 3173SOL    HW110418   2.824   0.891   1.273
 3173SOL    HW210419   2.773   0.800   1.398
 3174SOL     OW10420   2.556   3.301   6.347
 3174SOL    HW110421   2.532   3.362   6.273
 3174SOL    HW210422   2.501   3.323   6.428
 3175SOL     OW10423   0.950   6.742   6.513
 3175SOL    HW110424   0.946   6.721   6.415
 3175SOL    HW210425   0.890   6.819   6.533
 3176SOL     OW10426   1.929   4.564   5.931
 3176SOL    HW110427   1.992   4.639   5.909
 3176SOL    HW210428   1.857   4.560   5.862
 3177SOL     OW10429   5.503   5.568   5.827
 3177SOL    HW110430   5.491   5.477   5.867
 3177SOL    HW210431   5.588   5.608   5.861
 3178SOL     OW10432   6.893   3.948   1.830
 3178SOL    HW110433   6.974   3.995   1.794
 3178SOL    HW210434   6.817   4.012   1.834
 3179SOL     OW10435   1.925   2.380   2.101
 3179SOL    HW110436   1.929   2.344   2.195
 3179SOL    HW210437   1.892   2.474   2.103
 3180SOL     OW10438   4.156   0.914   6.198
 3180SOL    HW110439   4.069   0.893   6.152
 3180SOL    HW210440   4.183   1.008   6.175
 3181SOL     OW10441   0.523   0.917   3.728
 3181SOL    HW110442   0.600   0.869   3.688
 3181SOL    HW210443   0.542   0.939   3.823
 3182SOL     OW10444   0.688   0.523   5.418
 3182SOL    HW110445   0.687   0.527   5.518
 3182SOL    HW210446   0.722   0.609   5.381
 3183SOL     OW10447   3.901   4.530   1.552
 3183SOL    HW110448   3.917   4.587   1.471
 3183SOL    HW210449   3.806   4.498   1.551
 3184SOL     OW10450   2.750   1.854   2.036
 3184SOL    HW110451   2.782   1.949   2.037
 3184SOL    HW210452   2.826   1.794   2.012
 3185SOL     OW10453   6.791   0.590   5.449
 3185SOL    HW110454   6.763   0.546   5.534
 3185SOL    HW210455   6.780   0.689   5.457
 3186SOL     OW10456   3.656   0.903   3.414
 3186SOL    HW110457   3.743   0.862   3.440
 3186SOL    HW210458   3.588   0.883   3.485
 3187SOL     OW10459   3.797   3.954   6.555
 3187SOL    HW110460   3.896   3.969   6.561
 3187SOL    HW210461   3.769   3.889   6.626
 3188SOL     OW10462   3.606   5.990   2.842
 3188SOL    HW110463   3.641   6.042   2.920
 3188SOL    HW210464   3.547   5.917   2.874
 3189SOL     OW10465   2.057   1.344   2.804
 3189SOL    HW110466   2.072   1.375   2.710
 3189SOL    HW210467   1.965   1.369   2.832
 3190SOL     OW10468   1.117   6.484   1.051
 3190SOL    HW110469   1.111   6.385   1.042
 3190SOL    HW210470   1.024   6.523   1.057
 3191SOL     OW10471   3.324   0.462   1.273
 3191SOL    HW110472   3.371   0.394   1.330
 3191SOL    HW210473   3.229   0.471   1.303
 3192SOL     OW10474   0.513   1.946   0.792
 3192SOL    HW110475   0.547   1.964   0.884
 3192SOL    HW210476   0.414   1.928   0.795
 3193SOL     OW10477   4.293   2.295   5.785
 3193SOL    HW110478   4.301   2.350   5.702
 3193SOL    HW210479   4.213   2.235   5.778
 3194SOL     OW10480   1.641   2.928   6.527
 3194SOL    HW110481   1.657   2.979   6.442
 3194SOL    HW210482   1.560   2.963   6.573
 3195SOL     OW10483   1.769   2.376   3.693
 3195SOL    HW110484   1.815   2.291   3.668
 3195SOL    HW210485   1.728   2.417   3.612
 3196SOL     OW10486   6.876   0.105   4.876
 3196SOL    HW110487   6.939   0.095   4.800
 3196SOL    HW210488   6.919   0.072   4.960
 3197SOL     OW10489   1.133   5.606   2.675
 3197SOL    HW110490   1.149   5.673   2.603
 3197SOL    HW210491   1.202   5.533   2.668
 3198SOL     OW10492   6.825   2.085   6.871
 3198SOL    HW110493   6.763   2.071   6.793
 3198SOL    HW210494   6.882   2.003   6.883
 3199SOL     OW10495   4.792   2.245   1.795
 3199SOL    HW110496   4.839   2.304   1.860
 3199SOL    HW210497   4.715   2.200   1.841
 3200SOL     OW10498   0.187   2.949   0.981
 3200SOL    HW110499   0.200   3.041   1.018
 3200SOL    HW210500   0.272   2.920   0.937
 3201SOL     OW10501   5.320   3.621   3.829
 3201SOL    HW110502   5.374   3.627   3.745
 3201SOL    HW210503   5.378   3.586   3.903
 3202SOL     OW10504   1.906   4.515   2.358
 3202SOL    HW110505   1.957   4.453   2.418
 3202SOL    HW210506   1.928   4.494   2.263
 3203SOL     OW10507   6.307   0.938   1.152
 3203SOL    HW110508   6.239   1.012   1.152
 3203SOL    HW210509   6.341   0.923   1.245
 3204SOL     OW10510   6.081   5.295   1.651
 3204SOL    HW110511   6.014   5.362   1.620
 3204SOL    HW210512   6.155   5.288   1.584
 3205SOL     OW10513   6.664   4.417   6.362
 3205SOL    HW110514   6.606   4.355   6.309
 3205SOL    HW210515   6.684   4.376   6.452
 3206SOL     OW10516   0.087   6.952   5.771
 3206SOL    HW110517   0.102   6.856   5.746
 3206SOL    HW210518   7.010   6.964   5.798
 3207SOL     OW10519   0.667   1.382   5.597
 3207SOL    HW110520   0.647   1.357   5.502
 3207SOL    HW210521   0.636   1.476   5.614
 3208SOL     OW10522   4.436   5.752   5.105
 3208SOL    HW110523   4.421   5.713   5.014
 3208SOL    HW210524   4.472   5.681   5.166
 3209SOL     OW10525   3.007   6.809   3.945
 3209SOL    HW110526   3.053   6.730   3.904
 3209SOL    HW210527   2.994   6.880   3.876
 3210SOL     OW10528   0.619   3.473   2.420
 3210SOL    HW110529   0.592   3.544   2.485
 3210SOL    HW210530   0.602   3.383   2.461
 3211SOL     OW10531   2.529   4.002   0.792
 3211SOL    HW110532   2.501   4.028   0.884
 3211SOL    HW210533   2.541   4.084   0.736
 3212SOL     OW10534   4.433   2.033   6.793
 3212SOL    HW110535   4.442   2.091   6.712
 3212SOL    HW210536   4.337   2.024   6.818
 3213SOL     OW10537   6.141   5.505   2.752
 3213SOL    HW110538   6.090   5.487   2.836
 3213SOL    HW210539   6.167   5.417   2.710
 3214SOL     OW10540   4.414   6.187   6.938
 3214SOL    HW110541   4.329   6.209   6.890
 3214SOL    HW210542   4.492   6.225   6.887
 3215SOL     OW10543   6.355   3.033   0.831
 3215SOL    HW110544   6.417   3.100   0.790
 3215SOL    HW210545   6.407   2.973   0.892
 3216SOL     OW10546   5.864   5.963   3.164
 3216SOL    HW110547   5.768   5.975   3.190
 3216SOL    HW210548   5.897   6.045   3.118
 3217SOL     OW10549   1.313   4.393   3.335
 3217SOL    HW110550   1.215   4.409   3.341
 3217SOL    HW210551   1.346   4.357   3.423
 3218SOL     OW10552   4.123   6.791   3.253
 3218SOL    HW110553   4.185   6.784   3.174
 3218SOL    HW210554   4.080   6.881   3.252
 3219SOL     OW10555   6.764   0.391   3.259
 3219SOL    HW110556   6.775   0.485   3.291
 3219SOL    HW210557   6.850   0.359   3.219
 3220SOL     OW10558   0.145   4.728   4.848
 3220SOL    HW110559   0.130   4.637   4.886
 3220SOL    HW210560   0.216   4.724   4.777
 3221SOL     OW10561   2.471   6.468   2.581
 3221SOL    HW110562   2.544   6.433   2.640
 3221SOL    HW210563   2.459   6.406   2.504
 3222SOL     OW10564   5.047   1.955   3.022
 3222SOL    HW110565   5.085   2.004   2.944
 3222SOL    HW210566   5.117   1.897   3.062
 3223SOL     OW10567   2.770   5.165   6.531
 3223SOL    HW110568   2.828   5.243   6.555
 3223SOL    HW210569   2.801   5.084   6.582
 3224SOL     OW10570   4.456   5.414   6.667
 3224SOL    HW110571   4.439   5.476   6.743
 3224SOL    HW210572   4.541   5.364   6.682
 3225SOL     OW10573   4.532   3.212   6.370
 3225SOL    HW110574   4.537   3.178   6.463
 3225SOL    HW210575   4.479   3.297   6.368
 3226SOL     OW10576   2.265   0.849   4.051
 3226SOL    HW110577   2.320   0.931   4.067
 3226SOL    HW210578   2.220   0.823   4.137
 3227SOL     OW10579   3.640   1.800   6.490
 3227SOL    HW110580   3.623   1.809   6.588
 3227SOL    HW210581   3.573   1.855   6.439
 3228SOL     OW10582   6.389   3.389   4.126
 3228SOL    HW110583   6.454   3.465   4.122
 3228SOL    HW210584   6.381   3.347   4.035
 3229SOL     OW10585   3.532   2.294   5.854
 3229SOL    HW110586   3.498   2.377   5.809
 3229SOL    HW210587   3.624   2.312   5.890
 3230SOL     OW10588   0.569   1.359   3.154
 3230SOL    HW110589   0.552   1.334   3.249
 3230SOL    HW210590   0.576   1.459   3.147
 3231SOL     OW10591   4.786   5.713   1.227
 3231SOL    HW110592   4.750   5.622   1.210
 3231SOL    HW210593   4.886   5.711   1.224
 3232SOL     OW10594   4.155   4.919   4.827
 3232SOL    HW110595   4.210   4.849   4.871
 3232SOL    HW210596   4.202   5.007   4.830
 3233SOL     OW10597   1.026   4.057   1.729
 3233SOL    HW110598   1.106   4.040   1.786
 3233SOL    HW210599   0.943   4.035   1.781
 3234SOL     OW10600   6.921   2.074   0.497
 3234SOL    HW110601   6.905   2.034   0.407
 3234SOL    HW210602   7.017   2.101   0.506
 3235SOL     OW10603   5.564   6.508   2.953
 3235SOL    HW110604   5.470   6.478   2.935
 3235SOL    HW210605   5.602   6.550   2.870
 3236SOL     OW10606   1.617   2.879   2.113
 3236SOL    HW110607   1.591   2.783   2.104
 3236SOL    HW210608   1.696   2.898   2.054
 3237SOL     OW10609   4.788   6.606   4.610
 3237SOL    HW110610   4.724   6.683   4.615
 3237SOL    HW210611   4.764   6.549   4.532
 3238SOL     OW10612   0.495   5.928   6.765
 3238SOL    HW110613   0.512   5.844   6.713
 3238SOL    HW210614   0.582   5.964   6.799
 3239SOL     OW10615   6.274   0.590   6.782
 3239SOL    HW110616   6.241   0.499   6.808
 3239SOL    HW210617   6.302   0.589   6.686
 3240SOL     OW10618   0.583   6.719   4.542
 3240SOL    HW110619   0.486   6.735   4.560
 3240SOL    HW210620   0.638   6.778   4.600
 3241SOL     OW10621   4.934   1.353   4.018
 3241SOL    HW110622   4.938   1.419   4.093
 3241SOL    HW210623   5.023   1.308   4.008
 3242SOL     OW10624   3.398   5.584   6.616
 3242SOL    HW110625   3.393   5.578   6.517
 3242SOL    HW210626   3.397   5.681   6.644
 3243SOL     OW10627   4.734   5.188   0.133
 3243SOL    HW110628   4.653   5.134   0.113
 3243SOL    HW210629   4.762   5.175   0.228
 3244SOL     OW10630   4.589   6.119   6.049
 3244SOL    HW110631   4.553   6.048   6.109
 3244SOL    HW210632   4.556   6.209   6.081
 3245SOL     OW10633   4.229   3.080   6.386
 3245SOL    HW110634   4.273   3.036   6.307
 3245SOL    HW210635   4.229   3.018   6.464
 3246SOL     OW10636   5.742   6.863   2.515
 3246SOL    HW110637   5.746   6.963   2.516
 3246SOL    HW210638   5.816   6.827   2.458
 3247SOL     OW10639   0.167   3.407   3.963
 3247SOL    HW110640   0.229   3.482   3.941
 3247SOL    HW210641   0.083   3.416   3.910
 3248SOL     OW10642   6.240   3.510   2.150
 3248SOL    HW110643   6.185   3.438   2.106
 3248SOL    HW210644   6.321   3.529   2.095
 3249SOL     OW10645   3.639   4.885   5.276
 3249SOL    HW110646   3.709   4.877   5.347
 3249SOL    HW210647   3.665   4.958   5.212
 3250SOL     OW10648   4.921   6.811   2.496
 3250SOL    HW110649   4.823   6.801   2.515
 3250SOL    HW210650   4.974   6.781   2.576
 3251SOL     OW10651   3.808   1.360   2.891
 3251SOL    HW110652   3.754   1.278   2.909
 3251SOL    HW210653   3.873   1.372   2.966
 3252SOL     OW10654   3.239   1.158   2.907
 3252SOL    HW110655   3.319   1.209   2.876
 3252SOL    HW210656   3.156   1.211   2.887
 3253SOL     OW10657   4.467   2.873   1.315
 3253SOL    HW110658   4.391   2.886   1.379
 3253SOL    HW210659   4.511   2.961   1.297
 3254SOL     OW10660   3.789   4.855   3.853
 3254SOL    HW110661   3.782   4.885   3.758
 3254SOL    HW210662   3.770   4.757   3.857
 3255SOL     OW10663   4.521   5.698   0.376
 3255SOL    HW110664   4.607   5.731   0.414
 3255SOL    HW210665   4.534   5.608   0.336
 3256SOL     OW10666   5.571   6.631   5.731
 3256SOL    HW110667   5.646   6.643   5.796
 3256SOL    HW210668   5.604   6.654   5.639
 3257SOL     OW10669   1.438   1.866   1.002
 3257SOL    HW110670   1.438   1.806   1.081
 3257SOL    HW210671   1.527   1.910   0.993
 3258SOL     OW10672   4.922   6.774   1.511
 3258SOL    HW110673   4.928   6.847   1.578
 3258SOL    HW210674   4.973   6.799   1.429
 3259SOL     OW10675   4.416   6.327   4.389
 3259SOL    HW110676   4.347   6.386   4.346
 3259SOL    HW210677   4.463   6.378   4.461
 3260SOL     OW10678   1.540   1.299   0.324
 3260SOL    HW110679   1.471   1.352   0.274
 3260SOL    HW210680   1.495   1.239   0.389
 3261SOL     OW10681   4.054   6.873   0.946
 3261SOL    HW110682   4.038   6.897   1.042
 3261SOL    HW210683   4.086   6.953   0.896
 3262SOL     OW10684   3.499   1.449   3.488
 3262SOL    HW110685   3.579   1.509   3.487
 3262SOL    HW210686   3.528   1.355   3.471
 3263SOL     OW10687   4.216   6.909   2.819
 3263SOL    HW110688   4.220   6.891   2.721
 3263SOL    HW210689   4.186   7.004   2.833
 3264SOL     OW10690   0.262   5.571   0.067
 3264SOL    HW110691   0.324   5.582   7.008
 3264SOL    HW210692   0.286   5.636   0.139
 3265SOL     OW10693   4.104   1.898   6.436
 3265SOL    HW110694   4.010   1.910   6.405
 3265SOL    HW210695   4.166   1.927   6.363
 3266SOL     OW10696   6.719   2.918   6.858
 3266SOL    HW110697   6.781   2.993   6.882
 3266SOL    HW210698   6.641   2.919   6.921
 3267SOL     OW10699   3.475   2.060   1.154
 3267SOL    HW110700   3.525   1.976   1.175
 3267SOL    HW210701   3.381   2.052   1.188
 3268SOL     OW10702   1.667   3.988   0.527
 3268SOL    HW110703   1.727   3.993   0.447
 3268SOL    HW210704   1.573   3.971   0.498
 3269SOL     OW10705   4.725   4.593   1.429
 3269SOL    HW110706   4.673   4.628   1.351
 3269SOL    HW210707   4.676   4.516   1.470
 3270SOL     OW10708   0.491   5.286   3.647
 3270SOL    HW110709   0.511   5.190   3.625
 3270SOL    HW210710   0.406   5.313   3.602
 3271SOL     OW10711   6.099   2.629   2.091
 3271SOL    HW110712   6.086   2.609   2.189
 3271SOL    HW210713   6.124   2.544   2.044
 3272SOL     OW10714   3.846   0.383   0.443
 3272SOL    HW110715   3.776   0.451   0.466
 3272SOL    HW210716   3.821   0.295   0.483
 3273SOL     OW10717   1.040   6.107   2.040
 3273SOL    HW110718   1.046   6.143   1.947
 3273SOL    HW210719   1.070   6.012   2.041
 3274SOL     OW10720   2.921   1.945   5.632
 3274SOL    HW110721   2.932   2.044   5.622
 3274SOL    HW210722   2.914   1.903   5.541
 3275SOL     OW10723   1.925   0.352   6.788
 3275SOL    HW110724   1.960   0.277   6.843
 3275SOL    HW210725   1.870   0.413   6.846
 3276SOL     OW10726   3.049   5.205   6.837
 3276SOL    HW110727   3.140   5.232   6.868
 3276SOL    HW210728   3.057   5.144   6.757
 3277SOL     OW10729   0.011   6.514   6.293
 3277SOL    HW110730   6.968   6.574   6.345
 3277SOL    HW210731   0.013   6.543   6.197
 3278SOL     OW10732   0.934   1.296   5.464
 3278SOL    HW110733   0.891   1.296   5.555
 3278SOL    HW210734   0.863   1.292   5.394
 3279SOL     OW10735   0.114   0.024   1.097
 3279SOL    HW110736   0.116   0.055   1.002
 3279SOL    HW210737   0.205   0.035   1.137
 3280SOL     OW10738   2.699   4.962   6.243
 3280SOL    HW110739   2.612   4.986   6.200
 3280SOL    HW210740   2.697   4.988   6.339
 3281SOL     OW10741   2.270   5.023   0.282
 3281SOL    HW110742   2.360   4.990   0.255
 3281SOL    HW210743   2.208   5.018   0.203
 3282SOL     OW10744   2.657   5.759   4.181
 3282SOL    HW110745   2.710   5.691   4.129
 3282SOL    HW210746   2.682   5.755   4.277
 3283SOL     OW10747   3.239   0.750   3.556
 3283SOL    HW110748   3.297   0.831   3.559
 3283SOL    HW210749   3.292   0.669   3.582
 3284SOL     OW10750   0.665   6.221   6.531
 3284SOL    HW110751   0.640   6.281   6.607
 3284SOL    HW210752   0.753   6.178   6.550
 3285SOL     OW10753   0.121   2.706   2.831
 3285SOL    HW110754   0.147   2.614   2.803
 3285SOL    HW210755   0.041   2.701   2.891
 3286SOL     OW10756   3.713   3.842   4.302
 3286SOL    HW110757   3.808   3.813   4.295
 3286SOL    HW210758   3.705   3.914   4.371
 3287SOL     OW10759   2.060   5.283   0.061
 3287SOL    HW110760   2.126   5.310   0.131
 3287SOL    HW210761   2.093   5.311   6.990
 3288SOL     OW10762   0.903   6.096   6.549
 3288SOL    HW110763   0.942   6.134   6.632
 3288SOL    HW210764   0.920   5.997   6.546
 3289SOL     OW10765   0.955   5.735   5.563
 3289SOL    HW110766   0.911   5.649   5.536
 3289SOL    HW210767   0.886   5.806   5.575
 3290SOL     OW10768   0.479   5.733   1.178
 3290SOL    HW110769   0.520   5.824   1.178
 3290SOL    HW210770   0.414   5.725   1.254
 3291SOL     OW10771   1.753   6.200   6.468
 3291SOL    HW110772   1.751   6.122   6.531
 3291SOL    HW210773   1.847   6.232   6.456
 3292SOL     OW10774   7.012   0.172   6.351
 3292SOL    HW110775   6.953   0.234   6.300
 3292SOL    HW210776   0.071   0.223   6.388
 3293SOL     OW10777   0.077   1.302   3.064
 3293SOL    HW110778   0.159   1.355   3.086
 3293SOL    HW210779   0.077   1.218   3.118
 3294SOL     OW10780   6.555   0.178   6.286
 3294SOL    HW110781   6.608   0.113   6.340
 3294SOL    HW210782   6.489   0.129   6.230
 3295SOL     OW10783   2.817   2.314   0.776
 3295SOL    HW110784   2.748   2.281   0.712
 3295SOL    HW210785   2.823   2.251   0.853
 3296SOL     OW10786   2.044   0.740   2.443
 3296SOL    HW110787   2.126   0.787   2.411
 3296SOL    HW210788   1.967   0.764   2.384
 3297SOL     OW10789   3.161   2.253   5.436
 3297SOL    HW110790   3.129   2.275   5.344
 3297SOL    HW210791   3.260   2.241   5.435
 3298SOL     OW10792   6.766   3.443   3.147
 3298SOL    HW110793   6.669   3.456   3.168
 3298SOL    HW210794   6.792   3.504   3.072
 3299SOL     OW10795   1.406   0.036   4.866
 3299SOL    HW110796   1.456   0.114   4.903
 3299SOL    HW210797   1.470   6.989   4.826
 3300SOL     OW10798   6.142   6.851   5.253
 3300SOL    HW110799   6.210   6.838   5.181
 3300SOL    HW210800   6.103   6.943   5.245
 3301SOL     OW10801   0.683   3.774   3.551
 3301SOL    HW110802   0.680   3.873   3.536
 3301SOL    HW210803   0.686   3.755   3.649
 3302SOL     OW10804   1.541   5.078   4.049
 3302SOL    HW110805   1.612   5.128   4.100
 3302SOL    HW210806   1.483   5.143   4.000
 3303SOL     OW10807   3.603   2.871   2.983
 3303SOL    HW110808   3.536   2.800   3.001
 3303SOL    HW210809   3.586   2.949   3.044
 3304SOL     OW10810   1.166   5.992   3.726
 3304SOL    HW110811   1.213   5.931   3.662
 3304SOL    HW210812   1.216   5.994   3.813
 3305SOL     OW10813   1.679   1.379   1.989
 3305SOL    HW110814   1.680   1.359   1.891
 3305SOL    HW210815   1.744   1.319   2.036
 3306SOL     OW10816   2.229   4.063   3.311
 3306SOL    HW110817   2.265   4.144   3.264
 3306SOL    HW210818   2.256   4.067   3.408
 3307SOL     OW10819   7.000   5.967   0.479
 3307SOL    HW110820   0.023   5.949   0.390
 3307SOL    HW210821   6.932   6.039   0.471
 3308SOL     OW10822   4.291   6.134   0.403
 3308SOL    HW110823   4.280   6.233   0.395
 3308SOL    HW210824   4.365   6.114   0.468
 3309SOL     OW10825   1.274   5.324   3.537
 3309SOL    HW110826   1.355   5.324   3.596
 3309SOL    HW210827   1.263   5.414   3.495
 3310SOL     OW10828   0.448   4.500   2.769
 3310SOL    HW110829   0.468   4.407   2.738
 3310SOL    HW210830   0.454   4.504   2.869
 3311SOL     OW10831   3.732   6.688   1.491
 3311SOL    HW110832   3.765   6.781   1.503
 3311SOL    HW210833   3.644   6.690   1.443
 3312SOL     OW10834   3.148   4.086   5.871
 3312SOL    HW110835   3.059   4.051   5.843
 3312SOL    HW210836   3.179   4.154   5.805
 3313SOL     OW10837   1.238   5.641   3.687
 3313SOL    HW110838   1.155   5.587   3.701
 3313SOL    HW210839   1.226   5.701   3.608
 3314SOL     OW10840   1.493   3.128   5.311
 3314SOL    HW110841   1.416   3.119   5.374
 3314SOL    HW210842   1.577   3.140   5.364
 3315SOL     OW10843   6.837   2.192   3.818
 3315SOL    HW110844   6.830   2.094   3.833
 3315SOL    HW210845   6.747   2.229   3.796
 3316SOL     OW10846   4.562   2.053   6.113
 3316SOL    HW110847   4.482   1.992   6.109
 3316SOL    HW210848   4.636   2.007   6.162
 3317SOL     OW10849   4.575   2.746   1.822
 3317SOL    HW110850   4.581   2.841   1.853
 3317SOL    HW210851   4.598   2.740   1.725
 3318SOL     OW10852   2.677   5.941   6.006
 3318SOL    HW110853   2.656   5.932   5.909
 3318SOL    HW210854   2.661   5.853   6.052
 3319SOL     OW10855   0.535   6.886   4.060
 3319SOL    HW110856   0.618   6.841   4.026
 3319SOL    HW210857   0.470   6.896   3.985
 3320SOL     OW10858   5.628   1.339   5.539
 3320SOL    HW110859   5.667   1.255   5.578
 3320SOL    HW210860   5.591   1.395   5.613
 3321SOL     OW10861   3.574   2.867   2.725
 3321SOL    HW110862   3.658   2.880   2.672
 3321SOL    HW210863   3.596   2.857   2.822
 3322SOL     OW10864   3.886   1.999   0.663
 3322SOL    HW110865   3.895   1.958   0.754
 3322SOL    HW210866   3.973   2.041   0.637
 3323SOL     OW10867   1.914   4.225   6.642
 3323SOL    HW110868   1.992   4.258   6.589
 3323SOL    HW210869   1.906   4.279   6.726
 3324SOL     OW10870   1.099   3.650   0.508
 3324SOL    HW110871   1.091   3.716   0.433
 3324SOL    HW210872   1.034   3.674   0.581
 3325SOL     OW10873   1.301   2.567   0.418
 3325SOL    HW110874   1.312   2.535   0.512
 3325SOL    HW210875   1.273   2.490   0.360
 3326SOL     OW10876   6.341   2.025   1.329
 3326SOL    HW110877   6.303   1.967   1.256
 3326SOL    HW210878   6.424   2.069   1.297
 3327SOL     OW10879   2.534   6.806   2.074
 3327SOL    HW110880   2.442   6.830   2.044
 3327SOL    HW210881   2.597   6.812   1.996
 3328SOL     OW10882   4.873   0.888   2.144
 3328SOL    HW110883   4.835   0.800   2.171
 3328SOL    HW210884   4.922   0.929   2.221
 3329SOL     OW10885   4.035   0.830   5.440
 3329SOL    HW110886   4.048   0.743   5.489
 3329SOL    HW210887   3.999   0.811   5.349
 3330SOL     OW10888   5.935   6.827   2.297
 3330SOL    HW110889   5.879   6.858   2.219
 3330SOL    HW210890   5.989   6.748   2.269
 3331SOL     OW10891   2.141   3.631   2.962
 3331SOL    HW110892   2.153   3.730   2.960
 3331SOL    HW210893   2.183   3.591   2.881
 3332SOL     OW10894   4.461   5.088   0.126
 3332SOL    HW110895   4.435   5.184   0.135
 3332SOL    HW210896   4.427   5.051   0.040
 3333SOL     OW10897   3.157   3.409   1.479
 3333SOL    HW110898   3.149   3.357   1.564
 3333SOL    HW210899   3.149   3.347   1.401
 3334SOL     OW10900   1.999   2.428   2.379
 3334SOL    HW110901   1.964   2.512   2.421
 3334SOL    HW210902   2.080   2.397   2.429
 3335SOL     OW10903   3.453   4.468   5.415
 3335SOL    HW110904   3.485   4.543   5.473
 3335SOL    HW210905   3.525   4.442   5.351
 3336SOL     OW10906   3.494   6.989   3.828
 3336SOL    HW110907   3.583   0.011   3.849
 3336SOL    HW210908   3.482   6.905   3.880
 3337SOL     OW10909   3.482   3.559   2.724
 3337SOL    HW110910   3.517   3.466   2.723
 3337SOL    HW210911   3.405   3.566   2.661
 3338SOL     OW10912   1.331   1.583   1.320
 3338SOL    HW110913   1.378   1.670   1.330
 3338SOL    HW210914   1.345   1.548   1.227
 3339SOL     OW10915   2.116   0.455   5.222
 3339SOL    HW110916   2.051   0.379   5.219
 3339SOL    HW210917   2.192   0.431   5.283
 3340SOL     OW10918   4.396   1.200   3.830
 3340SOL    HW110919   4.437   1.290   3.848
 3340SOL    HW210920   4.435   1.133   3.893
 3341SOL     OW10921   2.634   4.587   2.416
 3341SOL    HW110922   2.663   4.645   2.339
 3341SOL    HW210923   2.713   4.537   2.450
 3342SOL     OW10924   6.118   0.394   2.940
 3342SOL    HW110925   6.162   0.480   2.917
 3342SOL    HW210926   6.056   0.367   2.866
 3343SOL     OW10927   4.690   5.264   6.779
 3343SOL    HW110928   4.753   5.190   6.805
 3343SOL    HW210929   4.735   5.325   6.715
 3344SOL     OW10930   0.280   2.630   1.407
 3344SOL    HW110931   0.357   2.634   1.471
 3344SOL    HW210932   0.275   2.715   1.356
 3345SOL     OW10933   0.847   4.634   0.886
 3345SOL    HW110934   0.902   4.716   0.878
 3345SOL    HW210935   0.900   4.562   0.931
 3346SOL     OW10936   2.749   0.724   6.523
 3346SOL    HW110937   2.677   0.676   6.574
 3346SOL    HW210938   2.756   0.685   6.431
 3347SOL     OW10939   0.720   3.252   6.562
 3347SOL    HW110940   0.737   3.319   6.490
 3347SOL    HW210941   0.787   3.263   6.635
 3348SOL     OW10942   3.997   3.628   6.357
 3348SOL    HW110943   4.009   3.645   6.455
 3348SOL    HW210944   4.026   3.535   6.335
 3349SOL     OW10945   2.634   4.642   3.697
 3349SOL    HW110946   2.591   4.727   3.727
 3349SOL    HW210947   2.719   4.663   3.649
 3350SOL     OW10948   0.209   4.249   5.415
 3350SOL    HW110949   0.226   4.163   5.367
 3350SOL    HW210950   0.158   4.311   5.356
 3351SOL     OW10951   5.147   0.471   0.590
 3351SOL    HW110952   5.140   0.476   0.689
 3351SOL    HW210953   5.223   0.412   0.564
 3352SOL     OW10954   5.453   2.329   7.009
 3352SOL    HW110955   5.506   2.306   6.927
 3352SOL    HW210956   5.508   2.386   0.051
 3353SOL     OW10957   2.378   0.762   1.591
 3353SOL    HW110958   2.387   0.856   1.622
 3353SOL    HW210959   2.281   0.742   1.575
 3354SOL     OW10960   3.991   3.112   5.836
 3354SOL    HW110961   3.912   3.062   5.873
 3354SOL    HW210962   3.959   3.174   5.764
 3355SOL     OW10963   2.111   1.198   5.159
 3355SOL    HW110964   2.186   1.163   5.215
 3355SOL    HW210965   2.137   1.195   5.062
 3356SOL     OW10966   1.334   6.768   6.024
 3356SOL    HW110967   1.338   6.802   5.930
 3356SOL    HW210968   1.342   6.668   6.024
 3357SOL     OW10969   2.961   3.605   2.256
 3357SOL    HW110970   3.021   3.554   2.194
 3357SOL    HW210971   2.945   3.697   2.220
 3358SOL     OW10972   6.039   1.219   2.803
 3358SOL    HW110973   6.118   1.230   2.742
 3358SOL    HW210974   6.055   1.270   2.888
 3359SOL     OW10975   0.094   5.681   4.102
 3359SOL    HW110976   0.152   5.762   4.094
 3359SOL    HW210977   0.001   5.703   4.072
 3360SOL     OW10978   0.125   2.798   5.607
 3360SOL    HW110979   0.058   2.743   5.556
 3360SOL    HW210980   0.078   2.871   5.656
 3361SOL     OW10981   0.109   0.528   4.229
 3361SOL    HW110982   0.104   0.534   4.130
 3361SOL    HW210983   0.195   0.568   4.261
 3362SOL     OW10984   3.833   2.118   3.908
 3362SOL    HW110985   3.733   2.118   3.913
 3362SOL    HW210986   3.871   2.121   4.000
 3363SOL     OW10987   6.110   2.989   0.992
 3363SOL    HW110988   6.181   3.022   0.930
 3363SOL    HW210989   6.142   2.997   1.086
 3364SOL     OW10990   2.285   4.521   3.015
 3364SOL    HW110991   2.337   4.598   3.051
 3364SOL    HW210992   2.345   4.465   2.957
 3365SOL     OW10993   2.123   3.405   4.879
 3365SOL    HW110994   2.117   3.317   4.928
 3365SOL    HW210995   2.150   3.477   4.943
 3366SOL     OW10996   0.021   3.559   4.465
 3366SOL    HW110997   6.983   3.481   4.491
 3366SOL    HW210998   0.054   3.546   4.372
 3367SOL     OW10999   3.302   3.545   4.403
 3367SOL    HW111000   3.273   3.640   4.389
 3367SOL    HW211001   3.354   3.515   4.323
 3368SOL     OW11002   1.813   5.945   6.717
 3368SOL    HW111003   1.807   5.845   6.716
 3368SOL    HW211004   1.905   5.973   6.741
 3369SOL     OW11005   4.322   1.765   1.277
 3369SOL    HW111006   4.223   1.752   1.275
 3369SOL    HW211007   4.366   1.681   1.308
 3370SOL     OW11008   0.284   5.307   1.673
 3370SOL    HW111009   0.344   5.387   1.669
 3370SOL    HW211010   0.335   5.225   1.648
 3371SOL     OW11011   2.153   3.132   3.140
 3371SOL    HW111012   2.171   3.036   3.160
 3371SOL    HW211013   2.120   3.177   3.222
 3372SOL     OW11014   6.770   2.763   0.876
 3372SOL    HW111015   6.790   2.670   0.907
 3372SOL    HW211016   6.854   2.807   0.846
 3373SOL     OW11017   0.031   1.693   1.811
 3373SOL    HW111018   0.077   1.750   1.742
 3373SOL    HW211019   0.057   1.598   1.798
 3374SOL     OW11020   0.967   6.904   3.392
 3374SOL    HW111021   1.009   6.987   3.428
 3374SOL    HW211022   0.962   6.910   3.292
 3375SOL     OW11023   6.883   5.135   6.739
 3375SOL    HW111024   6.906   5.218   6.689
 3375SOL    HW211025   6.874   5.156   6.836
 3376SOL     OW11026   2.311   3.497   5.417
 3376SOL    HW111027   2.338   3.455   5.504
 3376SOL    HW211028   2.372   3.573   5.396
 3377SOL     OW11029   6.565   4.890   3.760
 3377SOL    HW111030   6.495   4.819   3.761
 3377SOL    HW211031   6.543   4.958   3.689
 3378SOL     OW11032   1.518   6.915   6.883
 3378SOL    HW111033   1.421   6.894   6.872
 3378SOL    HW211034   1.570   6.829   6.889
 3379SOL     OW11035   0.827   3.601   4.644
 3379SOL    HW111036   0.844   3.504   4.664
 3379SOL    HW211037   0.802   3.612   4.549
 3380SOL     OW11038   3.909   4.197   5.685
 3380SOL    HW111039   3.883   4.257   5.609
 3380SOL    HW211040   3.925   4.252   5.767
 3381SOL     OW11041   1.109   2.715   1.318
 3381SOL    HW111042   1.156   2.633   1.286
 3381SOL    HW211043   1.018   2.720   1.277
 3382SOL     OW11044   6.808   2.545   1.014
 3382SOL    HW111045   6.856   2.458   1.023
 3382SOL    HW211046   6.782   2.578   1.105
 3383SOL     OW11047   3.723   4.557   6.850
 3383SOL    HW111048   3.783   4.605   6.785
 3383SOL    HW211049   3.698   4.468   6.812
 3384SOL     OW11050   3.131   4.206   0.433
 3384SOL    HW111051   3.079   4.122   0.420
 3384SOL    HW211052   3.070   4.285   0.427
 3385SOL     OW11053   0.395   2.478   3.697
 3385SOL    HW111054   0.305   2.462   3.656
 3385SOL    HW211055   0.466   2.447   3.634
 3386SOL     OW11056   6.755   4.827   6.550
 3386SOL    HW111057   6.734   4.831   6.453
 3386SOL    HW211058   6.746   4.733   6.583
 3387SOL     OW11059   5.921   0.546   3.083
 3387SOL    HW111060   5.952   0.506   2.997
 3387SOL    HW211061   6.001   0.566   3.140
 3388SOL     OW11062   5.146   3.526   1.731
 3388SOL    HW111063   5.190   3.613   1.754
 3388SOL    HW211064   5.059   3.544   1.685
 3389SOL     OW11065   6.024   6.430   0.529
 3389SOL    HW111066   6.031   6.434   0.429
 3389SOL    HW211067   6.097   6.372   0.565
 3390SOL     OW11068   3.565   6.632   5.977
 3390SOL    HW111069   3.503   6.555   5.963
 3390SOL    HW211070   3.541   6.706   5.914
 3391SOL     OW11071   5.817   3.316   3.422
 3391SOL    HW111072   5.740   3.290   3.482
 3391SOL    HW211073   5.867   3.392   3.464
 3392SOL     OW11074   4.207   0.244   5.114
 3392SOL    HW111075   4.266   0.190   5.054
 3392SOL    HW211076   4.158   0.312   5.059
 3393SOL     OW11077   5.125   6.980   0.822
 3393SOL    HW111078   5.199   6.942   0.877
 3393SOL    HW211079   5.117   6.930   0.736
 3394SOL     OW11080   3.410   5.615   0.905
 3394SOL    HW111081   3.361   5.639   0.988
 3394SOL    HW211082   3.460   5.530   0.919
 3395SOL     OW11083   4.146   0.378   3.260
 3395SOL    HW111084   4.140   0.460   3.317
 3395SOL    HW211085   4.068   0.318   3.280
 3396SOL     OW11086   5.013   2.350   3.866
 3396SOL    HW111087   4.993   2.354   3.769
 3396SOL    HW211088   4.940   2.302   3.914
 3397SOL     OW11089   2.500   5.843   6.291
 3397SOL    HW111090   2.459   5.877   6.376
 3397SOL    HW211091   2.599   5.859   6.293
 3398SOL     OW11092   0.260   2.039   5.685
 3398SOL    HW111093   0.250   2.132   5.649
 3398SOL    HW211094   0.316   2.042   5.768
 3399SOL     OW11095   0.564   4.527   3.392
 3399SOL    HW111096   0.536   4.446   3.340
 3399SOL    HW211097   0.507   4.605   3.365
 3400SOL     OW11098   5.460   2.524   5.399
 3400SOL    HW111099   5.434   2.562   5.488
 3400SOL    HW211100   5.473   2.599   5.333
 3401SOL     OW11101   6.752   3.904   6.180
 3401SOL    HW111102   6.750   3.816   6.226
 3401SOL    HW211103   6.692   3.902   6.100
 3402SOL     OW11104   6.879   4.939   1.226
 3402SOL    HW111105   6.918   5.029   1.245
 3402SOL    HW211106   6.789   4.932   1.268
 3403SOL     OW11107   4.655   6.401   6.350
 3403SOL    HW111108   4.675   6.491   6.310
 3403SOL    HW211109   4.601   6.413   6.433
 3404SOL     OW11110   4.988   3.312   5.851
 3404SOL    HW111111   4.916   3.280   5.912
 3404SOL    HW211112   5.055   3.240   5.837
 3405SOL     OW11113   4.860   6.503   6.071
 3405SOL    HW111114   4.946   6.474   6.113
 3405SOL    HW211115   4.833   6.437   6.002
 3406SOL     OW11116   2.106   3.944   2.212
 3406SOL    HW111117   2.090   4.042   2.225
 3406SOL    HW211118   2.100   3.922   2.114
 3407SOL     OW11119   2.349   3.914   1.016
 3407SOL    HW111120   2.311   3.841   1.071
 3407SOL    HW211121   2.290   3.995   1.021
 3408SOL     OW11122   4.711   2.296   3.647
 3408SOL    HW111123   4.640   2.245   3.598
 3408SOL    HW211124   4.775   2.232   3.689
 3409SOL     OW11125   4.206   0.693   0.675
 3409SOL    HW111126   4.198   0.792   0.662
 3409SOL    HW211127   4.299   0.665   0.657
 3410SOL     OW11128   5.405   6.664   2.281
 3410SOL    HW111129   5.459   6.645   2.362
 3410SOL    HW211130   5.358   6.752   2.292
 3411SOL     OW11131   6.589   1.588   1.111
 3411SOL    HW111132   6.688   1.577   1.112
 3411SOL    HW211133   6.560   1.634   1.196
 3412SOL     OW11134   5.282   3.281   1.557
 3412SOL    HW111135   5.345   3.242   1.489
 3412SOL    HW211136   5.333   3.306   1.639
 3413SOL     OW11137   6.957   2.236   6.658
 3413SOL    HW111138   6.900   2.187   6.724
 3413SOL    HW211139   6.906   2.315   6.622
 3414SOL     OW11140   3.776   2.869   0.418
 3414SOL    HW111141   3.873   2.845   0.408
 3414SOL    HW211142   3.732   2.802   0.478
 3415SOL     OW11143   2.481   2.588   4.330
 3415SOL    HW111144   2.475   2.670   4.387
 3415SOL    HW211145   2.530   2.517   4.379
 3416SOL     OW11146   6.446   6.821   6.997
 3416SOL    HW111147   6.468   6.874   0.061
 3416SOL    HW211148   6.384   6.747   0.003
 3417SOL     OW11149   6.857   0.022   3.205
 3417SOL    HW111150   6.946   0.003   3.164
 3417SOL    HW211151   6.800   0.070   3.139
 3418SOL     OW11152   4.750   5.053   2.362
 3418SOL    HW111153   4.735   5.000   2.446
 3418SOL    HW211154   4.688   5.132   2.361
 3419SOL     OW11155   2.953   5.382   6.204
 3419SOL    HW111156   2.874   5.345   6.156
 3419SOL    HW211157   3.015   5.425   6.139
 3420SOL     OW11158   4.849   2.720   3.846
 3420SOL    HW111159   4.807   2.736   3.935
 3420SOL    HW211160   4.931   2.776   3.836
 3421SOL     OW11161   5.718   1.947   3.102
 3421SOL    HW111162   5.695   1.893   3.021
 3421SOL    HW211163   5.818   1.948   3.113
 3422SOL     OW11164   2.101   0.084   0.993
 3422SOL    HW111165   2.181   0.109   1.048
 3422SOL    HW211166   2.017   0.103   1.045
 3423SOL     OW11167   0.941   4.420   5.532
 3423SOL    HW111168   0.925   4.487   5.459
 3423SOL    HW211169   0.879   4.342   5.520
 3424SOL     OW11170   4.681   6.714   1.387
 3424SOL    HW111171   4.686   6.764   1.300
 3424SOL    HW211172   4.759   6.739   1.444
 3425SOL     OW11173   5.467   4.157   1.610
 3425SOL    HW111174   5.465   4.075   1.553
 3425SOL    HW211175   5.407   4.227   1.571
 3426SOL     OW11176   5.810   3.891   0.462
 3426SOL    HW111177   5.794   3.805   0.512
 3426SOL    HW211178   5.821   3.966   0.527
 3427SOL     OW11179   1.075   2.270   1.137
 3427SOL    HW111180   1.133   2.198   1.100
 3427SOL    HW211181   1.004   2.295   1.070
 3428SOL     OW11182   5.044   6.271   5.466
 3428SOL    HW111183   5.106   6.204   5.508
 3428SOL    HW211184   4.955   6.229   5.450
 3429SOL     OW11185   0.307   0.516   1.136
 3429SOL    HW111186   0.245   0.502   1.213
 3429SOL    HW211187   0.367   0.594   1.155
 3430SOL     OW11188   2.371   4.807   5.470
 3430SOL    HW111189   2.440   4.810   5.542
 3430SOL    HW211190   2.329   4.897   5.461
 3431SOL     OW11191   2.741   6.126   2.580
 3431SOL    HW111192   2.745   6.111   2.481
 3431SOL    HW211193   2.680   6.059   2.621
 3432SOL     OW11194   2.556   4.166   0.350
 3432SOL    HW111195   2.573   4.068   0.354
 3432SOL    HW211196   2.640   4.214   0.324
 3433SOL     OW11197   2.401   1.316   6.656
 3433SOL    HW111198   2.323   1.263   6.621
 3433SOL    HW211199   2.455   1.349   6.579
 3434SOL     OW11200   3.264   1.978   1.584
 3434SOL    HW111201   3.288   1.991   1.680
 3434SOL    HW211202   3.321   1.905   1.545
 3435SOL     OW11203   2.077   0.339   0.483
 3435SOL    HW111204   2.103   0.402   0.556
 3435SOL    HW211205   2.006   0.277   0.516
 3436SOL     OW11206   4.033   5.791   0.516
 3436SOL    HW111207   4.081   5.727   0.577
 3436SOL    HW211208   4.045   5.884   0.550
 3437SOL     OW11209   1.361   6.489   5.964
 3437SOL    HW111210   1.358   6.483   6.064
 3437SOL    HW211211   1.384   6.399   5.926
 3438SOL     OW11212   1.011   4.157   0.964
 3438SOL    HW111213   1.051   4.141   1.055
 3438SOL    HW211214   1.073   4.121   0.894
 3439SOL     OW11215   2.082   5.691   2.676
 3439SOL    HW111216   2.140   5.718   2.753
 3439SOL    HW211217   2.114   5.603   2.640
 3440SOL     OW11218   3.956   3.437   4.214
 3440SOL    HW111219   3.948   3.349   4.166
 3440SOL    HW211220   3.936   3.512   4.151
 3441SOL     OW11221   5.032   5.586   5.702
 3441SOL    HW111222   5.102   5.541   5.757
 3441SOL    HW211223   5.073   5.616   5.615
 3442SOL     OW11224   3.297   3.234   1.944
 3442SOL    HW111225   3.253   3.144   1.946
 3442SOL    HW211226   3.390   3.226   1.982
 3443SOL     OW11227   2.663   5.792   2.480
 3443SOL    HW111228   2.694   5.703   2.512
 3443SOL    HW211229   2.624   5.843   2.557
 3444SOL     OW11230   5.267   4.488   1.873
 3444SOL    HW111231   5.279   4.585   1.853
 3444SOL    HW211232   5.212   4.445   1.801
 3445SOL     OW11233   6.826   4.886   3.806
 3445SOL    HW111234   6.843   4.808   3.867
 3445SOL    HW211235   6.731   4.885   3.776
 3446SOL     OW11236   5.342   0.449   1.467
 3446SOL    HW111237   5.342   0.530   1.526
 3446SOL    HW211238   5.263   0.452   1.405
 3447SOL     OW11239   4.871   0.470   0.095
 3447SOL    HW111240   4.885   0.396   0.161
 3447SOL    HW211241   4.880   0.558   0.142
 3448SOL     OW11242   1.521   6.276   4.736
 3448SOL    HW111243   1.563   6.265   4.646
 3448SOL    HW211244   1.569   6.349   4.785
 3449SOL     OW11245   6.355   4.712   4.978
 3449SOL    HW111246   6.404   4.774   5.039
 3449SOL    HW211247   6.325   4.632   5.030
 3450SOL     OW11248   1.463   0.169   6.911
 3450SOL    HW111249   1.501   0.079   6.891
 3450SOL    HW211250   1.536   0.235   6.928
 3451SOL     OW11251   1.740   6.159   0.557
 3451SOL    HW111252   1.739   6.258   0.570
 3451SOL    HW211253   1.834   6.127   0.548
 3452SOL     OW11254   5.197   0.536   5.385
 3452SOL    HW111255   5.278   0.578   5.424
 3452SOL    HW211256   5.116   0.563   5.437
 3453SOL     OW11257   5.057   6.519   5.681
 3453SOL    HW111258   5.076   6.601   5.735
 3453SOL    HW211259   5.048   6.544   5.585
 3454SOL     OW11260   1.240   2.276   2.873
 3454SOL    HW111261   1.295   2.321   2.803
 3454SOL    HW211262   1.239   2.177   2.857
 3455SOL     OW11263   1.882   3.086   5.262
 3455SOL    HW111264   1.976   3.061   5.243
 3455SOL    HW211265   1.880   3.172   5.315
 3456SOL     OW11266   4.842   4.469   2.440
 3456SOL    HW111267   4.900   4.387   2.444
 3456SOL    HW211268   4.746   4.442   2.439
 3457SOL     OW11269   4.173   5.627   5.153
 3457SOL    HW111270   4.085   5.673   5.163
 3457SOL    HW211271   4.235   5.685   5.101
 3458SOL     OW11272   4.172   1.479   2.448
 3458SOL    HW111273   4.227   1.486   2.532
 3458SOL    HW211274   4.228   1.500   2.369
 3459SOL     OW11275   4.142   0.789   3.102
 3459SOL    HW111276   4.042   0.791   3.103
 3459SOL    HW211277   4.178   0.879   3.127
 3460SOL     OW11278   3.860   1.841   5.678
 3460SOL    HW111279   3.809   1.858   5.763
 3460SOL    HW211280   3.948   1.890   5.682
 3461SOL     OW11281   5.418   4.751   0.045
 3461SOL    HW111282   5.389   4.713   0.133
 3461SOL    HW211283   5.498   4.809   0.058
 3462SOL     OW11284   2.429   3.359   6.597
 3462SOL    HW111285   2.331   3.380   6.604
 3462SOL    HW211286   2.480   3.418   6.659
 3463SOL     OW11287   6.579   4.278   1.504
 3463SOL    HW111288   6.529   4.197   1.472
 3463SOL    HW211289   6.663   4.288   1.451
 3464SOL     OW11290   6.851   4.957   5.855
 3464SOL    HW111291   6.818   5.041   5.813
 3464SOL    HW211292   6.776   4.892   5.865
 3465SOL     OW11293   1.784   0.800   1.818
 3465SOL    HW111294   1.842   0.870   1.776
 3465SOL    HW211295   1.805   0.711   1.776
 3466SOL     OW11296   6.514   4.140   5.521
 3466SOL    HW111297   6.481   4.097   5.605
 3466SOL    HW211298   6.572   4.075   5.471
 3467SOL     OW11299   1.770   2.522   6.268
 3467SOL    HW111300   1.770   2.472   6.355
 3467SOL    HW211301   1.705   2.597   6.273
 3468SOL     OW11302   3.505   6.601   3.747
 3468SOL    HW111303   3.566   6.654   3.807
 3468SOL    HW211304   3.425   6.656   3.723
 3469SOL     OW11305   6.338   2.271   3.270
 3469SOL    HW111306   6.412   2.209   3.242
 3469SOL    HW211307   6.252   2.239   3.231
 3470SOL     OW11308   0.428   5.591   0.933
 3470SOL    HW111309   0.441   5.663   0.864
 3470SOL    HW211310   0.456   5.626   1.023
 3471SOL     OW11311   4.124   5.811   4.908
 3471SOL    HW111312   4.193   5.748   4.872
 3471SOL    HW211313   4.099   5.877   4.837
 3472SOL     OW11314   2.585   0.649   4.554
 3472SOL    HW111315   2.654   0.714   4.523
 3472SOL    HW211316   2.561   0.588   4.478
 3473SOL     OW11317   6.284   1.268   6.085
 3473SOL    HW111318   6.322   1.271   5.993
 3473SOL    HW211319   6.248   1.358   6.110
 3474SOL     OW11320   4.052   5.119   2.066
 3474SOL    HW111321   4.016   5.026   2.071
 3474SOL    HW211322   4.099   5.132   1.979
 3475SOL     OW11323   1.179   5.564   4.272
 3475SOL    HW111324   1.192   5.622   4.192
 3475SOL    HW211325   1.112   5.606   4.333
 3476SOL     OW11326   4.401   0.856   4.576
 3476SOL    HW111327   4.360   0.774   4.617
 3476SOL    HW211328   4.353   0.937   4.608
 3477SOL     OW11329   4.015   6.304   1.662
 3477SOL    HW111330   4.106   6.288   1.626
 3477SOL    HW211331   3.947   6.287   1.591
 3478SOL     OW11332   3.490   5.397   5.925
 3478SOL    HW111333   3.455   5.308   5.954
 3478SOL    HW211334   3.581   5.411   5.964
 3479SOL     OW11335   0.979   0.265   1.958
 3479SOL    HW111336   0.894   0.258   2.010
 3479SOL    HW211337   0.995   0.180   1.908
 3480SOL     OW11338   6.955   1.604   3.699
 3480SOL    HW111339   6.992   1.643   3.783
 3480SOL    HW211340   6.912   1.676   3.644
 3481SOL     OW11341   2.698   6.991   6.456
 3481SOL    HW111342   2.646   6.949   6.530
 3481SOL    HW211343   2.639   0.037   6.407
 3482SOL     OW11344   6.513   2.376   1.193
 3482SOL    HW111345   6.536   2.291   1.239
 3482SOL    HW211346   6.535   2.368   1.095
 3483SOL     OW11347   2.303   0.498   1.479
 3483SOL    HW111348   2.287   0.530   1.386
 3483SOL    HW211349   2.222   0.513   1.535
 3484SOL     OW11350   3.201   2.951   3.833
 3484SOL    HW111351   3.134   2.882   3.806
 3484SOL    HW211352   3.160   3.015   3.897
 3485SOL     OW11353   1.587   2.678   5.319
 3485SOL    HW111354   1.607   2.703   5.413
 3485SOL    HW211355   1.506   2.620   5.316
 3486SOL     OW11356   4.564   2.093   1.462
 3486SOL    HW111357   4.471   2.102   1.499
 3486SOL    HW211358   4.578   2.001   1.428
 3487SOL     OW11359   5.721   1.910   6.099
 3487SOL    HW111360   5.716   1.897   6.198
 3487SOL    HW211361   5.799   1.859   6.062
 3488SOL     OW11362   5.987   3.550   3.919
 3488SOL    HW111363   6.040   3.523   4.000
 3488SOL    HW211364   5.909   3.489   3.909
 3489SOL     OW11365   3.611   0.074   1.319
 3489SOL    HW111366   3.594   0.013   1.242
 3489SOL    HW211367   3.659   0.156   1.286
 3490SOL     OW11368   5.016   3.933   0.482
 3490SOL    HW111369   4.982   4.026   0.498
 3490SOL    HW211370   4.938   3.871   0.476
 3491SOL     OW11371   0.385   2.869   5.519
 3491SOL    HW111372   0.436   2.940   5.566
 3491SOL    HW211373   0.328   2.820   5.585
 3492SOL     OW11374   0.100   5.025   6.331
 3492SOL    HW111375   0.126   4.944   6.278
 3492SOL    HW211376   0.149   5.105   6.297
 3493SOL     OW11377   6.220   5.144   1.256
 3493SOL    HW111378   6.222   5.206   1.335
 3493SOL    HW211379   6.307   5.096   1.249
 3494SOL     OW11380   3.248   0.136   1.685
 3494SOL    HW111381   3.275   0.136   1.589
 3494SOL    HW211382   3.148   0.130   1.692
 3495SOL     OW11383   4.293   5.177   1.677
 3495SOL    HW111384   4.221   5.115   1.646
 3495SOL    HW211385   4.360   5.190   1.604
 3496SOL     OW11386   1.882   3.007   0.579
 3496SOL    HW111387   1.828   2.954   0.515
 3496SOL    HW211388   1.832   3.016   0.666
 3497SOL     OW11389   4.398   1.006   3.441
 3497SOL    HW111390   4.330   1.028   3.511
 3497SOL    HW211391   4.362   1.031   3.351
 3498SOL     OW11392   2.407   1.230   1.145
 3498SOL    HW111393   2.465   1.300   1.103
 3498SOL    HW211394   2.311   1.251   1.126
 3499SOL     OW11395   7.008   2.981   4.696
 3499SOL    HW111396   0.068   2.955   4.640
 3499SOL    HW211397   6.928   2.995   4.638
 3500SOL     OW11398   6.464   4.188   6.285
 3500SOL    HW111399   6.425   4.097   6.272
 3500SOL    HW211400   6.392   4.257   6.271
 3501SOL     OW11401   1.592   4.604   4.804
 3501SOL    HW111402   1.550   4.543   4.736
 3501SOL    HW211403   1.681   4.633   4.771
 3502SOL     OW11404   0.563   1.962   1.067
 3502SOL    HW111405   0.475   2.000   1.097
 3502SOL    HW211406   0.636   2.029   1.084
 3503SOL     OW11407   4.609   5.910   5.395
 3503SOL    HW111408   4.578   5.888   5.487
 3503SOL    HW211409   4.688   5.853   5.372
 3504SOL     OW11410   2.721   3.516   1.344
 3504SOL    HW111411   2.692   3.463   1.265
 3504SOL    HW211412   2.640   3.544   1.397
 3505SOL     OW11413   5.098   5.893   5.639
 3505SOL    HW111414   5.153   5.946   5.575
 3505SOL    HW211415   5.157   5.832   5.691
 3506SOL     OW11416   4.101   5.040   3.756
 3506SOL    HW111417   4.107   5.102   3.678
 3506SOL    HW211418   4.056   5.087   3.832
 3507SOL     OW11419   1.180   0.541   6.856
 3507SOL    HW111420   1.228   0.507   6.775
 3507SOL    HW211421   1.208   0.489   6.936
 3508SOL     OW11422   5.659   3.533   0.352
 3508SOL    HW111423   5.623   3.578   0.270
 3508SOL    HW211424   5.610   3.567   0.432
 3509SOL     OW11425   6.554   6.104   6.769
 3509SOL    HW111426   6.493   6.164   6.821
 3509SOL    HW211427   6.588   6.152   6.689
 3510SOL     OW11428   2.030   2.509   1.885
 3510SOL    HW111429   2.115   2.458   1.892
 3510SOL    HW211430   1.975   2.494   1.967
 3511SOL     OW11431   0.031   2.659   6.855
 3511SOL    HW111432   0.045   2.591   6.927
 3511SOL    HW211433   0.042   2.751   6.893
 3512SOL     OW11434   2.386   3.224   0.379
 3512SOL    HW111435   2.438   3.251   0.298
 3512SOL    HW211436   2.404   3.128   0.399
 3513SOL     OW11437   6.826   4.049   1.545
 3513SOL    HW111438   6.915   4.039   1.590
 3513SOL    HW211439   6.761   3.984   1.584
 3514SOL     OW11440   0.870   6.597   1.024
 3514SOL    HW111441   0.770   6.597   1.025
 3514SOL    HW211442   0.902   6.683   0.984
 3515SOL     OW11443   3.249   6.175   2.999
 3515SOL    HW111444   3.172   6.166   3.062
 3515SOL    HW211445   3.242   6.106   2.927
 3516SOL     OW11446   3.025   1.396   0.223
 3516SOL    HW111447   3.124   1.408   0.223
 3516SOL    HW211448   2.991   1.397   0.317
 3517SOL     OW11449   0.791   1.437   6.877
 3517SOL    HW111450   0.745   1.392   6.801
 3517SOL    HW211451   0.774   1.536   6.873
 3518SOL     OW11452   5.008   3.261   6.450
 3518SOL    HW111453   5.048   3.353   6.452
 3518SOL    HW211454   4.926   3.260   6.508
 3519SOL     OW11455   1.870   6.757   6.421
 3519SOL    HW111456   1.796   6.707   6.376
 3519SOL    HW211457   1.852   6.855   6.413
 3520SOL     OW11458   4.137   5.577   0.657
 3520SOL    HW111459   4.095   5.586   0.747
 3520SOL    HW211460   4.137   5.480   0.631
 3521SOL     OW11461   5.455   2.124   1.875
 3521SOL    HW111462   5.514   2.145   1.797
 3521SOL    HW211463   5.363   2.103   1.842
 3522SOL     OW11464   3.367   5.426   2.277
 3522SOL    HW111465   3.416   5.508   2.248
 3522SOL    HW211466   3.268   5.443   2.274
 3523SOL     OW11467   2.931   4.856   5.002
 3523SOL    HW111468   2.879   4.774   4.977
 3523SOL    HW211469   2.889   4.899   5.082
 3524SOL     OW11470   2.676   0.222   0.545
 3524SOL    HW111471   2.765   0.186   0.515
 3524SOL    HW211472   2.633   0.157   0.607
 3525SOL     OW11473   0.480   2.963   2.130
 3525SOL    HW111474   0.546   2.995   2.061
 3525SOL    HW211475   0.507   2.873   2.162
 3526SOL     OW11476   1.033   0.714   2.865
 3526SOL    HW111477   1.027   0.737   2.962
 3526SOL    HW211478   1.083   0.628   2.854
 3527SOL     OW11479   5.640   2.990   6.537
 3527SOL    HW111480   5.648   2.939   6.623
 3527SOL    HW211481   5.646   2.926   6.460
 3528SOL     OW11482   0.171   6.237   3.293
 3528SOL    HW111483   0.187   6.144   3.328
 3528SOL    HW211484   0.243   6.261   3.228
 3529SOL     OW11485   4.398   6.887   5.280
 3529SOL    HW111486   4.368   6.945   5.356
 3529SOL    HW211487   4.495   6.868   5.290
 3530SOL     OW11488   3.079   5.603   2.562
 3530SOL    HW111489   3.174   5.628   2.541
 3530SOL    HW211490   3.054   5.642   2.651
 3531SOL     OW11491   6.173   4.705   0.919
 3531SOL    HW111492   6.187   4.793   0.873
 3531SOL    HW211493   6.235   4.698   0.997
 3532SOL     OW11494   2.645   0.350   6.603
 3532SOL    HW111495   2.688   0.354   6.513
 3532SOL    HW211496   2.699   0.405   6.667
 3533SOL     OW11497   0.890   1.561   3.117
 3533SOL    HW111498   0.942   1.506   3.052
 3533SOL    HW211499   0.953   1.621   3.167
 3534SOL     OW11500   5.664   1.435   4.667
 3534SOL    HW111501   5.653   1.520   4.615
 3534SOL    HW211502   5.574   1.399   4.693
 3535SOL     OW11503   5.777   5.345   6.129
 3535SOL    HW111504   5.677   5.345   6.122
 3535SOL    HW211505   5.815   5.288   6.056
 3536SOL     OW11506   1.937   3.361   3.226
 3536SOL    HW111507   1.858   3.407   3.268
 3536SOL    HW211508   2.018   3.419   3.234
 3537SOL     OW11509   2.515   5.647   0.463
 3537SOL    HW111510   2.436   5.704   0.441
 3537SOL    HW211511   2.581   5.701   0.514
 3538SOL     OW11512   2.673   0.425   3.219
 3538SOL    HW111513   2.613   0.479   3.159
 3538SOL    HW211514   2.628   0.411   3.307
 3539SOL     OW11515   5.126   4.985   6.776
 3539SOL    HW111516   5.140   5.002   6.874
 3539SOL    HW211517   5.163   4.895   6.753
 3540SOL     OW11518   3.066   3.214   6.239
 3540SOL    HW111519   3.001   3.273   6.286
 3540SOL    HW211520   3.018   3.139   6.195
 3541SOL     OW11521   3.066   2.416   0.844
 3541SOL    HW111522   2.980   2.371   0.824
 3541SOL    HW211523   3.096   2.392   0.936
 3542SOL     OW11524   5.517   2.347   6.272
 3542SOL    HW111525   5.532   2.354   6.371
 3542SOL    HW211526   5.461   2.423   6.241
 3543SOL     OW11527   2.166   2.508   3.273
 3543SOL    HW111528   2.252   2.556   3.259
 3543SOL    HW211529   2.148   2.447   3.196
 3544SOL     OW11530   2.587   4.671   6.134
 3544SOL    HW111531   2.660   4.716   6.186
 3544SOL    HW211532   2.605   4.680   6.036
 3545SOL     OW11533   3.367   6.898   1.159
 3545SOL    HW111534   3.466   6.905   1.150
 3545SOL    HW211535   3.326   6.988   1.151
 3546SOL     OW11536   6.580   3.759   3.279
 3546SOL    HW111537   6.516   3.726   3.350
 3546SOL    HW211538   6.566   3.706   3.195
 3547SOL     OW11539   0.121   3.768   5.484
 3547SOL    HW111540   0.145   3.859   5.518
 3547SOL    HW211541   0.182   3.700   5.525
 3548SOL     OW11542   5.339   1.277   5.757
 3548SOL    HW111543   5.402   1.354   5.770
 3548SOL    HW211544   5.376   1.197   5.803
 3549SOL     OW11545   3.199   5.251   0.198
 3549SOL    HW111546   3.217   5.220   0.291
 3549SOL    HW211547   3.102   5.274   0.189
 3550SOL     OW11548   5.324   1.374   5.481
 3550SOL    HW111549   5.379   1.341   5.557
 3550SOL    HW211550   5.327   1.307   5.406
 3551SOL     OW11551   3.973   2.154   4.757
 3551SOL    HW111552   3.895   2.215   4.740
 3551SOL    HW211553   4.058   2.207   4.752
 3552SOL     OW11554   6.993   5.947   2.428
 3552SOL    HW111555   6.992   6.010   2.351
 3552SOL    HW211556   0.068   5.940   2.464
 3553SOL     OW11557   3.746   5.357   5.988
 3553SOL    HW111558   3.812   5.369   6.062
 3553SOL    HW211559   3.785   5.298   5.917
 3554SOL     OW11560   4.365   3.541   1.696
 3554SOL    HW111561   4.330   3.466   1.751
 3554SOL    HW211562   4.289   3.589   1.651
 3555SOL     OW11563   1.803   1.934   3.874
 3555SOL    HW111564   1.743   1.854   3.875
 3555SOL    HW211565   1.870   1.927   3.948
 3556SOL     OW11566   4.212   1.013   5.415
 3556SOL    HW111567   4.146   0.938   5.416
 3556SOL    HW211568   4.184   1.082   5.349
 3557SOL     OW11569   6.703   1.737   2.067
 3557SOL    HW111570   6.735   1.713   2.158
 3557SOL    HW211571   6.644   1.818   2.073
 3558SOL     OW11572   3.631   6.916   1.124
 3558SOL    HW111573   3.695   6.842   1.145
 3558SOL    HW211574   3.616   6.919   1.025
 3559SOL     OW11575   4.036   6.400   4.415
 3559SOL    HW111576   4.050   6.379   4.318
 3559SOL    HW211577   4.058   6.496   4.432
 3560SOL     OW11578   1.661   5.503   5.127
 3560SOL    HW111579   1.726   5.485   5.053
 3560SOL    HW211580   1.607   5.421   5.144
 3561SOL     OW11581   4.860   4.460   5.471
 3561SOL    HW111582   4.849   4.394   5.545
 3561SOL    HW211583   4.920   4.421   5.401
 3562SOL     OW11584   2.501   1.515   5.403
 3562SOL    HW111585   2.566   1.530   5.478
 3562SOL    HW211586   2.420   1.570   5.418
 3563SOL     OW11587   5.506   2.242   5.606
 3563SOL    HW111588   5.484   2.263   5.511
 3563SOL    HW211589   5.597   2.278   5.628
 3564SOL     OW11590   0.268   4.519   2.462
 3564SOL    HW111591   0.266   4.618   2.473
 3564SOL    HW211592   0.252   4.474   2.550
 3565SOL     OW11593   3.293   5.419   3.687
 3565SOL    HW111594   3.284   5.369   3.601
 3565SOL    HW211595   3.215   5.397   3.746
 3566SOL     OW11596   6.592   1.151   5.584
 3566SOL    HW111597   6.633   1.060   5.576
 3566SOL    HW211598   6.640   1.203   5.654
 3567SOL     OW11599   0.383   4.509   6.657
 3567SOL    HW111600   0.395   4.597   6.704
 3567SOL    HW211601   0.456   4.447   6.683
 3568SOL     OW11602   6.326   3.604   6.058
 3568SOL    HW111603   6.372   3.594   6.147
 3568SOL    HW211604   6.246   3.545   6.055
 3569SOL     OW11605   2.805   2.271   5.317
 3569SOL    HW111606   2.829   2.368   5.325
 3569SOL    HW211607   2.878   2.223   5.267
 3570SOL     OW11608   6.172   1.095   4.179
 3570SOL    HW111609   6.074   1.101   4.196
 3570SOL    HW211610   6.208   1.187   4.163
 3571SOL     OW11611   6.201   5.551   6.720
 3571SOL    HW111612   6.236   5.458   6.733
 3571SOL    HW211613   6.249   5.594   6.643
 3572SOL     OW11614   5.431   3.532   4.046
 3572SOL    HW111615   5.449   3.438   4.073
 3572SOL    HW211616   5.353   3.567   4.098
 3573SOL     OW11617   1.494   4.080   3.262
 3573SOL    HW111618   1.570   4.017   3.275
 3573SOL    HW211619   1.526   4.162   3.213
 3574SOL     OW11620   0.112   4.911   0.751
 3574SOL    HW111621   0.151   4.821   0.733
 3574SOL    HW211622   0.124   4.970   0.672
 3575SOL     OW11623   6.484   5.245   3.198
 3575SOL    HW111624   6.578   5.281   3.197
 3575SOL    HW211625   6.431   5.288   3.125
 3576SOL     OW11626   0.344   1.397   6.400
 3576SOL    HW111627   0.288   1.408   6.318
 3576SOL    HW211628   0.300   1.331   6.462
 3577SOL     OW11629   0.654   2.440   6.614
 3577SOL    HW111630   0.691   2.380   6.544
 3577SOL    HW211631   0.627   2.386   6.694
 3578SOL     OW11632   2.916   4.294   6.600
 3578SOL    HW111633   2.938   4.213   6.655
 3578SOL    HW211634   2.998   4.351   6.591
 3579SOL     OW11635   6.915   3.316   5.156
 3579SOL    HW111636   6.977   3.254   5.203
 3579SOL    HW211637   6.969   3.384   5.105
 3580SOL     OW11638   5.818   1.933   1.731
 3580SOL    HW111639   5.905   1.925   1.682
 3580SOL    HW211640   5.756   1.861   1.702
 3581SOL     OW11641   6.888   0.713   2.616
 3581SOL    HW111642   6.908   0.615   2.604
 3581SOL    HW211643   6.801   0.734   2.571
 3582SOL     OW11644   0.815   0.585   5.877
 3582SOL    HW111645   0.797   0.681   5.902
 3582SOL    HW211646   0.756   0.560   5.800
 3583SOL     OW11647   1.026   4.476   0.160
 3583SOL    HW111648   1.027   4.574   0.176
 3583SOL    HW211649   1.117   4.438   0.179
 3584SOL     OW11650   5.751   6.201   6.330
 3584SOL    HW111651   5.685   6.138   6.371
 3584SOL    HW211652   5.735   6.207   6.232
 3585SOL     OW11653   3.415   5.039   4.582
 3585SOL    HW111654   3.361   5.005   4.505
 3585SOL    HW211655   3.454   5.128   4.559
 3586SOL     OW11656   6.315   2.867   5.413
 3586SOL    HW111657   6.269   2.800   5.355
 3586SOL    HW211658   6.248   2.923   5.461
 3587SOL     OW11659   3.182   6.796   0.579
 3587SOL    HW111660   3.193   6.719   0.641
 3587SOL    HW211661   3.104   6.851   0.607
 3588SOL     OW11662   2.049   2.299   5.812
 3588SOL    HW111663   2.019   2.210   5.778
 3588SOL    HW211664   2.137   2.289   5.857
 3589SOL     OW11665   3.060   0.712   4.471
 3589SOL    HW111666   2.961   0.699   4.467
 3589SOL    HW211667   3.088   0.772   4.396
 3590SOL     OW11668   1.201   4.956   6.201
 3590SOL    HW111669   1.207   5.015   6.281
 3590SOL    HW211670   1.122   4.895   6.210
 3591SOL     OW11671   5.451   3.180   5.857
 3591SOL    HW111672   5.468   3.088   5.893
 3591SOL    HW211673   5.538   3.228   5.846
 3592SOL     OW11674   5.251   3.130   2.845
 3592SOL    HW111675   5.319   3.126   2.918
 3592SOL    HW211676   5.295   3.157   2.759
 3593SOL     OW11677   1.980   6.841   4.131
 3593SOL    HW111678   1.896   6.787   4.141
 3593SOL    HW211679   1.985   6.910   4.202
 3594SOL     OW11680   2.288   1.169   3.602
 3594SOL    HW111681   2.334   1.094   3.648
 3594SOL    HW211682   2.242   1.135   3.520
 3595SOL     OW11683   2.426   6.599   5.556
 3595SOL    HW111684   2.496   6.561   5.617
 3595SOL    HW211685   2.347   6.628   5.610
 3596SOL     OW11686   6.333   0.758   2.661
 3596SOL    HW111687   6.374   0.758   2.570
 3596SOL    HW211688   6.313   0.664   2.689
 3597SOL     OW11689   3.797   6.364   4.566
 3597SOL    HW111690   3.798   6.287   4.631
 3597SOL    HW211691   3.891   6.386   4.540
 3598SOL     OW11692   0.948   0.265   5.314
 3598SOL    HW111693   0.875   0.277   5.246
 3598SOL    HW211694   1.017   0.335   5.301
 3599SOL     OW11695   0.262   2.307   5.570
 3599SOL    HW111696   0.202   2.289   5.492
 3599SOL    HW211697   0.350   2.341   5.536
 3600SOL     OW11698   6.267   3.303   1.380
 3600SOL    HW111699   6.296   3.282   1.473
 3600SOL    HW211700   6.258   3.402   1.368
 3601SOL     OW11701   0.167   3.755   0.351
 3601SOL    HW111702   0.165   3.707   0.439
 3601SOL    HW211703   0.228   3.707   0.288
 3602SOL     OW11704   1.920   0.846   0.287
 3602SOL    HW111705   1.920   0.873   0.191
 3602SOL    HW211706   1.896   0.749   0.295
 3603SOL     OW11707   3.932   4.912   4.323
 3603SOL    HW111708   3.975   4.902   4.412
 3603SOL    HW211709   3.971   4.846   4.259
 3604SOL     OW11710   6.897   2.668   2.968
 3604SOL    HW111711   6.832   2.597   2.998
 3604SOL    HW211712   6.852   2.757   2.971
 3605SOL     OW11713   5.983   4.472   6.076
 3605SOL    HW111714   5.985   4.451   6.174
 3605SOL    HW211715   5.934   4.400   6.027
 3606SOL     OW11716   6.651   4.770   5.836
 3606SOL    HW111717   6.657   4.754   5.738
 3606SOL    HW211718   6.556   4.766   5.866
 3607SOL     OW11719   5.241   0.673   0.450
 3607SOL    HW111720   5.179   0.752   0.449
 3607SOL    HW211721   5.193   0.594   0.488
 3608SOL     OW11722   0.208   1.532   1.496
 3608SOL    HW111723   0.279   1.571   1.555
 3608SOL    HW211724   0.131   1.500   1.552
 3609SOL     OW11725   6.528   0.762   4.444
 3609SOL    HW111726   6.559   0.717   4.528
 3609SOL    HW211727   6.574   0.721   4.365
 3610SOL     OW11728   0.984   6.726   4.795
 3610SOL    HW111729   0.979   6.807   4.853
 3610SOL    HW211730   1.068   6.728   4.741
 3611SOL     OW11731   3.457   5.037   5.428
 3611SOL    HW111732   3.520   4.994   5.364
 3611SOL    HW211733   3.367   4.994   5.420
 3612SOL     OW11734   1.168   6.421   6.427
 3612SOL    HW111735   1.188   6.374   6.514
 3612SOL    HW211736   1.077   6.394   6.396
 3613SOL     OW11737   4.858   5.133   0.417
 3613SOL    HW111738   4.766   5.097   0.432
 3613SOL    HW211739   4.926   5.064   0.441
 3614SOL     OW11740   3.767   3.172   3.102
 3614SOL    HW111741   3.684   3.127   3.137
 3614SOL    HW211742   3.743   3.233   3.027
 3615SOL     OW11743   5.801   5.178   5.683
 3615SOL    HW111744   5.749   5.208   5.763
 3615SOL    HW211745   5.740   5.171   5.604
 3616SOL     OW11746   6.652   2.089   6.641
 3616SOL    HW111747   6.635   2.039   6.556
 3616SOL    HW211748   6.584   2.161   6.652
 3617SOL     OW11749   5.823   2.018   6.407
 3617SOL    HW111750   5.818   2.096   6.344
 3617SOL    HW211751   5.757   2.030   6.481
 3618SOL     OW11752   1.407   2.008   6.078
 3618SOL    HW111753   1.405   2.073   6.003
 3618SOL    HW211754   1.425   2.056   6.164
 3619SOL     OW11755   5.815   2.264   3.910
 3619SOL    HW111756   5.780   2.347   3.954
 3619SOL    HW211757   5.772   2.184   3.952
 3620SOL     OW11758   5.576   6.981   5.655
 3620SOL    HW111759   5.510   6.958   5.726
 3620SOL    HW211760   5.528   7.005   5.570
 3621SOL     OW11761   3.196   2.985   5.766
 3621SOL    HW111762   3.159   3.071   5.800
 3621SOL    HW211763   3.147   2.957   5.683
 3622SOL     OW11764   0.727   1.206   2.978
 3622SOL    HW111765   0.652   1.244   3.033
 3622SOL    HW211766   0.737   1.260   2.895
 3623SOL     OW11767   6.111   5.171   4.065
 3623SOL    HW111768   6.049   5.241   4.029
 3623SOL    HW211769   6.184   5.215   4.119
 3624SOL     OW11770   2.195   6.311   3.132
 3624SOL    HW111771   2.160   6.402   3.109
 3624SOL    HW211772   2.211   6.306   3.231
 3625SOL     OW11773   6.539   3.327   6.192
 3625SOL    HW111774   6.491   3.242   6.170
 3625SOL    HW211775   6.634   3.320   6.163
 3626SOL     OW11776   2.176   3.615   5.042
 3626SOL    HW111777   2.122   3.699   5.040
 3626SOL    HW211778   2.255   3.626   5.102
 3627SOL     OW11779   4.128   3.491   3.503
 3627SOL    HW111780   4.068   3.414   3.480
 3627SOL    HW211781   4.079   3.577   3.487
 3628SOL     OW11782   2.297   6.088   2.230
 3628SOL    HW111783   2.249   6.174   2.215
 3628SOL    HW211784   2.245   6.013   2.187
 3629SOL     OW11785   6.574   2.120   4.796
 3629SOL    HW111786   6.615   2.140   4.885
 3629SOL    HW211787   6.640   2.142   4.723
 3630SOL     OW11788   5.903   2.666   4.213
 3630SOL    HW111789   5.859   2.636   4.128
 3630SOL    HW211790   5.925   2.586   4.269
 3631SOL     OW11791   2.197   0.096   4.738
 3631SOL    HW111792   2.223   0.008   4.697
 3631SOL    HW211793   2.245   0.108   4.825
 3632SOL     OW11794   5.283   1.069   1.058
 3632SOL    HW111795   5.375   1.066   1.098
 3632SOL    HW211796   5.236   0.983   1.077
 3633SOL     OW11797   2.963   2.200   5.605
 3633SOL    HW111798   2.895   2.273   5.607
 3633SOL    HW211799   3.033   2.222   5.538
 3634SOL     OW11800   0.737   6.450   4.539
 3634SOL    HW111801   0.777   6.361   4.517
 3634SOL    HW211802   0.801   6.522   4.513
 3635SOL     OW11803   3.365   0.875   5.476
 3635SOL    HW111804   3.448   0.837   5.435
 3635SOL    HW211805   3.289   0.811   5.462
 3636SOL     OW11806   6.892   6.355   5.867
 3636SOL    HW111807   6.873   6.385   5.774
 3636SOL    HW211808   6.884   6.433   5.929
 3637SOL     OW11809   6.039   2.000   1.049
 3637SOL    HW111810   5.939   1.998   1.043
 3637SOL    HW211811   6.078   2.019   0.959
 3638SOL     OW11812   6.627   4.518   3.859
 3638SOL    HW111813   6.643   4.420   3.873
 3638SOL    HW211814   6.699   4.570   3.906
 3639SOL     OW11815   3.529   3.606   1.154
 3639SOL    HW111816   3.533   3.676   1.226
 3639SOL    HW211817   3.448   3.620   1.098
 3640SOL     OW11818   3.364   5.829   6.746
 3640SOL    HW111819   3.454   5.807   6.783
 3640SOL    HW211820   3.374   5.886   6.664
 3641SOL     OW11821   3.378   1.644   4.899
 3641SOL    HW111822   3.435   1.572   4.940
 3641SOL    HW211823   3.303   1.602   4.848
 3642SOL     OW11824   4.854   0.968   5.635
 3642SOL    HW111825   4.946   1.003   5.616
 3642SOL    HW211826   4.818   1.012   5.717
 3643SOL     OW11827   3.406   5.852   4.777
 3643SOL    HW111828   3.365   5.829   4.866
 3643SOL    HW211829   3.354   5.926   4.735
 3644SOL     OW11830   6.650   1.193   1.398
 3644SOL    HW111831   6.576   1.162   1.458
 3644SOL    HW211832   6.615   1.203   1.305
 3645SOL     OW11833   5.424   1.709   4.155
 3645SOL    HW111834   5.465   1.618   4.164
 3645SOL    HW211835   5.354   1.707   4.083
 3646SOL     OW11836   6.573   4.874   5.568
 3646SOL    HW111837   6.487   4.865   5.518
 3646SOL    HW211838   6.636   4.803   5.538
 3647SOL     OW11839   1.607   3.525   0.401
 3647SOL    HW111840   1.661   3.458   0.452
 3647SOL    HW211841   1.530   3.556   0.458
 3648SOL     OW11842   3.731   5.329   2.854
 3648SOL    HW111843   3.737   5.289   2.763
 3648SOL    HW211844   3.755   5.260   2.922
 3649SOL     OW11845   4.136   3.450   1.104
 3649SOL    HW111846   4.201   3.438   1.029
 3649SOL    HW211847   4.047   3.414   1.077
 3650SOL     OW11848   6.754   5.421   0.736
 3650SOL    HW111849   6.839   5.469   0.758
 3650SOL    HW211850   6.721   5.372   0.817
 3651SOL     OW11851   0.903   5.855   2.548
 3651SOL    HW111852   0.969   5.929   2.565
 3651SOL    HW211853   0.866   5.823   2.635
 3652SOL     OW11854   4.908   6.417   3.233
 3652SOL    HW111855   4.819   6.410   3.189
 3652SOL    HW211856   4.920   6.509   3.270
 3653SOL     OW11857   6.297   1.050   3.006
 3653SOL    HW111858   6.357   1.010   2.937
 3653SOL    HW211859   6.224   0.986   3.029
 3654SOL     OW11860   2.028   6.264   0.172
 3654SOL    HW111861   2.017   6.177   0.125
 3654SOL    HW211862   2.085   6.252   0.253
 3655SOL     OW11863   1.442   0.001   3.582
 3655SOL    HW111864   1.479   6.989   3.494
 3655SOL    HW211865   1.363   6.964   3.606
 3656SOL     OW11866   1.383   2.764   1.458
 3656SOL    HW111867   1.454   2.696   1.444
 3656SOL    HW211868   1.358   2.805   1.370
 3657SOL     OW11869   4.177   5.645   6.347
 3657SOL    HW111870   4.223   5.558   6.367
 3657SOL    HW211871   4.228   5.720   6.388
 3658SOL     OW11872   1.530   5.769   4.501
 3658SOL    HW111873   1.542   5.748   4.598
 3658SOL    HW211874   1.449   5.826   4.488
 3659SOL     OW11875   2.629   4.211   6.141
 3659SOL    HW111876   2.615   4.149   6.219
 3659SOL    HW211877   2.559   4.282   6.142
 3660SOL     OW11878   4.995   6.335   2.055
 3660SOL    HW111879   5.022   6.248   2.095
 3660SOL    HW211880   5.076   6.387   2.028
 3661SOL     OW11881   4.862   2.041   6.854
 3661SOL    HW111882   4.849   2.069   6.759
 3661SOL    HW211883   4.916   2.110   6.902
 3662SOL     OW11884   3.087   0.367   4.428
 3662SOL    HW111885   3.165   0.408   4.476
 3662SOL    HW211886   3.011   0.431   4.426
 3663SOL     OW11887   1.466   1.254   0.782
 3663SOL    HW111888   1.481   1.216   0.691
 3663SOL    HW211889   1.428   1.183   0.841
 3664SOL     OW11890   5.125   1.581   1.382
 3664SOL    HW111891   5.105   1.672   1.345
 3664SOL    HW211892   5.104   1.512   1.313
 3665SOL     OW11893   0.721   5.878   5.593
 3665SOL    HW111894   0.653   5.843   5.657
 3665SOL    HW211895   0.678   5.946   5.533
 3666SOL     OW11896   1.855   4.562   3.523
 3666SOL    HW111897   1.803   4.504   3.461
 3666SOL    HW211898   1.951   4.532   3.524
 3667SOL     OW11899   6.269   0.241   0.497
 3667SOL    HW111900   6.263   0.321   0.437
 3667SOL    HW211901   6.179   0.226   0.540
 3668SOL     OW11902   1.497   0.722   2.190
 3668SOL    HW111903   1.464   0.657   2.257
 3668SOL    HW211904   1.595   0.708   2.175
 3669SOL     OW11905   5.705   1.578   4.341
 3669SOL    HW111906   5.657   1.491   4.333
 3669SOL    HW211907   5.797   1.563   4.378
 3670SOL     OW11908   2.606   5.401   0.797
 3670SOL    HW111909   2.640   5.406   0.703
 3670SOL    HW211910   2.683   5.401   0.861
 3671SOL     OW11911   6.164   0.615   3.233
 3671SOL    HW111912   6.239   0.557   3.204
 3671SOL    HW211913   6.182   0.650   3.325
 3672SOL     OW11914   5.718   1.634   1.215
 3672SOL    HW111915   5.676   1.663   1.301
 3672SOL    HW211916   5.690   1.540   1.194
 3673SOL     OW11917   3.742   0.674   5.932
 3673SOL    HW111918   3.706   0.688   6.024
 3673SOL    HW211919   3.809   0.600   5.933
 3674SOL     OW11920   0.668   0.167   5.760
 3674SOL    HW111921   0.588   0.224   5.739
 3674SOL    HW211922   0.739   0.182   5.691
 3675SOL     OW11923   1.812   2.604   5.168
 3675SOL    HW111924   1.758   2.651   5.237
 3675SOL    HW211925   1.893   2.659   5.146
 3676SOL     OW11926   3.982   5.196   4.351
 3676SOL    HW111927   4.016   5.192   4.445
 3676SOL    HW211928   3.949   5.106   4.324
 3677SOL     OW11929   1.093   6.023   2.626
 3677SOL    HW111930   1.138   6.004   2.713
 3677SOL    HW211931   1.159   6.058   2.560
 3678SOL     OW11932   0.575   3.052   3.983
 3678SOL    HW111933   0.478   3.062   4.005
 3678SOL    HW211934   0.598   2.955   3.973
 3679SOL     OW11935   0.379   1.179   2.872
 3679SOL    HW111936   0.448   1.180   2.799
 3679SOL    HW211937   0.352   1.272   2.894
 3680SOL     OW11938   6.590   2.892   4.137
 3680SOL    HW111939   6.676   2.845   4.157
 3680SOL    HW211940   6.600   2.989   4.157
 3681SOL     OW11941   0.732   0.863   5.903
 3681SOL    HW111942   0.650   0.858   5.959
 3681SOL    HW211943   0.807   0.901   5.957
 3682SOL     OW11944   5.956   2.472   6.109
 3682SOL    HW111945   6.033   2.523   6.071
 3682SOL    HW211946   5.870   2.512   6.076
 3683SOL     OW11947   6.861   0.655   4.933
 3683SOL    HW111948   6.809   0.677   5.015
 3683SOL    HW211949   6.957   0.678   4.946
 3684SOL     OW11950   1.518   2.793   1.198
 3684SOL    HW111951   1.484   2.848   1.123
 3684SOL    HW211952   1.604   2.832   1.231
 3685SOL     OW11953   6.073   6.325   5.680
 3685SOL    HW111954   6.115   6.412   5.651
 3685SOL    HW211955   5.979   6.342   5.709
 3686SOL     OW11956   6.320   4.817   3.360
 3686SOL    HW111957   6.285   4.831   3.452
 3686SOL    HW211958   6.399   4.755   3.363
 3687SOL     OW11959   2.910   5.958   5.254
 3687SOL    HW111960   2.913   5.903   5.338
 3687SOL    HW211961   2.844   5.918   5.191
 3688SOL     OW11962   1.071   4.102   6.935
 3688SOL    HW111963   1.044   4.070   0.008
 3688SOL    HW211964   1.025   4.188   6.915
 3689SOL     OW11965   0.987   0.634   5.453
 3689SOL    HW111966   0.976   0.733   5.466
 3689SOL    HW211967   0.967   0.611   5.358
 3690SOL     OW11968   4.158   0.337   6.328
 3690SOL    HW111969   4.146   0.415   6.267
 3690SOL    HW211970   4.207   0.365   6.411
 3691SOL     OW11971   2.406   3.094   6.564
 3691SOL    HW111972   2.421   3.191   6.585
 3691SOL    HW211973   2.481   3.040   6.601
 3692SOL     OW11974   1.097   6.288   4.371
 3692SOL    HW111975   1.109   6.190   4.384
 3692SOL    HW211976   1.157   6.338   4.434
 3693SOL     OW11977   1.607   2.837   2.839
 3693SOL    HW111978   1.594   2.757   2.898
 3693SOL    HW211979   1.630   2.916   2.895
 3694SOL     OW11980   1.258   5.205   3.269
 3694SOL    HW111981   1.336   5.144   3.284
 3694SOL    HW211982   1.262   5.280   3.335
 3695SOL     OW11983   0.609   2.399   2.610
 3695SOL    HW111984   0.528   2.452   2.582
 3695SOL    HW211985   0.647   2.438   2.693
 3696SOL     OW11986   4.041   5.896   5.383
 3696SOL    HW111987   4.131   5.935   5.362
 3696SOL    HW211988   4.001   5.859   5.299
 3697SOL     OW11989   6.701   6.166   3.745
 3697SOL    HW111990   6.700   6.103   3.823
 3697SOL    HW211991   6.783   6.149   3.690
 3698SOL     OW11992   3.522   6.757   5.327
 3698SOL    HW111993   3.490   6.797   5.413
 3698SOL    HW211994   3.449   6.703   5.285
 3699SOL     OW11995   6.856   3.609   2.921
 3699SOL    HW111996   6.907   3.679   2.971
 3699SOL    HW211997   6.893   3.601   2.828
 3700SOL     OW11998   5.814   0.698   3.669
 3700SOL    HW111999   5.781   0.792   3.674
 3700SOL    HW212000   5.823   0.670   3.574
 3701SOL     OW12001   0.299   0.937   3.591
 3701SOL    HW112002   0.391   0.938   3.630
 3701SOL    HW212003   0.269   1.030   3.572
 3702SOL     OW12004   4.560   0.193   1.987
 3702SOL    HW112005   4.533   0.221   1.895
 3702SOL    HW212006   4.484   0.204   2.050
 3703SOL     OW12007   4.101   3.807   5.826
 3703SOL    HW112008   4.172   3.781   5.892
 3703SOL    HW212009   4.064   3.897   5.850
 3704SOL     OW12010   3.015   1.054   1.843
 3704SOL    HW112011   3.099   1.058   1.788
 3704SOL    HW212012   3.000   1.143   1.887
 3705SOL     OW12013   5.126   6.644   3.654
 3705SOL    HW112014   5.128   6.601   3.564
 3705SOL    HW212015   5.046   6.613   3.704
 3706SOL     OW12016   1.401   2.395   4.463
 3706SOL    HW112017   1.314   2.364   4.424
 3706SOL    HW212018   1.476   2.373   4.400
 3707SOL     OW12019   5.647   3.042   5.148
 3707SOL    HW112020   5.568   3.027   5.207
 3707SOL    HW212021   5.687   3.132   5.168
 3708SOL     OW12022   6.080   0.099   6.449
 3708SOL    HW112023   6.012   0.050   6.504
 3708SOL    HW212024   6.125   0.034   6.387
 3709SOL     OW12025   3.543   0.905   6.568
 3709SOL    HW112026   3.479   0.929   6.494
 3709SOL    HW212027   3.632   0.882   6.528
 3710SOL     OW12028   6.739   6.134   0.506
 3710SOL    HW112029   6.694   6.047   0.486
 3710SOL    HW212030   6.752   6.185   0.420
 3711SOL     OW12031   0.259   5.871   2.478
 3711SOL    HW112032   0.278   5.881   2.380
 3711SOL    HW212033   0.327   5.921   2.531
 3712SOL     OW12034   0.030   5.897   6.944
 3712SOL    HW112035   0.082   5.917   6.861
 3712SOL    HW212036   6.951   5.909   6.926
 3713SOL     OW12037   2.184   6.456   4.661
 3713SOL    HW112038   2.226   6.460   4.752
 3713SOL    HW212039   2.127   6.536   4.647
 3714SOL     OW12040   5.249   6.088   4.747
 3714SOL    HW112041   5.290   6.142   4.673
 3714SOL    HW212042   5.155   6.119   4.763
 3715SOL     OW12043   5.690   4.062   4.946
 3715SOL    HW112044   5.629   4.136   4.917
 3715SOL    HW212045   5.668   3.979   4.896
 3716SOL     OW12046   0.475   6.560   4.322
 3716SOL    HW112047   0.424   6.481   4.357
 3716SOL    HW212048   0.522   6.605   4.398
 3717SOL     OW12049   6.323   5.557   0.728
 3717SOL    HW112050   6.277   5.550   0.639
 3717SOL    HW212051   6.254   5.566   0.800
 3718SOL     OW12052   2.214   6.241   6.176
 3718SOL    HW112053   2.169   6.312   6.123
 3718SOL    HW212054   2.262   6.178   6.114
 3719SOL     OW12055   4.932   4.287   1.316
 3719SOL    HW112056   4.959   4.344   1.239
 3719SOL    HW212057   4.964   4.327   1.402
 3720SOL     OW12058   5.995   2.105   6.762
 3720SOL    HW112059   5.961   2.143   6.676
 3720SOL    HW212060   5.930   2.124   6.835
 3721SOL     OW12061   5.398   4.681   0.321
 3721SOL    HW112062   5.338   4.754   0.354
 3721SOL    HW212063   5.457   4.649   0.395
 3722SOL     OW12064   6.907   6.349   2.408
 3722SOL    HW112065   6.935   6.280   2.341
 3722SOL    HW212066   6.950   6.330   2.496
 3723SOL     OW12067   5.815   6.611   2.074
 3723SOL    HW112068   5.763   6.579   2.153
 3723SOL    HW212069   5.846   6.705   2.090
 3724SOL     OW12070   2.287   5.191   6.738
 3724SOL    HW112071   2.231   5.265   6.775
 3724SOL    HW212072   2.291   5.200   6.638
 3725SOL     OW12073   5.389   6.059   6.725
 3725SOL    HW112074   5.427   6.139   6.680
 3725SOL    HW212075   5.336   6.087   6.805
 3726SOL     OW12076   6.812   4.224   1.345
 3726SOL    HW112077   6.824   4.150   1.410
 3726SOL    HW212078   6.807   4.187   1.252
 3727SOL     OW12079   0.231   3.091   6.297
 3727SOL    HW112080   0.329   3.108   6.295
 3727SOL    HW212081   0.192   3.110   6.206
 3728SOL     OW12082   1.389   3.513   0.218
 3728SOL    HW112083   1.472   3.510   0.273
 3728SOL    HW212084   1.349   3.422   0.210
 3729SOL     OW12085   1.011   2.424   3.550
 3729SOL    HW112086   0.927   2.373   3.568
 3729SOL    HW212087   1.089   2.373   3.586
 3730SOL     OW12088   2.734   6.116   6.983
 3730SOL    HW112089   2.641   6.084   6.968
 3730SOL    HW212090   2.797   6.039   6.983
 3731SOL     OW12091   4.815   1.159   0.306
 3731SOL    HW112092   4.886   1.110   0.255
 3731SOL    HW212093   4.729   1.108   0.301
 3732SOL     OW12094   2.096   3.130   6.029
 3732SOL    HW112095   2.035   3.053   6.043
 3732SOL    HW212096   2.166   3.131   6.101
 3733SOL     OW12097   2.102   3.880   1.478
 3733SOL    HW112098   2.042   3.960   1.481
 3733SOL    HW212099   2.050   3.798   1.500
 3734SOL     OW12100   4.183   1.577   1.623
 3734SOL    HW112101   4.157   1.620   1.537
 3734SOL    HW212102   4.146   1.630   1.699
 3735SOL     OW12103   0.767   1.648   2.821
 3735SOL    HW112104   0.789   1.728   2.878
 3735SOL    HW212105   0.845   1.585   2.821
 3736SOL     OW12106   0.155   3.384   1.006
 3736SOL    HW112107   0.078   3.387   0.943
 3736SOL    HW212108   0.151   3.463   1.068
 3737SOL     OW12109   4.932   0.401   3.138
 3737SOL    HW112110   5.016   0.357   3.104
 3737SOL    HW212111   4.870   0.331   3.173
 3738SOL     OW12112   6.313   6.155   3.372
 3738SOL    HW112113   6.252   6.085   3.336
 3738SOL    HW212114   6.284   6.180   3.464
 3739SOL     OW12115   1.539   4.094   2.681
 3739SOL    HW112116   1.588   4.049   2.606
 3739SOL    HW212117   1.480   4.166   2.645
 3740SOL     OW12118   4.514   0.781   6.571
 3740SOL    HW112119   4.598   0.804   6.523
 3740SOL    HW212120   4.442   0.846   6.546
 3741SOL     OW12121   4.372   3.657   1.370
 3741SOL    HW112122   4.381   3.624   1.277
 3741SOL    HW212123   4.316   3.740   1.372
 3742SOL     OW12124   2.388   2.205   5.552
 3742SOL    HW112125   2.437   2.161   5.477
 3742SOL    HW212126   2.298   2.235   5.520
 3743SOL     OW12127   6.155   4.945   0.836
 3743SOL    HW112128   6.061   4.976   0.852
 3743SOL    HW212129   6.177   4.952   0.739
 3744SOL     OW12130   0.550   5.799   3.512
 3744SOL    HW112131   0.604   5.843   3.440
 3744SOL    HW212132   0.609   5.773   3.588
 3745SOL     OW12133   3.129   5.557   3.024
 3745SOL    HW112134   3.157   5.465   3.050
 3745SOL    HW212135   3.195   5.623   3.058
 3746SOL     OW12136   4.219   1.328   1.503
 3746SOL    HW112137   4.187   1.415   1.543
 3746SOL    HW212138   4.153   1.256   1.525
 3747SOL     OW12139   2.786   6.509   6.196
 3747SOL    HW112140   2.775   6.608   6.209
 3747SOL    HW212141   2.706   6.473   6.149
 3748SOL     OW12142   5.374   0.425   2.034
 3748SOL    HW112143   5.390   0.384   1.944
 3748SOL    HW212144   5.364   0.524   2.024
 3749SOL     OW12145   1.458   6.787   4.043
 3749SOL    HW112146   1.480   6.872   3.996
 3749SOL    HW212147   1.453   6.712   3.977
 3750SOL     OW12148   1.836   3.966   0.307
 3750SOL    HW112149   1.770   3.999   0.240
 3750SOL    HW212150   1.911   4.031   0.315
 3751SOL     OW12151   0.070   3.928   2.743
 3751SOL    HW112152   6.995   3.953   2.722
 3751SOL    HW212153   0.077   3.901   2.839
 3752SOL     OW12154   5.097   1.120   5.613
 3752SOL    HW112155   5.147   1.162   5.689
 3752SOL    HW212156   5.161   1.098   5.539
 3753SOL     OW12157   5.922   0.413   4.660
 3753SOL    HW112158   5.942   0.315   4.666
 3753SOL    HW212159   5.958   0.450   4.574
 3754SOL     OW12160   1.869   0.903   2.310
 3754SOL    HW112161   1.776   0.923   2.279
 3754SOL    HW212162   1.915   0.989   2.332
 3755SOL     OW12163   3.135   5.060   4.795
 3755SOL    HW112164   3.086   5.101   4.872
 3755SOL    HW212165   3.188   4.981   4.827
 3756SOL     OW12166   2.911   5.871   6.978
 3756SOL    HW112167   2.961   5.813   0.024
 3756SOL    HW212168   2.964   5.880   6.894
 3757SOL     OW12169   6.448   5.071   2.168
 3757SOL    HW112170   6.502   5.118   2.238
 3757SOL    HW212171   6.373   5.021   2.212
 3758SOL     OW12172   2.117   1.069   4.466
 3758SOL    HW112173   2.073   1.035   4.550
 3758SOL    HW212174   2.169   1.152   4.487
 3759SOL     OW12175   4.744   0.931   4.715
 3759SOL    HW112176   4.839   0.923   4.687
 3759SOL    HW212177   4.695   0.846   4.694
 3760SOL     OW12178   0.191   0.206   3.313
 3760SOL    HW112179   0.283   0.169   3.325
 3760SOL    HW212180   0.197   0.297   3.270
 3761SOL     OW12181   6.204   1.420   4.664
 3761SOL    HW112182   6.202   1.391   4.568
 3761SOL    HW212183   6.258   1.503   4.672
 3762SOL     OW12184   1.554   3.758   2.375
 3762SOL    HW112185   1.565   3.836   2.313
 3762SOL    HW212186   1.635   3.699   2.368
 3763SOL     OW12187   6.996   3.917   0.286
 3763SOL    HW112188   6.912   3.897   0.336
 3763SOL    HW212189   0.045   3.845   0.303
 3764SOL     OW12190   1.843   0.577   2.755
 3764SOL    HW112191   1.896   0.499   2.790
 3764SOL    HW212192   1.746   0.563   2.775
 3765SOL     OW12193   6.061   1.885   1.609
 3765SOL    HW112194   6.068   1.826   1.529
 3765SOL    HW212195   6.142   1.875   1.666
 3766SOL     OW12196   1.864   2.787   4.215
 3766SOL    HW112197   1.906   2.833   4.137
 3766SOL    HW212198   1.846   2.691   4.191
 3767SOL     OW12199   3.060   4.092   6.164
 3767SOL    HW112200   2.999   4.170   6.151
 3767SOL    HW212201   3.137   4.099   6.101
 3768SOL     OW12202   2.005   0.979   4.693
 3768SOL    HW112203   1.916   0.941   4.721
 3768SOL    HW212204   2.065   0.983   4.773
 3769SOL     OW12205   5.623   5.438   4.912
 3769SOL    HW112206   5.561   5.453   4.988
 3769SOL    HW212207   5.634   5.340   4.896
 3770SOL     OW12208   1.309   1.085   0.071
 3770SOL    HW112209   1.260   1.115   0.153
 3770SOL    HW212210   1.249   1.093   7.010
 3771SOL     OW12211   6.488   4.458   0.542
 3771SOL    HW112212   6.459   4.495   0.454
 3771SOL    HW212213   6.467   4.523   0.615
 3772SOL     OW12214   1.199   6.440   0.088
 3772SOL    HW112215   1.298   6.453   0.080
 3772SOL    HW212216   1.169   6.469   0.179
 3773SOL     OW12217   5.545   4.051   5.716
 3773SOL    HW112218   5.509   4.053   5.622
 3773SOL    HW212219   5.615   3.981   5.723
 3774SOL     OW12220   5.932   4.755   1.850
 3774SOL    HW112221   5.992   4.768   1.772
 3774SOL    HW212222   5.864   4.828   1.853
 3775SOL     OW12223   3.558   4.989   3.422
 3775SOL    HW112224   3.527   4.970   3.515
 3775SOL    HW212225   3.520   5.077   3.392
 3776SOL     OW12226   3.628   2.651   6.453
 3776SOL    HW112227   3.625   2.553   6.473
 3776SOL    HW212228   3.558   2.673   6.384
 3777SOL     OW12229   2.630   5.824   3.357
 3777SOL    HW112230   2.656   5.903   3.413
 3777SOL    HW212231   2.684   5.745   3.385
 3778SOL     OW12232   2.870   6.171   4.097
 3778SOL    HW112233   2.879   6.179   4.196
 3778SOL    HW212234   2.941   6.112   4.060
 3779SOL     OW12235   0.407   5.135   0.742
 3779SOL    HW112236   0.354   5.161   0.822
 3779SOL    HW212237   0.346   5.102   0.670
 3780SOL     OW12238   6.943   2.470   2.410
 3780SOL    HW112239   6.890   2.543   2.366
 3780SOL    HW212240   6.956   2.492   2.507
 3781SOL     OW12241   1.028   6.408   5.139
 3781SOL    HW112242   1.083   6.327   5.162
 3781SOL    HW212243   1.051   6.482   5.202
 3782SOL     OW12244   4.149   6.370   2.503
 3782SOL    HW112245   4.050   6.353   2.507
 3782SOL    HW212246   4.168   6.437   2.432
 3783SOL     OW12247   5.214   4.405   5.521
 3783SOL    HW112248   5.306   4.388   5.556
 3783SOL    HW212249   5.211   4.385   5.423
 3784SOL     OW12250   5.528   2.786   2.311
 3784SOL    HW112251   5.464   2.733   2.365
 3784SOL    HW212252   5.521   2.758   2.215
 3785SOL     OW12253   0.481   3.378   5.306
 3785SOL    HW112254   0.559   3.430   5.270
 3785SOL    HW212255   0.490   3.283   5.278
 3786SOL     OW12256   2.419   2.305   3.297
 3786SOL    HW112257   2.360   2.247   3.354
 3786SOL    HW212258   2.438   2.391   3.345
 3787SOL     OW12259   4.190   0.476   2.794
 3787SOL    HW112260   4.219   0.569   2.814
 3787SOL    HW212261   4.118   0.477   2.725
 3788SOL     OW12262   6.937   4.136   4.738
 3788SOL    HW112263   6.941   4.173   4.831
 3788SOL    HW212264   0.008   4.100   4.712
 3789SOL     OW12265   0.777   3.058   3.366
 3789SOL    HW112266   0.872   3.029   3.356
 3789SOL    HW212267   0.717   2.989   3.326
 3790SOL     OW12268   1.308   6.058   6.895
 3790SOL    HW112269   1.390   6.111   6.874
 3790SOL    HW212270   1.247   6.112   6.953
 3791SOL     OW12271   5.648   1.536   6.038
 3791SOL    HW112272   5.556   1.507   6.066
 3791SOL    HW212273   5.641   1.622   5.987
 3792SOL     OW12274   0.920   0.941   4.168
 3792SOL    HW112275   0.878   0.851   4.168
 3792SOL    HW212276   1.018   0.932   4.188
 3793SOL     OW12277   5.974   5.866   1.027
 3793SOL    HW112278   6.043   5.909   0.969
 3793SOL    HW212279   5.948   5.930   1.100
 3794SOL     OW12280   1.841   3.175   0.994
 3794SOL    HW112281   1.772   3.170   1.066
 3794SOL    HW212282   1.924   3.130   1.024
 3795SOL     OW12283   3.051   5.938   0.721
 3795SOL    HW112284   3.024   5.948   0.626
 3795SOL    HW212285   3.075   5.842   0.739
 3796SOL     OW12286   4.217   2.170   1.019
 3796SOL    HW112287   4.146   2.240   1.006
 3796SOL    HW212288   4.299   2.212   1.058
 3797SOL     OW12289   1.243   4.154   2.460
 3797SOL    HW112290   1.202   4.092   2.393
 3797SOL    HW212291   1.172   4.190   2.520
 3798SOL     OW12292   2.333   0.024   2.668
 3798SOL    HW112293   2.393   0.080   2.726
 3798SOL    HW212294   2.299   6.965   2.720
 3799SOL     OW12295   6.698   2.470   3.058
 3799SOL    HW112296   6.737   2.379   3.047
 3799SOL    HW212297   6.652   2.476   3.147
 3800SOL     OW12298   4.784   1.858   2.980
 3800SOL    HW112299   4.870   1.893   3.017
 3800SOL    HW212300   4.771   1.892   2.887
 3801SOL     OW12301   5.298   6.897   2.207
 3801SOL    HW112302   5.336   6.949   2.130
 3801SOL    HW212303   5.254   6.960   2.271
 3802SOL     OW12304   0.560   1.868   2.245
 3802SOL    HW112305   0.596   1.813   2.170
 3802SOL    HW212306   0.526   1.955   2.209
 3803SOL     OW12307   3.623   3.772   3.740
 3803SOL    HW112308   3.547   3.832   3.762
 3803SOL    HW212309   3.606   3.681   3.778
 3804SOL     OW12310   3.007   1.315   4.613
 3804SOL    HW112311   3.022   1.412   4.591
 3804SOL    HW212312   3.087   1.279   4.660
 3805SOL     OW12313   2.610   2.640   1.022
 3805SOL    HW112314   2.535   2.605   1.078
 3805SOL    HW212315   2.580   2.722   0.974
 3806SOL     OW12316   4.312   3.595   6.267
 3806SOL    HW112317   4.288   3.564   6.175
 3806SOL    HW212318   4.269   3.684   6.285
 3807SOL     OW12319   1.797   5.022   4.262
 3807SOL    HW112320   1.858   5.033   4.340
 3807SOL    HW212321   1.777   4.925   4.248
 3808SOL     OW12322   4.972   0.643   5.525
 3808SOL    HW112323   4.915   0.663   5.604
 3808SOL    HW212324   4.917   0.603   5.452
 3809SOL     OW12325   6.307   1.614   1.676
 3809SOL    HW112326   6.380   1.546   1.684
 3809SOL    HW212327   6.336   1.686   1.613
 3810SOL     OW12328   6.771   2.839   3.315
 3810SOL    HW112329   6.673   2.854   3.305
 3810SOL    HW212330   6.795   2.836   3.412
 3811SOL     OW12331   0.123   6.167   4.535
 3811SOL    HW112332   0.046   6.109   4.509
 3811SOL    HW212333   0.115   6.193   4.631
 3812SOL     OW12334   3.203   5.498   6.806
 3812SOL    HW112335   3.273   5.431   6.832
 3812SOL    HW212336   3.235   5.550   6.727
 3813SOL     OW12337   6.206   3.993   1.256
 3813SOL    HW112338   6.168   3.910   1.216
 3813SOL    HW212339   6.159   4.073   1.220
 3814SOL     OW12340   0.086   6.990   3.922
 3814SOL    HW112341   0.026   0.048   3.903
 3814SOL    HW212342   0.034   6.917   3.967
 3815SOL     OW12343   5.295   2.948   0.503
 3815SOL    HW112344   5.266   2.906   0.417
 3815SOL    HW212345   5.231   2.923   0.575
 3816SOL     OW12346   0.763   6.516   4.826
 3816SOL    HW112347   0.742   6.508   4.729
 3816SOL    HW212348   0.836   6.583   4.839
 3817SOL     OW12349   4.929   3.392   2.677
 3817SOL    HW112350   5.018   3.402   2.631
 3817SOL    HW212351   4.897   3.482   2.708
 3818SOL     OW12352   0.509   0.718   1.180
 3818SOL    HW112353   0.452   0.779   1.235
 3818SOL    HW212354   0.600   0.712   1.221
 3819SOL     OW12355   6.673   4.102   2.556
 3819SOL    HW112356   6.589   4.051   2.536
 3819SOL    HW212357   6.734   4.046   2.613
 3820SOL     OW12358   5.317   6.838   3.546
 3820SOL    HW112359   5.270   6.757   3.582
 3820SOL    HW212360   5.389   6.809   3.484
 3821SOL     OW12361   0.930   0.073   0.459
 3821SOL    HW112362   0.904   0.006   0.528
 3821SOL    HW212363   0.988   0.143   0.501
 3822SOL     OW12364   3.419   0.064   7.019
 3822SOL    HW112365   3.512   0.076   6.986
 3822SOL    HW212366   3.415   0.084   0.098
 3823SOL     OW12367   4.522   4.449   6.369
 3823SOL    HW112368   4.515   4.541   6.331
 3823SOL    HW212369   4.589   4.396   6.316
 3824SOL     OW12370   0.606   2.635   0.789
 3824SOL    HW112371   0.537   2.687   0.738
 3824SOL    HW212372   0.625   2.549   0.742
 3825SOL     OW12373   1.169   4.119   1.172
 3825SOL    HW112374   1.144   4.068   1.254
 3825SOL    HW212375   1.250   4.175   1.190
 3826SOL     OW12376   0.530   3.726   2.479
 3826SOL    HW112377   0.432   3.739   2.495
 3826SOL    HW212378   0.579   3.809   2.507
 3827SOL     OW12379   0.693   0.749   1.517
 3827SOL    HW112380   0.654   0.830   1.562
 3827SOL    HW212381   0.634   0.670   1.535
 3828SOL     OW12382   3.665   3.907   4.741
 3828SOL    HW112383   3.691   3.831   4.682
 3828SOL    HW212384   3.681   3.882   4.836
 3829SOL     OW12385   0.496   4.841   1.850
 3829SOL    HW112386   0.586   4.812   1.816
 3829SOL    HW212387   0.473   4.789   1.932
 3830SOL     OW12388   0.418   0.646   5.306
 3830SOL    HW112389   0.487   0.719   5.302
 3830SOL    HW212390   0.453   0.570   5.360
 3831SOL     OW12391   4.150   2.265   2.889
 3831SOL    HW112392   4.063   2.261   2.939
 3831SOL    HW212393   4.220   2.304   2.948
 3832SOL     OW12394   0.189   0.450   2.014
 3832SOL    HW112395   0.261   0.500   2.062
 3832SOL    HW212396   0.218   0.356   2.000
 3833SOL     OW12397   1.861   6.757   6.738
 3833SOL    HW112398   1.863   6.856   6.747
 3833SOL    HW212399   1.871   6.732   6.642
 3834SOL     OW12400   4.130   4.220   0.925
 3834SOL    HW112401   4.099   4.166   1.004
 3834SOL    HW212402   4.160   4.310   0.956
 3835SOL     OW12403   3.948   5.773   5.168
 3835SOL    HW112404   3.923   5.828   5.088
 3835SOL    HW212405   3.869   5.720   5.198
 3836SOL     OW12406   0.348   4.846   5.833
 3836SOL    HW112407   0.269   4.887   5.879
 3836SOL    HW212408   0.319   4.762   5.786
 3837SOL     OW12409   4.131   5.378   5.240
 3837SOL    HW112410   4.039   5.354   5.207
 3837SOL    HW212411   4.156   5.468   5.203
 3838SOL     OW12412   1.627   1.627   3.196
 3838SOL    HW112413   1.702   1.612   3.261
 3838SOL    HW212414   1.562   1.692   3.234
 3839SOL     OW12415   3.930   0.732   2.638
 3839SOL    HW112416   3.845   0.776   2.608
 3839SOL    HW212417   3.911   0.671   2.714
 3840SOL     OW12418   2.721   1.750   5.631
 3840SOL    HW112419   2.789   1.813   5.668
 3840SOL    HW212420   2.762   1.660   5.619
 3841SOL     OW12421   1.474   4.361   4.277
 3841SOL    HW112422   1.501   4.275   4.321
 3841SOL    HW212423   1.461   4.346   4.179
 3842SOL     OW12424   2.578   2.496   4.034
 3842SOL    HW112425   2.667   2.457   4.012
 3842SOL    HW212426   2.579   2.533   4.127
 3843SOL     OW12427   5.774   3.676   0.990
 3843SOL    HW112428   5.824   3.752   0.948
 3843SOL    HW212429   5.766   3.601   0.924
 3844SOL     OW12430   0.939   4.352   6.938
 3844SOL    HW112431   0.986   4.412   7.003
 3844SOL    HW212432   0.842   4.349   6.961
 3845SOL     OW12433   2.426   6.142   0.036
 3845SOL    HW112434   2.389   6.235   0.028
 3845SOL    HW212435   2.383   6.096   0.114
 3846SOL     OW12436   0.634   3.404   4.463
 3846SOL    HW112437   0.688   3.446   4.390
 3846SOL    HW212438   0.557   3.354   4.423
 3847SOL     OW12439   5.090   2.416   4.524
 3847SOL    HW112440   5.046   2.496   4.563
 3847SOL    HW212441   5.171   2.443   4.472
 3848SOL     OW12442   4.887   3.637   2.854
 3848SOL    HW112443   4.857   3.580   2.930
 3848SOL    HW212444   4.897   3.732   2.886
 3849SOL     OW12445   0.679   0.179   6.447
 3849SOL    HW112446   0.665   0.090   6.405
 3849SOL    HW212447   0.775   0.189   6.473
 3850SOL     OW12448   3.502   2.910   1.353
 3850SOL    HW112449   3.511   2.841   1.425
 3850SOL    HW212450   3.412   2.901   1.310
 3851SOL     OW12451   0.000   5.057   3.375
 3851SOL    HW112452   7.001   5.144   3.421
 3851SOL    HW212453   6.990   4.982   3.434
 3852SOL     OW12454   3.687   6.526   4.387
 3852SOL    HW112455   3.720   6.440   4.426
 3852SOL    HW212456   3.762   6.574   4.343
 3853SOL     OW12457   1.215   2.412   3.154
 3853SOL    HW112458   1.209   2.330   3.098
 3853SOL    HW212459   1.185   2.491   3.100
 3854SOL     OW12460   1.034   2.816   3.253
 3854SOL    HW112461   1.100   2.774   3.315
 3854SOL    HW212462   0.980   2.745   3.208
 3855SOL     OW12463   4.058   6.507   6.796
 3855SOL    HW112464   3.997   6.427   6.798
 3855SOL    HW212465   4.049   6.554   6.709
 3856SOL     OW12466   0.264   1.533   5.944
 3856SOL    HW112467   0.175   1.530   5.899
 3856SOL    HW212468   0.331   1.574   5.881
 3857SOL     OW12469   1.437   6.333   6.180
 3857SOL    HW112470   1.396   6.290   6.100
 3857SOL    HW212471   1.427   6.272   6.259
 3858SOL     OW12472   3.526   1.391   6.142
 3858SOL    HW112473   3.509   1.347   6.054
 3858SOL    HW212474   3.513   1.490   6.133
 3859SOL     OW12475   6.157   0.969   1.645
 3859SOL    HW112476   6.183   1.066   1.639
 3859SOL    HW212477   6.087   0.949   1.577
 3860SOL     OW12478   1.698   1.261   4.535
 3860SOL    HW112479   1.791   1.289   4.510
 3860SOL    HW212480   1.633   1.327   4.498
 3861SOL     OW12481   4.683   6.416   3.075
 3861SOL    HW112482   4.625   6.341   3.044
 3861SOL    HW212483   4.734   6.453   2.997
 3862SOL     OW12484   0.764   0.354   4.409
 3862SOL    HW112485   0.836   0.417   4.441
 3862SOL    HW212486   0.719   0.312   4.488
 3863SOL     OW12487   6.239   1.633   6.585
 3863SOL    HW112488   6.281   1.705   6.529
 3863SOL    HW212489   6.146   1.617   6.553
 3864SOL     OW12490   2.052   0.720   5.288
 3864SOL    HW112491   2.138   0.760   5.319
 3864SOL    HW212492   2.064   0.622   5.273
 3865SOL     OW12493   4.073   1.608   1.107
 3865SOL    HW112494   4.035   1.516   1.117
 3865SOL    HW212495   4.169   1.601   1.079
 3866SOL     OW12496   3.887   1.154   0.083
 3866SOL    HW112497   3.925   1.064   0.065
 3866SOL    HW212498   3.803   1.166   0.029
 3867SOL     OW12499   1.228   4.106   3.183
 3867SOL    HW112500   1.323   4.097   3.210
 3867SOL    HW212501   1.204   4.202   3.173
 3868SOL     OW12502   3.961   0.293   6.937
 3868SOL    HW112503   3.939   0.273   0.014
 3868SOL    HW212504   4.029   0.227   6.904
 3869SOL     OW12505   6.803   2.976   3.555
 3869SOL    HW112506   6.852   3.052   3.512
 3869SOL    HW212507   6.733   3.011   3.617
 3870SOL     OW12508   6.948   6.291   1.349
 3870SOL    HW112509   6.895   6.333   1.422
 3870SOL    HW212510   6.922   6.332   1.261
 3871SOL     OW12511   3.554   0.640   3.267
 3871SOL    HW112512   3.568   0.739   3.266
 3871SOL    HW212513   3.632   0.594   3.225
 3872SOL     OW12514   2.888   3.467   3.820
 3872SOL    HW112515   2.889   3.367   3.822
 3872SOL    HW212516   2.922   3.498   3.731
 3873SOL     OW12517   5.977   4.463   1.167
 3873SOL    HW112518   5.938   4.537   1.113
 3873SOL    HW212519   5.903   4.410   1.209
 3874SOL     OW12520   4.082   0.753   0.206
 3874SOL    HW112521   4.090   0.668   0.256
 3874SOL    HW212522   4.038   0.822   0.263
 3875SOL     OW12523   1.914   2.916   3.565
 3875SOL    HW112524   2.011   2.895   3.556
 3875SOL    HW212525   1.893   3.001   3.516
 3876SOL     OW12526   3.537   5.358   0.906
 3876SOL    HW112527   3.541   5.289   0.834
 3876SOL    HW212528   3.547   5.314   0.995
 3877SOL     OW12529   6.348   2.573   1.318
 3877SOL    HW112530   6.393   2.491   1.283
 3877SOL    HW212531   6.259   2.549   1.357
 3878SOL     OW12532   4.759   6.417   4.425
 3878SOL    HW112533   4.764   6.360   4.507
 3878SOL    HW212534   4.764   6.359   4.343
 3879SOL     OW12535   6.084   5.617   0.990
 3879SOL    HW112536   5.990   5.632   0.958
 3879SOL    HW212537   6.112   5.693   1.048
 3880SOL     OW12538   5.037   4.030   4.832
 3880SOL    HW112539   4.971   4.104   4.813
 3880SOL    HW212540   5.126   4.055   4.796
 3881SOL     OW12541   1.394   3.318   1.660
 3881SOL    HW112542   1.338   3.355   1.734
 3881SOL    HW212543   1.491   3.331   1.683
 3882SOL     OW12544   0.508   0.903   6.054
 3882SOL    HW112545   0.469   0.848   6.127
 3882SOL    HW212546   0.537   0.992   6.090
 3883SOL     OW12547   3.787   1.361   2.001
 3883SOL    HW112548   3.758   1.326   2.090
 3883SOL    HW212549   3.720   1.428   1.968
 3884SOL     OW12550   0.716   5.954   2.345
 3884SOL    HW112551   0.632   6.006   2.355
 3884SOL    HW212552   0.762   5.947   2.434
 3885SOL     OW12553   6.567   5.426   2.916
 3885SOL    HW112554   6.647   5.481   2.893
 3885SOL    HW212555   6.485   5.483   2.910
 3886SOL     OW12556   4.557   5.595   5.277
 3886SOL    HW112557   4.636   5.549   5.237
 3886SOL    HW212558   4.587   5.652   5.354
 3887SOL     OW12559   0.857   0.068   0.179
 3887SOL    HW112560   0.873   0.149   0.123
 3887SOL    HW212561   0.887   0.086   0.273
 3888SOL     OW12562   6.527   6.996   5.151
 3888SOL    HW112563   6.593   0.017   5.215
 3888SOL    HW212564   6.556   7.014   5.057
 3889SOL     OW12565   6.572   3.629   0.522
 3889SOL    HW112566   6.628   3.631   0.438
 3889SOL    HW212567   6.560   3.722   0.556
 3890SOL     OW12568   6.750   4.557   3.562
 3890SOL    HW112569   6.674   4.584   3.503
 3890SOL    HW212570   6.835   4.594   3.525
 3891SOL     OW12571   5.487   3.963   4.428
 3891SOL    HW112572   5.472   3.876   4.474
 3891SOL    HW212573   5.402   3.993   4.384
 3892SOL     OW12574   0.400   2.280   1.408
 3892SOL    HW112575   0.459   2.334   1.468
 3892SOL    HW212576   0.356   2.340   1.341
 3893SOL     OW12577   4.032   3.255   0.050
 3893SOL    HW112578   3.972   3.227   6.994
 3893SOL    HW212579   4.027   3.354   0.061
 3894SOL     OW12580   4.550   1.229   0.092
 3894SOL    HW112581   4.588   1.274   0.172
 3894SOL    HW212582   4.477   1.167   0.120
 3895SOL     OW12583   0.997   0.506   5.700
 3895SOL    HW112584   0.960   0.534   5.789
 3895SOL    HW212585   0.978   0.577   5.632
 3896SOL     OW12586   0.506   1.307   5.831
 3896SOL    HW112587   0.548   1.310   5.740
 3896SOL    HW212588   0.576   1.322   5.901
 3897SOL     OW12589   4.059   5.368   2.646
 3897SOL    HW112590   4.025   5.426   2.720
 3897SOL    HW212591   4.014   5.393   2.560
 3898SOL     OW12592   2.802   2.921   5.790
 3898SOL    HW112593   2.797   2.861   5.711
 3898SOL    HW212594   2.883   2.899   5.844
 3899SOL     OW12595   4.638   6.760   5.208
 3899SOL    HW112596   4.732   6.790   5.224
 3899SOL    HW212597   4.629   6.727   5.114
 3900SOL     OW12598   4.891   3.057   3.823
 3900SOL    HW112599   4.799   3.026   3.849
 3900SOL    HW212600   4.898   3.156   3.837
 3901SOL     OW12601   2.970   0.703   5.883
 3901SOL    HW112602   3.047   0.734   5.826
 3901SOL    HW212603   2.944   0.776   5.946
 3902SOL     OW12604   6.256   2.867   2.137
 3902SOL    HW112605   6.165   2.885   2.174
 3902SOL    HW212606   6.261   2.771   2.107
 3903SOL     OW12607   3.719   5.953   0.453
 3903SOL    HW112608   3.814   5.924   0.449
 3903SOL    HW212609   3.681   5.957   0.361
 3904SOL     OW12610   2.398   1.269   6.234
 3904SOL    HW112611   2.304   1.244   6.208
 3904SOL    HW212612   2.448   1.299   6.153
 3905SOL     OW12613   0.173   0.011   6.835
 3905SOL    HW112614   0.269   7.003   6.835
 3905SOL    HW212615   0.137   0.005   6.928
 3906SOL     OW12616   5.599   6.080   5.908
 3906SOL    HW112617   5.505   6.084   5.872
 3906SOL    HW212618   5.663   6.079   5.832
 3907SOL     OW12619   5.491   0.878   3.609
 3907SOL    HW112620   5.423   0.817   3.649
 3907SOL    HW212621   5.455   0.917   3.525
 3908SOL     OW12622   0.678   2.513   0.478
 3908SOL    HW112623   0.684   2.608   0.446
 3908SOL    HW212624   0.765   2.466   0.461
 3909SOL     OW12625   6.244   5.852   5.826
 3909SOL    HW112626   6.189   5.936   5.832
 3909SOL    HW212627   6.294   5.851   5.740
 3910SOL     OW12628   3.551   3.825   2.832
 3910SOL    HW112629   3.503   3.743   2.800
 3910SOL    HW212630   3.636   3.836   2.780
 3911SOL     OW12631   4.988   1.399   5.299
 3911SOL    HW112632   4.889   1.399   5.285
 3911SOL    HW212633   5.014   1.480   5.351
 3912SOL     OW12634   5.184   0.910   5.177
 3912SOL    HW112635   5.113   0.908   5.107
 3912SOL    HW212636   5.253   0.841   5.157
 3913SOL     OW12637   2.591   6.538   6.459
 3913SOL    HW112638   2.670   6.567   6.405
 3913SOL    HW212639   2.507   6.561   6.410
 3914SOL     OW12640   2.956   0.825   1.015
 3914SOL    HW112641   3.021   0.770   0.962
 3914SOL    HW212642   3.006   0.890   1.072
 3915SOL     OW12643   4.884   5.522   1.442
 3915SOL    HW112644   4.917   5.487   1.354
 3915SOL    HW212645   4.914   5.461   1.515
 3916SOL     OW12646   1.348   0.669   4.474
 3916SOL    HW112647   1.341   0.593   4.410
 3916SOL    HW212648   1.419   0.732   4.444
 3917SOL     OW12649   6.471   5.963   0.129
 3917SOL    HW112650   6.376   5.967   0.098
 3917SOL    HW212651   6.494   6.046   0.178
 3918SOL     OW12652   4.883   6.142   1.406
 3918SOL    HW112653   4.894   6.240   1.423
 3918SOL    HW212654   4.965   6.107   1.361
 3919SOL     OW12655   3.196   6.527   6.401
 3919SOL    HW112656   3.134   6.496   6.329
 3919SOL    HW212657   3.291   6.515   6.372
 3920SOL     OW12658   3.140   3.155   0.847
 3920SOL    HW112659   3.104   3.062   0.857
 3920SOL    HW212660   3.148   3.198   0.936
 3921SOL     OW12661   0.089   3.590   1.654
 3921SOL    HW112662   0.020   3.597   1.726
 3921SOL    HW212663   0.181   3.591   1.695
 3922SOL     OW12664   6.469   2.926   2.003
 3922SOL    HW112665   6.484   2.863   1.926
 3922SOL    HW212666   6.382   2.902   2.048
 3923SOL     OW12667   6.623   0.834   0.071
 3923SOL    HW112668   6.559   0.801   0.001
 3923SOL    HW212669   6.652   0.927   0.049
 3924SOL     OW12670   0.280   4.830   3.556
 3924SOL    HW112671   0.188   4.870   3.559
 3924SOL    HW212672   0.306   4.815   3.461
 3925SOL     OW12673   3.208   5.157   0.786
 3925SOL    HW112674   3.112   5.128   0.795
 3925SOL    HW212675   3.261   5.120   0.862
 3926SOL     OW12676   0.096   5.740   2.994
 3926SOL    HW112677   0.101   5.693   3.082
 3926SOL    HW212678   0.050   5.682   2.927
 3927SOL     OW12679   6.373   2.745   3.709
 3927SOL    HW112680   6.456   2.742   3.764
 3927SOL    HW212681   6.297   2.707   3.762
 3928SOL     OW12682   3.653   6.068   6.118
 3928SOL    HW112683   3.684   6.153   6.161
 3928SOL    HW212684   3.671   6.071   6.020
 3929SOL     OW12685   0.263   0.934   5.184
 3929SOL    HW112686   0.287   1.016   5.132
 3929SOL    HW212687   0.299   0.942   5.277
 3930SOL     OW12688   2.486   2.087   3.914
 3930SOL    HW112689   2.476   2.028   3.834
 3930SOL    HW212690   2.492   2.031   3.997
 3931SOL     OW12691   1.266   1.122   1.844
 3931SOL    HW112692   1.333   1.193   1.865
 3931SOL    HW212693   1.210   1.104   1.925
 3932SOL     OW12694   1.652   4.761   3.430
 3932SOL    HW112695   1.740   4.728   3.464
 3932SOL    HW212696   1.595   4.683   3.404
 3933SOL     OW12697   2.323   6.563   6.756
 3933SOL    HW112698   2.283   6.588   6.844
 3933SOL    HW212699   2.421   6.582   6.756
 3934SOL     OW12700   6.935   1.010   0.409
 3934SOL    HW112701   6.885   1.034   0.326
 3934SOL    HW212702   7.007   0.944   0.387
 3935SOL     OW12703   2.695   6.501   6.994
 3935SOL    HW112704   2.782   6.483   6.950
 3935SOL    HW212705   2.625   6.521   6.925
 3936SOL     OW12706   0.055   5.120   5.685
 3936SOL    HW112707   0.077   5.024   5.672
 3936SOL    HW212708   0.130   5.165   5.735
 3937SOL     OW12709   6.872   1.812   3.536
 3937SOL    HW112710   6.854   1.771   3.447
 3937SOL    HW212711   6.945   1.880   3.528
 3938SOL     OW12712   0.448   2.051   3.912
 3938SOL    HW112713   0.439   2.101   3.826
 3938SOL    HW212714   0.470   2.116   3.986
 3939SOL     OW12715   2.460   2.232   2.659
 3939SOL    HW112716   2.393   2.160   2.639
 3939SOL    HW212717   2.412   2.316   2.684
 3940SOL     OW12718   5.000   5.381   1.223
 3940SOL    HW112719   4.931   5.321   1.263
 3940SOL    HW212720   5.075   5.326   1.187
 3941SOL     OW12721   5.017   3.081   6.073
 3941SOL    HW112722   5.002   2.990   6.113
 3941SOL    HW212723   5.100   3.121   6.111
 3942SOL     OW12724   0.444   6.940   6.740
 3942SOL    HW112725   0.488   6.978   6.822
 3942SOL    HW212726   0.486   6.852   6.717
 3943SOL     OW12727   0.144   3.509   2.985
 3943SOL    HW112728   0.100   3.520   3.074
 3943SOL    HW212729   0.097   3.438   2.933
 3944SOL     OW12730   4.950   2.842   4.983
 3944SOL    HW112731   5.008   2.900   5.040
 3944SOL    HW212732   4.867   2.819   5.032
 3945SOL     OW12733   6.943   1.691   0.510
 3945SOL    HW112734   6.856   1.646   0.527
 3945SOL    HW212735   7.002   1.682   0.589
 3946SOL     OW12736   5.547   5.463   5.559
 3946SOL    HW112737   5.454   5.482   5.529
 3946SOL    HW212738   5.561   5.500   5.651
 3947SOL     OW12739   5.881   5.971   0.742
 3947SOL    HW112740   5.870   5.986   0.644
 3947SOL    HW212741   5.978   5.977   0.767
 3948SOL     OW12742   1.424   5.572   2.271
 3948SOL    HW112743   1.458   5.510   2.201
 3948SOL    HW212744   1.472   5.660   2.264
 3949SOL     OW12745   4.566   0.448   3.268
 3949SOL    HW112746   4.530   0.541   3.256
 3949SOL    HW212747   4.576   0.404   3.179
 3950SOL     OW12748   1.965   3.962   1.121
 3950SOL    HW112749   1.941   3.865   1.120
 3950SOL    HW212750   1.888   4.016   1.086
 3951SOL     OW12751   5.266   6.781   1.003
 3951SOL    HW112752   5.191   6.727   1.041
 3951SOL    HW212753   5.320   6.723   0.941
 3952SOL     OW12754   6.240   2.979   3.031
 3952SOL    HW112755   6.293   2.991   2.947
 3952SOL    HW212756   6.273   3.044   3.100
 3953SOL     OW12757   3.870   4.842   1.703
 3953SOL    HW112758   3.907   4.912   1.642
 3953SOL    HW212759   3.933   4.765   1.707
 3954SOL     OW12760   4.331   5.123   4.910
 3954SOL    HW112761   4.412   5.113   4.852
 3954SOL    HW212762   4.359   5.150   5.002
 3955SOL     OW12763   3.081   5.889   6.776
 3955SOL    HW112764   3.044   5.955   6.711
 3955SOL    HW212765   3.180   5.880   6.762
 3956SOL     OW12766   6.774   1.152   3.387
 3956SOL    HW112767   6.810   1.155   3.481
 3956SOL    HW212768   6.680   1.185   3.386
 3957SOL     OW12769   4.820   6.264   4.198
 3957SOL    HW112770   4.770   6.234   4.117
 3957SOL    HW212771   4.892   6.198   4.219
 3958SOL     OW12772   6.035   1.423   4.880
 3958SOL    HW112773   6.098   1.398   4.954
 3958SOL    HW212774   6.085   1.429   4.794
 3959SOL     OW12775   4.356   6.907   0.771
 3959SOL    HW112776   4.430   6.865   0.822
 3959SOL    HW212777   4.297   6.959   0.834
 3960SOL     OW12778   4.985   1.818   6.999
 3960SOL    HW112779   4.936   1.881   6.939
 3960SOL    HW212780   4.954   1.725   6.981
 3961SOL     OW12781   5.458   1.889   2.324
 3961SOL    HW112782   5.437   1.973   2.273
 3961SOL    HW212783   5.484   1.817   2.259
 3962SOL     OW12784   2.900   3.900   0.241
 3962SOL    HW112785   2.957   3.855   0.171
 3962SOL    HW212786   2.952   3.905   0.326
 3963SOL     OW12787   4.849   4.875   4.109
 3963SOL    HW112788   4.873   4.970   4.128
 3963SOL    HW212789   4.780   4.872   4.037
 3964SOL     OW12790   4.401   4.903   4.122
 3964SOL    HW112791   4.310   4.917   4.161
 3964SOL    HW212792   4.395   4.842   4.043
 3965SOL     OW12793   4.830   3.060   5.391
 3965SOL    HW112794   4.829   3.118   5.472
 3965SOL    HW212795   4.822   2.964   5.419
 3966SOL     OW12796   4.779   5.851   6.473
 3966SOL    HW112797   4.731   5.933   6.441
 3966SOL    HW212798   4.722   5.804   6.540
 3967SOL     OW12799   2.130   3.591   2.261
 3967SOL    HW112800   2.089   3.523   2.322
 3967SOL    HW212801   2.182   3.546   2.189
 3968SOL     OW12802   4.866   0.479   1.250
 3968SOL    HW112803   4.811   0.559   1.224
 3968SOL    HW212804   4.810   0.396   1.240
 3969SOL     OW12805   1.490   4.547   2.385
 3969SOL    HW112806   1.541   4.547   2.471
 3969SOL    HW212807   1.476   4.453   2.354
 3970SOL     OW12808   6.434   6.541   3.558
 3970SOL    HW112809   6.521   6.560   3.512
 3970SOL    HW212810   6.424   6.603   3.636
 3971SOL     OW12811   2.902   5.575   3.162
 3971SOL    HW112812   3.000   5.577   3.140
 3971SOL    HW212813   2.890   5.542   3.256
 3972SOL     OW12814   1.357   4.088   0.888
 3972SOL    HW112815   1.438   4.029   0.895
 3972SOL    HW212816   1.343   4.135   0.976
 3973SOL     OW12817   1.502   5.207   6.671
 3973SOL    HW112818   1.534   5.165   6.586
 3973SOL    HW212819   1.483   5.304   6.655
 3974SOL     OW12820   1.831   0.238   4.939
 3974SOL    HW112821   1.869   0.295   5.012
 3974SOL    HW212822   1.841   0.285   4.851
 3975SOL     OW12823   5.135   1.502   5.616
 3975SOL    HW112824   5.174   1.526   5.704
 3975SOL    HW212825   5.202   1.449   5.563
 3976SOL     OW12826   1.748   5.830   2.032
 3976SOL    HW112827   1.758   5.765   1.956
 3976SOL    HW212828   1.690   5.905   2.004
 3977SOL     OW12829   2.533   3.654   5.419
 3977SOL    HW112830   2.589   3.616   5.345
 3977SOL    HW212831   2.464   3.715   5.380
 3978SOL     OW12832   5.900   4.953   4.712
 3978SOL    HW112833   5.917   4.886   4.640
 3978SOL    HW212834   5.939   4.920   4.798
 3979SOL     OW12835   2.946   0.074   1.071
 3979SOL    HW112836   2.859   0.030   1.050
 3979SOL    HW212837   2.973   0.052   1.165
 3980SOL     OW12838   5.632   6.028   0.345
 3980SOL    HW112839   5.587   5.958   0.289
 3980SOL    HW212840   5.570   6.107   0.354
 3981SOL     OW12841   2.838   0.703   0.359
 3981SOL    HW112842   2.848   0.694   0.458
 3981SOL    HW212843   2.837   0.612   0.318
 3982SOL     OW12844   2.315   0.370   3.191
 3982SOL    HW112845   2.363   0.445   3.145
 3982SOL    HW212846   2.369   0.286   3.182
 3983SOL     OW12847   5.298   4.685   4.155
 3983SOL    HW112848   5.228   4.720   4.093
 3983SOL    HW212849   5.345   4.608   4.112
 3984SOL     OW12850   6.515   1.327   3.183
 3984SOL    HW112851   6.604   1.289   3.158
 3984SOL    HW212852   6.454   1.324   3.104
 3985SOL     OW12853   2.873   4.566   6.474
 3985SOL    HW112854   2.823   4.489   6.514
 3985SOL    HW212855   2.829   4.652   6.498
 3986SOL     OW12856   4.889   2.135   2.620
 3986SOL    HW112857   4.981   2.101   2.642
 3986SOL    HW212858   4.896   2.230   2.590
 3987SOL     OW12859   3.605   5.113   3.776
 3987SOL    HW112860   3.541   5.038   3.758
 3987SOL    HW212861   3.587   5.153   3.865
 3988SOL     OW12862   3.659   4.202   6.558
 3988SOL    HW112863   3.707   4.260   6.492
 3988SOL    HW212864   3.710   4.118   6.572
 3989SOL     OW12865   6.302   3.067   6.870
 3989SOL    HW112866   6.294   2.977   6.827
 3989SOL    HW212867   6.352   3.059   6.956
 3990SOL     OW12868   4.530   2.174   2.817
 3990SOL    HW112869   4.570   2.260   2.783
 3990SOL    HW212870   4.474   2.133   2.745
 3991SOL     OW12871   5.845   1.003   2.885
 3991SOL    HW112872   5.842   1.022   2.983
 3991SOL    HW212873   5.896   1.075   2.839
 3992SOL     OW12874   2.902   2.037   6.803
 3992SOL    HW112875   2.880   1.963   6.739
 3992SOL    HW212876   2.951   1.999   6.882
 3993SOL     OW12877   1.500   2.095   2.721
 3993SOL    HW112878   1.506   2.019   2.657
 3993SOL    HW212879   1.527   2.179   2.675
 3994SOL     OW12880   1.965   0.323   5.643
 3994SOL    HW112881   2.032   0.391   5.612
 3994SOL    HW212882   1.894   0.313   5.574
 3995SOL     OW12883   2.574   3.709   5.717
 3995SOL    HW112884   2.512   3.684   5.642
 3995SOL    HW212885   2.665   3.671   5.700
 3996SOL     OW12886   1.192   0.380   4.494
 3996SOL    HW112887   1.135   0.326   4.432
 3996SOL    HW212888   1.272   0.327   4.522
 3997SOL     OW12889   5.176   1.745   3.455
 3997SOL    HW112890   5.261   1.713   3.496
 3997SOL    HW212891   5.153   1.835   3.491
 3998SOL     OW12892   4.150   1.423   3.628
 3998SOL    HW112893   4.243   1.398   3.602
 3998SOL    HW212894   4.152   1.483   3.708
 3999SOL     OW12895   5.647   3.711   3.945
 3999SOL    HW112896   5.724   3.660   3.983
 3999SOL    HW212897   5.561   3.675   3.980
 4000SOL     OW12898   3.601   6.616   3.092
 4000SOL    HW112899   3.592   6.560   3.174
 4000SOL    HW212900   3.628   6.709   3.118
 4001SOL     OW12901   2.172   1.901   3.377
 4001SOL    HW112902   2.080   1.928   3.347
 4001SOL    HW212903   2.214   1.975   3.429
 4002SOL     OW12904   3.349   4.294   0.126
 4002SOL    HW112905   3.345   4.346   0.212
 4002SOL    HW212906   3.300   4.208   0.137
 4003SOL     OW12907   3.809   6.986   4.520
 4003SOL    HW112908   3.780   0.053   4.563
 4003SOL    HW212909   3.788   6.990   4.422
 4004SOL     OW12910   4.986   1.843   4.057
 4004SOL    HW112911   4.979   1.786   3.976
 4004SOL    HW212912   4.895   1.873   4.086
 4005SOL     OW12913   5.181   4.991   0.030
 4005SOL    HW112914   5.246   4.958   0.099
 4005SOL    HW212915   5.183   5.091   0.028
 4006SOL     OW12916   4.587   5.246   2.824
 4006SOL    HW112917   4.619   5.154   2.845
 4006SOL    HW212918   4.632   5.312   2.884
 4007SOL     OW12919   0.070   2.451   0.526
 4007SOL    HW112920   0.116   2.538   0.541
 4007SOL    HW212921   0.059   2.435   0.428
 4008SOL     OW12922   3.188   1.748   3.753
 4008SOL    HW112923   3.200   1.804   3.671
 4008SOL    HW212924   3.266   1.686   3.762
 4009SOL     OW12925   4.224   3.205   1.444
 4009SOL    HW112926   4.186   3.196   1.351
 4009SOL    HW212927   4.313   3.248   1.439
 4010SOL     OW12928   2.402   3.470   1.228
 4010SOL    HW112929   2.466   3.394   1.237
 4010SOL    HW212930   2.413   3.533   1.305
 4011SOL     OW12931   0.454   1.294   1.830
 4011SOL    HW112932   0.425   1.379   1.874
 4011SOL    HW212933   0.463   1.222   1.899
 4012SOL     OW12934   5.565   4.637   1.971
 4012SOL    HW112935   5.485   4.697   1.966
 4012SOL    HW212936   5.602   4.639   2.063
 4013SOL     OW12937   2.841   1.543   5.303
 4013SOL    HW112938   2.802   1.500   5.384
 4013SOL    HW212939   2.877   1.472   5.242
 4014SOL     OW12940   5.214   6.486   2.318
 4014SOL    HW112941   5.283   6.539   2.269
 4014SOL    HW212942   5.143   6.548   2.352
 4015SOL     OW12943   4.995   4.809   6.456
 4015SOL    HW112944   4.968   4.760   6.539
 4015SOL    HW212945   5.094   4.816   6.452
 4016SOL     OW12946   2.707   5.659   6.119
 4016SOL    HW112947   2.701   5.581   6.057
 4016SOL    HW212948   2.767   5.636   6.195
 4017SOL     OW12949   0.489   5.849   0.440
 4017SOL    HW112950   0.508   5.877   0.534
 4017SOL    HW212951   0.523   5.918   0.377
 4018SOL     OW12952   4.330   6.190   2.622
 4018SOL    HW112953   4.265   6.253   2.579
 4018SOL    HW212954   4.285   6.137   2.694
 4019SOL     OW12955   5.578   4.015   3.191
 4019SOL    HW112956   5.500   3.960   3.161
 4019SOL    HW212957   5.654   4.002   3.127
 4020SOL     OW12958   4.677   1.384   5.221
 4020SOL    HW112959   4.723   1.299   5.248
 4020SOL    HW212960   4.578   1.370   5.222
 4021SOL     OW12961   4.086   4.870   6.070
 4021SOL    HW112962   4.003   4.853   6.123
 4021SOL    HW212963   4.164   4.825   6.114
 4022SOL     OW12964   4.773   1.182   6.704
 4022SOL    HW112965   4.818   1.123   6.637
 4022SOL    HW212966   4.798   1.153   6.797
 4023SOL     OW12967   6.312   1.527   4.394
 4023SOL    HW112968   6.339   1.618   4.363
 4023SOL    HW212969   6.273   1.476   4.318
 4024SOL     OW12970   3.312   6.945   3.125
 4024SOL    HW112971   3.334   6.925   3.220
 4024SOL    HW212972   3.229   6.895   3.099
 4025SOL     OW12973   0.462   4.510   3.040
 4025SOL    HW112974   0.510   4.594   3.065
 4025SOL    HW212975   0.523   4.432   3.053
 4026SOL     OW12976   5.849   6.042   3.780
 4026SOL    HW112977   5.792   5.983   3.837
 4026SOL    HW212978   5.878   5.992   3.698
 4027SOL     OW12979   3.771   4.245   1.813
 4027SOL    HW112980   3.732   4.336   1.808
 4027SOL    HW212981   3.748   4.194   1.730
 4028SOL     OW12982   1.765   2.526   4.188
 4028SOL    HW112983   1.749   2.485   4.277
 4028SOL    HW212984   1.680   2.528   4.136
 4029SOL     OW12985   2.652   4.110   5.825
 4029SOL    HW112986   2.588   4.111   5.901
 4029SOL    HW212987   2.608   4.069   5.745
 4030SOL     OW12988   0.800   2.445   5.799
 4030SOL    HW112989   0.854   2.445   5.715
 4030SOL    HW212990   0.812   2.357   5.846
 4031SOL     OW12991   5.204   5.520   3.796
 4031SOL    HW112992   5.300   5.536   3.771
 4031SOL    HW212993   5.165   5.450   3.737
 4032SOL     OW12994   6.465   6.322   4.178
 4032SOL    HW112995   6.399   6.269   4.124
 4032SOL    HW212996   6.501   6.265   4.252
 4033SOL     OW12997   3.278   2.900   4.614
 4033SOL    HW112998   3.289   2.801   4.606
 4033SOL    HW212999   3.228   2.935   4.535
 4034SOL     OW13000   5.955   1.516   4.452
 4034SOL    HW113001   6.031   1.509   4.388
 4034SOL    HW213002   5.977   1.583   4.523
 4035SOL     OW13003   0.257   4.466   7.015
 4035SOL    HW113004   0.182   4.407   0.027
 4035SOL    HW213005   0.341   4.412   7.007
 4036SOL     OW13006   5.749   6.336   2.524
 4036SOL    HW113007   5.679   6.281   2.570
 4036SOL    HW213008   5.825   6.276   2.497
 4037SOL     OW13009   1.381   3.185   6.358
 4037SOL    HW113010   1.319   3.194   6.436
 4037SOL    HW213011   1.342   3.119   6.293
 4038SOL     OW13012   4.846   4.709   2.598
 4038SOL    HW113013   4.904   4.711   2.680
 4038SOL    HW213014   4.859   4.621   2.552
 4039SOL     OW13015   5.273   5.917   0.154
 4039SOL    HW113016   5.181   5.882   0.135
 4039SOL    HW213017   5.271   5.975   0.236
 4040SOL     OW13018   2.856   0.325   1.002
 4040SOL    HW113019   2.851   0.406   1.061
 4040SOL    HW213020   2.906   0.252   1.049
 4041SOL     OW13021   0.918   6.208   2.731
 4041SOL    HW113022   0.944   6.271   2.805
 4041SOL    HW213023   0.984   6.133   2.726
 4042SOL     OW13024   5.849   5.333   2.510
 4042SOL    HW113025   5.858   5.233   2.511
 4042SOL    HW213026   5.779   5.359   2.444
 4043SOL     OW13027   4.950   1.947   2.402
 4043SOL    HW113028   4.885   2.007   2.448
 4043SOL    HW213029   5.024   2.002   2.364
 4044SOL     OW13030   5.749   0.621   3.426
 4044SOL    HW113031   5.687   0.543   3.413
 4044SOL    HW213032   5.707   0.704   3.390
 4045SOL     OW13033   2.387   4.614   6.858
 4045SOL    HW113034   2.314   4.627   6.792
 4045SOL    HW213035   2.353   4.631   6.950
 4046SOL     OW13036   1.204   1.972   2.292
 4046SOL    HW113037   1.183   2.054   2.346
 4046SOL    HW213038   1.161   1.892   2.334
 4047SOL     OW13039   2.799   3.722   1.643
 4047SOL    HW113040   2.737   3.767   1.579
 4047SOL    HW213041   2.756   3.638   1.677
 4048SOL     OW13042   5.588   0.769   1.217
 4048SOL    HW113043   5.588   0.671   1.237
 4048SOL    HW213044   5.577   0.782   1.118
 4049SOL     OW13045   5.799   6.738   5.978
 4049SOL    HW113046   5.799   6.646   6.018
 4049SOL    HW213047   5.855   6.739   5.895
 4050SOL     OW13048   1.745   6.480   0.281
 4050SOL    HW113049   1.801   6.452   0.360
 4050SOL    HW213050   1.699   6.566   0.302
 4051SOL     OW13051   3.067   4.655   0.549
 4051SOL    HW113052   3.084   4.600   0.631
 4051SOL    HW213053   3.115   4.742   0.556
 4052SOL     OW13054   0.811   0.482   0.262
 4052SOL    HW113055   0.797   0.556   0.197
 4052SOL    HW213056   0.816   0.519   0.355
 4053SOL     OW13057   3.208   5.157   3.859
 4053SOL    HW113058   3.219   5.068   3.905
 4053SOL    HW213059   3.293   5.209   3.867
 4054SOL     OW13060   2.925   2.774   0.439
 4054SOL    HW113061   2.884   2.728   0.360
 4054SOL    HW213062   2.920   2.714   0.519
 4055SOL     OW13063   2.732   2.422   6.193
 4055SOL    HW113064   2.790   2.359   6.140
 4055SOL    HW213065   2.649   2.442   6.141
 4056SOL     OW13066   3.802   3.100   6.982
 4056SOL    HW113067   3.765   3.158   6.911
 4056SOL    HW213068   3.765   3.128   0.052
 4057SOL     OW13069   4.768   3.389   0.222
 4057SOL    HW113070   4.797   3.403   0.128
 4057SOL    HW213071   4.796   3.468   0.278
 4058SOL     OW13072   2.536   1.454   4.575
 4058SOL    HW113073   2.478   1.441   4.655
 4058SOL    HW213074   2.526   1.547   4.540
 4059SOL     OW13075   1.950   2.050   4.685
 4059SOL    HW113076   2.027   1.989   4.667
 4059SOL    HW213077   1.904   2.072   4.598
 4060SOL     OW13078   4.141   4.826   4.116
 4060SOL    HW113079   4.180   4.761   4.051
 4060SOL    HW213080   4.111   4.908   4.067
 4061SOL     OW13081   3.672   4.475   1.693
 4061SOL    HW113082   3.640   4.550   1.750
 4061SOL    HW213083   3.594   4.425   1.656
 4062SOL     OW13084   3.430   1.050   2.500
 4062SOL    HW113085   3.346   0.998   2.483
 4062SOL    HW213086   3.486   1.000   2.566
 4063SOL     OW13087   2.905   6.073   5.715
 4063SOL    HW113088   2.991   6.025   5.732
 4063SOL    HW213089   2.844   6.014   5.662
 4064SOL     OW13090   1.198   0.157   2.607
 4064SOL    HW113091   1.119   0.149   2.667
 4064SOL    HW213092   1.229   0.252   2.604
 4065SOL     OW13093   0.315   6.652   0.973
 4065SOL    HW113094   0.381   6.585   0.937
 4065SOL    HW213095   0.352   6.693   1.056
 4066SOL     OW13096   5.492   3.938   1.997
 4066SOL    HW113097   5.404   3.952   1.951
 4066SOL    HW213098   5.540   4.025   2.003
 4067SOL     OW13099   5.383   1.741   2.885
 4067SOL    HW113100   5.358   1.832   2.849
 4067SOL    HW213101   5.479   1.723   2.863
 4068SOL     OW13102   5.255   0.735   4.786
 4068SOL    HW113103   5.265   0.700   4.879
 4068SOL    HW213104   5.301   0.673   4.722
 4069SOL     OW13105   5.443   4.827   0.716
 4069SOL    HW113106   5.528   4.779   0.693
 4069SOL    HW213107   5.461   4.924   0.730
 4070SOL     OW13108   2.441   4.390   2.857
 4070SOL    HW113109   2.483   4.401   2.767
 4070SOL    HW213110   2.394   4.302   2.861
 4071SOL     OW13111   1.538   0.810   4.950
 4071SOL    HW113112   1.534   0.721   4.996
 4071SOL    HW213113   1.523   0.882   5.018
 4072SOL     OW13114   1.452   0.020   4.423
 4072SOL    HW113115   1.432   0.100   4.480
 4072SOL    HW213116   1.548   0.025   4.393
 4073SOL     OW13117   2.657   5.427   5.971
 4073SOL    HW113118   2.624   5.351   6.027
 4073SOL    HW213119   2.717   5.392   5.899
 4074SOL     OW13120   0.774   2.100   1.562
 4074SOL    HW113121   0.707   2.059   1.624
 4074SOL    HW213122   0.743   2.089   1.467
 4075SOL     OW13123   4.176   1.639   2.789
 4075SOL    HW113124   4.123   1.672   2.867
 4075SOL    HW213125   4.200   1.543   2.804
 4076SOL     OW13126   2.089   3.434   5.264
 4076SOL    HW113127   2.103   3.478   5.176
 4076SOL    HW213128   2.177   3.404   5.301
 4077SOL     OW13129   3.461   0.100   0.287
 4077SOL    HW113130   3.464   0.164   0.364
 4077SOL    HW213131   3.500   0.012   0.314
 4078SOL     OW13132   6.457   4.122   1.295
 4078SOL    HW113133   6.371   4.071   1.296
 4078SOL    HW213134   6.439   4.217   1.268
 4079SOL     OW13135   0.732   0.996   3.918
 4079SOL    HW113136   0.778   0.916   3.881
 4079SOL    HW213137   0.733   0.992   4.018
 4080SOL     OW13138   3.300   3.663   1.556
 4080SOL    HW113139   3.210   3.703   1.536
 4080SOL    HW213140   3.297   3.565   1.541
 4081SOL     OW13141   2.017   1.395   5.345
 4081SOL    HW113142   1.974   1.474   5.301
 4081SOL    HW213143   2.059   1.337   5.275
 4082SOL     OW13144   0.932   2.736   5.096
 4082SOL    HW113145   0.843   2.697   5.118
 4082SOL    HW213146   0.999   2.706   5.164
 4083SOL     OW13147   5.978   4.638   3.680
 4083SOL    HW113148   6.075   4.651   3.700
 4083SOL    HW213149   5.953   4.543   3.697
 4084SOL     OW13150   4.321   1.877   3.201
 4084SOL    HW113151   4.400   1.913   3.150
 4084SOL    HW213152   4.308   1.781   3.176
 4085SOL     OW13153   3.418   5.666   1.514
 4085SOL    HW113154   3.379   5.668   1.422
 4085SOL    HW213155   3.389   5.748   1.563
 4086SOL     OW13156   6.372   5.403   6.376
 4086SOL    HW113157   6.450   5.434   6.430
 4086SOL    HW213158   6.403   5.379   6.284
 4087SOL     OW13159   2.414   6.669   2.286
 4087SOL    HW113160   2.452   6.709   2.203
 4087SOL    HW213161   2.476   6.687   2.363
 4088SOL     OW13162   0.026   1.116   5.739
 4088SOL    HW113163   0.054   1.067   5.657
 4088SOL    HW213164   0.103   1.169   5.775
 4089SOL     OW13165   7.013   6.643   3.804
 4089SOL    HW113166   6.920   6.615   3.781
 4089SOL    HW213167   7.015   6.683   3.896
 4090SOL     OW13168   2.286   6.514   4.900
 4090SOL    HW113169   2.327   6.438   4.950
 4090SOL    HW213170   2.209   6.551   4.952
 4091SOL     OW13171   2.014   5.512   1.165
 4091SOL    HW113172   1.923   5.519   1.124
 4091SOL    HW213173   2.081   5.487   1.095
 4092SOL     OW13174   5.157   3.179   4.509
 4092SOL    HW113175   5.091   3.253   4.526
 4092SOL    HW213176   5.108   3.091   4.505
 4093SOL     OW13177   5.577   5.431   2.774
 4093SOL    HW113178   5.598   5.417   2.677
 4093SOL    HW213179   5.481   5.408   2.791
 4094SOL     OW13180   0.303   5.378   6.721
 4094SOL    HW113181   0.326   5.472   6.745
 4094SOL    HW213182   0.365   5.315   6.768
 4095SOL     OW13183   0.165   4.521   0.276
 4095SOL    HW113184   0.200   4.557   0.190
 4095SOL    HW213185   0.065   4.526   0.276
 4096SOL     OW13186   1.831   1.872   6.903
 4096SOL    HW113187   1.814   1.876   6.804
 4096SOL    HW213188   1.749   1.901   6.952
 4097SOL     OW13189   0.125   4.450   5.210
 4097SOL    HW113190   0.130   4.419   5.115
 4097SOL    HW213191   0.217   4.470   5.244
 4098SOL     OW13192   2.308   5.071   2.754
 4098SOL    HW113193   2.395   5.074   2.804
 4098SOL    HW213194   2.271   4.979   2.755
 4099SOL     OW13195   4.557   3.911   5.992
 4099SOL    HW113196   4.553   3.935   6.089
 4099SOL    HW213197   4.552   3.812   5.982
 4100SOL     OW13198   1.382   0.536   3.922
 4100SOL    HW113199   1.390   0.578   4.013
 4100SOL    HW213200   1.452   0.464   3.913
 4101SOL     OW13201   6.444   0.341   0.136
 4101SOL    HW113202   6.432   0.347   0.037
 4101SOL    HW213203   6.516   0.274   0.156
 4102SOL     OW13204   2.014   0.441   0.137
 4102SOL    HW113205   1.970   0.473   0.053
 4102SOL    HW213206   2.107   0.477   0.142
 4103SOL     OW13207   1.091   6.517   2.199
 4103SOL    HW113208   1.190   6.503   2.193
 4103SOL    HW213209   1.062   6.577   2.124
 4104SOL     OW13210   0.308   5.832   2.833
 4104SOL    HW113211   0.243   5.816   2.907
 4104SOL    HW213212   0.348   5.744   2.805
 4105SOL     OW13213   4.643   1.189   1.064
 4105SOL    HW113214   4.671   1.137   0.984
 4105SOL    HW213215   4.710   1.176   1.138
 4106SOL     OW13216   0.071   1.992   3.586
 4106SOL    HW113217   0.121   2.070   3.547
 4106SOL    HW213218   0.067   2.003   3.686
 4107SOL     OW13219   0.259   6.203   6.357
 4107SOL    HW113220   0.341   6.149   6.374
 4107SOL    HW213221   0.240   6.261   6.436
 4108SOL     OW13222   0.047   5.146   4.006
 4108SOL    HW113223   0.098   5.232   4.002
 4108SOL    HW213224   6.969   5.165   4.024
 4109SOL     OW13225   6.413   5.648   3.222
 4109SOL    HW113226   6.327   5.613   3.259
 4109SOL    HW213227   6.413   5.639   3.122
 4110SOL     OW13228   4.845   3.677   0.100
 4110SOL    HW113229   4.925   3.722   0.062
 4110SOL    HW213230   4.774   3.745   0.120
 4111SOL     OW13231   6.714   3.916   5.511
 4111SOL    HW113232   6.635   3.886   5.457
 4111SOL    HW213233   6.771   3.837   5.533
 4112SOL     OW13234   4.631   6.954   4.960
 4112SOL    HW113235   4.704   6.981   4.898
 4112SOL    HW213236   4.626   6.854   4.964
 4113SOL     OW13237   4.589   4.441   4.788
 4113SOL    HW113238   4.511   4.501   4.770
 4113SOL    HW213239   4.567   4.348   4.758
 4114SOL     OW13240   6.182   1.454   3.315
 4114SOL    HW113241   6.269   1.429   3.356
 4114SOL    HW213242   6.197   1.506   3.231
 4115SOL     OW13243   2.763   5.125   3.450
 4115SOL    HW113244   2.745   5.135   3.548
 4115SOL    HW213245   2.748   5.030   3.423
 4116SOL     OW13246   5.899   2.779   3.265
 4116SOL    HW113247   5.820   2.730   3.227
 4116SOL    HW213248   5.919   2.744   3.356
 4117SOL     OW13249   1.395   2.418   2.363
 4117SOL    HW113250   1.452   2.422   2.281
 4117SOL    HW213251   1.378   2.510   2.398
 4118SOL     OW13252   6.686   6.270   6.570
 4118SOL    HW113253   6.786   6.263   6.565
 4118SOL    HW213254   6.653   6.323   6.492
 4119SOL     OW13255   2.132   0.823   3.240
 4119SOL    HW113256   2.094   0.867   3.159
 4119SOL    HW213257   2.221   0.863   3.261
 4120SOL     OW13258   2.008   1.440   6.442
 4120SOL    HW113259   1.926   1.483   6.480
 4120SOL    HW213260   1.982   1.376   6.370
 4121SOL     OW13261   0.014   6.794   2.802
 4121SOL    HW113262   7.016   6.768   2.707
 4121SOL    HW213263   0.019   6.711   2.858
 4122SOL     OW13264   0.313   5.688   4.494
 4122SOL    HW113265   0.328   5.776   4.537
 4122SOL    HW213266   0.232   5.693   4.436
 4123SOL     OW13267   3.707   4.965   2.839
 4123SOL    HW113268   3.742   4.907   2.766
 4123SOL    HW213269   3.615   4.935   2.864
 4124SOL     OW13270   6.649   6.370   1.107
 4124SOL    HW113271   6.723   6.431   1.133
 4124SOL    HW213272   6.685   6.278   1.092
 4125SOL     OW13273   5.396   2.373   2.279
 4125SOL    HW113274   5.318   2.413   2.327
 4125SOL    HW213275   5.403   2.411   2.187
 4126SOL     OW13276   1.397   2.898   2.438
 4126SOL    HW113277   1.329   2.970   2.430
 4126SOL    HW213278   1.479   2.934   2.484
 4127SOL     OW13279   3.530   2.093   4.224
 4127SOL    HW113280   3.539   2.094   4.324
 4127SOL    HW213281   3.564   2.005   4.189
 4128SOL     OW13282   0.537   3.510   1.338
 4128SOL    HW113283   0.623   3.460   1.351
 4128SOL    HW213284   0.553   3.589   1.279
 4129SOL     OW13285   2.750   2.974   1.017
 4129SOL    HW113286   2.673   3.038   1.020
 4129SOL    HW213287   2.760   2.939   0.924
 4130SOL     OW13288   6.189   2.934   1.255
 4130SOL    HW113289   6.153   2.935   1.348
 4130SOL    HW213290   6.267   2.871   1.250
 4131SOL     OW13291   4.979   0.475   2.030
 4131SOL    HW113292   4.938   0.385   2.044
 4131SOL    HW213293   5.026   0.504   2.113
 4132SOL     OW13294   6.733   3.993   4.665
 4132SOL    HW113295   6.688   4.069   4.619
 4132SOL    HW213296   6.814   4.026   4.714
 4133SOL     OW13297   6.085   6.707   1.670
 4133SOL    HW113298   6.011   6.644   1.694
 4133SOL    HW213299   6.172   6.659   1.674
 4134SOL     OW13300   2.494   2.971   1.440
 4134SOL    HW113301   2.407   3.017   1.426
 4134SOL    HW213302   2.529   2.993   1.531
 4135SOL     OW13303   0.071   1.670   3.152
 4135SOL    HW113304   0.029   1.605   3.216
 4135SOL    HW213305   0.170   1.655   3.151
 4136SOL     OW13306   0.768   4.224   1.871
 4136SOL    HW113307   0.740   4.247   1.778
 4136SOL    HW213308   0.687   4.219   1.930
 4137SOL     OW13309   1.582   2.633   0.741
 4137SOL    HW113310   1.633   2.668   0.819
 4137SOL    HW213311   1.614   2.541   0.719
 4138SOL     OW13312   4.601   6.382   0.985
 4138SOL    HW113313   4.516   6.429   0.962
 4138SOL    HW213314   4.645   6.428   1.062
 4139SOL     OW13315   1.531   2.094   3.012
 4139SOL    HW113316   1.527   2.193   3.006
 4139SOL    HW213317   1.549   2.056   2.921
 4140SOL     OW13318   2.762   2.251   4.279
 4140SOL    HW113319   2.688   2.276   4.341
 4140SOL    HW213320   2.809   2.170   4.314
 4141SOL     OW13321   3.974   0.067   6.656
 4141SOL    HW113322   4.018   0.019   6.732
 4141SOL    HW213323   3.918   0.004   6.604
 4142SOL     OW13324   0.167   4.159   2.598
 4142SOL    HW113325   0.168   4.248   2.645
 4142SOL    HW213326   0.114   4.094   2.652
 4143SOL     OW13327   5.779   3.435   0.784
 4143SOL    HW113328   5.704   3.388   0.737
 4143SOL    HW213329   5.818   3.374   0.853
 4144SOL     OW13330   5.765   1.765   0.580
 4144SOL    HW113331   5.729   1.835   0.642
 4144SOL    HW213332   5.705   1.756   0.501
 4145SOL     OW13333   0.604   6.340   0.268
 4145SOL    HW113334   0.514   6.371   0.236
 4145SOL    HW213335   0.620   6.373   0.361
 4146SOL     OW13336   5.814   6.437   3.321
 4146SOL    HW113337   5.794   6.383   3.239
 4146SOL    HW213338   5.828   6.533   3.295
 4147SOL     OW13339   4.843   4.270   5.704
 4147SOL    HW113340   4.838   4.181   5.750
 4147SOL    HW213341   4.935   4.307   5.713
 4148SOL     OW13342   2.707   0.652   5.085
 4148SOL    HW113343   2.691   0.751   5.089
 4148SOL    HW213344   2.622   0.603   5.105
 4149SOL     OW13345   1.752   2.746   0.959
 4149SOL    HW113346   1.795   2.658   0.977
 4149SOL    HW213347   1.758   2.803   1.041
 4150SOL     OW13348   6.058   2.643   6.321
 4150SOL    HW113349   6.045   2.560   6.266
 4150SOL    HW213350   6.050   2.723   6.262
 4151SOL     OW13351   1.743   6.945   4.671
 4151SOL    HW113352   1.677   6.885   4.717
 4151SOL    HW213353   1.810   6.978   4.738
 4152SOL     OW13354   3.748   5.594   1.722
 4152SOL    HW113355   3.705   5.520   1.671
 4152SOL    HW213356   3.843   5.605   1.692
 4153SOL     OW13357   6.537   4.890   1.876
 4153SOL    HW113358   6.496   4.893   1.967
 4153SOL    HW213359   6.488   4.954   1.816
 4154SOL     OW13360   0.447   5.879   3.868
 4154SOL    HW113361   0.510   5.803   3.878
 4154SOL    HW213362   0.379   5.857   3.797
 4155SOL     OW13363   1.074   2.229   1.685
 4155SOL    HW113364   1.088   2.259   1.591
 4155SOL    HW213365   1.030   2.140   1.685
 4156SOL     OW13366   6.696   4.589   4.941
 4156SOL    HW113367   6.686   4.637   5.028
 4156SOL    HW213368   6.606   4.581   4.897
 4157SOL     OW13369   6.693   6.810   2.115
 4157SOL    HW113370   6.599   6.778   2.106
 4157SOL    HW213371   6.756   6.735   2.093
 4158SOL     OW13372   1.758   2.724   1.897
 4158SOL    HW113373   1.749   2.645   1.837
 4158SOL    HW213374   1.847   2.768   1.881
 4159SOL     OW13375   2.866   1.675   3.113
 4159SOL    HW113376   2.784   1.660   3.168
 4159SOL    HW213377   2.840   1.700   3.020
 4160SOL     OW13378   6.930   6.696   6.851
 4160SOL    HW113379   6.946   6.789   6.886
 4160SOL    HW213380   6.941   6.695   6.752
 4161SOL     OW13381   2.419   1.808   1.502
 4161SOL    HW113382   2.444   1.779   1.595
 4161SOL    HW213383   2.335   1.861   1.506
 4162SOL     OW13384   6.265   6.017   1.465
 4162SOL    HW113385   6.338   6.038   1.400
 4162SOL    HW213386   6.219   6.101   1.493
 4163SOL     OW13387   4.694   6.619   1.692
 4163SOL    HW113388   4.657   6.650   1.604
 4163SOL    HW213389   4.701   6.519   1.692
 4164SOL     OW13390   0.073   6.015   5.409
 4164SOL    HW113391   0.143   5.959   5.364
 4164SOL    HW213392   0.117   6.079   5.472
 4165SOL     OW13393   3.958   1.074   5.858
 4165SOL    HW113394   3.938   1.128   5.940
 4165SOL    HW213395   3.872   1.045   5.815
 4166SOL     OW13396   5.633   0.607   3.143
 4166SOL    HW113397   5.726   0.574   3.127
 4166SOL    HW213398   5.637   0.691   3.198
 4167SOL     OW13399   2.946   4.934   5.628
 4167SOL    HW113400   2.936   4.842   5.589
 4167SOL    HW213401   3.000   4.929   5.712
 4168SOL     OW13402   6.688   4.671   0.394
 4168SOL    HW113403   6.736   4.618   0.324
 4168SOL    HW213404   6.734   4.658   0.482
 4169SOL     OW13405   5.049   4.074   5.163
 4169SOL    HW113406   5.116   4.032   5.224
 4169SOL    HW213407   5.001   4.003   5.113
 4170SOL     OW13408   4.769   2.953   4.749
 4170SOL    HW113409   4.709   3.024   4.786
 4170SOL    HW213410   4.825   2.914   4.822
 4171SOL     OW13411   1.604   3.727   1.187
 4171SOL    HW113412   1.558   3.699   1.103
 4171SOL    HW213413   1.703   3.724   1.174
 4172SOL     OW13414   3.456   3.412   0.738
 4172SOL    HW113415   3.378   3.384   0.682
 4172SOL    HW213416   3.423   3.449   0.825
 4173SOL     OW13417   4.506   2.813   5.634
 4173SOL    HW113418   4.487   2.719   5.661
 4173SOL    HW213419   4.448   2.875   5.687
 4174SOL     OW13420   4.637   0.138   3.833
 4174SOL    HW113421   4.735   0.140   3.811
 4174SOL    HW213422   4.617   0.210   3.900
 4175SOL     OW13423   1.837   4.731   6.148
 4175SOL    HW113424   1.868   4.669   6.076
 4175SOL    HW213425   1.747   4.768   6.123
 4176SOL     OW13426   5.291   6.127   7.005
 4176SOL    HW113427   5.292   6.040   0.036
 4176SOL    HW213428   5.198   6.162   7.002
 4177SOL     OW13429   5.080   4.652   4.951
 4177SOL    HW113430   5.174   4.660   4.983
 4177SOL    HW213431   5.034   4.741   4.961
 4178SOL     OW13432   4.185   6.755   2.582
 4178SOL    HW113433   4.100   6.734   2.533
 4178SOL    HW213434   4.263   6.723   2.528
 4179SOL     OW13435   5.617   3.150   4.001
 4179SOL    HW113436   5.640   3.094   3.921
 4179SOL    HW213437   5.611   3.092   4.082
 4180SOL     OW13438   5.788   3.658   0.624
 4180SOL    HW113439   5.690   3.662   0.605
 4180SOL    HW213440   5.810   3.572   0.669
 4181SOL     OW13441   5.351   0.331   5.936
 4181SOL    HW113442   5.284   0.369   6.000
 4181SOL    HW213443   5.443   0.358   5.966
 4182SOL     OW13444   0.558   6.068   4.041
 4182SOL    HW113445   0.630   6.059   4.109
 4182SOL    HW213446   0.546   5.981   3.993
 4183SOL     OW13447   2.170   1.098   1.457
 4183SOL    HW113448   2.168   1.174   1.521
 4183SOL    HW213449   2.265   1.070   1.441
 4184SOL     OW13450   3.678   0.526   2.029
 4184SOL    HW113451   3.618   0.596   1.989
 4184SOL    HW213452   3.625   0.445   2.051
 4185SOL     OW13453   0.656   3.642   3.824
 4185SOL    HW113454   0.563   3.667   3.794
 4185SOL    HW213455   0.681   3.553   3.785
 4186SOL     OW13456   2.315   5.814   6.736
 4186SOL    HW113457   2.223   5.777   6.747
 4186SOL    HW213458   2.316   5.880   6.661
 4187SOL     OW13459   2.003   3.538   0.005
 4187SOL    HW113460   1.985   3.440   7.014
 4187SOL    HW213461   2.074   3.566   6.959
 4188SOL     OW13462   5.525   0.853   5.327
 4188SOL    HW113463   5.601   0.916   5.310
 4188SOL    HW213464   5.485   0.825   5.239
 4189SOL     OW13465   4.657   5.414   3.496
 4189SOL    HW113466   4.564   5.449   3.505
 4189SOL    HW213467   4.721   5.475   3.543
 4190SOL     OW13468   0.481   6.411   0.962
 4190SOL    HW113469   0.416   6.337   0.978
 4190SOL    HW213470   0.542   6.420   1.040
 4191SOL     OW13471   5.337   3.729   6.477
 4191SOL    HW113472   5.346   3.818   6.521
 4191SOL    HW213473   5.419   3.675   6.495
 4192SOL     OW13474   0.745   1.668   2.505
 4192SOL    HW113475   0.811   1.672   2.580
 4192SOL    HW213476   0.671   1.734   2.521
 4193SOL     OW13477   5.572   0.331   0.081
 4193SOL    HW113478   5.549   0.295   7.009
 4193SOL    HW213479   5.665   0.305   0.105
 4194SOL     OW13480   4.013   0.532   5.255
 4194SOL    HW113481   4.110   0.537   5.279
 4194SOL    HW213482   4.002   0.477   5.172
 4195SOL     OW13483   4.446   6.760   1.516
 4195SOL    HW113484   4.517   6.739   1.448
 4195SOL    HW213485   4.432   6.681   1.575
 4196SOL     OW13486   0.058   2.578   3.871
 4196SOL    HW113487   0.101   2.582   3.780
 4196SOL    HW213488   0.129   2.588   3.941
 4197SOL     OW13489   4.210   6.181   5.558
 4197SOL    HW113490   4.295   6.182   5.505
 4197SOL    HW213491   4.138   6.139   5.504
 4198SOL     OW13492   6.291   0.439   2.534
 4198SOL    HW113493   6.308   0.486   2.447
 4198SOL    HW213494   6.198   0.460   2.566
 4199SOL     OW13495   1.517   3.435   6.390
 4199SOL    HW113496   1.438   3.491   6.413
 4199SOL    HW213497   1.494   3.338   6.399
 4200SOL     OW13498   3.667   1.041   5.412
 4200SOL    HW113499   3.642   0.954   5.372
 4200SOL    HW213500   3.763   1.061   5.390
 4201SOL     OW13501   6.122   6.667   3.829
 4201SOL    HW113502   6.209   6.702   3.793
 4201SOL    HW213503   6.056   6.661   3.754
 4202SOL     OW13504   3.148   5.387   6.402
 4202SOL    HW113505   3.071   5.400   6.340
 4202SOL    HW213506   3.197   5.474   6.411
 4203SOL     OW13507   4.928   4.831   0.276
 4203SOL    HW113508   4.941   4.854   0.179
 4203SOL    HW213509   4.861   4.757   0.283
 4204SOL     OW13510   3.929   3.377   5.535
 4204SOL    HW113511   3.876   3.360   5.618
 4204SOL    HW213512   3.961   3.472   5.535
 4205SOL     OW13513   3.671   5.406   5.110
 4205SOL    HW113514   3.757   5.436   5.151
 4205SOL    HW213515   3.682   5.402   5.010
 4206SOL     OW13516   0.774   1.187   4.864
 4206SOL    HW113517   0.774   1.154   4.958
 4206SOL    HW213518   0.812   1.118   4.804
 4207SOL     OW13519   2.034   2.377   1.398
 4207SOL    HW113520   1.989   2.456   1.439
 4207SOL    HW213521   2.124   2.403   1.364
 4208SOL     OW13522   0.974   3.862   5.480
 4208SOL    HW113523   0.956   3.840   5.384
 4208SOL    HW213524   1.048   3.804   5.515
 4209SOL     OW13525   6.331   5.604   2.918
 4209SOL    HW113526   6.271   5.579   2.843
 4209SOL    HW213527   6.315   5.700   2.944
 4210SOL     OW13528   3.820   3.046   3.858
 4210SOL    HW113529   3.766   2.978   3.906
 4210SOL    HW213530   3.826   3.022   3.761
 4211SOL     OW13531   3.419   1.606   5.438
 4211SOL    HW113532   3.477   1.666   5.383
 4211SOL    HW213533   3.341   1.659   5.473
 4212SOL     OW13534   6.685   1.495   4.035
 4212SOL    HW113535   6.684   1.403   3.994
 4212SOL    HW213536   6.592   1.519   4.063
 4213SOL     OW13537   2.615   0.823   3.667
 4213SOL    HW113538   2.643   0.736   3.625
 4213SOL    HW213539   2.695   0.869   3.705
 4214SOL     OW13540   0.324   5.780   4.838
 4214SOL    HW113541   0.289   5.847   4.772
 4214SOL    HW213542   0.410   5.742   4.805
 4215SOL     OW13543   4.930   0.221   5.439
 4215SOL    HW113544   4.866   0.278   5.388
 4215SOL    HW213545   4.962   0.272   5.520
 4216SOL     OW13546   1.262   0.951   2.687
 4216SOL    HW113547   1.211   0.865   2.687
 4216SOL    HW213548   1.296   0.970   2.594
 4217SOL     OW13549   1.051   0.024   1.869
 4217SOL    HW113550   1.007   6.986   1.800
 4217SOL    HW213551   1.144   7.009   1.886
 4218SOL     OW13552   3.300   0.827   1.191
 4218SOL    HW113553   3.247   0.903   1.154
 4218SOL    HW213554   3.238   0.754   1.219
 4219SOL     OW13555   4.510   6.472   4.599
 4219SOL    HW113556   4.437   6.439   4.659
 4219SOL    HW213557   4.595   6.424   4.621
 4220SOL     OW13558   5.698   2.472   2.182
 4220SOL    HW113559   5.781   2.527   2.183
 4220SOL    HW213560   5.635   2.508   2.113
 4221SOL     OW13561   6.557   4.576   6.611
 4221SOL    HW113562   6.474   4.566   6.666
 4221SOL    HW213563   6.541   4.538   6.519
 4222SOL     OW13564   5.397   1.688   3.600
 4222SOL    HW113565   5.469   1.734   3.547
 4222SOL    HW213566   5.434   1.661   3.689
 4223SOL     OW13567   3.713   3.717   0.968
 4223SOL    HW113568   3.802   3.688   1.003
 4223SOL    HW213569   3.640   3.681   1.027
 4224SOL     OW13570   5.336   4.567   5.048
 4224SOL    HW113571   5.393   4.576   4.966
 4224SOL    HW213572   5.385   4.515   5.117
 4225SOL     OW13573   1.612   1.794   5.662
 4225SOL    HW113574   1.620   1.893   5.648
 4225SOL    HW213575   1.515   1.770   5.670
 4226SOL     OW13576   1.424   6.396   3.776
 4226SOL    HW113577   1.511   6.357   3.808
 4226SOL    HW213578   1.393   6.346   3.695
 4227SOL     OW13579   4.971   6.005   1.652
 4227SOL    HW113580   4.966   5.906   1.635
 4227SOL    HW213581   4.969   6.053   1.564
 4228SOL     OW13582   0.852   6.207   5.004
 4228SOL    HW113583   0.768   6.225   4.951
 4228SOL    HW213584   0.884   6.293   5.044
 4229SOL     OW13585   4.664   6.110   5.777
 4229SOL    HW113586   4.597   6.051   5.732
 4229SOL    HW213587   4.633   6.134   5.869
 4230SOL     OW13588   0.727   6.434   2.984
 4230SOL    HW113589   0.706   6.437   2.886
 4230SOL    HW213590   0.818   6.395   2.997
 4231SOL     OW13591   4.839   0.473   5.338
 4231SOL    HW113592   4.753   0.503   5.297
 4231SOL    HW213593   4.910   0.468   5.268
 4232SOL     OW13594   2.078   5.647   3.848
 4232SOL    HW113595   2.151   5.677   3.787
 4232SOL    HW213596   2.114   5.640   3.942
 4233SOL     OW13597   0.338   6.848   4.543
 4233SOL    HW113598   0.360   6.943   4.518
 4233SOL    HW213599   0.241   6.831   4.527
 4234SOL     OW13600   2.012   5.206   5.454
 4234SOL    HW113601   2.010   5.268   5.375
 4234SOL    HW213602   1.919   5.188   5.484
 4235SOL     OW13603   6.316   4.889   5.413
 4235SOL    HW113604   6.291   4.955   5.484
 4235SOL    HW213605   6.271   4.913   5.327
 4236SOL     OW13606   0.145   4.606   1.445
 4236SOL    HW113607   0.087   4.526   1.453
 4236SOL    HW213608   0.222   4.598   1.509
 4237SOL     OW13609   6.584   4.009   4.304
 4237SOL    HW113610   6.639   4.068   4.363
 4237SOL    HW213611   6.604   3.913   4.325
 4238SOL     OW13612   0.771   0.856   3.557
 4238SOL    HW113613   0.826   0.939   3.559
 4238SOL    HW213614   0.714   0.855   3.475
 4239SOL     OW13615   4.061   1.241   2.380
 4239SOL    HW113616   4.082   1.335   2.409
 4239SOL    HW213617   3.980   1.242   2.321
 4240SOL     OW13618   2.012   5.030   0.108
 4240SOL    HW113619   2.050   4.975   0.033
 4240SOL    HW213620   2.037   5.126   0.094
 4241SOL     OW13621   5.862   1.433   0.005
 4241SOL    HW113622   5.807   1.440   0.089
 4241SOL    HW213623   5.925   1.510   0.000
 4242SOL     OW13624   2.161   2.052   4.078
 4242SOL    HW113625   2.210   1.987   4.136
 4242SOL    HW213626   2.195   2.145   4.095
 4243SOL     OW13627   4.989   1.704   2.524
 4243SOL    HW113628   4.911   1.685   2.584
 4243SOL    HW213629   4.981   1.797   2.487
 4244SOL     OW13630   3.325   3.937   1.663
 4244SOL    HW113631   3.331   3.840   1.639
 4244SOL    HW213632   3.238   3.974   1.630
 4245SOL     OW13633   6.576   1.835   6.864
 4245SOL    HW113634   6.578   1.913   6.927
 4245SOL    HW213635   6.519   1.857   6.785
 4246SOL     OW13636   6.418   4.169   3.036
 4246SOL    HW113637   6.359   4.175   2.955
 4246SOL    HW213638   6.506   4.212   3.016
 4247SOL     OW13639   0.974   6.241   3.972
 4247SOL    HW113640   0.888   6.247   3.921
 4247SOL    HW213641   1.002   6.332   4.002
 4248SOL     OW13642   2.570   1.774   4.770
 4248SOL    HW113643   2.492   1.798   4.828
 4248SOL    HW213644   2.538   1.748   4.679
 4249SOL     OW13645   6.336   3.118   5.122
 4249SOL    HW113646   6.242   3.085   5.121
 4249SOL    HW213647   6.365   3.138   5.028
 4250SOL     OW13648   0.186   4.533   3.094
 4250SOL    HW113649   0.278   4.500   3.074
 4250SOL    HW213650   0.132   4.535   3.010
 4251SOL     OW13651   6.009   5.215   0.081
 4251SOL    HW113652   5.915   5.225   0.049
 4251SOL    HW213653   6.009   5.189   0.178
 4252SOL     OW13654   6.586   6.541   5.258
 4252SOL    HW113655   6.663   6.525   5.320
 4252SOL    HW213656   6.615   6.530   5.164
 4253SOL     OW13657   2.567   0.324   1.891
 4253SOL    HW113658   2.616   0.367   1.967
 4253SOL    HW213659   2.553   0.390   1.818
 4254SOL     OW13660   0.849   2.890   1.582
 4254SOL    HW113661   0.802   2.821   1.636
 4254SOL    HW213662   0.788   2.968   1.566
 4255SOL     OW13663   5.989   2.635   3.515
 4255SOL    HW113664   6.045   2.577   3.575
 4255SOL    HW213665   5.971   2.722   3.561
 4256SOL     OW13666   1.472   6.483   0.711
 4256SOL    HW113667   1.536   6.528   0.774
 4256SOL    HW213668   1.415   6.419   0.763
 4257SOL     OW13669   3.780   0.660   5.177
 4257SOL    HW113670   3.855   0.607   5.217
 4257SOL    HW213671   3.815   0.750   5.149
 4258SOL     OW13672   5.910   6.568   1.820
 4258SOL    HW113673   5.853   6.575   1.902
 4258SOL    HW213674   5.855   6.530   1.746
 4259SOL     OW13675   3.132   0.685   6.618
 4259SOL    HW113676   3.184   0.675   6.702
 4259SOL    HW213677   3.056   0.619   6.618
 4260SOL     OW13678   5.234   5.992   4.177
 4260SOL    HW113679   5.276   6.083   4.168
 4260SOL    HW213680   5.257   5.953   4.265
 4261SOL     OW13681   1.755   0.687   2.105
 4261SOL    HW113682   1.844   0.671   2.148
 4261SOL    HW213683   1.763   0.762   2.039
 4262SOL     OW13684   1.058   4.772   5.283
 4262SOL    HW113685   1.136   4.725   5.240
 4262SOL    HW213686   1.092   4.848   5.338
 4263SOL     OW13687   2.628   6.415   3.683
 4263SOL    HW113688   2.578   6.491   3.642
 4263SOL    HW213689   2.662   6.441   3.773
 4264SOL     OW13690   6.832   1.890   2.282
 4264SOL    HW113691   6.738   1.916   2.303
 4264SOL    HW213692   6.867   1.948   2.208
 4265SOL     OW13693   5.440   1.620   6.989
 4265SOL    HW113694   5.491   1.658   0.047
 4265SOL    HW213695   5.497   1.624   6.907
 4266SOL     OW13696   2.341   5.361   0.744
 4266SOL    HW113697   2.434   5.374   0.779
 4266SOL    HW213698   2.326   5.265   0.723
 4267SOL     OW13699   2.198   3.926   4.697
 4267SOL    HW113700   2.233   3.988   4.627
 4267SOL    HW213701   2.230   3.956   4.787
 4268SOL     OW13702   1.959   7.005   6.877
 4268SOL    HW113703   2.052   6.972   6.890
 4268SOL    HW213704   1.916   0.003   6.966
 4269SOL     OW13705   2.002   1.358   0.738
 4269SOL    HW113706   1.992   1.268   0.695
 4269SOL    HW213707   1.990   1.429   0.669
 4270SOL     OW13708   2.948   3.491   3.545
 4270SOL    HW113709   2.961   3.546   3.463
 4270SOL    HW213710   2.929   3.396   3.519
 4271SOL     OW13711   0.261   0.557   5.978
 4271SOL    HW113712   0.192   0.617   5.939
 4271SOL    HW213713   0.228   0.463   5.978
 4272SOL     OW13714   0.486   4.767   4.999
 4272SOL    HW113715   0.511   4.722   5.085
 4272SOL    HW213716   0.505   4.865   5.005
 4273SOL     OW13717   4.740   6.353   3.722
 4273SOL    HW113718   4.823   6.359   3.668
 4273SOL    HW213719   4.702   6.445   3.735
 4274SOL     OW13720   0.980   0.115   2.763
 4274SOL    HW113721   0.952   0.047   2.696
 4274SOL    HW213722   0.903   0.176   2.783
 4275SOL     OW13723   0.098   1.865   5.961
 4275SOL    HW113724   0.180   1.892   6.011
 4275SOL    HW213725   0.055   1.787   6.006
 4276SOL     OW13726   1.481   4.865   2.842
 4276SOL    HW113727   1.518   4.956   2.861
 4276SOL    HW213728   1.401   4.848   2.900
 4277SOL     OW13729   6.869   4.618   3.972
 4277SOL    HW113730   6.929   4.689   4.007
 4277SOL    HW213731   6.837   4.561   4.048
 4278SOL     OW13732   0.103   0.765   5.015
 4278SOL    HW113733   0.095   0.755   4.916
 4278SOL    HW213734   0.152   0.849   5.036
 4279SOL     OW13735   3.347   6.057   5.523
 4279SOL    HW113736   3.430   6.035   5.575
 4279SOL    HW213737   3.357   6.148   5.482
 4280SOL     OW13738   4.806   1.362   5.576
 4280SOL    HW113739   4.779   1.278   5.528
 4280SOL    HW213740   4.904   1.378   5.563
 4281SOL     OW13741   2.426   4.840   4.385
 4281SOL    HW113742   2.507   4.782   4.386
 4281SOL    HW213743   2.351   4.794   4.431
 4282SOL     OW13744   2.485   2.491   6.882
 4282SOL    HW113745   2.546   2.480   6.960
 4282SOL    HW213746   2.490   2.585   6.848
 4283SOL     OW13747   1.831   0.486   3.934
 4283SOL    HW113748   1.863   0.552   4.002
 4283SOL    HW213749   1.808   0.534   3.849
 4284SOL     OW13750   5.247   6.101   1.803
 4284SOL    HW113751   5.220   6.197   1.804
 4284SOL    HW213752   5.224   6.061   1.713
 4285SOL     OW13753   0.435   0.128   5.982
 4285SOL    HW113754   0.452   0.173   6.070
 4285SOL    HW213755   0.522   0.117   5.934
 4286SOL     OW13756   5.045   5.414   6.758
 4286SOL    HW113757   5.109   5.489   6.746
 4286SOL    HW213758   5.068   5.340   6.694
 4287SOL     OW13759   6.146   0.594   5.978
 4287SOL    HW113760   6.212   0.645   5.922
 4287SOL    HW213761   6.117   0.512   5.930
 4288SOL     OW13762   0.722   5.899   3.333
 4288SOL    HW113763   0.702   5.830   3.264
 4288SOL    HW213764   0.813   5.937   3.317
 4289SOL     OW13765   6.020   3.319   1.254
 4289SOL    HW113766   5.958   3.262   1.309
 4289SOL    HW213767   6.114   3.303   1.283
 4290SOL     OW13768   2.104   6.561   1.248
 4290SOL    HW113769   2.091   6.589   1.153
 4290SOL    HW213770   2.054   6.624   1.308
 4291SOL     OW13771   4.649   3.492   1.641
 4291SOL    HW113772   4.694   3.578   1.619
 4291SOL    HW213773   4.554   3.509   1.667
 4292SOL     OW13774   6.526   4.404   5.601
 4292SOL    HW113775   6.505   4.311   5.572
 4292SOL    HW213776   6.467   4.429   5.679
 4293SOL     OW13777   0.222   3.845   7.000
 4293SOL    HW113778   0.167   3.926   7.018
 4293SOL    HW213779   0.167   3.777   6.952
 4294SOL     OW13780   4.321   3.048   0.333
 4294SOL    HW113781   4.316   3.147   0.322
 4294SOL    HW213782   4.411   3.023   0.367
 4295SOL     OW13783   3.644   6.324   4.950
 4295SOL    HW113784   3.611   6.361   5.036
 4295SOL    HW213785   3.574   6.337   4.879
 4296SOL     OW13786   2.967   1.809   6.945
 4296SOL    HW113787   2.884   1.803   7.000
 4296SOL    HW213788   3.046   1.823   7.005
 4297SOL     OW13789   5.272   0.512   5.756
 4297SOL    HW113790   5.202   0.564   5.805
 4297SOL    HW213791   5.297   0.431   5.809
 4298SOL     OW13792   1.983   5.463   6.678
 4298SOL    HW113793   2.005   5.404   6.600
 4298SOL    HW213794   1.901   5.516   6.657
 4299SOL     OW13795   0.873   2.666   0.162
 4299SOL    HW113796   0.900   2.666   0.258
 4299SOL    HW213797   0.785   2.713   0.153
 4300SOL     OW13798   2.846   1.314   6.305
 4300SOL    HW113799   2.930   1.365   6.326
 4300SOL    HW213800   2.820   1.259   6.384
 4301SOL     OW13801   2.204   1.310   0.350
 4301SOL    HW113802   2.233   1.406   0.346
 4301SOL    HW213803   2.138   1.293   0.277
 4302SOL     OW13804   0.851   6.371   5.399
 4302SOL    HW113805   0.870   6.460   5.357
 4302SOL    HW213806   0.758   6.342   5.377
 4303SOL     OW13807   6.195   4.433   3.894
 4303SOL    HW113808   6.236   4.521   3.918
 4303SOL    HW213809   6.189   4.376   3.976
 4304SOL     OW13810   2.951   3.807   4.162
 4304SOL    HW113811   2.933   3.904   4.176
 4304SOL    HW213812   2.913   3.778   4.074
 4305SOL     OW13813   6.023   1.382   3.688
 4305SOL    HW113814   5.984   1.474   3.694
 4305SOL    HW213815   6.119   1.385   3.716
 4306SOL     OW13816   6.972   3.744   6.560
 4306SOL    HW113817   0.026   3.747   6.491
 4306SOL    HW213818   6.910   3.668   6.540
 4307SOL     OW13819   4.712   4.341   6.203
 4307SOL    HW113820   4.774   4.264   6.187
 4307SOL    HW213821   4.739   4.417   6.144
 4308SOL     OW13822   5.486   5.815   6.054
 4308SOL    HW113823   5.517   5.784   6.144
 4308SOL    HW213824   5.545   5.889   6.022
 4309SOL     OW13825   0.885   0.320   0.053
 4309SOL    HW113826   0.849   0.384   0.122
 4309SOL    HW213827   0.829   0.325   6.990
 4310SOL     OW13828   1.909   2.167   3.624
 4310SOL    HW113829   1.972   2.187   3.548
 4310SOL    HW213830   1.962   2.147   3.706
 4311SOL     OW13831   1.228   5.330   2.976
 4311SOL    HW113832   1.139   5.332   3.022
 4311SOL    HW213833   1.293   5.276   3.031
 4312SOL     OW13834   1.922   5.370   1.669
 4312SOL    HW113835   1.927   5.275   1.700
 4312SOL    HW213836   1.969   5.379   1.581
 4313SOL     OW13837   5.223   1.532   2.163
 4313SOL    HW113838   5.141   1.579   2.131
 4313SOL    HW213839   5.217   1.518   2.261
 4314SOL     OW13840   5.326   2.565   3.514
 4314SOL    HW113841   5.388   2.486   3.508
 4314SOL    HW213842   5.248   2.550   3.454
 4315SOL     OW13843   1.622   1.010   2.179
 4315SOL    HW113844   1.559   0.933   2.171
 4315SOL    HW213845   1.572   1.091   2.210
 4316SOL     OW13846   5.053   0.261   1.085
 4316SOL    HW113847   5.061   0.262   1.185
 4316SOL    HW213848   4.959   0.285   1.060
 4317SOL     OW13849   3.111   0.968   4.627
 4317SOL    HW113850   3.110   1.018   4.540
 4317SOL    HW213851   3.118   0.870   4.610
 4318SOL     OW13852   0.976   3.519   3.484
 4318SOL    HW113853   1.038   3.452   3.443
 4318SOL    HW213854   0.900   3.537   3.421
 4319SOL     OW13855   2.618   2.624   0.335
 4319SOL    HW113856   2.608   2.723   0.342
 4319SOL    HW213857   2.630   2.585   0.427
 4320SOL     OW13858   1.358   6.009   1.835
 4320SOL    HW113859   1.337   5.973   1.744
 4320SOL    HW213860   1.316   5.952   1.904
 4321SOL     OW13861   6.668   0.073   4.337
 4321SOL    HW113862   6.698   0.152   4.390
 4321SOL    HW213863   6.576   0.047   4.365
 4322SOL     OW13864   6.005   0.994   6.907
 4322SOL    HW113865   6.089   1.043   6.931
 4322SOL    HW213866   5.933   1.017   6.973
 4323SOL     OW13867   5.596   3.811   2.208
 4323SOL    HW113868   5.586   3.717   2.174
 4323SOL    HW213869   5.576   3.875   2.134
 4324SOL     OW13870   5.392   4.746   6.795
 4324SOL    HW113871   5.400   4.733   6.894
 4324SOL    HW213872   5.307   4.705   6.763
 4325SOL     OW13873   0.924   0.893   6.901
 4325SOL    HW113874   0.852   0.957   6.876
 4325SOL    HW213875   0.989   0.884   6.825
 4326SOL     OW13876   6.132   2.732   5.235
 4326SOL    HW113877   6.171   2.656   5.288
 4326SOL    HW213878   6.063   2.778   5.291
 4327SOL     OW13879   6.157   5.279   2.617
 4327SOL    HW113880   6.086   5.275   2.548
 4327SOL    HW213881   6.135   5.216   2.692
 4328SOL     OW13882   5.148   4.292   6.185
 4328SOL    HW113883   5.115   4.313   6.277
 4328SOL    HW213884   5.145   4.374   6.129
 4329SOL     OW13885   3.173   1.833   6.258
 4329SOL    HW113886   3.217   1.750   6.292
 4329SOL    HW213887   3.209   1.855   6.167
 4330SOL     OW13888   3.102   0.564   5.152
 4330SOL    HW113889   3.123   0.468   5.138
 4330SOL    HW213890   3.015   0.573   5.201
 4331SOL     OW13891   5.047   3.304   1.351
 4331SOL    HW113892   5.114   3.319   1.424
 4331SOL    HW213893   4.957   3.335   1.381
 4332SOL     OW13894   5.667   4.351   2.451
 4332SOL    HW113895   5.710   4.391   2.370
 4332SOL    HW213896   5.711   4.263   2.472
 4333SOL     OW13897   4.641   1.645   5.042
 4333SOL    HW113898   4.596   1.589   5.111
 4333SOL    HW213899   4.572   1.689   4.985
 4334SOL     OW13900   2.803   1.956   2.306
 4334SOL    HW113901   2.769   1.881   2.249
 4334SOL    HW213902   2.805   2.041   2.252
 4335SOL     OW13903   3.479   4.096   3.404
 4335SOL    HW113904   3.559   4.039   3.384
 4335SOL    HW213905   3.505   4.168   3.469
 4336SOL     OW13906   1.030   6.839   5.591
 4336SOL    HW113907   1.112   6.821   5.535
 4336SOL    HW213908   1.011   6.759   5.648
 4337SOL     OW13909   1.290   4.748   0.166
 4337SOL    HW113910   1.334   4.826   0.122
 4337SOL    HW213911   1.352   4.710   0.235
 4338SOL     OW13912   4.706   5.791   4.579
 4338SOL    HW113913   4.656   5.716   4.624
 4338SOL    HW213914   4.641   5.858   4.545
 4339SOL     OW13915   5.517   3.306   5.215
 4339SOL    HW113916   5.449   3.251   5.167
 4339SOL    HW213917   5.573   3.356   5.148
 4340SOL     OW13918   6.077   4.319   2.985
 4340SOL    HW113919   6.105   4.351   2.895
 4340SOL    HW213920   6.008   4.381   3.023
 4341SOL     OW13921   0.744   4.824   1.646
 4341SOL    HW113922   0.758   4.899   1.710
 4341SOL    HW213923   0.800   4.746   1.673
 4342SOL     OW13924   6.840   2.718   4.505
 4342SOL    HW113925   6.928   2.671   4.508
 4342SOL    HW213926   6.778   2.671   4.442
 4343SOL     OW13927   2.372   6.601   6.298
 4343SOL    HW113928   2.378   6.512   6.253
 4343SOL    HW213929   2.281   6.613   6.337
 4344SOL     OW13930   2.181   5.436   2.951
 4344SOL    HW113931   2.230   5.473   2.872
 4344SOL    HW213932   2.180   5.504   3.024
 4345SOL     OW13933   2.209   2.907   5.630
 4345SOL    HW113934   2.119   2.889   5.671
 4345SOL    HW213935   2.209   2.997   5.587
 4346SOL     OW13936   2.123   3.079   1.824
 4346SOL    HW113937   2.143   3.177   1.829
 4346SOL    HW213938   2.166   3.032   1.901
 4347SOL     OW13939   6.447   0.858   2.016
 4347SOL    HW113940   6.375   0.884   1.951
 4347SOL    HW213941   6.486   0.770   1.989
 4348SOL     OW13942   0.632   3.097   2.346
 4348SOL    HW113943   0.631   3.136   2.439
 4348SOL    HW213944   0.612   3.169   2.280
 4349SOL     OW13945   6.931   2.047   3.211
 4349SOL    HW113946   6.893   1.968   3.259
 4349SOL    HW213947   6.990   2.014   3.137
 4350SOL     OW13948   5.205   1.944   4.210
 4350SOL    HW113949   5.265   1.872   4.245
 4350SOL    HW213950   5.131   1.903   4.158
 4351SOL     OW13951   2.161   6.233   0.988
 4351SOL    HW113952   2.114   6.166   0.931
 4351SOL    HW213953   2.177   6.316   0.935
 4352SOL     OW13954   1.065   2.499   1.751
 4352SOL    HW113955   1.078   2.402   1.732
 4352SOL    HW213956   1.124   2.553   1.691
 4353SOL     OW13957   3.215   4.900   0.602
 4353SOL    HW113958   3.134   4.956   0.584
 4353SOL    HW213959   3.293   4.936   0.550
 4354SOL     OW13960   2.353   6.601   5.897
 4354SOL    HW113961   2.452   6.607   5.894
 4354SOL    HW213962   2.324   6.506   5.886
 4355SOL     OW13963   3.505   7.005   1.778
 4355SOL    HW113964   3.497   6.915   1.821
 4355SOL    HW213965   3.439   7.013   1.704
 4356SOL     OW13966   4.823   3.989   1.866
 4356SOL    HW113967   4.883   4.056   1.823
 4356SOL    HW213968   4.745   3.970   1.805
 4357SOL     OW13969   6.314   0.029   6.970
 4357SOL    HW113970   6.370   0.103   6.932
 4357SOL    HW213971   6.361   6.960   6.957
 4358SOL     OW13972   6.708   6.275   0.748
 4358SOL    HW113973   6.724   6.246   0.654
 4358SOL    HW213974   6.783   6.333   0.779
 4359SOL     OW13975   1.497   1.951   5.214
 4359SOL    HW113976   1.583   1.906   5.240
 4359SOL    HW213977   1.482   1.938   5.115
 4360SOL     OW13978   1.928   3.025   2.762
 4360SOL    HW113979   1.878   3.105   2.728
 4360SOL    HW213980   2.023   3.051   2.780
 4361SOL     OW13981   2.999   2.676   1.726
 4361SOL    HW113982   2.958   2.609   1.787
 4361SOL    HW213983   2.988   2.645   1.631
 4362SOL     OW13984   6.184   3.563   4.546
 4362SOL    HW113985   6.242   3.609   4.479
 4362SOL    HW213986   6.185   3.464   4.530
 4363SOL     OW13987   4.993   2.276   5.779
 4363SOL    HW113988   5.007   2.182   5.811
 4363SOL    HW213989   5.042   2.339   5.839
 4364SOL     OW13990   3.091   3.781   5.382
 4364SOL    HW113991   3.005   3.738   5.409
 4364SOL    HW213992   3.072   3.868   5.337
 4365SOL     OW13993   2.787   1.122   2.095
 4365SOL    HW113994   2.846   1.124   2.014
 4365SOL    HW213995   2.733   1.206   2.100
 4366SOL     OW13996   5.612   6.855   0.351
 4366SOL    HW113997   5.687   6.912   0.318
 4366SOL    HW213998   5.609   6.770   0.299
 4367SOL     OW13999   1.469   4.869   5.340
 4367SOL    HW114000   1.390   4.894   5.396
 4367SOL    HW214001   1.439   4.813   5.263
 4368SOL     OW14002   4.153   5.277   1.138
 4368SOL    HW114003   4.202   5.240   1.217
 4368SOL    HW214004   4.146   5.207   1.067
 4369SOL     OW14005   4.411   5.284   2.627
 4369SOL    HW114006   4.375   5.193   2.607
 4369SOL    HW214007   4.465   5.280   2.711
 4370SOL     OW14008   4.941   4.713   2.850
 4370SOL    HW114009   4.855   4.692   2.896
 4370SOL    HW214010   5.016   4.667   2.896
 4371SOL     OW14011   6.314   0.770   1.769
 4371SOL    HW114012   6.269   0.838   1.711
 4371SOL    HW214013   6.373   0.712   1.713
 4372SOL     OW14014   4.122   1.164   2.634
 4372SOL    HW114015   4.145   1.177   2.537
 4372SOL    HW214016   4.082   1.247   2.670
 4373SOL     OW14017   0.093   2.928   6.902
 4373SOL    HW114018   0.061   2.981   6.824
 4373SOL    HW214019   0.188   2.953   6.922
 4374SOL     OW14020   0.841   1.909   1.945
 4374SOL    HW114021   0.780   1.839   1.981
 4374SOL    HW214022   0.824   1.921   1.847
 4375SOL     OW14023   3.364   0.047   4.273
 4375SOL    HW114024   3.398   7.011   4.350
 4375SOL    HW214025   3.301   7.011   4.219
 4376SOL     OW14026   6.914   0.256   2.620
 4376SOL    HW114027   6.967   0.284   2.539
 4376SOL    HW214028   6.830   0.210   2.590
 4377SOL     OW14029   6.189   3.927   0.399
 4377SOL    HW114030   6.098   3.948   0.366
 4377SOL    HW214031   6.183   3.877   0.486
 4378SOL     OW14032   1.786   1.640   2.719
 4378SOL    HW114033   1.821   1.548   2.733
 4378SOL    HW214034   1.766   1.682   2.808
 4379SOL     OW14035   2.832   1.363   3.936
 4379SOL    HW114036   2.866   1.323   4.021
 4379SOL    HW214037   2.780   1.446   3.956
 4380SOL     OW14038   1.314   0.468   1.810
 4380SOL    HW114039   1.355   0.559   1.803
 4380SOL    HW214040   1.371   0.402   1.761
 4381SOL     OW14041   0.965   5.802   4.946
 4381SOL    HW114042   0.887   5.810   5.008
 4381SOL    HW214043   1.021   5.885   4.953
 4382SOL     OW14044   6.794   3.223   6.097
 4382SOL    HW114045   6.795   3.196   6.001
 4382SOL    HW214046   6.887   3.215   6.134
 4383SOL     OW14047   6.742   4.134   6.327
 4383SOL    HW114048   6.645   4.149   6.345
 4383SOL    HW214049   6.752   4.063   6.257
 4384SOL     OW14050   5.732   0.967   3.641
 4384SOL    HW114051   5.636   0.943   3.625
 4384SOL    HW214052   5.737   1.059   3.680
 4385SOL     OW14053   4.439   2.332   5.085
 4385SOL    HW114054   4.350   2.334   5.040
 4385SOL    HW214055   4.451   2.416   5.138
 4386SOL     OW14056   1.456   3.795   5.354
 4386SOL    HW114057   1.485   3.853   5.430
 4386SOL    HW214058   1.535   3.745   5.318
 4387SOL     OW14059   6.594   2.846   1.722
 4387SOL    HW114060   6.675   2.904   1.717
 4387SOL    HW214061   6.559   2.830   1.629
 4388SOL     OW14062   4.553   2.317   5.918
 4388SOL    HW114063   4.465   2.294   5.877
 4388SOL    HW214064   4.588   2.237   5.968
 4389SOL     OW14065   6.607   3.491   0.904
 4389SOL    HW114066   6.651   3.406   0.935
 4389SOL    HW214067   6.644   3.568   0.956
 4390SOL     OW14068   4.832   0.083   1.326
 4390SOL    HW114069   4.835   0.083   1.426
 4390SOL    HW214070   4.903   0.022   1.290
 4391SOL     OW14071   2.916   4.773   6.211
 4391SOL    HW114072   2.977   4.816   6.145
 4391SOL    HW214073   2.846   4.839   6.240
 4392SOL     OW14074   0.928   1.414   4.917
 4392SOL    HW114075   0.959   1.483   4.852
 4392SOL    HW214076   0.876   1.343   4.868
 4393SOL     OW14077   6.693   0.949   2.104
 4393SOL    HW114078   6.760   0.917   2.037
 4393SOL    HW214079   6.604   0.908   2.084
 4394SOL     OW14080   1.052   6.454   1.667
 4394SOL    HW114081   1.098   6.387   1.608
 4394SOL    HW214082   1.116   6.526   1.693
 4395SOL     OW14083   1.886   0.492   1.403
 4395SOL    HW114084   1.956   0.426   1.375
 4395SOL    HW214085   1.917   0.585   1.380
 4396SOL     OW14086   1.734   1.964   4.238
 4396SOL    HW114087   1.767   2.019   4.315
 4396SOL    HW214088   1.811   1.944   4.177
 4397SOL     OW14089   1.960   3.122   4.423
 4397SOL    HW114090   1.897   3.063   4.373
 4397SOL    HW214091   1.914   3.159   4.504
 4398SOL     OW14092   1.789   3.224   6.750
 4398SOL    HW114093   1.750   3.301   6.699
 4398SOL    HW214094   1.875   3.251   6.792
 4399SOL     OW14095   2.250   6.513   1.765
 4399SOL    HW114096   2.346   6.510   1.735
 4399SOL    HW214097   2.231   6.434   1.824
 4400SOL     OW14098   2.287   6.789   3.558
 4400SOL    HW114099   2.241   6.702   3.538
 4400SOL    HW214100   2.378   6.771   3.594
 4401SOL     OW14101   4.140   6.438   4.988
 4401SOL    HW114102   4.052   6.484   4.988
 4401SOL    HW214103   4.131   6.349   5.033
 4402SOL     OW14104   0.438   0.384   2.697
 4402SOL    HW114105   0.454   0.477   2.662
 4402SOL    HW214106   0.346   0.379   2.737
 4403SOL     OW14107   1.524   6.416   1.093
 4403SOL    HW114108   1.603   6.477   1.096
 4403SOL    HW214109   1.548   6.333   1.043
 4404SOL     OW14110   1.229   5.766   5.243
 4404SOL    HW114111   1.143   5.807   5.275
 4404SOL    HW214112   1.237   5.674   5.281
 4405SOL     OW14113   2.205   4.829   2.739
 4405SOL    HW114114   2.123   4.799   2.787
 4405SOL    HW214115   2.247   4.752   2.692
 4406SOL     OW14116   6.756   3.300   1.039
 4406SOL    HW114117   6.735   3.216   0.990
 4406SOL    HW214118   6.784   3.278   1.133
 4407SOL     OW14119   0.169   5.381   0.570
 4407SOL    HW114120   0.163   5.282   0.551
 4407SOL    HW214121   0.263   5.411   0.559
 4408SOL     OW14122   3.012   6.093   6.578
 4408SOL    HW114123   2.974   6.071   6.488
 4408SOL    HW214124   2.942   6.140   6.633
 4409SOL     OW14125   4.412   1.136   1.418
 4409SOL    HW114126   4.492   1.187   1.448
 4409SOL    HW214127   4.330   1.193   1.426
 4410SOL     OW14128   6.620   5.866   0.513
 4410SOL    HW114129   6.627   5.766   0.503
 4410SOL    HW214130   6.665   5.894   0.598
 4411SOL     OW14131   3.539   4.715   5.504
 4411SOL    HW114132   3.460   4.776   5.494
 4411SOL    HW214133   3.609   4.740   5.438
 4412SOL     OW14134   5.054   6.660   4.332
 4412SOL    HW114135   5.075   6.569   4.296
 4412SOL    HW214136   5.129   6.723   4.309
 4413SOL     OW14137   4.691   6.158   3.957
 4413SOL    HW114138   4.753   6.198   3.889
 4413SOL    HW214139   4.663   6.067   3.927
 4414SOL     OW14140   4.417   5.626   1.472
 4414SOL    HW114141   4.502   5.678   1.483
 4414SOL    HW214142   4.375   5.612   1.561
 4415SOL     OW14143   3.685   3.636   0.667
 4415SOL    HW114144   3.638   3.549   0.651
 4415SOL    HW214145   3.769   3.620   0.719
 4416SOL     OW14146   4.042   1.228   4.264
 4416SOL    HW114147   4.129   1.261   4.299
 4416SOL    HW214148   4.023   1.271   4.175
 4417SOL     OW14149   6.608   2.699   4.326
 4417SOL    HW114150   6.556   2.781   4.301
 4417SOL    HW214151   6.556   2.617   4.301
 4418SOL     OW14152   5.877   1.827   2.104
 4418SOL    HW114153   5.813   1.896   2.073
 4418SOL    HW214154   5.837   1.776   2.181
 4419SOL     OW14155   6.361   0.092   6.108
 4419SOL    HW114156   6.400   0.089   6.016
 4419SOL    HW214157   6.262   0.099   6.102
 4420SOL     OW14158   3.449   1.643   0.930
 4420SOL    HW114159   3.357   1.681   0.919
 4420SOL    HW214160   3.517   1.715   0.918
 4421SOL     OW14161   1.656   2.308   5.379
 4421SOL    HW114162   1.575   2.260   5.348
 4421SOL    HW214163   1.643   2.407   5.367
 4422SOL     OW14164   1.055   4.789   6.963
 4422SOL    HW114165   1.098   4.852   0.008
 4422SOL    HW214166   1.095   4.801   6.872
 4423SOL     OW14167   6.376   4.799   5.879
 4423SOL    HW114168   6.300   4.740   5.907
 4423SOL    HW214169   6.355   4.841   5.791
 4424SOL     OW14170   5.595   6.136   4.760
 4424SOL    HW114171   5.581   6.046   4.718
 4424SOL    HW214172   5.693   6.150   4.776
 4425SOL     OW14173   1.772   5.556   1.006
 4425SOL    HW114174   1.680   5.585   1.032
 4425SOL    HW214175   1.816   5.629   0.954
 4426SOL     OW14176   0.850   0.748   3.848
 4426SOL    HW114177   0.793   0.665   3.846
 4426SOL    HW214178   0.922   0.741   3.779
 4427SOL     OW14179   4.088   6.036   2.470
 4427SOL    HW114180   4.017   6.105   2.489
 4427SOL    HW214181   4.045   5.946   2.463
 4428SOL     OW14182   5.079   0.936   4.469
 4428SOL    HW114183   5.066   0.939   4.568
 4428SOL    HW214184   5.166   0.979   4.446
 4429SOL     OW14185   2.726   6.663   2.736
 4429SOL    HW114186   2.793   6.717   2.685
 4429SOL    HW214187   2.742   6.566   2.720
 4430SOL     OW14188   5.651   5.206   4.470
 4430SOL    HW114189   5.740   5.160   4.470
 4430SOL    HW214190   5.640   5.256   4.384
 4431SOL     OW14191   2.997   0.639   3.697
 4431SOL    HW114192   2.914   0.647   3.751
 4431SOL    HW214193   3.076   0.660   3.754
 4432SOL     OW14194   2.107   3.206   6.376
 4432SOL    HW114195   2.057   3.167   6.453
 4432SOL    HW214196   2.058   3.286   6.341
 4433SOL     OW14197   0.442   2.391   4.732
 4433SOL    HW114198   0.423   2.308   4.679
 4433SOL    HW214199   0.357   2.443   4.742
 4434SOL     OW14200   5.488   1.654   2.118
 4434SOL    HW114201   5.480   1.703   2.031
 4434SOL    HW214202   5.418   1.583   2.123
 4435SOL     OW14203   3.985   3.672   1.105
 4435SOL    HW114204   3.967   3.691   1.202
 4435SOL    HW214205   4.052   3.598   1.098
 4436SOL     OW14206   3.565   1.460   1.174
 4436SOL    HW114207   3.521   1.462   1.263
 4436SOL    HW214208   3.503   1.421   1.106
 4437SOL     OW14209   0.834   3.357   2.977
 4437SOL    HW114210   0.797   3.336   3.068
 4437SOL    HW214211   0.862   3.272   2.932
 4438SOL     OW14212   4.612   6.980   5.497
 4438SOL    HW114213   4.709   6.958   5.510
 4438SOL    HW214214   4.603   0.054   5.461
 4439SOL     OW14215   1.151   4.780   2.882
 4439SOL    HW114216   1.126   4.868   2.842
 4439SOL    HW214217   1.168   4.792   2.980
 4440SOL     OW14218   2.660   4.430   1.358
 4440SOL    HW114219   2.599   4.353   1.378
 4440SOL    HW214220   2.751   4.412   1.395
 4441SOL     OW14221   6.845   1.539   1.140
 4441SOL    HW114222   6.902   1.503   1.067
 4441SOL    HW214223   6.901   1.552   1.222
 4442SOL     OW14224   1.276   5.128   5.842
 4442SOL    HW114225   1.288   5.164   5.749
 4442SOL    HW214226   1.196   5.171   5.884
 4443SOL     OW14227   0.625   4.454   6.177
 4443SOL    HW114228   0.681   4.433   6.097
 4443SOL    HW214229   0.681   4.502   6.245
 4444SOL     OW14230   4.479   4.011   0.267
 4444SOL    HW114231   4.395   3.990   0.217
 4444SOL    HW214232   4.479   3.961   0.354
 4445SOL     OW14233   1.444   5.440   0.228
 4445SOL    HW114234   1.504   5.482   0.160
 4445SOL    HW214235   1.349   5.463   0.208
 4446SOL     OW14236   5.796   1.689   0.237
 4446SOL    HW114237   5.895   1.683   0.232
 4446SOL    HW214238   5.760   1.729   0.153
 4447SOL     OW14239   5.884   4.300   5.235
 4447SOL    HW114240   5.901   4.225   5.299
 4447SOL    HW214241   5.801   4.349   5.262
 4448SOL     OW14242   2.727   6.913   1.036
 4448SOL    HW114243   2.802   6.868   1.084
 4448SOL    HW214244   2.647   6.916   1.096
 4449SOL     OW14245   4.431   1.160   6.713
 4449SOL    HW114246   4.514   1.185   6.763
 4449SOL    HW214247   4.380   1.091   6.765
 4450SOL     OW14248   2.940   1.532   6.826
 4450SOL    HW114249   3.021   1.479   6.805
 4450SOL    HW214250   2.966   1.626   6.847
 4451SOL     OW14251   4.568   4.867   4.369
 4451SOL    HW114252   4.606   4.953   4.336
 4451SOL    HW214253   4.484   4.847   4.320
 4452SOL     OW14254   6.258   6.094   4.746
 4452SOL    HW114255   6.226   6.185   4.720
 4452SOL    HW214256   6.316   6.057   4.674
 4453SOL     OW14257   1.333   2.967   1.900
 4453SOL    HW114258   1.237   2.989   1.916
 4453SOL    HW214259   1.366   2.906   1.971
 4454SOL     OW14260   0.614   1.523   0.111
 4454SOL    HW114261   0.687   1.474   0.062
 4454SOL    HW214262   0.583   1.468   0.188
 4455SOL     OW14263   5.620   5.609   5.356
 4455SOL    HW114264   5.595   5.561   5.441
 4455SOL    HW214265   5.650   5.702   5.378
 4456SOL     OW14266   2.319   6.241   3.382
 4456SOL    HW114267   2.305   6.204   3.474
 4456SOL    HW214268   2.415   6.232   3.357
 4457SOL     OW14269   1.728   2.028   4.863
 4457SOL    HW114270   1.745   2.024   4.961
 4457SOL    HW214271   1.814   2.023   4.813
 4458SOL     OW14272   2.202   3.498   1.468
 4458SOL    HW114273   2.112   3.490   1.512
 4458SOL    HW214274   2.272   3.507   1.538
 4459SOL     OW14275   2.328   1.651   4.176
 4459SOL    HW114276   2.367   1.736   4.141
 4459SOL    HW214277   2.394   1.576   4.163
 4460SOL     OW14278   0.718   3.569   5.031
 4460SOL    HW114279   0.741   3.472   5.029
 4460SOL    HW214280   0.721   3.602   5.125
 4461SOL     OW14281   1.480   0.868   1.159
 4461SOL    HW114282   1.547   0.941   1.169
 4461SOL    HW214283   1.476   0.814   1.243
 4462SOL     OW14284   6.058   4.150   2.309
 4462SOL    HW114285   5.974   4.110   2.272
 4462SOL    HW214286   6.103   4.084   2.370
 4463SOL     OW14287   4.828   1.266   1.255
 4463SOL    HW114288   4.914   1.217   1.269
 4463SOL    HW214289   4.827   1.350   1.309
 4464SOL     OW14290   0.945   5.845   0.173
 4464SOL    HW114291   1.001   5.838   0.091
 4464SOL    HW214292   0.869   5.781   0.167
 4465SOL     OW14293   2.599   5.203   0.357
 4465SOL    HW114294   2.547   5.233   0.437
 4465SOL    HW214295   2.566   5.252   0.276
 4466SOL     OW14296   1.867   2.237   2.971
 4466SOL    HW114297   1.811   2.298   3.027
 4466SOL    HW214298   1.854   2.259   2.875
 4467SOL     OW14299   2.440   5.936   3.762
 4467SOL    HW114300   2.446   5.984   3.850
 4467SOL    HW214301   2.531   5.910   3.732
 4468SOL     OW14302   1.223   3.791   1.050
 4468SOL    HW114303   1.236   3.889   1.062
 4468SOL    HW214304   1.173   3.775   0.964
 4469SOL     OW14305   2.496   0.757   1.326
 4469SOL    HW114306   2.457   0.768   1.418
 4469SOL    HW214307   2.550   0.673   1.323
 4470SOL     OW14308   0.395   1.358   2.471
 4470SOL    HW114309   0.345   1.279   2.434
 4470SOL    HW214310   0.334   1.438   2.472
 4471SOL     OW14311   2.210   2.993   6.735
 4471SOL    HW114312   2.125   3.020   6.690
 4471SOL    HW214313   2.288   3.022   6.680
 4472SOL     OW14314   1.330   2.236   0.790
 4472SOL    HW114315   1.402   2.172   0.764
 4472SOL    HW214316   1.293   2.210   0.879
 4473SOL     OW14317   6.231   2.909   3.399
 4473SOL    HW114318   6.254   2.828   3.344
 4473SOL    HW214319   6.133   2.908   3.421
 4474SOL     OW14320   2.851   0.031   2.384
 4474SOL    HW114321   2.833   0.124   2.352
 4474SOL    HW214322   2.771   7.017   2.435
 4475SOL     OW14323   1.073   3.919   1.389
 4475SOL    HW114324   1.169   3.905   1.412
 4475SOL    HW214325   1.015   3.870   1.454
 4476SOL     OW14326   6.256   1.185   4.442
 4476SOL    HW114327   6.247   1.171   4.343
 4476SOL    HW214328   6.165   1.191   4.483
 4477SOL     OW14329   1.774   0.301   5.440
 4477SOL    HW114330   1.742   0.388   5.476
 4477SOL    HW214331   1.711   0.268   5.370
 4478SOL     OW14332   1.047   0.238   1.466
 4478SOL    HW114333   1.117   0.264   1.532
 4478SOL    HW214334   1.090   0.221   1.377
 4479SOL     OW14335   1.154   1.426   0.442
 4479SOL    HW114336   1.061   1.455   0.419
 4479SOL    HW214337   1.188   1.481   0.518
 4480SOL     OW14338   0.883   4.199   4.977
 4480SOL    HW114339   0.848   4.190   5.071
 4480SOL    HW214340   0.978   4.169   4.975
 4481SOL     OW14341   2.240   5.496   5.394
 4481SOL    HW114342   2.151   5.542   5.390
 4481SOL    HW214343   2.260   5.454   5.306
 4482SOL     OW14344   2.383   3.633   5.944
 4482SOL    HW114345   2.432   3.639   5.856
 4482SOL    HW214346   2.330   3.716   5.959
 4483SOL     OW14347   0.498   2.668   1.913
 4483SOL    HW114348   0.587   2.672   1.867
 4483SOL    HW214349   0.439   2.740   1.877
 4484SOL     OW14350   2.313   2.790   0.446
 4484SOL    HW114351   2.282   2.761   0.355
 4484SOL    HW214352   2.347   2.710   0.496
 4485SOL     OW14353   4.520   2.740   5.275
 4485SOL    HW114354   4.466   2.657   5.265
 4485SOL    HW214355   4.513   2.773   5.369
 4486SOL     OW14356   5.766   4.977   5.355
 4486SOL    HW114357   5.747   4.906   5.423
 4486SOL    HW214358   5.710   5.057   5.373
 4487SOL     OW14359   2.211   2.761   6.903
 4487SOL    HW114360   2.215   2.851   6.859
 4487SOL    HW214361   2.159   2.698   6.845
 4488SOL     OW14362   1.274   3.781   3.800
 4488SOL    HW114363   1.350   3.764   3.737
 4488SOL    HW214364   1.191   3.741   3.763
 4489SOL     OW14365   5.157   5.474   5.093
 4489SOL    HW114366   5.253   5.472   5.120
 4489SOL    HW214367   5.126   5.569   5.091
 4490SOL     OW14368   5.247   2.227   1.008
 4490SOL    HW114369   5.316   2.206   1.077
 4490SOL    HW214370   5.292   2.251   0.922
 4491SOL     OW14371   0.794   3.645   3.308
 4491SOL    HW114372   0.757   3.710   3.375
 4491SOL    HW214373   0.758   3.667   3.217
 4492SOL     OW14374   5.514   1.354   2.006
 4492SOL    HW114375   5.611   1.332   2.016
 4492SOL    HW214376   5.497   1.392   1.915
 4493SOL     OW14377   6.048   6.402   4.398
 4493SOL    HW114378   6.021   6.454   4.478
 4493SOL    HW214379   6.012   6.445   4.316
 4494SOL     OW14380   0.922   1.143   5.763
 4494SOL    HW114381   0.952   1.080   5.834
 4494SOL    HW214382   0.832   1.115   5.730
 4495SOL     OW14383   3.882   6.942   2.516
 4495SOL    HW114384   3.875   7.006   2.440
 4495SOL    HW214385   3.889   6.849   2.481
 4496SOL     OW14386   4.581   6.230   6.652
 4496SOL    HW114387   4.634   6.191   6.728
 4496SOL    HW214388   4.612   6.189   6.566
 4497SOL     OW14389   3.905   2.484   6.955
 4497SOL    HW114390   3.906   2.533   0.023
 4497SOL    HW214391   3.910   2.386   6.972
 4498SOL     OW14392   6.935   5.365   6.290
 4498SOL    HW114393   6.889   5.277   6.293
 4498SOL    HW214394   6.871   5.437   6.317
 4499SOL     OW14395   5.834   1.997   3.504
 4499SOL    HW114396   5.752   1.979   3.450
 4499SOL    HW214397   5.888   2.069   3.460
 4500SOL     OW14398   4.072   4.411   6.508
 4500SOL    HW114399   4.119   4.497   6.488
 4500SOL    HW214400   4.140   4.340   6.530
 4501SOL     OW14401   5.854   2.018   2.397
 4501SOL    HW114402   5.944   2.039   2.360
 4501SOL    HW214403   5.785   2.076   2.353
 4502SOL     OW14404   0.958   3.998   0.163
 4502SOL    HW114405   0.888   4.001   0.092
 4502SOL    HW214406   0.962   4.087   0.209
 4503SOL     OW14407   2.904   6.788   2.271
 4503SOL    HW114408   2.863   6.762   2.184
 4503SOL    HW214409   2.873   6.879   2.298
 4504SOL     OW14410   6.554   2.146   4.110
 4504SOL    HW114411   6.469   2.158   4.059
 4504SOL    HW214412   6.607   2.230   4.106
 4505SOL     OW14413   6.666   4.166   2.287
 4505SOL    HW114414   6.646   4.152   2.384
 4505SOL    HW214415   6.764   4.164   2.272
 4506SOL     OW14416   5.597   3.317   3.590
 4506SOL    HW114417   5.511   3.349   3.550
 4506SOL    HW214418   5.590   3.219   3.610
 4507SOL     OW14419   7.018   2.931   3.828
 4507SOL    HW114420   6.944   2.922   3.761
 4507SOL    HW214421   0.086   2.904   3.786
 4508SOL     OW14422   1.418   4.311   0.026
 4508SOL    HW114423   1.487   4.355   0.084
 4508SOL    HW214424   1.463   4.272   6.964
 4509SOL     OW14425   4.880   2.399   2.549
 4509SOL    HW114426   4.792   2.408   2.596
 4509SOL    HW214427   4.864   2.367   2.455
 4510SOL     OW14428   4.353   1.603   4.352
 4510SOL    HW114429   4.413   1.681   4.339
 4510SOL    HW214430   4.268   1.633   4.395
 4511SOL     OW14431   6.664   3.689   1.115
 4511SOL    HW114432   6.643   3.767   1.175
 4511SOL    HW214433   6.629   3.605   1.156
 4512SOL     OW14434   3.264   1.800   6.000
 4512SOL    HW114435   3.356   1.765   5.985
 4512SOL    HW214436   3.229   1.839   5.915
 4513SOL     OW14437   0.689   6.242   6.267
 4513SOL    HW114438   0.692   6.232   6.367
 4513SOL    HW214439   0.761   6.187   6.226
 4514SOL     OW14440   3.496   3.507   7.017
 4514SOL    HW114441   3.460   3.557   6.938
 4514SOL    HW214442   3.448   3.420   0.007
 4515SOL     OW14443   5.391   1.312   4.707
 4515SOL    HW114444   5.343   1.287   4.792
 4515SOL    HW214445   5.385   1.411   4.693
 4516SOL     OW14446   2.635   0.392   5.536
 4516SOL    HW114447   2.709   0.343   5.490
 4516SOL    HW214448   2.672   0.472   5.583
 4517SOL     OW14449   4.228   6.787   6.690
 4517SOL    HW114450   4.154   6.837   6.734
 4517SOL    HW214451   4.228   6.806   6.591
 4518SOL     OW14452   1.274   6.794   1.308
 4518SOL    HW114453   1.317   6.705   1.322
 4518SOL    HW214454   1.345   6.865   1.305
 4519SOL     OW14455   5.004   6.834   6.825
 4519SOL    HW114456   5.017   6.925   6.865
 4519SOL    HW214457   4.988   6.843   6.727
 4520SOL     OW14458   4.241   5.844   5.618
 4520SOL    HW114459   4.265   5.765   5.561
 4520SOL    HW214460   4.176   5.902   5.569
 4521SOL     OW14461   5.161   1.940   4.778
 4521SOL    HW114462   5.153   2.039   4.776
 4521SOL    HW214463   5.154   1.908   4.872
 4522SOL     OW14464   6.045   4.067   3.083
 4522SOL    HW114465   6.072   4.162   3.070
 4522SOL    HW214466   5.971   4.044   3.020
 4523SOL     OW14467   1.387   3.972   0.190
 4523SOL    HW114468   1.312   4.033   0.162
 4523SOL    HW214469   1.378   3.884   0.143
 4524SOL     OW14470   0.105   3.781   2.115
 4524SOL    HW114471   0.081   3.834   2.196
 4524SOL    HW214472   0.201   3.754   2.120
 4525SOL     OW14473   2.615   2.022   5.851
 4525SOL    HW114474   2.576   2.107   5.885
 4525SOL    HW214475   2.560   1.987   5.776
 4526SOL     OW14476   0.147   0.667   6.580
 4526SOL    HW114477   0.237   0.632   6.555
 4526SOL    HW214478   0.156   0.735   6.653
 4527SOL     OW14479   6.720   0.359   2.811
 4527SOL    HW114480   6.814   0.375   2.780
 4527SOL    HW214481   6.704   0.260   2.818
 4528SOL     OW14482   4.284   0.893   6.456
 4528SOL    HW114483   4.238   0.884   6.545
 4528SOL    HW214484   4.228   0.850   6.385
 4529SOL     OW14485   2.741   1.286   6.048
 4529SOL    HW114486   2.665   1.231   6.013
 4529SOL    HW214487   2.735   1.291   6.148
 4530SOL     OW14488   2.385   6.331   4.508
 4530SOL    HW114489   2.362   6.234   4.508
 4530SOL    HW214490   2.307   6.384   4.541
 4531SOL     OW14491   0.958   4.099   6.206
 4531SOL    HW114492   0.917   4.020   6.160
 4531SOL    HW214493   1.038   4.129   6.154
 4532SOL     OW14494   5.103   0.682   2.808
 4532SOL    HW114495   5.006   0.674   2.782
 4532SOL    HW214496   5.110   0.729   2.896
 4533SOL     OW14497   1.397   1.070   2.885
 4533SOL    HW114498   1.373   1.012   2.808
 4533SOL    HW214499   1.497   1.072   2.895
 4534SOL     OW14500   4.259   2.237   5.300
 4534SOL    HW114501   4.338   2.259   5.242
 4534SOL    HW214502   4.276   2.269   5.393
 4535SOL     OW14503   3.763   1.550   1.001
 4535SOL    HW114504   3.680   1.544   1.057
 4535SOL    HW214505   3.759   1.634   0.947
 4536SOL     OW14506   2.712   1.465   5.800
 4536SOL    HW114507   2.643   1.398   5.826
 4536SOL    HW214508   2.791   1.459   5.861
 4537SOL     OW14509   4.150   3.579   2.979
 4537SOL    HW114510   4.095   3.510   2.933
 4537SOL    HW214511   4.196   3.538   3.057
 4538SOL     OW14512   1.153   2.368   2.139
 4538SOL    HW114513   1.169   2.343   2.043
 4538SOL    HW214514   1.239   2.358   2.190
 4539SOL     OW14515   2.354   5.530   4.565
 4539SOL    HW114516   2.278   5.585   4.532
 4539SOL    HW214517   2.323   5.471   4.639
 4540SOL     OW14518   0.948   0.821   0.947
 4540SOL    HW114519   0.849   0.805   0.950
 4540SOL    HW214520   0.966   0.918   0.935
 4541SOL     OW14521   4.597   1.630   6.688
 4541SOL    HW114522   4.510   1.630   6.639
 4541SOL    HW214523   4.606   1.716   6.739
 4542SOL     OW14524   6.926   2.194   0.860
 4542SOL    HW114525   6.921   2.236   0.951
 4542SOL    HW214526   6.834   2.170   0.830
 4543SOL     OW14527   4.540   2.194   0.774
 4543SOL    HW114528   4.542   2.094   0.779
 4543SOL    HW214529   4.624   2.231   0.814
 4544SOL     OW14530   4.570   5.033   1.128
 4544SOL    HW114531   4.481   5.001   1.094
 4544SOL    HW214532   4.577   5.014   1.226
 4545SOL     OW14533   0.805   4.143   5.249
 4545SOL    HW114534   0.766   4.077   5.185
 4545SOL    HW214535   0.814   4.101   5.339
 4546SOL     OW14536   3.174   0.785   5.726
 4546SOL    HW114537   3.257   0.772   5.779
 4546SOL    HW214538   3.179   0.732   5.642
 4547SOL     OW14539   6.353   0.635   0.056
 4547SOL    HW114540   6.428   0.572   0.073
 4547SOL    HW214541   6.334   0.639   6.976
 4548SOL     OW14542   2.461   2.530   3.462
 4548SOL    HW114543   2.395   2.604   3.457
 4548SOL    HW214544   2.494   2.521   3.556
 4549SOL     OW14545   5.084   4.424   2.696
 4549SOL    HW114546   4.997   4.382   2.720
 4549SOL    HW214547   5.117   4.385   2.610
 4550SOL     OW14548   0.897   4.644   3.642
 4550SOL    HW114549   0.918   4.560   3.592
 4550SOL    HW214550   0.814   4.631   3.696
 4551SOL     OW14551   0.670   3.951   5.114
 4551SOL    HW114552   0.653   3.929   5.018
 4551SOL    HW214553   0.606   3.901   5.172
 4552SOL     OW14554   5.942   2.215   2.106
 4552SOL    HW114555   5.922   2.296   2.161
 4552SOL    HW214556   5.856   2.169   2.082
 4553SOL     OW14557   5.239   4.487   6.538
 4553SOL    HW114558   5.291   4.435   6.605
 4553SOL    HW214559   5.297   4.507   6.459
 4554SOL     OW14560   0.616   6.476   1.183
 4554SOL    HW114561   0.611   6.415   1.262
 4554SOL    HW214562   0.565   6.560   1.203
 4555SOL     OW14563   1.039   1.126   6.645
 4555SOL    HW114564   1.119   1.072   6.621
 4555SOL    HW214565   1.020   1.191   6.571
 4556SOL     OW14566   6.166   3.432   5.390
 4556SOL    HW114567   6.099   3.358   5.383
 4556SOL    HW214568   6.229   3.413   5.465
 4557SOL     OW14569   6.184   5.307   5.099
 4557SOL    HW114570   6.155   5.398   5.071
 4557SOL    HW214571   6.163   5.242   5.026
 4558SOL     OW14572   6.640   3.255   5.182
 4558SOL    HW114573   6.738   3.252   5.161
 4558SOL    HW214574   6.615   3.348   5.207
 4559SOL     OW14575   0.623   3.245   2.591
 4559SOL    HW114576   0.696   3.210   2.650
 4559SOL    HW214577   0.538   3.252   2.643
 4560SOL     OW14578   6.099   4.417   2.264
 4560SOL    HW114579   6.073   4.324   2.291
 4560SOL    HW214580   6.181   4.413   2.207
 4561SOL     OW14581   3.558   2.096   3.916
 4561SOL    HW114582   3.554   2.116   4.013
 4561SOL    HW214583   3.472   2.122   3.873
 4562SOL     OW14584   2.295   6.561   0.383
 4562SOL    HW114585   2.312   6.653   0.419
 4562SOL    HW214586   2.382   6.518   0.358
 4563SOL     OW14587   6.776   3.258   1.580
 4563SOL    HW114588   6.732   3.325   1.640
 4563SOL    HW214589   6.790   3.173   1.632
 4564SOL     OW14590   6.968   4.296   1.981
 4564SOL    HW114591   6.963   4.240   2.063
 4564SOL    HW214592   0.003   4.379   2.000
 4565SOL     OW14593   1.739   0.993   4.431
 4565SOL    HW114594   1.837   0.990   4.410
 4565SOL    HW214595   1.717   1.079   4.477
 4566SOL     OW14596   0.373   3.797   1.184
 4566SOL    HW114597   0.403   3.876   1.130
 4566SOL    HW214598   0.390   3.815   1.281
 4567SOL     OW14599   6.660   0.561   0.010
 4567SOL    HW114600   6.637   0.516   6.942
 4567SOL    HW214601   6.725   0.636   7.010
 4568SOL     OW14602   0.473   4.281   4.778
 4568SOL    HW114603   0.560   4.325   4.801
 4568SOL    HW214604   0.458   4.203   4.839
 4569SOL     OW14605   3.054   0.730   2.649
 4569SOL    HW114606   2.960   0.700   2.632
 4569SOL    HW214607   3.060   0.772   2.739
 4570SOL     OW14608   5.969   6.228   2.151
 4570SOL    HW114609   5.987   6.308   2.094
 4570SOL    HW214610   5.953   6.149   2.092
 4571SOL     OW14611   4.968   2.840   6.624
 4571SOL    HW114612   5.064   2.863   6.612
 4571SOL    HW214613   4.948   2.755   6.576
 4572SOL     OW14614   2.510   2.144   6.122
 4572SOL    HW114615   2.526   2.237   6.090
 4572SOL    HW214616   2.597   2.102   6.149
 4573SOL     OW14617   0.830   6.882   0.608
 4573SOL    HW114618   0.839   6.863   0.705
 4573SOL    HW214619   0.751   6.832   0.571
 4574SOL     OW14620   6.040   4.274   0.015
 4574SOL    HW114621   6.035   4.287   6.935
 4574SOL    HW214622   6.135   4.262   0.042
 4575SOL     OW14623   5.925   0.806   4.452
 4575SOL    HW114624   5.999   0.806   4.519
 4575SOL    HW214625   5.960   0.768   4.365
 4576SOL     OW14626   2.369   4.759   5.174
 4576SOL    HW114627   2.438   4.690   5.151
 4576SOL    HW214628   2.377   4.783   5.270
 4577SOL     OW14629   1.070   2.514   2.867
 4577SOL    HW114630   1.114   2.426   2.847
 4577SOL    HW214631   1.120   2.587   2.821
 4578SOL     OW14632   0.202   0.570   3.584
 4578SOL    HW114633   0.198   0.470   3.583
 4578SOL    HW214634   0.297   0.599   3.585
 4579SOL     OW14635   4.623   1.210   1.747
 4579SOL    HW114636   4.613   1.190   1.844
 4579SOL    HW214637   4.701   1.160   1.710
 4580SOL     OW14638   5.617   4.342   0.627
 4580SOL    HW114639   5.583   4.250   0.645
 4580SOL    HW214640   5.682   4.368   0.699
 4581SOL     OW14641   2.729   6.393   2.029
 4581SOL    HW114642   2.767   6.317   1.976
 4581SOL    HW214643   2.701   6.360   2.119
 4582SOL     OW14644   4.560   0.655   2.877
 4582SOL    HW114645   4.509   0.627   2.795
 4582SOL    HW214646   4.565   0.578   2.940
 4583SOL     OW14647   2.159   1.211   6.570
 4583SOL    HW114648   2.123   1.278   6.504
 4583SOL    HW214649   2.175   1.124   6.523
 4584SOL     OW14650   1.846   6.577   5.869
 4584SOL    HW114651   1.777   6.529   5.924
 4584SOL    HW214652   1.915   6.616   5.929
 4585SOL     OW14653   1.745   3.962   3.263
 4585SOL    HW114654   1.776   4.046   3.219
 4585SOL    HW214655   1.780   3.957   3.356
 4586SOL     OW14656   4.794   4.229   0.684
 4586SOL    HW114657   4.813   4.231   0.586
 4586SOL    HW214658   4.730   4.303   0.706
 4587SOL     OW14659   3.487   3.566   4.632
 4587SOL    HW114660   3.416   3.562   4.562
 4587SOL    HW214661   3.573   3.596   4.591
 4588SOL     OW14662   3.191   3.390   5.433
 4588SOL    HW114663   3.244   3.474   5.444
 4588SOL    HW214664   3.242   3.314   5.473
 4589SOL     OW14665   5.769   6.245   1.847
 4589SOL    HW114666   5.843   6.264   1.783
 4589SOL    HW214667   5.697   6.194   1.800
 4590SOL     OW14668   3.681   6.021   2.009
 4590SOL    HW114669   3.761   5.990   2.060
 4590SOL    HW214670   3.672   5.966   1.926
 4591SOL     OW14671   2.121   0.894   4.951
 4591SOL    HW114672   2.038   0.939   4.983
 4591SOL    HW214673   2.140   0.815   5.009
 4592SOL     OW14674   2.900   1.981   3.521
 4592SOL    HW114675   2.821   1.933   3.559
 4592SOL    HW214676   2.945   2.033   3.594
 4593SOL     OW14677   6.674   5.703   2.623
 4593SOL    HW114678   6.754   5.689   2.565
 4593SOL    HW214679   6.700   5.692   2.719
 4594SOL     OW14680   2.764   0.006   2.956
 4594SOL    HW114681   2.767   0.063   3.039
 4594SOL    HW214682   2.853   0.008   2.911
 4595SOL     OW14683   4.956   2.859   5.778
 4595SOL    HW114684   4.966   2.856   5.679
 4595SOL    HW214685   4.860   2.877   5.802
 4596SOL     OW14686   0.280   1.212   2.228
 4596SOL    HW114687   0.238   1.259   2.150
 4596SOL    HW214688   0.309   1.121   2.199
 4597SOL     OW14689   2.547   5.194   6.791
 4597SOL    HW114690   2.598   5.277   6.768
 4597SOL    HW214691   2.450   5.208   6.772
 4598SOL     OW14692   2.453   5.381   0.514
 4598SOL    HW114693   2.395   5.385   0.595
 4598SOL    HW214694   2.491   5.471   0.495
 4599SOL     OW14695   1.784   3.492   2.075
 4599SOL    HW114696   1.811   3.396   2.063
 4599SOL    HW214697   1.859   3.552   2.047
 4600SOL     OW14698   0.382   6.857   6.332
 4600SOL    HW114699   0.427   6.929   6.280
 4600SOL    HW214700   0.321   6.898   6.400
 4601SOL     OW14701   0.813   0.752   4.661
 4601SOL    HW114702   0.788   0.744   4.757
 4601SOL    HW214703   0.822   0.661   4.621
 4602SOL     OW14704   2.716   7.006   6.139
 4602SOL    HW114705   2.797   6.987   6.082
 4602SOL    HW214706   2.738   6.987   6.234
 4603SOL     OW14707   3.627   6.034   1.062
 4603SOL    HW114708   3.699   5.978   1.021
 4603SOL    HW214709   3.595   6.101   0.995
 4604SOL     OW14710   4.882   6.995   5.543
 4604SOL    HW114711   4.965   6.957   5.584
 4604SOL    HW214712   4.906   0.049   5.479
 4605SOL     OW14713   2.083   0.267   1.734
 4605SOL    HW114714   2.082   0.239   1.638
 4605SOL    HW214715   2.124   0.358   1.741
 4606SOL     OW14716   0.017   6.532   2.926
 4606SOL    HW114717   7.018   6.447   2.975
 4606SOL    HW214718   0.114   6.536   2.901
 4607SOL     OW14719   2.080   3.842   3.348
 4607SOL    HW114720   2.046   3.805   3.262
 4607SOL    HW214721   2.144   3.917   3.328
 4608SOL     OW14722   0.265   3.147   4.040
 4608SOL    HW114723   0.229   3.237   4.015
 4608SOL    HW214724   0.244   3.127   4.135
 4609SOL     OW14725   4.685   5.706   6.701
 4609SOL    HW114726   4.706   5.620   6.656
 4609SOL    HW214727   4.764   5.736   6.755
 4610SOL     OW14728   5.367   2.057   6.712
 4610SOL    HW114729   5.336   1.991   6.781
 4610SOL    HW214730   5.378   2.010   6.625
 4611SOL     OW14731   0.368   0.952   5.824
 4611SOL    HW114732   0.371   0.869   5.768
 4611SOL    HW214733   0.395   0.930   5.918
 4612SOL     OW14734   2.182   6.318   2.042
 4612SOL    HW114735   2.249   6.278   1.980
 4612SOL    HW214736   2.229   6.378   2.107
 4613SOL     OW14737   1.920   4.996   2.635
 4613SOL    HW114738   1.971   5.046   2.705
 4613SOL    HW214739   1.845   4.947   2.679
 4614SOL     OW14740   6.641   3.315   3.988
 4614SOL    HW114741   6.609   3.330   3.894
 4614SOL    HW214742   6.600   3.384   4.048
 4615SOL     OW14743   0.974   0.831   1.570
 4615SOL    HW114744   0.886   0.783   1.576
 4615SOL    HW214745   1.003   0.833   1.474
 4616SOL     OW14746   6.519   2.462   4.928
 4616SOL    HW114747   6.441   2.400   4.934
 4616SOL    HW214748   6.488   2.556   4.920
 4617SOL     OW14749   0.978   2.632   2.375
 4617SOL    HW114750   0.964   2.609   2.279
 4617SOL    HW214751   0.928   2.568   2.432
 4618SOL     OW14752   2.749   3.578   5.235
 4618SOL    HW114753   2.813   3.533   5.297
 4618SOL    HW214754   2.798   3.609   5.153
 4619SOL     OW14755   3.113   6.318   3.641
 4619SOL    HW114756   3.030   6.352   3.598
 4619SOL    HW214757   3.189   6.325   3.576
 4620SOL     OW14758   0.788   5.311   1.445
 4620SOL    HW114759   0.699   5.340   1.410
 4620SOL    HW214760   0.784   5.213   1.468
 4621SOL     OW14761   4.800   0.258   2.086
 4621SOL    HW114762   4.700   0.255   2.086
 4621SOL    HW214763   4.836   0.186   2.027
 4622SOL     OW14764   4.736   4.751   1.134
 4622SOL    HW114765   4.801   4.729   1.061
 4622SOL    HW214766   4.655   4.692   1.125
 4623SOL     OW14767   4.005   5.728   1.184
 4623SOL    HW114768   3.913   5.769   1.189
 4623SOL    HW214769   4.001   5.634   1.215
 4624SOL     OW14770   4.077   1.255   3.214
 4624SOL    HW114771   4.019   1.253   3.295
 4624SOL    HW214772   4.062   1.341   3.164
 4625SOL     OW14773   2.296   5.787   1.626
 4625SOL    HW114774   2.322   5.691   1.637
 4625SOL    HW214775   2.214   5.806   1.680
 4626SOL     OW14776   4.117   3.861   1.779
 4626SOL    HW114777   4.128   3.791   1.708
 4626SOL    HW214778   4.185   3.933   1.764
 4627SOL     OW14779   0.238   6.042   5.045
 4627SOL    HW114780   0.237   5.952   5.001
 4627SOL    HW214781   0.145   6.078   5.053
 4628SOL     OW14782   4.694   4.852   3.243
 4628SOL    HW114783   4.711   4.767   3.193
 4628SOL    HW214784   4.598   4.857   3.270
 4629SOL     OW14785   2.356   5.329   6.044
 4629SOL    HW114786   2.287   5.399   6.062
 4629SOL    HW214787   2.333   5.282   5.959
 4630SOL     OW14788   1.496   5.650   2.839
 4630SOL    HW114789   1.459   5.743   2.830
 4630SOL    HW214790   1.588   5.647   2.800
 4631SOL     OW14791   1.120   0.219   3.748
 4631SOL    HW114792   1.213   0.239   3.717
 4631SOL    HW214793   1.124   0.180   3.841
 4632SOL     OW14794   2.627   5.527   2.792
 4632SOL    HW114795   2.658   5.615   2.826
 4632SOL    HW214796   2.686   5.498   2.716
 4633SOL     OW14797   5.151   1.401   4.339
 4633SOL    HW114798   5.054   1.413   4.319
 4633SOL    HW214799   5.200   1.485   4.316
 4634SOL     OW14800   3.064   3.821   4.894
 4634SOL    HW114801   2.985   3.839   4.953
 4634SOL    HW214802   3.100   3.730   4.915
 4635SOL     OW14803   4.315   4.858   1.106
 4635SOL    HW114804   4.359   4.774   1.136
 4635SOL    HW214805   4.308   4.921   1.183
 4636SOL     OW14806   1.902   4.945   0.787
 4636SOL    HW114807   1.810   4.978   0.806
 4636SOL    HW214808   1.966   5.022   0.784
 4637SOL     OW14809   1.209   6.635   0.840
 4637SOL    HW114810   1.190   6.558   0.900
 4637SOL    HW214811   1.296   6.677   0.865
 4638SOL     OW14812   3.318   5.000   6.774
 4638SOL    HW114813   3.309   5.081   6.832
 4638SOL    HW214814   3.415   4.974   6.768
 4639SOL     OW14815   2.765   2.353   6.450
 4639SOL    HW114816   2.750   2.383   6.356
 4639SOL    HW214817   2.824   2.272   6.451
 4640SOL     OW14818   6.034   2.506   4.963
 4640SOL    HW114819   6.076   2.567   5.030
 4640SOL    HW214820   5.935   2.505   4.976
 4641SOL     OW14821   2.019   6.915   3.838
 4641SOL    HW114822   1.937   6.972   3.846
 4641SOL    HW214823   2.039   6.872   3.925
 4642SOL     OW14824   1.682   1.100   3.814
 4642SOL    HW114825   1.665   1.074   3.909
 4642SOL    HW214826   1.680   1.019   3.756
 4643SOL     OW14827   6.256   1.969   0.462
 4643SOL    HW114828   6.331   1.965   0.528
 4643SOL    HW214829   6.187   1.901   0.486
 4644SOL     OW14830   6.943   0.891   5.921
 4644SOL    HW114831   6.856   0.913   5.965
 4644SOL    HW214832   6.973   0.968   5.865
 4645SOL     OW14833   1.407   0.692   4.168
 4645SOL    HW114834   1.348   0.743   4.105
 4645SOL    HW214835   1.500   0.728   4.162
 4646SOL     OW14836   2.539   4.929   4.894
 4646SOL    HW114837   2.542   4.844   4.841
 4646SOL    HW214838   2.448   4.938   4.936
 4647SOL     OW14839   1.658   0.089   3.112
 4647SOL    HW114840   1.669   0.032   3.030
 4647SOL    HW214841   1.569   0.135   3.109
 4648SOL     OW14842   2.828   0.858   4.156
 4648SOL    HW114843   2.739   0.823   4.185
 4648SOL    HW214844   2.816   0.928   4.086
 4649SOL     OW14845   5.606   1.030   1.183
 4649SOL    HW114846   5.597   0.933   1.208
 4649SOL    HW214847   5.661   1.038   1.100
 4650SOL     OW14848   4.404   6.022   1.162
 4650SOL    HW114849   4.397   5.922   1.168
 4650SOL    HW214850   4.490   6.052   1.203
 4651SOL     OW14851   6.136   3.719   6.496
 4651SOL    HW114852   6.092   3.670   6.571
 4651SOL    HW214853   6.227   3.749   6.524
 4652SOL     OW14854   6.872   6.075   4.226
 4652SOL    HW114855   6.898   5.988   4.268
 4652SOL    HW214856   6.897   6.150   4.287
 4653SOL     OW14857   4.767   5.763   0.427
 4653SOL    HW114858   4.795   5.751   0.523
 4653SOL    HW214859   4.777   5.677   0.378
 4654SOL     OW14860   6.995   6.705   5.222
 4654SOL    HW114861   0.009   6.785   5.272
 4654SOL    HW214862   0.009   6.709   5.127
 4655SOL     OW14863   4.982   3.777   1.597
 4655SOL    HW114864   4.886   3.792   1.572
 4655SOL    HW214865   5.035   3.755   1.516
 4656SOL     OW14866   0.674   0.217   1.643
 4656SOL    HW114867   0.666   0.184   1.737
 4656SOL    HW214868   0.729   0.300   1.641
 4657SOL     OW14869   5.595   6.044   1.438
 4657SOL    HW114870   5.585   5.990   1.354
 4657SOL    HW214871   5.652   6.124   1.419
 4658SOL     OW14872   2.754   2.728   5.597
 4658SOL    HW114873   2.810   2.757   5.520
 4658SOL    HW214874   2.658   2.724   5.569
 4659SOL     OW14875   3.558   4.201   1.324
 4659SOL    HW114876   3.626   4.273   1.318
 4659SOL    HW214877   3.514   4.204   1.414
 4660SOL     OW14878   1.641   0.055   4.137
 4660SOL    HW114879   1.693   0.056   4.051
 4660SOL    HW214880   1.704   0.061   4.214
 4661SOL     OW14881   2.561   4.690   5.664
 4661SOL    HW114882   2.485   4.640   5.706
 4661SOL    HW214883   2.637   4.628   5.646
 4662SOL     OW14884   2.715   0.120   5.168
 4662SOL    HW114885   2.788   0.083   5.111
 4662SOL    HW214886   2.754   0.172   5.244
 4663SOL     OW14887   1.374   6.719   0.125
 4663SOL    HW114888   1.281   6.713   0.162
 4663SOL    HW214889   1.392   6.813   0.096
 4664SOL     OW14890   6.708   0.281   0.859
 4664SOL    HW114891   6.678   0.189   0.882
 4664SOL    HW214892   6.799   0.298   0.897
 4665SOL     OW14893   2.194   0.946   6.282
 4665SOL    HW114894   2.164   0.853   6.301
 4665SOL    HW214895   2.249   0.981   6.358
 4666SOL     OW14896   1.905   2.333   6.838
 4666SOL    HW114897   1.952   2.263   6.784
 4666SOL    HW214898   1.948   2.340   6.928
 4667SOL     OW14899   6.410   4.172   1.938
 4667SOL    HW114900   6.490   4.161   1.879
 4667SOL    HW214901   6.436   4.153   2.033
 4668SOL     OW14902   4.014   2.077   5.014
 4668SOL    HW114903   4.023   1.978   5.028
 4668SOL    HW214904   4.018   2.098   4.916
 4669SOL     OW14905   4.797   0.183   6.847
 4669SOL    HW114906   4.707   0.165   6.886
 4669SOL    HW214907   4.822   0.278   6.861
 4670SOL     OW14908   1.378   3.262   0.300
 4670SOL    HW114909   1.311   3.275   0.374
 4670SOL    HW214910   1.463   3.227   0.339
 4671SOL     OW14911   0.503   3.419   0.160
 4671SOL    HW114912   0.524   3.358   0.084
 4671SOL    HW214913   0.582   3.427   0.220
 4672SOL     OW14914   4.533   4.696   6.237
 4672SOL    HW114915   4.625   4.710   6.200
 4672SOL    HW214916   4.513   4.766   6.306
 4673SOL     OW14917   5.180   0.256   0.042
 4673SOL    HW114918   5.262   0.217   0.001
 4673SOL    HW214919   5.206   0.318   0.116
 4674SOL     OW14920   6.302   1.167   0.699
 4674SOL    HW114921   6.372   1.113   0.652
 4674SOL    HW214922   6.211   1.130   0.677
 4675SOL     OW14923   3.909   0.330   6.574
 4675SOL    HW114924   3.812   0.331   6.599
 4675SOL    HW214925   3.946   0.238   6.588
 4676SOL     OW14926   0.814   6.716   4.376
 4676SOL    HW114927   0.884   6.656   4.415
 4676SOL    HW214928   0.732   6.714   4.434
 4677SOL     OW14929   2.846   0.584   6.737
 4677SOL    HW114930   2.782   0.653   6.772
 4677SOL    HW214931   2.870   0.520   6.811
 4678SOL     OW14932   2.042   5.053   2.051
 4678SOL    HW114933   2.118   5.110   2.083
 4678SOL    HW214934   1.956   5.094   2.080
 4679SOL     OW14935   3.000   1.394   5.889
 4679SOL    HW114936   3.060   1.450   5.947
 4679SOL    HW214937   2.942   1.337   5.946
 4680SOL     OW14938   2.352   5.479   1.371
 4680SOL    HW114939   2.327   5.573   1.395
 4680SOL    HW214940   2.373   5.475   1.273
 4681SOL     OW14941   6.598   6.137   4.314
 4681SOL    HW114942   6.527   6.079   4.274
 4681SOL    HW214943   6.688   6.097   4.294
 4682SOL     OW14944   4.268   5.674   6.699
 4682SOL    HW114945   4.358   5.686   6.742
 4682SOL    HW214946   4.222   5.763   6.694
 4683SOL     OW14947   5.878   4.286   2.726
 4683SOL    HW114948   5.852   4.273   2.822
 4683SOL    HW214949   5.825   4.224   2.668
 4684SOL     OW14950   1.160   2.190   4.589
 4684SOL    HW114951   1.163   2.101   4.634
 4684SOL    HW214952   1.177   2.262   4.656
 4685SOL     OW14953   6.589   5.674   4.725
 4685SOL    HW114954   6.669   5.647   4.778
 4685SOL    HW214955   6.536   5.741   4.777
 4686SOL     OW14956   5.075   5.452   0.426
 4686SOL    HW114957   5.163   5.429   0.384
 4686SOL    HW214958   5.028   5.368   0.453
 4687SOL     OW14959   6.386   4.381   4.866
 4687SOL    HW114960   6.453   4.417   4.801
 4687SOL    HW214961   6.307   4.441   4.870
 4688SOL     OW14962   0.945   3.303   6.749
 4688SOL    HW114963   0.891   3.345   6.822
 4688SOL    HW214964   1.042   3.328   6.761
 4689SOL     OW14965   6.186   0.299   5.830
 4689SOL    HW114966   6.154   0.247   5.909
 4689SOL    HW214967   6.270   0.259   5.794
 4690SOL     OW14968   1.049   1.137   6.931
 4690SOL    HW114969   1.022   1.045   6.959
 4690SOL    HW214970   1.051   1.141   6.831
 4691SOL     OW14971   2.707   3.922   1.014
 4691SOL    HW114972   2.661   3.839   0.983
 4691SOL    HW214973   2.642   3.997   1.016
 4692SOL     OW14974   0.101   5.207   2.599
 4692SOL    HW114975   0.158   5.147   2.543
 4692SOL    HW214976   0.014   5.222   2.554
 4693SOL     OW14977   0.378   1.367   5.011
 4693SOL    HW114978   0.280   1.366   4.992
 4693SOL    HW214979   0.399   1.436   5.080
 4694SOL     OW14980   3.160   0.591   0.067
 4694SOL    HW114981   3.225   0.529   0.112
 4694SOL    HW214982   3.082   0.537   0.033
 4695SOL     OW14983   3.844   3.315   1.693
 4695SOL    HW114984   3.776   3.301   1.765
 4695SOL    HW214985   3.911   3.241   1.695
 4696SOL     OW14986   1.444   4.128   5.813
 4696SOL    HW114987   1.368   4.179   5.775
 4696SOL    HW214988   1.508   4.191   5.857
 4697SOL     OW14989   1.582   3.489   0.673
 4697SOL    HW114990   1.508   3.432   0.708
 4697SOL    HW214991   1.668   3.436   0.674
 4698SOL     OW14992   4.862   4.868   2.187
 4698SOL    HW114993   4.862   4.775   2.225
 4698SOL    HW214994   4.824   4.932   2.254
 4699SOL     OW14995   0.256   6.528   2.552
 4699SOL    HW114996   0.171   6.580   2.557
 4699SOL    HW214997   0.274   6.485   2.641
 4700SOL     OW14998   5.453   1.763   1.849
 4700SOL    HW114999   5.443   1.860   1.827
 4700SOL    HW215000   5.510   1.719   1.780
 4701SOL     OW15001   0.933   1.359   0.060
 4701SOL    HW115002   0.889   1.384   6.992
 4701SOL    HW215003   0.938   1.260   0.067
 4702SOL     OW15004   4.566   3.951   6.542
 4702SOL    HW115005   4.582   4.045   6.574
 4702SOL    HW215006   4.533   3.952   6.448
 4703SOL     OW15007   0.827   1.901   2.940
 4703SOL    HW115008   0.830   1.970   2.867
 4703SOL    HW215009   0.904   1.916   3.002
 4704SOL     OW15010   0.259   5.811   0.825
 4704SOL    HW115011   0.315   5.872   0.770
 4704SOL    HW215012   0.197   5.759   0.765
 4705SOL     OW15013   3.603   2.840   3.538
 4705SOL    HW115014   3.601   2.753   3.488
 4705SOL    HW215015   3.544   2.833   3.618
 4706SOL     OW15016   3.632   5.866   6.756
 4706SOL    HW115017   3.640   5.920   6.673
 4706SOL    HW215018   3.694   5.787   6.750
 4707SOL     OW15019   2.101   5.767   1.159
 4707SOL    HW115020   2.061   5.677   1.146
 4707SOL    HW215021   2.040   5.837   1.121
 4708SOL     OW15022   2.771   2.901   0.756
 4708SOL    HW115023   2.862   2.862   0.742
 4708SOL    HW215024   2.754   2.973   0.688
 4709SOL     OW15025   4.068   5.253   4.946
 4709SOL    HW115026   4.162   5.219   4.947
 4709SOL    HW215027   4.031   5.252   5.039
 4710SOL     OW15028   4.713   1.297   6.465
 4710SOL    HW115029   4.744   1.268   6.556
 4710SOL    HW215030   4.625   1.255   6.445
 4711SOL     OW15031   3.716   0.334   2.343
 4711SOL    HW115032   3.737   0.432   2.337
 4711SOL    HW215033   3.624   0.318   2.308
 4712SOL     OW15034   2.427   4.594   1.390
 4712SOL    HW115035   2.472   4.507   1.366
 4712SOL    HW215036   2.471   4.631   1.472
 4713SOL     OW15037   3.374   4.480   1.380
 4713SOL    HW115038   3.321   4.407   1.336
 4713SOL    HW215039   3.325   4.567   1.371
 4714SOL     OW15040   1.738   1.573   0.678
 4714SOL    HW115041   1.673   1.565   0.601
 4714SOL    HW215042   1.828   1.543   0.648
 4715SOL     OW15043   6.533   3.308   2.363
 4715SOL    HW115044   6.478   3.392   2.355
 4715SOL    HW215045   6.601   3.306   2.289
 4716SOL     OW15046   3.847   4.433   6.128
 4716SOL    HW115047   3.863   4.396   6.219
 4716SOL    HW215048   3.754   4.471   6.123
 4717SOL     OW15049   1.115   5.846   2.038
 4717SOL    HW115050   1.080   5.823   2.129
 4717SOL    HW215051   1.191   5.785   2.015
 4718SOL     OW15052   5.183   1.978   6.458
 4718SOL    HW115053   5.144   1.899   6.410
 4718SOL    HW215054   5.180   2.058   6.398
 4719SOL     OW15055   4.907   3.596   3.126
 4719SOL    HW115056   4.907   3.673   3.190
 4719SOL    HW215057   5.000   3.559   3.120
 4720SOL     OW15058   2.214   6.726   5.682
 4720SOL    HW115059   2.197   6.681   5.769
 4720SOL    HW215060   2.210   6.825   5.694
 4721SOL     OW15061   0.586   2.316   1.803
 4721SOL    HW115062   0.572   2.217   1.796
 4721SOL    HW215063   0.665   2.343   1.748
 4722SOL     OW15064   1.606   6.064   0.090
 4722SOL    HW115065   1.656   5.986   0.128
 4722SOL    HW215066   1.564   6.116   0.164
 4723SOL     OW15067   2.342   6.022   6.064
 4723SOL    HW115068   2.328   6.000   5.968
 4723SOL    HW215069   2.394   5.949   6.108
 4724SOL     OW15070   4.304   6.510   2.703
 4724SOL    HW115071   4.260   6.463   2.626
 4724SOL    HW215072   4.239   6.574   2.745
 4725SOL     OW15073   5.197   6.221   3.118
 4725SOL    HW115074   5.215   6.249   3.212
 4725SOL    HW215075   5.098   6.219   3.102
 4726SOL     OW15076   0.945   3.771   6.972
 4726SOL    HW115077   0.909   3.841   6.909
 4726SOL    HW215078   0.880   3.758   0.028
 4727SOL     OW15079   7.008   5.609   0.022
 4727SOL    HW115080   7.017   5.681   6.971
 4727SOL    HW215081   0.080   5.586   0.058
 4728SOL     OW15082   5.676   1.442   0.719
 4728SOL    HW115083   5.606   1.513   0.715
 4728SOL    HW215084   5.766   1.483   0.703
 4729SOL     OW15085   1.772   1.017   2.944
 4729SOL    HW115086   1.779   0.936   3.003
 4729SOL    HW215087   1.746   1.096   2.999
 4730SOL     OW15088   2.361   5.880   5.490
 4730SOL    HW115089   2.390   5.959   5.436
 4730SOL    HW215090   2.422   5.802   5.472
 4731SOL     OW15091   6.095   0.810   5.378
 4731SOL    HW115092   6.131   0.878   5.315
 4731SOL    HW215093   6.130   0.720   5.355
 4732SOL     OW15094   6.847   3.481   6.507
 4732SOL    HW115095   6.935   3.434   6.511
 4732SOL    HW215096   6.791   3.456   6.586
 4733SOL     OW15097   0.425   3.808   3.079
 4733SOL    HW115098   0.386   3.752   3.005
 4733SOL    HW215099   0.498   3.757   3.124
 4734SOL     OW15100   5.648   2.869   6.801
 4734SOL    HW115101   5.588   2.886   6.879
 4734SOL    HW215102   5.741   2.898   6.824
 4735SOL     OW15103   1.388   4.411   3.618
 4735SOL    HW115104   1.379   4.510   3.625
 4735SOL    HW215105   1.342   4.368   3.695
 4736SOL     OW15106   0.000   0.834   6.427
 4736SOL    HW115107   0.047   0.773   6.491
 4736SOL    HW215108   0.067   0.875   6.365
 4737SOL     OW15109   2.218   4.790   2.346
 4737SOL    HW115110   2.253   4.735   2.422
 4737SOL    HW215111   2.152   4.857   2.380
 4738SOL     OW15112   6.823   5.923   1.673
 4738SOL    HW115113   6.879   5.882   1.601
 4738SOL    HW215114   6.727   5.924   1.644
 4739SOL     OW15115   4.388   0.213   2.195
 4739SOL    HW115116   4.307   0.221   2.253
 4739SOL    HW215117   4.433   0.302   2.189
 4740SOL     OW15118   0.262   1.644   2.466
 4740SOL    HW115119   0.218   1.626   2.553
 4740SOL    HW215120   0.197   1.687   2.403
 4741SOL     OW15121   3.839   2.411   1.414
 4741SOL    HW115122   3.790   2.336   1.458
 4741SOL    HW215123   3.887   2.465   1.484
 4742SOL     OW15124   2.392   6.754   0.022
 4742SOL    HW115125   2.317   6.790   0.078
 4742SOL    HW215126   2.445   6.688   0.075
 4743SOL     OW15127   1.860   3.842   2.294
 4743SOL    HW115128   1.953   3.869   2.269
 4743SOL    HW215129   1.862   3.753   2.339
 4744SOL     OW15130   2.368   5.815   0.778
 4744SOL    HW115131   2.454   5.781   0.742
 4744SOL    HW215132   2.295   5.748   0.760
 4745SOL     OW15133   2.790   3.198   0.159
 4745SOL    HW115134   2.862   3.196   0.090
 4745SOL    HW215135   2.813   3.265   0.229
 4746SOL     OW15136   4.561   5.128   4.250
 4746SOL    HW115137   4.515   5.069   4.183
 4746SOL    HW215138   4.628   5.186   4.204
 4747SOL     OW15139   1.365   2.579   0.897
 4747SOL    HW115140   1.447   2.614   0.853
 4747SOL    HW215141   1.332   2.499   0.847
 4748SOL     OW15142   1.816   6.496   2.075
 4748SOL    HW115143   1.880   6.511   1.999
 4748SOL    HW215144   1.770   6.408   2.063
 4749SOL     OW15145   2.431   6.993   0.355
 4749SOL    HW115146   2.526   6.962   0.368
 4749SOL    HW215147   2.395   6.954   0.270
 4750SOL     OW15148   6.231   4.167   5.250
 4750SOL    HW115149   6.330   4.149   5.253
 4750SOL    HW215150   6.197   4.149   5.158
 4751SOL     OW15151   4.747   1.685   2.068
 4751SOL    HW115152   4.697   1.605   2.035
 4751SOL    HW215153   4.747   1.755   1.997
 4752SOL     OW15154   4.591   1.343   0.362
 4752SOL    HW115155   4.611   1.429   0.408
 4752SOL    HW215156   4.669   1.281   0.374
 4753SOL     OW15157   1.432   6.574   4.925
 4753SOL    HW115158   1.471   6.527   5.004
 4753SOL    HW215159   1.364   6.515   4.882
 4754SOL     OW15160   4.382   4.098   5.836
 4754SOL    HW115161   4.366   4.184   5.883
 4754SOL    HW215162   4.438   4.038   5.894
 4755SOL     OW15163   1.553   0.566   1.573
 4755SOL    HW115164   1.600   0.505   1.510
 4755SOL    HW215165   1.455   0.566   1.552
 4756SOL     OW15166   6.682   4.416   6.986
 4756SOL    HW115167   6.690   4.342   6.920
 4756SOL    HW215168   6.745   4.490   6.962
 4757SOL     OW15169   1.098   2.805   1.609
 4757SOL    HW115170   1.071   2.769   1.520
 4757SOL    HW215171   1.019   2.848   1.653
 4758SOL     OW15172   1.518   0.374   3.388
 4758SOL    HW115173   1.608   0.339   3.361
 4758SOL    HW215174   1.530   0.454   3.446
 4759SOL     OW15175   1.116   5.224   0.174
 4759SOL    HW115176   1.047   5.215   0.246
 4759SOL    HW215177   1.105   5.150   0.108
 4760SOL     OW15178   1.210   0.058   1.056
 4760SOL    HW115179   1.234   0.149   1.024
 4760SOL    HW215180   1.164   0.007   0.983
 4761SOL     OW15181   0.263   6.835   0.532
 4761SOL    HW115182   0.178   6.868   0.492
 4761SOL    HW215183   0.307   6.909   0.583
 4762SOL     OW15184   1.727   5.536   2.141
 4762SOL    HW115185   1.790   5.475   2.093
 4762SOL    HW215186   1.741   5.630   2.110
 4763SOL     OW15187   4.806   6.063   2.085
 4763SOL    HW115188   4.812   5.965   2.102
 4763SOL    HW215189   4.885   6.110   2.124
 4764SOL     OW15190   4.955   3.596   5.270
 4764SOL    HW115191   4.910   3.648   5.343
 4764SOL    HW215192   4.886   3.565   5.205
 4765SOL     OW15193   3.053   1.088   5.231
 4765SOL    HW115194   3.092   1.077   5.140
 4765SOL    HW215195   3.037   0.998   5.272
 4766SOL     OW15196   5.692   6.659   4.401
 4766SOL    HW115197   5.726   6.748   4.431
 4766SOL    HW215198   5.599   6.646   4.433
 4767SOL     OW15199   2.605   5.503   4.840
 4767SOL    HW115200   2.676   5.523   4.773
 4767SOL    HW215201   2.644   5.448   4.914
 4768SOL     OW15202   4.628   2.816   6.505
 4768SOL    HW115203   4.709   2.762   6.482
 4768SOL    HW215204   4.610   2.882   6.433
 4769SOL     OW15205   3.225   6.026   0.907
 4769SOL    HW115206   3.159   6.004   0.835
 4769SOL    HW215207   3.230   6.125   0.920
 4770SOL     OW15208   6.863   2.125   5.619
 4770SOL    HW115209   6.950   2.098   5.659
 4770SOL    HW215210   6.789   2.107   5.684
 4771SOL     OW15211   2.271   0.080   5.107
 4771SOL    HW115212   2.343   0.020   5.072
 4771SOL    HW215213   2.187   0.027   5.118
 4772SOL     OW15214   2.946   5.071   0.815
 4772SOL    HW115215   2.937   5.059   0.716
 4772SOL    HW215216   2.896   4.998   0.862
 4773SOL     OW15217   2.452   5.970   4.772
 4773SOL    HW115218   2.410   5.912   4.843
 4773SOL    HW215219   2.383   6.032   4.736
 4774SOL     OW15220   2.104   4.356   0.843
 4774SOL    HW115221   2.006   4.373   0.830
 4774SOL    HW215222   2.139   4.305   0.764
 4775SOL     OW15223   5.321   6.207   4.511
 4775SOL    HW115224   5.336   6.119   4.466
 4775SOL    HW215225   5.359   6.280   4.454
 4776SOL     OW15226   1.539   0.328   5.236
 4776SOL    HW115227   1.490   0.336   5.323
 4776SOL    HW215228   1.514   0.242   5.192
 4777SOL     OW15229   1.235   5.191   0.683
 4777SOL    HW115230   1.143   5.167   0.653
 4777SOL    HW215231   1.262   5.133   0.760
 4778SOL     OW15232   0.879   2.432   4.842
 4778SOL    HW115233   0.891   2.452   4.940
 4778SOL    HW215234   0.900   2.514   4.789
 4779SOL     OW15235   6.312   0.551   4.140
 4779SOL    HW115236   6.356   0.638   4.119
 4779SOL    HW215237   6.252   0.525   4.064
 4780SOL     OW15238   5.682   2.541   5.684
 4780SOL    HW115239   5.586   2.547   5.659
 4780SOL    HW215240   5.694   2.471   5.755
 4781SOL     OW15241   2.351   6.007   2.486
 4781SOL    HW115242   2.349   6.062   2.402
 4781SOL    HW215243   2.272   5.946   2.487
 4782SOL     OW15244   5.262   5.559   6.086
 4782SOL    HW115245   5.240   5.513   6.000
 4782SOL    HW215246   5.316   5.641   6.067
 4783SOL     OW15247   5.859   4.192   0.456
 4783SOL    HW115248   5.904   4.182   0.367
 4783SOL    HW215249   5.878   4.283   0.493
 4784SOL     OW15250   6.022   2.218   6.503
 4784SOL    HW115251   5.944   2.280   6.495
 4784SOL    HW215252   6.051   2.189   6.412
 4785SOL     OW15253   0.328   6.173   3.057
 4785SOL    HW115254   0.396   6.103   3.075
 4785SOL    HW215255   0.371   6.263   3.056
 4786SOL     OW15256   2.756   6.922   0.778
 4786SOL    HW115257   2.691   6.989   0.743
 4786SOL    HW215258   2.759   6.927   0.878
 4787SOL     OW15259   4.542   2.069   4.281
 4787SOL    HW115260   4.489   2.029   4.206
 4787SOL    HW215261   4.524   2.167   4.286
 4788SOL     OW15262   6.100   5.946   0.038
 4788SOL    HW115263   6.133   5.855   0.064
 4788SOL    HW215264   6.007   5.959   0.074
 4789SOL     OW15265   4.790   1.866   1.819
 4789SOL    HW115266   4.722   1.939   1.825
 4789SOL    HW215267   4.870   1.900   1.769
 4790SOL     OW15268   5.361   1.653   5.416
 4790SOL    HW115269   5.452   1.662   5.456
 4790SOL    HW215270   5.345   1.557   5.391
 4791SOL     OW15271   0.357   3.197   1.083
 4791SOL    HW115272   0.277   3.253   1.064
 4791SOL    HW215273   0.386   3.211   1.178
 4792SOL     OW15274   1.463   4.458   4.630
 4792SOL    HW115275   1.522   4.378   4.627
 4792SOL    HW215276   1.369   4.430   4.651
 4793SOL     OW15277   1.183   4.159   6.030
 4793SOL    HW115278   1.108   4.143   5.967
 4793SOL    HW215279   1.250   4.085   6.022
 4794SOL     OW15280   4.903   0.147   3.753
 4794SOL    HW115281   4.953   0.221   3.796
 4794SOL    HW215282   4.967   0.080   3.715
 4795SOL     OW15283   0.540   1.904   4.169
 4795SOL    HW115284   0.606   1.939   4.235
 4795SOL    HW215285   0.561   1.941   4.078
 4796SOL     OW15286   3.784   1.483   5.985
 4796SOL    HW115287   3.688   1.466   5.964
 4796SOL    HW215288   3.835   1.496   5.900
 4797SOL     OW15289   0.434   5.415   4.534
 4797SOL    HW115290   0.410   5.349   4.463
 4797SOL    HW215291   0.415   5.508   4.501
 4798SOL     OW15292   5.073   5.182   6.600
 4798SOL    HW115293   4.993   5.159   6.545
 4798SOL    HW215294   5.106   5.100   6.648
 4799SOL     OW15295   3.126   2.140   6.174
 4799SOL    HW115296   3.205   2.159   6.231
 4799SOL    HW215297   3.094   2.046   6.191
 4800SOL     OW15298   2.410   4.608   0.607
 4800SOL    HW115299   2.493   4.664   0.614
 4800SOL    HW215300   2.366   4.603   0.697
 4801SOL     OW15301   4.838   2.432   1.365
 4801SOL    HW115302   4.749   2.408   1.405
 4801SOL    HW215303   4.902   2.452   1.439
 4802SOL     OW15304   0.270   6.115   1.893
 4802SOL    HW115305   0.214   6.046   1.847
 4802SOL    HW215306   0.345   6.070   1.942
 4803SOL     OW15307   5.620   4.941   0.053
 4803SOL    HW115308   5.655   4.919   0.144
 4803SOL    HW215309   5.694   4.935   7.005
 4804SOL     OW15310   5.229   1.666   0.565
 4804SOL    HW115311   5.162   1.599   0.533
 4804SOL    HW215312   5.183   1.753   0.581
 4805SOL     OW15313   6.622   1.872   1.663
 4805SOL    HW115314   6.681   1.800   1.701
 4805SOL    HW215315   6.624   1.951   1.725
 4806SOL     OW15316   1.526   3.448   2.837
 4806SOL    HW115317   1.503   3.490   2.925
 4806SOL    HW215318   1.512   3.515   2.764
 4807SOL     OW15319   1.223   3.351   6.863
 4807SOL    HW115320   1.275   3.312   6.940
 4807SOL    HW215321   1.222   3.450   6.871
 4808SOL     OW15322   3.972   6.248   1.060
 4808SOL    HW115323   4.019   6.216   1.142
 4808SOL    HW215324   3.952   6.170   1.001
 4809SOL     OW15325   3.531   4.798   1.532
 4809SOL    HW115326   3.464   4.723   1.527
 4809SOL    HW215327   3.589   4.795   1.451
 4810SOL     OW15328   0.625   4.086   4.031
 4810SOL    HW115329   0.608   4.180   4.061
 4810SOL    HW215330   0.596   4.022   4.102
 4811SOL     OW15331   3.402   3.836   4.724
 4811SOL    HW115332   3.385   3.756   4.665
 4811SOL    HW215333   3.500   3.858   4.722
 4812SOL     OW15334   0.662   6.513   1.689
 4812SOL    HW115335   0.641   6.433   1.745
 4812SOL    HW215336   0.615   6.593   1.726
 4813SOL     OW15337   6.145   1.584   0.040
 4813SOL    HW115338   6.130   1.550   0.133
 4813SOL    HW215339   6.243   1.578   0.019
 4814SOL     OW15340   6.695   4.409   1.913
 4814SOL    HW115341   6.789   4.376   1.928
 4814SOL    HW215342   6.688   4.503   1.945
 4815SOL     OW15343   5.635   5.181   2.990
 4815SOL    HW115344   5.618   5.083   2.976
 4815SOL    HW215345   5.586   5.234   2.921
 4816SOL     OW15346   1.840   6.682   1.521
 4816SOL    HW115347   1.759   6.721   1.564
 4816SOL    HW215348   1.899   6.756   1.488
 4817SOL     OW15349   3.357   0.848   1.610
 4817SOL    HW115350   3.283   0.791   1.644
 4817SOL    HW215351   3.426   0.791   1.565
 4818SOL     OW15352   2.546   0.455   4.374
 4818SOL    HW115353   2.499   0.378   4.417
 4818SOL    HW215354   2.638   0.428   4.346
 4819SOL     OW15355   2.901   2.130   0.935
 4819SOL    HW115356   2.969   2.096   1.000
 4819SOL    HW215357   2.838   2.056   0.910
 4820SOL     OW15358   0.196   3.279   1.920
 4820SOL    HW115359   0.199   3.317   1.827
 4820SOL    HW215360   0.289   3.258   1.950
 4821SOL     OW15361   6.298   5.609   1.826
 4821SOL    HW115362   6.221   5.673   1.825
 4821SOL    HW215363   6.368   5.641   1.889
 4822SOL     OW15364   1.722   3.886   3.835
 4822SOL    HW115365   1.725   3.985   3.844
 4822SOL    HW215366   1.754   3.860   3.744
 4823SOL     OW15367   1.069   0.125   4.002
 4823SOL    HW115368   0.987   0.134   4.058
 4823SOL    HW215369   1.111   0.036   4.018
 4824SOL     OW15370   5.406   2.071   3.060
 4824SOL    HW115371   5.385   2.036   2.969
 4824SOL    HW215372   5.333   2.133   3.090
 4825SOL     OW15373   1.364   3.269   4.357
 4825SOL    HW115374   1.268   3.299   4.351
 4825SOL    HW215375   1.379   3.194   4.293
 4826SOL     OW15376   0.351   6.420   0.236
 4826SOL    HW115377   0.307   6.337   0.201
 4826SOL    HW215378   0.313   6.443   0.325
 4827SOL     OW15379   4.788   1.094   1.570
 4827SOL    HW115380   4.725   1.019   1.588
 4827SOL    HW215381   4.844   1.073   1.490
 4828SOL     OW15382   5.568   3.740   1.779
 4828SOL    HW115383   5.567   3.815   1.846
 4828SOL    HW215384   5.614   3.770   1.696
 4829SOL     OW15385   3.464   0.210   5.906
 4829SOL    HW115386   3.524   0.140   5.943
 4829SOL    HW215387   3.372   0.199   5.944
 4830SOL     OW15388   4.871   5.980   3.512
 4830SOL    HW115389   4.906   6.043   3.443
 4830SOL    HW215390   4.787   6.018   3.552
 4831SOL     OW15391   6.591   5.025   4.935
 4831SOL    HW115392   6.550   4.980   5.014
 4831SOL    HW215393   6.690   5.014   4.939
 4832SOL     OW15394   3.597   2.689   5.878
 4832SOL    HW115395   3.522   2.656   5.821
 4832SOL    HW215396   3.672   2.719   5.820
 4833SOL     OW15397   4.576   1.670   2.968
 4833SOL    HW115398   4.649   1.735   2.989
 4833SOL    HW215399   4.615   1.582   2.942
 4834SOL     OW15400   3.988   0.548   0.763
 4834SOL    HW115401   4.058   0.605   0.721
 4834SOL    HW215402   3.962   0.474   0.701
 4835SOL     OW15403   1.867   0.021   6.357
 4835SOL    HW115404   1.883   0.115   6.326
 4835SOL    HW215405   1.855   0.020   6.456
 4836SOL     OW15406   4.438   1.713   4.007
 4836SOL    HW115407   4.417   1.781   3.937
 4836SOL    HW215408   4.353   1.675   4.044
 4837SOL     OW15409   3.283   2.823   1.596
 4837SOL    HW115410   3.377   2.799   1.573
 4837SOL    HW215411   3.221   2.780   1.530
 4838SOL     OW15412   3.595   4.892   2.230
 4838SOL    HW115413   3.501   4.858   2.232
 4838SOL    HW215414   3.639   4.863   2.145
 4839SOL     OW15415   0.158   4.918   5.032
 4839SOL    HW115416   0.223   4.885   5.101
 4839SOL    HW215417   0.161   4.857   4.953
 4840SOL     OW15418   5.855   6.459   6.912
 4840SOL    HW115419   5.923   6.496   6.975
 4840SOL    HW215420   5.830   6.529   6.845
 4841SOL     OW15421   3.589   5.466   1.544
 4841SOL    HW115422   3.650   5.483   1.467
 4841SOL    HW215423   3.518   5.537   1.546
 4842SOL     OW15424   3.671   5.342   2.137
 4842SOL    HW115425   3.586   5.318   2.090
 4842SOL    HW215426   3.687   5.440   2.131
 4843SOL     OW15427   6.555   3.921   0.162
 4843SOL    HW115428   6.521   3.834   0.199
 4843SOL    HW215429   6.575   3.984   0.237
 4844SOL     OW15430   6.880   3.967   6.657
 4844SOL    HW115431   6.901   3.882   6.608
 4844SOL    HW215432   6.952   3.986   6.724
 4845SOL     OW15433   6.438   5.394   4.418
 4845SOL    HW115434   6.355   5.338   4.419
 4845SOL    HW215435   6.514   5.342   4.459
 4846SOL     OW15436   0.396   3.708   0.697
 4846SOL    HW115437   0.414   3.689   0.794
 4846SOL    HW215438   0.371   3.804   0.686
 4847SOL     OW15439   3.684   1.973   5.846
 4847SOL    HW115440   3.715   2.056   5.893
 4847SOL    HW215441   3.594   1.990   5.805
 4848SOL     OW15442   1.734   1.530   4.219
 4848SOL    HW115443   1.767   1.581   4.298
 4848SOL    HW215444   1.806   1.524   4.150
 4849SOL     OW15445   1.627   6.680   6.868
 4849SOL    HW115446   1.643   6.588   6.902
 4849SOL    HW215447   1.707   6.711   6.816
 4850SOL     OW15448   3.122   0.788   1.960
 4850SOL    HW115449   3.146   0.822   2.052
 4850SOL    HW215450   3.081   0.862   1.908
 4851SOL     OW15451   3.877   6.473   5.333
 4851SOL    HW115452   3.831   6.452   5.419
 4851SOL    HW215453   3.843   6.560   5.297
 4852SOL     OW15454   1.406   0.301   0.215
 4852SOL    HW115455   1.331   0.351   0.172
 4852SOL    HW215456   1.490   0.354   0.207
 4853SOL     OW15457   3.480   1.344   2.532
 4853SOL    HW115458   3.567   1.355   2.580
 4853SOL    HW215459   3.482   1.257   2.482
 4854SOL     OW15460   4.708   6.099   2.573
 4854SOL    HW115461   4.689   6.125   2.478
 4854SOL    HW215462   4.633   6.042   2.608
 4855SOL     OW15463   5.727   2.028   1.981
 4855SOL    HW115464   5.774   2.026   1.893
 4855SOL    HW215465   5.632   2.055   1.968
 4856SOL     OW15466   2.335   4.942   3.033
 4856SOL    HW115467   2.321   5.040   3.018
 4856SOL    HW215468   2.385   4.903   2.956
 4857SOL     OW15469   1.316   1.740   5.994
 4857SOL    HW115470   1.335   1.833   6.026
 4857SOL    HW215471   1.247   1.698   6.053
 4858SOL     OW15472   1.624   1.393   3.880
 4858SOL    HW115473   1.618   1.299   3.847
 4858SOL    HW215474   1.648   1.394   3.977
 4859SOL     OW15475   1.489   5.960   4.192
 4859SOL    HW115476   1.403   5.931   4.235
 4859SOL    HW215477   1.563   5.901   4.225
 4860SOL     OW15478   4.021   5.414   2.154
 4860SOL    HW115479   4.024   5.318   2.126
 4860SOL    HW215480   3.988   5.470   2.078
 4861SOL     OW15481   5.287   5.329   0.290
 4861SOL    HW115482   5.274   5.319   0.191
 4861SOL    HW215483   5.335   5.249   0.326
 4862SOL     OW15484   2.366   5.078   4.318
 4862SOL    HW115485   2.389   4.985   4.343
 4862SOL    HW215486   2.354   5.134   4.400
 4863SOL     OW15487   5.865   4.983   0.492
 4863SOL    HW115488   5.866   5.028   0.581
 4863SOL    HW215489   5.908   4.893   0.499
 4864SOL     OW15490   3.445   1.108   3.957
 4864SOL    HW115491   3.485   1.118   4.048
 4864SOL    HW215492   3.390   1.189   3.935
 4865SOL     OW15493   2.198   0.624   5.022
 4865SOL    HW115494   2.161   0.572   5.098
 4865SOL    HW215495   2.201   0.566   4.940
 4866SOL     OW15496   6.636   3.915   1.275
 4866SOL    HW115497   6.574   3.990   1.253
 4866SOL    HW215498   6.637   3.901   1.374
 4867SOL     OW15499   4.700   5.583   2.454
 4867SOL    HW115500   4.610   5.625   2.459
 4867SOL    HW215501   4.766   5.648   2.417
 4868SOL     OW15502   6.667   4.927   2.432
 4868SOL    HW115503   6.593   4.894   2.490
 4868SOL    HW215504   6.699   4.853   2.374
 4869SOL     OW15505   1.189   1.658   0.613
 4869SOL    HW115506   1.101   1.695   0.585
 4869SOL    HW215507   1.206   1.681   0.709
 4870SOL     OW15508   0.596   6.280   1.812
 4870SOL    HW115509   0.637   6.189   1.809
 4870SOL    HW215510   0.642   6.336   1.880
 4871SOL     OW15511   0.932   0.526   4.539
 4871SOL    HW115512   0.995   0.572   4.476
 4871SOL    HW215513   0.981   0.495   4.620
 4872SOL     OW15514   6.691   6.795   2.996
 4872SOL    HW115515   6.729   6.761   3.082
 4872SOL    HW215516   6.592   6.793   3.001
 4873SOL     OW15517   6.980   5.973   4.464
 4873SOL    HW115518   7.016   5.883   4.437
 4873SOL    HW215519   6.895   5.960   4.515
 4874SOL     OW15520   5.118   2.951   2.598
 4874SOL    HW115521   5.133   3.017   2.524
 4874SOL    HW215522   5.029   2.968   2.640
 4875SOL     OW15523   5.360   0.366   6.713
 4875SOL    HW115524   5.262   0.356   6.727
 4875SOL    HW215525   5.377   0.405   6.622
 4876SOL     OW15526   6.924   1.356   3.767
 4876SOL    HW115527   6.972   1.296   3.703
 4876SOL    HW215528   6.928   1.450   3.734
 4877SOL     OW15529   0.350   2.151   5.294
 4877SOL    HW115530   0.417   2.224   5.278
 4877SOL    HW215531   0.264   2.190   5.325
 4878SOL     OW15532   6.556   1.946   2.351
 4878SOL    HW115533   6.506   1.940   2.265
 4878SOL    HW215534   6.565   2.041   2.379
 4879SOL     OW15535   4.554   2.093   1.854
 4879SOL    HW115536   4.480   2.125   1.912
 4879SOL    HW215537   4.520   2.079   1.761
 4880SOL     OW15538   6.208   3.678   0.083
 4880SOL    HW115539   6.139   3.625   0.131
 4880SOL    HW215540   6.289   3.689   0.142
 4881SOL     OW15541   1.709   1.882   0.631
 4881SOL    HW115542   1.707   1.786   0.659
 4881SOL    HW215543   1.752   1.891   0.542
 4882SOL     OW15544   3.978   2.129   5.353
 4882SOL    HW115545   3.974   2.222   5.389
 4882SOL    HW215546   4.021   2.069   5.421
 4883SOL     OW15547   5.151   4.029   1.326
 4883SOL    HW115548   5.077   4.002   1.265
 4883SOL    HW215549   5.201   4.106   1.286
 4884SOL     OW15550   3.767   5.290   0.403
 4884SOL    HW115551   3.682   5.325   0.364
 4884SOL    HW215552   3.808   5.360   0.461
 4885SOL     OW15553   2.356   4.276   2.060
 4885SOL    HW115554   2.394   4.323   2.140
 4885SOL    HW215555   2.268   4.316   2.035
 4886SOL     OW15556   2.962   0.046   1.345
 4886SOL    HW115557   2.995   6.974   1.371
 4886SOL    HW215558   2.947   0.101   1.427
 4887SOL     OW15559   0.989   6.218   1.815
 4887SOL    HW115560   0.909   6.179   1.768
 4887SOL    HW215561   1.006   6.310   1.780
 4888SOL     OW15562   2.439   0.181   2.836
 4888SOL    HW115563   2.401   0.189   2.928
 4888SOL    HW215564   2.536   0.205   2.839
 4889SOL     OW15565   6.771   1.734   5.311
 4889SOL    HW115566   6.809   1.759   5.222
 4889SOL    HW215567   6.841   1.747   5.382
 4890SOL     OW15568   1.088   2.360   5.750
 4890SOL    HW115569   1.089   2.445   5.803
 4890SOL    HW215570   1.093   2.381   5.653
 4891SOL     OW15571   2.514   4.931   6.696
 4891SOL    HW115572   2.542   5.024   6.720
 4891SOL    HW215573   2.541   4.869   6.770
 4892SOL     OW15574   5.235   5.975   2.044
 4892SOL    HW115575   5.328   5.944   2.064
 4892SOL    HW215576   5.232   6.013   1.952
 4893SOL     OW15577   6.680   3.275   2.105
 4893SOL    HW115578   6.621   3.226   2.040
 4893SOL    HW215579   6.775   3.267   2.077
 4894SOL     OW15580   3.372   0.038   2.392
 4894SOL    HW115581   3.302   0.109   2.388
 4894SOL    HW215582   3.421   0.044   2.479
 4895SOL     OW15583   1.048   5.023   3.183
 4895SOL    HW115584   1.013   4.963   3.256
 4895SOL    HW215585   1.132   5.067   3.213
 4896SOL     OW15586   2.696   4.699   2.658
 4896SOL    HW115587   2.654   4.704   2.567
 4896SOL    HW215588   2.783   4.748   2.657
 4897SOL     OW15589   1.861   5.850   5.658
 4897SOL    HW115590   1.774   5.803   5.672
 4897SOL    HW215591   1.853   5.945   5.688
 4898SOL     OW15592   4.142   1.222   5.232
 4898SOL    HW115593   4.177   1.236   5.140
 4898SOL    HW215594   4.117   1.310   5.272
 4899SOL     OW15595   6.191   5.089   3.041
 4899SOL    HW115596   6.273   5.034   3.057
 4899SOL    HW215597   6.214   5.186   3.050
 4900SOL     OW15598   4.346   6.219   5.817
 4900SOL    HW115599   4.304   6.199   5.729
 4900SOL    HW215600   4.410   6.295   5.807
 4901SOL     OW15601   1.873   1.709   4.950
 4901SOL    HW115602   1.851   1.678   4.858
 4901SOL    HW215603   1.846   1.639   5.017
 4902SOL     OW15604   1.276   1.037   5.951
 4902SOL    HW115605   1.186   1.022   5.992
 4902SOL    HW215606   1.283   0.986   5.866
 4903SOL     OW15607   4.359   5.750   1.216
 4903SOL    HW115608   4.396   5.688   1.285
 4903SOL    HW215609   4.400   5.729   1.128
 4904SOL     OW15610   1.667   1.094   5.763
 4904SOL    HW115611   1.661   1.002   5.725
 4904SOL    HW215612   1.621   1.097   5.851
 4905SOL     OW15613   1.939   0.882   3.564
 4905SOL    HW115614   2.027   0.907   3.604
 4905SOL    HW215615   1.950   0.868   3.466
 4906SOL     OW15616   4.841   3.187   5.630
 4906SOL    HW115617   4.743   3.169   5.625
 4906SOL    HW215618   4.863   3.224   5.721
 4907SOL     OW15619   4.939   1.224   0.973
 4907SOL    HW115620   4.888   1.310   0.966
 4907SOL    HW215621   5.015   1.236   1.036
 4908SOL     OW15622   4.891   6.987   0.214
 4908SOL    HW115623   4.865   6.929   0.137
 4908SOL    HW215624   4.974   6.951   0.256
 4909SOL     OW15625   7.003   4.470   3.689
 4909SOL    HW115626   6.911   4.502   3.715
 4909SOL    HW215627   0.051   4.543   3.706
 4910SOL     OW15628   5.846   0.857   4.096
 4910SOL    HW115629   5.857   0.831   4.000
 4910SOL    HW215630   5.798   0.945   4.101
 4911SOL     OW15631   1.681   3.409   3.636
 4911SOL    HW115632   1.688   3.415   3.536
 4911SOL    HW215633   1.768   3.375   3.673
 4912SOL     OW15634   5.326   1.830   5.656
 4912SOL    HW115635   5.324   1.744   5.606
 4912SOL    HW215636   5.234   1.868   5.660
 4913SOL     OW15637   5.549   3.365   5.483
 4913SOL    HW115638   5.491   3.379   5.563
 4913SOL    HW215639   5.491   3.343   5.404
 4914SOL     OW15640   4.392   0.251   5.638
 4914SOL    HW115641   4.464   0.272   5.572
 4914SOL    HW215642   4.325   0.190   5.597
 4915SOL     OW15643   2.816   6.681   5.323
 4915SOL    HW115644   2.724   6.715   5.344
 4915SOL    HW215645   2.879   6.707   5.396
 4916SOL     OW15646   0.090   0.596   3.971
 4916SOL    HW115647   0.051   0.531   3.906
 4916SOL    HW215648   0.146   0.663   3.923
 4917SOL     OW15649   3.832   5.897   0.940
 4917SOL    HW115650   3.923   5.930   0.915
 4917SOL    HW215651   3.769   5.910   0.863
 4918SOL     OW15652   5.923   6.118   2.402
 4918SOL    HW115653   5.949   6.150   2.311
 4918SOL    HW215654   5.866   6.036   2.394
 4919SOL     OW15655   3.762   2.879   2.196
 4919SOL    HW115656   3.663   2.880   2.191
 4919SOL    HW215657   3.801   2.882   2.104
 4920SOL     OW15658   5.615   0.289   5.380
 4920SOL    HW115659   5.594   0.334   5.467
 4920SOL    HW215660   5.605   0.356   5.306
 4921SOL     OW15661   1.847   5.191   0.291
 4921SOL    HW115662   1.848   5.254   0.213
 4921SOL    HW215663   1.874   5.100   0.260
 4922SOL     OW15664   3.321   2.117   4.961
 4922SOL    HW115665   3.262   2.083   4.888
 4922SOL    HW215666   3.272   2.188   5.012
 4923SOL     OW15667   2.120   1.890   2.620
 4923SOL    HW115668   2.211   1.931   2.624
 4923SOL    HW215669   2.121   1.814   2.554
 4924SOL     OW15670   2.217   2.063   4.980
 4924SOL    HW115671   2.122   2.032   4.974
 4924SOL    HW215672   2.236   2.127   4.906
 4925SOL     OW15673   4.450   0.513   2.679
 4925SOL    HW115674   4.524   0.447   2.665
 4925SOL    HW215675   4.368   0.464   2.708
 4926SOL     OW15676   5.488   1.939   1.553
 4926SOL    HW115677   5.420   1.869   1.575
 4926SOL    HW215678   5.449   2.029   1.570
 4927SOL     OW15679   3.071   2.823   5.986
 4927SOL    HW115680   3.135   2.798   5.912
 4927SOL    HW215681   3.023   2.741   6.017
 4928SOL     OW15682   1.595   0.999   0.070
 4928SOL    HW115683   1.659   1.052   0.126
 4928SOL    HW215684   1.507   1.047   0.065
 4929SOL     OW15685   6.694   6.962   3.641
 4929SOL    HW115686   6.755   0.021   3.660
 4929SOL    HW215687   6.690   6.946   3.543
 4930SOL     OW15688   6.000   6.707   2.592
 4930SOL    HW115689   5.940   6.750   2.659
 4930SOL    HW215690   5.945   6.664   2.520
 4931SOL     OW15691   6.560   6.179   1.570
 4931SOL    HW115692   6.539   6.144   1.479
 4931SOL    HW215693   6.532   6.276   1.575
 4932SOL     OW15694   3.691   3.994   3.290
 4932SOL    HW115695   3.678   4.067   3.224
 4932SOL    HW215696   3.688   3.906   3.243
 4933SOL     OW15697   2.213   6.525   3.388
 4933SOL    HW115698   2.192   6.469   3.469
 4933SOL    HW215699   2.135   6.524   3.326
 4934SOL     OW15700   3.851   5.828   2.789
 4934SOL    HW115701   3.870   5.846   2.693
 4934SOL    HW215702   3.773   5.883   2.818
 4935SOL     OW15703   1.591   1.924   0.040
 4935SOL    HW115704   1.515   1.963   7.006
 4935SOL    HW215705   1.565   1.834   0.074
 4936SOL     OW15706   2.862   4.830   0.913
 4936SOL    HW115707   2.842   4.741   0.873
 4936SOL    HW215708   2.912   4.818   0.999
 4937SOL     OW15709   5.341   3.143   5.052
 4937SOL    HW115710   5.351   3.044   5.055
 4937SOL    HW215711   5.358   3.175   4.959
 4938SOL     OW15712   3.146   5.305   5.842
 4938SOL    HW115713   3.209   5.378   5.818
 4938SOL    HW215714   3.188   5.246   5.911
 4939SOL     OW15715   5.234   2.165   5.226
 4939SOL    HW115716   5.300   2.192   5.295
 4939SOL    HW215717   5.193   2.077   5.251
 4940SOL     OW15718   1.222   0.717   4.982
 4940SOL    HW115719   1.280   0.655   5.034
 4940SOL    HW215720   1.243   0.708   4.884
 4941SOL     OW15721   3.334   2.007   6.495
 4941SOL    HW115722   3.375   1.999   6.586
 4941SOL    HW215723   3.236   1.984   6.501
 4942SOL     OW15724   4.932   3.289   5.043
 4942SOL    HW115725   5.003   3.360   5.041
 4942SOL    HW215726   4.847   3.328   5.079
 4943SOL     OW15727   4.216   2.298   0.167
 4943SOL    HW115728   4.242   2.348   0.250
 4943SOL    HW215729   4.117   2.297   0.158
 4944SOL     OW15730   2.166   3.896   2.935
 4944SOL    HW115731   2.105   3.907   3.013
 4944SOL    HW215732   2.202   3.985   2.908
 4945SOL     OW15733   1.246   0.562   3.683
 4945SOL    HW115734   1.287   0.553   3.773
 4945SOL    HW215735   1.186   0.642   3.682
 4946SOL     OW15736   0.808   3.132   1.158
 4946SOL    HW115737   0.771   3.185   1.082
 4946SOL    HW215738   0.864   3.057   1.122
 4947SOL     OW15739   0.680   6.752   0.848
 4947SOL    HW115740   0.668   6.657   0.818
 4947SOL    HW215741   0.618   6.812   0.798
 4948SOL     OW15742   2.718   0.861   2.724
 4948SOL    HW115743   2.721   0.865   2.624
 4948SOL    HW215744   2.656   0.932   2.758
 4949SOL     OW15745   4.566   0.638   5.626
 4949SOL    HW115746   4.605   0.547   5.609
 4949SOL    HW215747   4.468   0.635   5.607
 4950SOL     OW15748   2.555   5.660   3.641
 4950SOL    HW115749   2.606   5.736   3.680
 4950SOL    HW215750   2.606   5.621   3.564
 4951SOL     OW15751   4.699   1.293   4.340
 4951SOL    HW115752   4.778   1.239   4.369
 4951SOL    HW215753   4.628   1.288   4.409
 4952SOL     OW15754   0.179   6.296   5.030
 4952SOL    HW115755   0.256   6.233   5.026
 4952SOL    HW215756   0.213   6.388   5.052
 4953SOL     OW15757   2.519   5.506   1.745
 4953SOL    HW115758   2.509   5.437   1.816
 4953SOL    HW215759   2.575   5.470   1.670
 4954SOL     OW15760   4.841   4.242   0.183
 4954SOL    HW115761   4.825   4.161   0.126
 4954SOL    HW215762   4.927   4.285   0.154
 4955SOL     OW15763   1.814   5.853   0.086
 4955SOL    HW115764   1.750   5.843   0.010
 4955SOL    HW215765   1.850   5.763   0.112
 4956SOL     OW15766   3.925   6.959   5.471
 4956SOL    HW115767   4.004   6.899   5.465
 4956SOL    HW215768   3.939   0.021   5.414
 4957SOL     OW15769   0.104   1.568   4.198
 4957SOL    HW115770   0.070   1.662   4.203
 4957SOL    HW215771   0.204   1.569   4.194
 4958SOL     OW15772   0.661   6.684   6.063
 4958SOL    HW115773   0.735   6.675   6.130
 4958SOL    HW215774   0.655   6.600   6.009
 4959SOL     OW15775   1.173   0.801   6.761
 4959SOL    HW115776   1.156   0.723   6.820
 4959SOL    HW215777   1.157   0.775   6.665
 4960SOL     OW15778   3.552   6.758   3.976
 4960SOL    HW115779   3.478   6.701   4.009
 4960SOL    HW215780   3.596   6.804   4.053
 4961SOL     OW15781   5.348   0.723   5.075
 4961SOL    HW115782   5.435   0.739   5.028
 4961SOL    HW215783   5.337   0.625   5.090
 4962SOL     OW15784   5.541   3.228   1.954
 4962SOL    HW115785   5.582   3.260   2.040
 4962SOL    HW215786   5.471   3.292   1.924
 4963SOL     OW15787   0.312   5.763   1.398
 4963SOL    HW115788   0.383   5.799   1.459
 4963SOL    HW215789   0.263   5.690   1.445
 4964SOL     OW15790   3.487   5.595   3.426
 4964SOL    HW115791   3.474   5.596   3.525
 4964SOL    HW215792   3.578   5.631   3.404
 4965SOL     OW15793   0.488   6.998   4.954
 4965SOL    HW115794   0.462   6.917   4.901
 4965SOL    HW215795   0.511   0.054   4.892
 4966SOL     OW15796   2.661   5.798   4.676
 4966SOL    HW115797   2.595   5.851   4.730
 4966SOL    HW215798   2.614   5.756   4.599
 4967SOL     OW15799   4.286   2.541   6.722
 4967SOL    HW115800   4.195   2.552   6.682
 4967SOL    HW215801   4.281   2.476   6.798
 4968SOL     OW15802   4.905   3.335   3.814
 4968SOL    HW115803   4.979   3.397   3.840
 4968SOL    HW215804   4.876   3.355   3.721
 4969SOL     OW15805   1.491   1.232   2.289
 4969SOL    HW115806   1.453   1.295   2.222
 4969SOL    HW215807   1.519   1.283   2.370
 4970SOL     OW15808   1.233   2.427   4.705
 4970SOL    HW115809   1.242   2.512   4.757
 4970SOL    HW215810   1.291   2.432   4.623
 4971SOL     OW15811   6.669   5.983   3.981
 4971SOL    HW115812   6.766   5.984   4.004
 4971SOL    HW215813   6.620   5.921   4.042
 4972SOL     OW15814   2.514   3.238   0.150
 4972SOL    HW115815   2.488   3.289   0.068
 4972SOL    HW215816   2.614   3.235   0.157
 4973SOL     OW15817   6.198   6.236   1.900
 4973SOL    HW115818   6.211   6.168   1.972
 4973SOL    HW215819   6.119   6.210   1.844
 4974SOL     OW15820   5.823   5.531   2.009
 4974SOL    HW115821   5.788   5.438   2.020
 4974SOL    HW215822   5.876   5.556   2.091
 4975SOL     OW15823   6.191   6.220   0.898
 4975SOL    HW115824   6.214   6.240   0.803
 4975SOL    HW215825   6.175   6.122   0.908
 4976SOL     OW15826   3.364   0.579   4.193
 4976SOL    HW115827   3.278   0.617   4.158
 4976SOL    HW215828   3.401   0.639   4.264
 4977SOL     OW15829   4.636   3.831   0.766
 4977SOL    HW115830   4.661   3.756   0.827
 4977SOL    HW215831   4.569   3.798   0.699
 4978SOL     OW15832   6.129   3.783   5.591
 4978SOL    HW115833   6.037   3.745   5.588
 4978SOL    HW215834   6.179   3.758   5.508
 4979SOL     OW15835   0.087   1.955   4.971
 4979SOL    HW115836   0.103   1.915   4.881
 4979SOL    HW215837   0.135   2.043   4.978
 4980SOL     OW15838   3.627   6.133   2.395
 4980SOL    HW115839   3.620   6.037   2.422
 4980SOL    HW215840   3.542   6.180   2.419
 4981SOL     OW15841   4.394   6.859   5.611
 4981SOL    HW115842   4.395   6.864   5.711
 4981SOL    HW215843   4.455   6.930   5.575
 4982SOL     OW15844   1.849   1.602   0.003
 4982SOL    HW115845   1.948   1.587   0.009
 4982SOL    HW215846   1.832   1.694   6.988
 4983SOL     OW15847   5.784   3.380   3.831
 4983SOL    HW115848   5.714   3.330   3.780
 4983SOL    HW215849   5.875   3.350   3.803
 4984SOL     OW15850   5.469   3.725   4.531
 4984SOL    HW115851   5.566   3.716   4.556
 4984SOL    HW215852   5.436   3.639   4.493
 4985SOL     OW15853   6.009   5.261   3.697
 4985SOL    HW115854   6.078   5.329   3.672
 4985SOL    HW215855   5.983   5.274   3.793
 4986SOL     OW15856   6.383   4.599   3.047
 4986SOL    HW115857   6.344   4.542   3.119
 4986SOL    HW215858   6.312   4.658   3.009
 4987SOL     OW15859   0.436   3.032   0.743
 4987SOL    HW115860   0.502   3.106   0.729
 4987SOL    HW215861   0.346   3.062   0.712
 4988SOL     OW15862   0.011   1.778   3.916
 4988SOL    HW115863   0.109   1.763   3.927
 4988SOL    HW215864   7.010   1.876   3.917
 4989SOL     OW15865   5.750   1.713   1.476
 4989SOL    HW115866   5.709   1.688   1.564
 4989SOL    HW215867   5.849   1.701   1.481
 4990SOL     OW15868   0.732   2.698   5.930
 4990SOL    HW115869   0.654   2.714   5.869
 4990SOL    HW215870   0.784   2.619   5.898
 4991SOL     OW15871   0.799   3.140   4.169
 4991SOL    HW115872   0.730   3.121   4.098
 4991SOL    HW215873   0.756   3.133   4.259
 4992SOL     OW15874   3.665   0.549   4.756
 4992SOL    HW115875   3.624   0.493   4.685
 4992SOL    HW215876   3.593   0.590   4.812
 4993SOL     OW15877   3.023   5.366   3.919
 4993SOL    HW115878   2.959   5.334   3.988
 4993SOL    HW215879   3.086   5.292   3.894
 4994SOL     OW15880   1.211   6.771   2.873
 4994SOL    HW115881   1.182   6.854   2.919
 4994SOL    HW215882   1.155   6.694   2.906
 4995SOL     OW15883   6.790   2.922   6.208
 4995SOL    HW115884   6.767   3.019   6.197
 4995SOL    HW215885   6.873   2.901   6.156
 4996SOL     OW15886   6.904   1.323   1.419
 4996SOL    HW115887   6.816   1.286   1.448
 4996SOL    HW215888   6.925   1.291   1.327
 4997SOL     OW15889   6.778   2.197   3.050
 4997SOL    HW115890   6.701   2.133   3.048
 4997SOL    HW215891   6.843   2.168   3.120
 4998SOL     OW15892   1.795   4.799   5.050
 4998SOL    HW115893   1.870   4.806   4.985
 4998SOL    HW215894   1.725   4.737   5.014
 4999SOL     OW15895   5.084   5.731   1.319
 4999SOL    HW115896   5.109   5.725   1.415
 4999SOL    HW215897   5.142   5.669   1.265
 5000SOL     OW15898   1.134   0.456   4.754
 5000SOL    HW115899   1.188   0.503   4.824
 5000SOL    HW215900   1.175   0.472   4.665
 5001SOL     OW15901   2.015   3.711   6.356
 5001SOL    HW115902   1.932   3.757   6.322
 5001SOL    HW215903   2.094   3.770   6.341
 5002SOL     OW15904   1.335   2.120   3.226
 5002SOL    HW115905   1.420   2.104   3.177
 5002SOL    HW215906   1.317   2.044   3.289
 5003SOL     OW15907   0.328   6.651   3.174
 5003SOL    HW115908   0.314   6.740   3.131
 5003SOL    HW215909   0.414   6.651   3.225
 5004SOL     OW15910   2.589   5.580   5.713
 5004SOL    HW115911   2.599   5.551   5.808
 5004SOL    HW215912   2.494   5.570   5.685
 5005SOL     OW15913   3.829   2.313   0.579
 5005SOL    HW115914   3.857   2.404   0.548
 5005SOL    HW215915   3.909   2.263   0.613
 5006SOL     OW15916   5.780   0.151   5.230
 5006SOL    HW115917   5.722   0.078   5.193
 5006SOL    HW215918   5.727   0.205   5.296
 5007SOL     OW15919   3.320   0.860   6.005
 5007SOL    HW115920   3.365   0.770   6.014
 5007SOL    HW215921   3.324   0.890   5.910
 5008SOL     OW15922   6.024   1.382   3.045
 5008SOL    HW115923   6.064   1.470   3.071
 5008SOL    HW215924   5.939   1.368   3.095
 5009SOL     OW15925   1.250   5.915   1.570
 5009SOL    HW115926   1.150   5.913   1.574
 5009SOL    HW215927   1.281   5.860   1.493
 5010SOL     OW15928   3.650   4.162   4.001
 5010SOL    HW115929   3.595   4.093   3.953
 5010SOL    HW215930   3.602   4.189   4.085
 5011SOL     OW15931   2.040   3.267   2.138
 5011SOL    HW115932   2.088   3.334   2.081
 5011SOL    HW215933   1.954   3.242   2.094
 5012SOL     OW15934   6.650   2.546   5.747
 5012SOL    HW115935   6.608   2.456   5.760
 5012SOL    HW215936   6.586   2.617   5.777
 5013SOL     OW15937   4.462   0.941   6.256
 5013SOL    HW115938   4.424   0.892   6.335
 5013SOL    HW215939   4.432   0.896   6.172
 5014SOL     OW15940   6.393   5.938   0.967
 5014SOL    HW115941   6.448   5.855   0.958
 5014SOL    HW215942   6.431   5.996   1.040
 5015SOL     OW15943   4.538   1.890   3.460
 5015SOL    HW115944   4.485   1.834   3.396
 5015SOL    HW215945   4.515   1.987   3.447
 5016SOL     OW15946   1.776   1.401   2.844
 5016SOL    HW115947   1.768   1.359   2.934
 5016SOL    HW215948   1.692   1.387   2.792
 5017SOL     OW15949   2.558   2.085   0.284
 5017SOL    HW115950   2.533   2.014   0.219
 5017SOL    HW215951   2.484   2.153   0.290
 5018SOL     OW15952   6.937   4.144   2.248
 5018SOL    HW115953   6.952   4.050   2.278
 5018SOL    HW215954   7.016   4.200   2.275
 5019SOL     OW15955   2.757   3.663   0.267
 5019SOL    HW115956   2.790   3.618   0.185
 5019SOL    HW215957   2.776   3.761   0.261
 5020SOL     OW15958   5.836   5.602   6.211
 5020SOL    HW115959   5.813   5.505   6.200
 5020SOL    HW215960   5.845   5.623   6.309
 5021SOL     OW15961   1.201   4.410   6.126
 5021SOL    HW115962   1.296   4.406   6.157
 5021SOL    HW215963   1.172   4.320   6.095
 5022SOL     OW15964   1.977   6.393   0.647
 5022SOL    HW115965   2.016   6.386   0.555
 5022SOL    HW215966   1.891   6.445   0.642
 5023SOL     OW15967   6.096   2.742   0.813
 5023SOL    HW115968   6.108   2.833   0.853
 5023SOL    HW215969   6.042   2.686   0.875
 5024SOL     OW15970   6.810   3.892   3.294
 5024SOL    HW115971   6.721   3.848   3.298
 5024SOL    HW215972   6.800   3.986   3.259
 5025SOL     OW15973   4.655   1.432   2.298
 5025SOL    HW115974   4.588   1.482   2.353
 5025SOL    HW215975   4.617   1.419   2.206
 5026SOL     OW15976   6.197   5.549   5.526
 5026SOL    HW115977   6.237   5.550   5.617
 5026SOL    HW215978   6.134   5.471   5.518
 5027SOL     OW15979   0.274   6.424   2.815
 5027SOL    HW115980   0.242   6.331   2.827
 5027SOL    HW215981   0.369   6.431   2.847
 5028SOL     OW15982   0.082   5.969   1.756
 5028SOL    HW115983   0.095   6.037   1.684
 5028SOL    HW215984   7.004   5.966   1.781
 5029SOL     OW15985   6.639   2.374   2.182
 5029SOL    HW115986   6.620   2.469   2.208
 5029SOL    HW215987   6.738   2.360   2.180
 5030SOL     OW15988   6.896   6.983   0.154
 5030SOL    HW115989   6.973   0.027   0.141
 5030SOL    HW215990   6.855   6.962   0.065
 5031SOL     OW15991   5.834   1.069   4.346
 5031SOL    HW115992   5.882   1.117   4.420
 5031SOL    HW215993   5.826   0.972   4.369
 5032SOL     OW15994   1.890   5.444   0.730
 5032SOL    HW115995   1.847   5.405   0.649
 5032SOL    HW215996   1.947   5.375   0.775
 5033SOL     OW15997   2.839   4.967   5.261
 5033SOL    HW115998   2.832   4.873   5.293
 5033SOL    HW215999   2.903   5.018   5.318
 5034SOL     OW16000   6.518   2.690   2.474
 5034SOL    HW116001   6.522   2.614   2.538
 5034SOL    HW216002   6.496   2.774   2.523
 5035SOL     OW16003   4.738   5.414   0.529
 5035SOL    HW116004   4.649   5.402   0.573
 5035SOL    HW216005   4.775   5.325   0.504
 5036SOL     OW16006   1.474   6.332   6.855
 5036SOL    HW116007   1.479   6.378   6.944
 5036SOL    HW216008   1.556   6.277   6.841
 5037SOL     OW16009   3.814   1.885   3.089
 5037SOL    HW116010   3.823   1.901   3.187
 5037SOL    HW216011   3.721   1.908   3.060
 5038SOL     OW16012   1.327   5.275   5.587
 5038SOL    HW116013   1.358   5.369   5.605
 5038SOL    HW216014   1.227   5.272   5.591
 5039SOL     OW16015   2.730   3.001   5.382
 5039SOL    HW116016   2.716   3.081   5.440
 5039SOL    HW216017   2.656   2.995   5.315
 5040SOL     OW16018   2.525   3.522   6.790
 5040SOL    HW116019   2.607   3.492   6.839
 5040SOL    HW216020   2.547   3.603   6.735
 5041SOL     OW16021   0.879   4.399   1.446
 5041SOL    HW116022   0.814   4.367   1.377
 5041SOL    HW216023   0.945   4.326   1.466
 5042SOL     OW16024   6.627   3.647   6.907
 5042SOL    HW116025   6.530   3.666   6.921
 5042SOL    HW216026   6.650   3.655   6.810
 5043SOL     OW16027   3.359   1.265   4.411
 5043SOL    HW116028   3.426   1.280   4.337
 5043SOL    HW216029   3.293   1.195   4.382
 5044SOL     OW16030   6.208   5.878   3.630
 5044SOL    HW116031   6.218   5.977   3.640
 5044SOL    HW216032   6.160   5.842   3.711
 5045SOL     OW16033   6.381   3.176   0.317
 5045SOL    HW116034   6.415   3.207   0.405
 5045SOL    HW216035   6.281   3.185   0.315
 5046SOL     OW16036   3.941   3.205   4.746
 5046SOL    HW116037   3.981   3.249   4.826
 5046SOL    HW216038   3.921   3.109   4.766
 5047SOL     OW16039   5.572   1.054   2.993
 5047SOL    HW116040   5.657   1.040   2.943
 5047SOL    HW216041   5.588   1.042   3.091
 5048SOL     OW16042   7.012   2.346   1.862
 5048SOL    HW116043   0.060   2.316   1.930
 5048SOL    HW216044   6.970   2.431   1.892
 5049SOL     OW16045   1.094   1.752   2.389
 5049SOL    HW116046   1.085   1.764   2.488
 5049SOL    HW216047   1.021   1.691   2.356
 5050SOL     OW16048   0.207   1.843   1.675
 5050SOL    HW116049   0.248   1.857   1.765
 5050SOL    HW216050   0.277   1.850   1.604
 5051SOL     OW16051   2.785   3.828   1.269
 5051SOL    HW116052   2.793   3.730   1.251
 5051SOL    HW216053   2.768   3.876   1.183
 5052SOL     OW16054   4.094   4.835   0.949
 5052SOL    HW116055   4.117   4.751   0.901
 5052SOL    HW216056   4.161   4.852   1.022
 5053SOL     OW16057   2.103   3.954   1.955
 5053SOL    HW116058   2.037   3.997   1.894
 5053SOL    HW216059   2.196   3.977   1.925
 5054SOL     OW16060   3.464   5.987   5.167
 5054SOL    HW116061   3.526   6.023   5.238
 5054SOL    HW216062   3.372   5.979   5.204
 5055SOL     OW16063   0.781   1.720   4.979
 5055SOL    HW116064   0.842   1.724   5.058
 5055SOL    HW216065   0.745   1.811   4.960
 5056SOL     OW16066   0.143   4.248   6.074
 5056SOL    HW116067   0.116   4.197   6.156
 5056SOL    HW216068   0.221   4.306   6.095
 5057SOL     OW16069   0.842   5.640   3.461
 5057SOL    HW116070   0.797   5.716   3.414
 5057SOL    HW216071   0.810   5.636   3.555
 5058SOL     OW16072   4.037   4.374   0.122
 5058SOL    HW116073   3.967   4.407   0.184
 5058SOL    HW216074   3.997   4.307   0.060
 5059SOL     OW16075   3.864   1.917   4.743
 5059SOL    HW116076   3.784   1.918   4.803
 5059SOL    HW216077   3.912   2.004   4.750
 5060SOL     OW16078   0.256   3.371   5.476
 5060SOL    HW116079   0.261   3.436   5.552
 5060SOL    HW216080   0.340   3.377   5.421
 5061SOL     OW16081   2.885   3.588   4.352
 5061SOL    HW116082   2.873   3.624   4.445
 5061SOL    HW216083   2.927   3.658   4.295
 5062SOL     OW16084   4.277   1.541   2.188
 5062SOL    HW116085   4.270   1.639   2.173
 5062SOL    HW216086   4.215   1.493   2.125
 5063SOL     OW16087   1.741   6.273   1.857
 5063SOL    HW116088   1.746   6.321   1.769
 5063SOL    HW216089   1.832   6.241   1.883
 5064SOL     OW16090   4.458   5.390   0.602
 5064SOL    HW116091   4.454   5.490   0.614
 5064SOL    HW216092   4.416   5.346   0.681
 5065SOL     OW16093   1.828   0.499   3.491
 5065SOL    HW116094   1.815   0.408   3.452
 5065SOL    HW216095   1.898   0.548   3.439
 5066SOL     OW16096   1.963   4.776   1.706
 5066SOL    HW116097   1.909   4.859   1.689
 5066SOL    HW216098   2.035   4.796   1.772
 5067SOL     OW16099   3.948   2.132   1.471
 5067SOL    HW116100   3.896   2.098   1.391
 5067SOL    HW216101   3.893   2.120   1.553
 5068SOL     OW16102   3.530   6.235   0.921
 5068SOL    HW116103   3.468   6.309   0.947
 5068SOL    HW216104   3.527   6.222   0.822
 5069SOL     OW16105   2.462   3.827   6.238
 5069SOL    HW116106   2.553   3.813   6.201
 5069SOL    HW216107   2.433   3.745   6.288
 5070SOL     OW16108   6.297   2.922   4.087
 5070SOL    HW116109   6.233   2.854   4.123
 5070SOL    HW216110   6.386   2.910   4.131
 5071SOL     OW16111   4.066   1.225   3.987
 5071SOL    HW116112   4.119   1.148   4.020
 5071SOL    HW216113   4.127   1.302   3.966
 5072SOL     OW16114   1.375   0.622   1.044
 5072SOL    HW116115   1.407   0.714   1.069
 5072SOL    HW216116   1.296   0.630   0.984
 5073SOL     OW16117   2.498   6.249   2.317
 5073SOL    HW116118   2.581   6.194   2.327
 5073SOL    HW216119   2.424   6.193   2.280
 5074SOL     OW16120   3.371   1.726   1.477
 5074SOL    HW116121   3.467   1.703   1.496
 5074SOL    HW216122   3.322   1.644   1.449
 5075SOL     OW16123   1.009   2.995   0.194
 5075SOL    HW116124   0.930   2.947   0.232
 5075SOL    HW216125   1.065   3.030   0.269
 5076SOL     OW16126   5.238   0.488   0.209
 5076SOL    HW116127   5.229   0.564   0.273
 5076SOL    HW216128   5.313   0.507   0.145
 5077SOL     OW16129   1.512   3.935   4.528
 5077SOL    HW116130   1.432   3.874   4.532
 5077SOL    HW216131   1.502   4.007   4.596
 5078SOL     OW16132   0.476   1.336   4.028
 5078SOL    HW116133   0.451   1.430   4.052
 5078SOL    HW216134   0.453   1.276   4.105
 5079SOL     OW16135   1.815   2.007   5.876
 5079SOL    HW116136   1.749   2.047   5.813
 5079SOL    HW216137   1.767   1.948   5.941
 5080SOL     OW16138   5.961   5.211   5.938
 5080SOL    HW116139   6.052   5.170   5.945
 5080SOL    HW216140   5.908   5.162   5.868
 5081SOL     OW16141   3.060   5.533   5.000
 5081SOL    HW116142   3.009   5.580   4.928
 5081SOL    HW216143   3.158   5.540   4.981
 5082SOL     OW16144   4.668   6.583   0.311
 5082SOL    HW116145   4.746   6.523   0.292
 5082SOL    HW216146   4.589   6.553   0.259
 5083SOL     OW16147   2.673   0.634   2.252
 5083SOL    HW116148   2.589   0.581   2.246
 5083SOL    HW216149   2.698   0.667   2.161
 5084SOL     OW16150   1.086   5.299   5.300
 5084SOL    HW116151   1.031   5.278   5.381
 5084SOL    HW216152   1.034   5.276   5.217
 5085SOL     OW16153   1.298   3.370   5.994
 5085SOL    HW116154   1.384   3.399   5.954
 5085SOL    HW216155   1.304   3.274   6.021
 5086SOL     OW16156   0.888   4.555   2.858
 5086SOL    HW116157   0.887   4.633   2.921
 5086SOL    HW216158   0.979   4.514   2.856
 5087SOL     OW16159   6.961   5.284   2.235
 5087SOL    HW116160   6.932   5.301   2.329
 5087SOL    HW216161   0.041   5.293   2.228
 5088SOL     OW16162   4.479   5.956   2.637
 5088SOL    HW116163   4.407   6.000   2.584
 5088SOL    HW216164   4.442   5.929   2.726
 5089SOL     OW16165   5.976   4.093   4.339
 5089SOL    HW116166   6.007   4.003   4.370
 5089SOL    HW216167   5.886   4.084   4.298
 5090SOL     OW16168   1.806   0.080   3.880
 5090SOL    HW116169   1.720   0.034   3.860
 5090SOL    HW216170   1.842   0.123   3.797
 5091SOL     OW16171   6.775   0.445   0.252
 5091SOL    HW116172   6.798   0.517   0.187
 5091SOL    HW216173   6.703   0.387   0.214
 5092SOL     OW16174   3.820   3.528   3.978
 5092SOL    HW116175   3.848   3.507   3.885
 5092SOL    HW216176   3.847   3.621   4.001
 5093SOL     OW16177   2.534   1.054   2.785
 5093SOL    HW116178   2.600   1.126   2.807
 5093SOL    HW216179   2.452   1.095   2.745
 5094SOL     OW16180   2.769   5.517   0.015
 5094SOL    HW116181   2.750   5.499   0.111
 5094SOL    HW216182   2.766   5.616   7.017
 5095SOL     OW16183   0.741   1.273   3.872
 5095SOL    HW116184   0.646   1.299   3.890
 5095SOL    HW216185   0.754   1.176   3.894
 5096SOL     OW16186   5.948   3.989   6.440
 5096SOL    HW116187   5.988   4.039   6.517
 5096SOL    HW216188   5.970   3.892   6.449
 5097SOL     OW16189   6.768   6.595   0.031
 5097SOL    HW116190   6.831   6.646   6.991
 5097SOL    HW216191   6.769   6.633   0.123
 5098SOL     OW16192   3.943   2.232   1.866
 5098SOL    HW116193   3.995   2.147   1.871
 5098SOL    HW216194   3.856   2.220   1.915
 5099SOL     OW16195   7.008   5.875   1.452
 5099SOL    HW116196   0.030   5.966   1.443
 5099SOL    HW216197   0.053   5.815   1.500
 5100SOL     OW16198   4.605   5.145   3.088
 5100SOL    HW116199   4.620   5.110   3.180
 5100SOL    HW216200   4.581   5.242   3.093
 5101SOL     OW16201   3.708   0.336   4.950
 5101SOL    HW116202   3.644   0.269   4.913
 5101SOL    HW216203   3.705   0.419   4.896
 5102SOL     OW16204   4.726   5.891   4.156
 5102SOL    HW116205   4.674   5.963   4.202
 5102SOL    HW216206   4.816   5.925   4.131
 5103SOL     OW16207   0.680   0.458   4.852
 5103SOL    HW116208   0.711   0.381   4.796
 5103SOL    HW216209   0.580   0.459   4.853
 5104SOL     OW16210   3.439   6.114   1.897
 5104SOL    HW116211   3.384   6.170   1.960
 5104SOL    HW216212   3.530   6.101   1.935
 5105SOL     OW16213   3.044   3.230   0.043
 5105SOL    HW116214   3.095   3.155   0.085
 5105SOL    HW216215   3.107   3.291   7.014
 5106SOL     OW16216   4.045   1.977   0.938
 5106SOL    HW116217   4.027   1.894   0.991
 5106SOL    HW216218   4.108   2.036   0.988
 5107SOL     OW16219   5.502   3.165   1.444
 5107SOL    HW116220   5.549   3.247   1.411
 5107SOL    HW216221   5.555   3.124   1.518
 5108SOL     OW16222   4.796   3.990   5.704
 5108SOL    HW116223   4.696   3.987   5.707
 5108SOL    HW216224   4.832   3.897   5.703
 5109SOL     OW16225   1.943   2.917   1.515
 5109SOL    HW116226   1.992   2.984   1.460
 5109SOL    HW216227   1.868   2.878   1.462
 5110SOL     OW16228   6.999   6.959   6.181
 5110SOL    HW116229   7.004   0.005   6.257
 5110SOL    HW216230   0.071   6.946   6.142
 5111SOL     OW16231   1.116   6.500   4.900
 5111SOL    HW116232   1.086   6.464   4.988
 5111SOL    HW216233   1.099   6.599   4.897
 5112SOL     OW16234   0.386   6.960   2.651
 5112SOL    HW116235   0.437   6.877   2.629
 5112SOL    HW216236   0.446   0.021   2.646
 5113SOL     OW16237   1.741   5.294   0.544
 5113SOL    HW116238   1.808   5.272   0.474
 5113SOL    HW216239   1.664   5.231   0.538
 5114SOL     OW16240   3.612   6.894   0.855
 5114SOL    HW116241   3.708   6.866   0.853
 5114SOL    HW216242   3.554   6.812   0.852
 5115SOL     OW16243   1.962   3.526   1.622
 5115SOL    HW116244   1.906   3.570   1.551
 5115SOL    HW216245   2.020   3.593   1.666
 5116SOL     OW16246   2.930   6.439   6.876
 5116SOL    HW116247   2.984   6.450   6.792
 5116SOL    HW216248   2.904   6.343   6.887
 5117SOL     OW16249   0.921   3.372   4.794
 5117SOL    HW116250   1.000   3.313   4.777
 5117SOL    HW216251   0.843   3.315   4.822
 5118SOL     OW16252   6.094   6.955   0.714
 5118SOL    HW116253   6.079   6.857   0.721
 5118SOL    HW216254   6.174   6.980   0.769
 5119SOL     OW16255   5.298   1.785   0.835
 5119SOL    HW116256   5.221   1.808   0.774
 5119SOL    HW216257   5.310   1.686   0.837
 5120SOL     OW16258   4.904   0.272   5.008
 5120SOL    HW116259   4.972   0.321   5.063
 5120SOL    HW216260   4.892   0.319   4.921
 5121SOL     OW16261   3.394   4.045   6.937
 5121SOL    HW116262   3.459   3.973   6.960
 5121SOL    HW216263   3.334   4.062   7.016
 5122SOL     OW16264   3.701   5.285   3.574
 5122SOL    HW116265   3.641   5.295   3.495
 5122SOL    HW216266   3.662   5.218   3.637
 5123SOL     OW16267   5.458   2.227   2.512
 5123SOL    HW116268   5.368   2.261   2.541
 5123SOL    HW216269   5.477   2.258   2.420
 5124SOL     OW16270   1.866   6.237   3.617
 5124SOL    HW116271   1.957   6.276   3.601
 5124SOL    HW216272   1.805   6.264   3.542
 5125SOL     OW16273   0.285   1.760   3.945
 5125SOL    HW116274   0.343   1.727   4.020
 5125SOL    HW216275   0.327   1.736   3.858
 5126SOL     OW16276   1.374   6.596   0.474
 5126SOL    HW116277   1.274   6.587   0.477
 5126SOL    HW216278   1.414   6.555   0.555
 5127SOL     OW16279   2.041   5.618   0.034
 5127SOL    HW116280   2.127   5.568   0.028
 5127SOL    HW216281   2.006   5.614   0.127
 5128SOL     OW16282   0.281   5.942   1.093
 5128SOL    HW116283   0.230   5.889   1.025
 5128SOL    HW216284   0.360   5.888   1.124
 5129SOL     OW16285   4.915   6.435   1.472
 5129SOL    HW116286   4.886   6.420   1.567
 5129SOL    HW216287   4.952   6.527   1.463
 5130SOL     OW16288   6.976   4.922   2.868
 5130SOL    HW116289   6.900   4.861   2.842
 5130SOL    HW216290   6.991   4.915   2.966
 5131SOL     OW16291   1.287   3.762   3.406
 5131SOL    HW116292   1.253   3.682   3.454
 5131SOL    HW216293   1.377   3.787   3.441
 5132SOL     OW16294   3.784   3.807   6.186
 5132SOL    HW116295   3.787   3.732   6.119
 5132SOL    HW216296   3.865   3.801   6.244
 5133SOL     OW16297   3.290   5.262   6.956
 5133SOL    HW116298   3.254   5.265   0.030
 5133SOL    HW216299   3.390   5.253   6.959
 5134SOL     OW16300   0.403   2.847   1.685
 5134SOL    HW116301   0.433   2.765   1.637
 5134SOL    HW216302   0.303   2.850   1.686
 5135SOL     OW16303   6.837   2.128   6.099
 5135SOL    HW116304   6.853   2.080   6.185
 5135SOL    HW216305   6.739   2.148   6.091
 5136SOL     OW16306   4.983   0.607   4.585
 5136SOL    HW116307   5.008   0.690   4.534
 5136SOL    HW216308   5.028   0.528   4.544
 5137SOL     OW16309   5.932   3.063   6.508
 5137SOL    HW116310   5.963   2.968   6.519
 5137SOL    HW216311   5.832   3.066   6.511
 5138SOL     OW16312   3.919   3.156   6.648
 5138SOL    HW116313   3.984   3.095   6.603
 5138SOL    HW216314   3.829   3.112   6.653
 5139SOL     OW16315   1.592   6.959   3.837
 5139SOL    HW116316   1.514   0.002   3.825
 5139SOL    HW216317   1.601   6.901   3.756
 5140SOL     OW16318   2.263   1.571   0.374
 5140SOL    HW116319   2.274   1.648   0.310
 5140SOL    HW216320   2.280   1.603   0.467
 5141SOL     OW16321   5.847   3.551   1.256
 5141SOL    HW116322   5.836   3.600   1.170
 5141SOL    HW216323   5.919   3.482   1.246
 5142SOL     OW16324   5.989   2.213   4.518
 5142SOL    HW116325   5.964   2.169   4.431
 5142SOL    HW216326   6.046   2.151   4.572
 5143SOL     OW16327   1.091   4.034   4.337
 5143SOL    HW116328   1.047   4.014   4.249
 5143SOL    HW216329   1.098   3.950   4.391
 5144SOL     OW16330   1.688   6.647   6.272
 5144SOL    HW116331   1.711   6.594   6.190
 5144SOL    HW216332   1.596   6.622   6.303
 5145SOL     OW16333   2.652   5.258   6.286
 5145SOL    HW116334   2.579   5.201   6.249
 5145SOL    HW216335   2.690   5.216   6.368
 5146SOL     OW16336   4.344   3.682   6.776
 5146SOL    HW116337   4.269   3.682   6.842
 5146SOL    HW216338   4.405   3.605   6.796
 5147SOL     OW16339   0.067   4.108   1.780
 5147SOL    HW116340   0.029   4.186   1.830
 5147SOL    HW216341   0.121   4.142   1.702
 5148SOL     OW16342   0.638   6.114   0.930
 5148SOL    HW116343   0.719   6.074   0.886
 5148SOL    HW216344   0.651   6.212   0.940
 5149SOL     OW16345   6.134   0.146   3.520
 5149SOL    HW116346   6.208   0.147   3.453
 5149SOL    HW216347   6.058   0.091   3.485
 5150SOL     OW16348   2.107   5.911   4.129
 5150SOL    HW116349   2.140   6.005   4.123
 5150SOL    HW216350   2.013   5.907   4.095
 5151SOL     OW16351   5.563   0.970   6.512
 5151SOL    HW116352   5.504   1.046   6.540
 5151SOL    HW216353   5.600   0.988   6.421
 5152SOL     OW16354   2.240   4.612   0.126
 5152SOL    HW116355   2.299   4.582   0.201
 5152SOL    HW216356   2.144   4.609   0.156
 5153SOL     OW16357   2.082   1.938   6.897
 5153SOL    HW116358   1.990   1.901   6.912
 5153SOL    HW216359   2.138   1.870   6.850
 5154SOL     OW16360   2.072   3.524   6.081
 5154SOL    HW116361   2.117   3.580   6.151
 5154SOL    HW216362   2.022   3.450   6.126
 5155SOL     OW16363   4.351   6.481   1.876
 5155SOL    HW116364   4.439   6.448   1.908
 5155SOL    HW216365   4.350   6.581   1.878
 5156SOL     OW16366   6.649   2.307   6.324
 5156SOL    HW116367   6.702   2.335   6.244
 5156SOL    HW216368   6.689   2.347   6.406
 5157SOL     OW16369   4.736   2.909   3.550
 5157SOL    HW116370   4.709   2.837   3.486
 5157SOL    HW216371   4.823   2.885   3.592
 5158SOL     OW16372   2.995   1.903   1.421
 5158SOL    HW116373   3.082   1.933   1.460
 5158SOL    HW216374   2.920   1.933   1.480
 5159SOL     OW16375   1.348   3.891   5.017
 5159SOL    HW116376   1.413   3.964   5.038
 5159SOL    HW216377   1.361   3.862   4.922
 5160SOL     OW16378   1.435   3.736   4.199
 5160SOL    HW116379   1.397   3.650   4.166
 5160SOL    HW216380   1.535   3.732   4.198
 5161SOL     OW16381   1.524   4.136   5.309
 5161SOL    HW116382   1.518   4.093   5.219
 5161SOL    HW216383   1.462   4.215   5.312
 5162SOL     OW16384   6.822   5.282   4.321
 5162SOL    HW116385   6.745   5.274   4.385
 5162SOL    HW216386   6.906   5.251   4.366
 5163SOL     OW16387   4.492   5.193   1.488
 5163SOL    HW116388   4.522   5.283   1.455
 5163SOL    HW216389   4.572   5.135   1.503
 5164SOL     OW16390   5.641   2.312   5.843
 5164SOL    HW116391   5.591   2.280   5.923
 5164SOL    HW216392   5.692   2.236   5.802
 5165SOL     OW16393   5.574   4.849   4.788
 5165SOL    HW116394   5.673   4.859   4.799
 5165SOL    HW216395   5.544   4.898   4.706
 5166SOL     OW16396   1.674   4.945   1.973
 5166SOL    HW116397   1.677   4.952   1.873
 5166SOL    HW216398   1.679   4.849   2.000
 5167SOL     OW16399   6.251   6.782   5.492
 5167SOL    HW116400   6.310   6.862   5.483
 5167SOL    HW216401   6.181   6.784   5.420
 5168SOL     OW16402   4.654   2.563   3.707
 5168SOL    HW116403   4.733   2.606   3.750
 5168SOL    HW216404   4.679   2.473   3.672
 5169SOL     OW16405   3.610   3.533   6.629
 5169SOL    HW116406   3.626   3.602   6.559
 5169SOL    HW216407   3.597   3.444   6.586
 5170SOL     OW16408   6.716   4.460   6.011
 5170SOL    HW116409   6.729   4.555   6.039
 5170SOL    HW216410   6.747   4.449   5.917
 5171SOL     OW16411   2.425   4.531   4.545
 5171SOL    HW116412   2.339   4.572   4.515
 5171SOL    HW216413   2.423   4.518   4.645
 5172SOL     OW16414   1.012   3.290   1.683
 5172SOL    HW116415   0.914   3.290   1.665
 5172SOL    HW216416   1.062   3.289   1.597
 5173SOL     OW16417   6.090   3.986   6.706
 5173SOL    HW116418   6.119   4.025   6.793
 5173SOL    HW216419   6.159   3.921   6.674
 5174SOL     OW16420   1.715   4.606   4.469
 5174SOL    HW116421   1.664   4.521   4.456
 5174SOL    HW216422   1.701   4.666   4.391
 5175SOL     OW16423   2.041   4.142   0.302
 5175SOL    HW116424   2.018   4.164   0.397
 5175SOL    HW216425   2.140   4.136   0.292
 5176SOL     OW16426   3.658   3.149   0.250
 5176SOL    HW116427   3.748   3.132   0.290
 5176SOL    HW216428   3.594   3.080   0.282
 5177SOL     OW16429   4.694   0.413   5.579
 5177SOL    HW116430   4.714   0.328   5.628
 5177SOL    HW216431   4.695   0.396   5.481
 5178SOL     OW16432   2.206   2.348   1.664
 5178SOL    HW116433   2.160   2.424   1.619
 5178SOL    HW216434   2.261   2.381   1.741
 5179SOL     OW16435   4.929   6.197   5.086
 5179SOL    HW116436   4.934   6.280   5.031
 5179SOL    HW216437   4.866   6.212   5.163
 5180SOL     OW16438   3.467   2.397   6.721
 5180SOL    HW116439   3.538   2.449   6.768
 5180SOL    HW216440   3.381   2.447   6.725
 5181SOL     OW16441   3.873   0.811   3.027
 5181SOL    HW116442   3.847   0.794   2.932
 5181SOL    HW216443   3.803   0.867   3.071
 5182SOL     OW16444   5.565   4.592   1.700
 5182SOL    HW116445   5.574   4.608   1.798
 5182SOL    HW216446   5.469   4.602   1.673
 5183SOL     OW16447   4.717   0.146   1.623
 5183SOL    HW116448   4.635   0.176   1.671
 5183SOL    HW216449   4.747   0.058   1.660
 5184SOL     OW16450   0.865   1.713   4.041
 5184SOL    HW116451   0.786   1.767   4.013
 5184SOL    HW216452   0.881   1.640   3.974
 5185SOL     OW16453   3.937   6.861   2.817
 5185SOL    HW116454   4.029   6.833   2.844
 5185SOL    HW216455   3.932   6.866   2.718
 5186SOL     OW16456   6.496   4.033   1.017
 5186SOL    HW116457   6.437   4.114   1.023
 5186SOL    HW216458   6.579   4.055   0.965
 5187SOL     OW16459   6.716   0.979   3.658
 5187SOL    HW116460   6.757   0.931   3.735
 5187SOL    HW216461   6.636   1.031   3.688
 5188SOL     OW16462   0.754   4.984   0.076
 5188SOL    HW116463   0.776   5.037   7.013
 5188SOL    HW216464   0.730   4.890   0.049
 5189SOL     OW16465   4.652   4.876   6.672
 5189SOL    HW116466   4.623   4.792   6.625
 5189SOL    HW216467   4.694   4.851   6.760
 5190SOL     OW16468   0.971   2.202   3.984
 5190SOL    HW116469   0.954   2.115   4.031
 5190SOL    HW216470   1.052   2.194   3.927
 5191SOL     OW16471   3.028   1.128   1.429
 5191SOL    HW116472   2.944   1.116   1.483
 5191SOL    HW216473   3.107   1.111   1.487
 5192SOL     OW16474   5.024   5.412   2.497
 5192SOL    HW116475   5.008   5.344   2.426
 5192SOL    HW216476   4.937   5.436   2.540
 5193SOL     OW16477   4.484   4.536   3.806
 5193SOL    HW116478   4.484   4.539   3.706
 5193SOL    HW216479   4.504   4.442   3.836
 5194SOL     OW16480   5.038   0.585   5.866
 5194SOL    HW116481   5.007   0.552   5.955
 5194SOL    HW216482   4.959   0.618   5.813
 5195SOL     OW16483   6.078   6.892   4.582
 5195SOL    HW116484   6.150   6.869   4.648
 5195SOL    HW216485   6.070   6.819   4.514
 5196SOL     OW16486   0.590   4.263   1.671
 5196SOL    HW116487   0.577   4.342   1.732
 5196SOL    HW216488   0.585   4.294   1.576
 5197SOL     OW16489   1.504   6.210   4.093
 5197SOL    HW116490   1.413   6.251   4.081
 5197SOL    HW216491   1.495   6.123   4.141
 5198SOL     OW16492   2.852   6.862   4.604
 5198SOL    HW116493   2.796   6.940   4.632
 5198SOL    HW216494   2.792   6.791   4.566
 5199SOL     OW16495   2.234   5.507   1.637
 5199SOL    HW116496   2.154   5.544   1.589
 5199SOL    HW216497   2.284   5.445   1.577
 5200SOL     OW16498   1.109   1.884   5.173
 5200SOL    HW116499   1.027   1.892   5.230
 5200SOL    HW216500   1.188   1.866   5.231
 5201SOL     OW16501   5.836   4.783   4.486
 5201SOL    HW116502   5.775   4.706   4.469
 5201SOL    HW216503   5.842   4.841   4.404
 5202SOL     OW16504   5.107   3.098   0.255
 5202SOL    HW116505   5.153   3.010   0.246
 5202SOL    HW216506   5.039   3.108   0.182
 5203SOL     OW16507   1.471   0.669   6.320
 5203SOL    HW116508   1.412   0.716   6.386
 5203SOL    HW216509   1.557   0.643   6.365
 5204SOL     OW16510   3.482   6.523   6.585
 5204SOL    HW116511   3.472   6.469   6.501
 5204SOL    HW216512   3.391   6.544   6.622
 5205SOL     OW16513   6.792   5.807   1.285
 5205SOL    HW116514   6.872   5.842   1.334
 5205SOL    HW216515   6.733   5.758   1.349
 5206SOL     OW16516   0.999   4.493   4.984
 5206SOL    HW116517   0.982   4.517   4.889
 5206SOL    HW216518   1.080   4.434   4.989
 5207SOL     OW16519   6.954   0.181   3.915
 5207SOL    HW116520   6.913   0.191   4.006
 5207SOL    HW216521   6.979   0.271   3.880
 5208SOL     OW16522   4.595   2.591   0.709
 5208SOL    HW116523   4.531   2.635   0.771
 5208SOL    HW216524   4.548   2.519   0.657
 5209SOL     OW16525   4.700   6.965   3.425
 5209SOL    HW116526   4.624   6.965   3.360
 5209SOL    HW216527   4.708   0.036   3.468
 5210SOL     OW16528   5.039   4.443   1.090
 5210SOL    HW116529   5.009   4.504   1.017
 5210SOL    HW216530   5.079   4.361   1.050
 5211SOL     OW16531   4.988   2.118   4.216
 5211SOL    HW116532   4.966   2.156   4.306
 5211SOL    HW216533   5.077   2.073   4.220
 5212SOL     OW16534   1.282   2.091   1.106
 5212SOL    HW116535   1.270   2.067   1.202
 5212SOL    HW216536   1.342   2.024   1.062
 5213SOL     OW16537   4.112   3.797   2.253
 5213SOL    HW116538   4.161   3.725   2.301
 5213SOL    HW216539   4.082   3.867   2.318
 5214SOL     OW16540   5.662   4.282   6.357
 5214SOL    HW116541   5.596   4.297   6.283
 5214SOL    HW216542   5.653   4.354   6.425
 5215SOL     OW16543   0.090   3.004   4.945
 5215SOL    HW116544   0.051   3.014   4.853
 5215SOL    HW216545   0.107   3.095   4.984
 5216SOL     OW16546   5.717   5.254   0.934
 5216SOL    HW116547   5.738   5.339   0.885
 5216SOL    HW216548   5.744   5.264   1.029
 5217SOL     OW16549   3.772   5.777   4.193
 5217SOL    HW116550   3.783   5.867   4.236
 5217SOL    HW216551   3.850   5.720   4.216
 5218SOL     OW16552   0.662   0.737   0.939
 5218SOL    HW116553   0.607   0.775   0.864
 5218SOL    HW216554   0.610   0.742   1.024
 5219SOL     OW16555   3.109   1.771   4.714
 5219SOL    HW116556   3.126   1.838   4.642
 5219SOL    HW216557   3.088   1.819   4.799
 5220SOL     OW16558   2.321   5.536   3.501
 5220SOL    HW116559   2.313   5.616   3.560
 5220SOL    HW216560   2.353   5.458   3.556
 5221SOL     OW16561   6.957   0.506   1.670
 5221SOL    HW116562   6.965   0.417   1.625
 5221SOL    HW216563   6.986   0.578   1.606
 5222SOL     OW16564   4.436   4.703   1.522
 5222SOL    HW116565   4.487   4.688   1.607
 5222SOL    HW216566   4.438   4.619   1.467
 5223SOL     OW16567   0.044   3.117   0.531
 5223SOL    HW116568   0.068   3.050   0.460
 5223SOL    HW216569   0.126   3.140   0.584
 5224SOL     OW16570   0.954   1.729   4.555
 5224SOL    HW116571   0.919   1.823   4.555
 5224SOL    HW216572   0.932   1.685   4.468
 5225SOL     OW16573   6.387   0.956   4.582
 5225SOL    HW116574   6.372   1.033   4.520
 5225SOL    HW216575   6.447   0.889   4.538
 5226SOL     OW16576   0.368   5.641   3.391
 5226SOL    HW116577   0.416   5.590   3.320
 5226SOL    HW216578   0.435   5.685   3.451
 5227SOL     OW16579   6.974   3.879   5.966
 5227SOL    HW116580   6.884   3.858   6.004
 5227SOL    HW216581   6.974   3.970   5.926
 5228SOL     OW16582   1.132   2.791   6.292
 5228SOL    HW116583   1.068   2.775   6.217
 5228SOL    HW216584   1.189   2.870   6.271
 5229SOL     OW16585   3.731   6.552   6.690
 5229SOL    HW116586   3.803   6.598   6.638
 5229SOL    HW216587   3.652   6.536   6.631
 5230SOL     OW16588   6.855   0.062   2.322
 5230SOL    HW116589   6.810   0.033   2.406
 5230SOL    HW216590   6.786   0.088   2.254
 5231SOL     OW16591   5.165   1.631   3.003
 5231SOL    HW116592   5.186   1.680   3.088
 5231SOL    HW216593   5.242   1.641   2.940
 5232SOL     OW16594   1.756   3.867   6.266
 5232SOL    HW116595   1.789   3.947   6.315
 5232SOL    HW216596   1.768   3.879   6.168
 5233SOL     OW16597   2.883   1.118   2.381
 5233SOL    HW116598   2.864   1.120   2.283
 5233SOL    HW216599   2.821   1.054   2.427
 5234SOL     OW16600   2.094   2.366   0.730
 5234SOL    HW116601   2.113   2.286   0.673
 5234SOL    HW216602   2.017   2.417   0.691
 5235SOL     OW16603   2.267   1.789   0.888
 5235SOL    HW116604   2.197   1.742   0.942
 5235SOL    HW216605   2.356   1.779   0.932
 5236SOL     OW16606   3.378   5.097   2.225
 5236SOL    HW116607   3.452   5.123   2.287
 5236SOL    HW216608   3.290   5.123   2.266
 5237SOL     OW16609   1.557   1.899   4.687
 5237SOL    HW116610   1.604   1.813   4.706
 5237SOL    HW216611   1.617   1.976   4.708
 5238SOL     OW16612   1.365   4.700   3.101
 5238SOL    HW116613   1.329   4.723   3.192
 5238SOL    HW216614   1.464   4.713   3.100
 5239SOL     OW16615   3.149   4.057   1.128
 5239SOL    HW116616   3.240   4.016   1.124
 5239SOL    HW216617   3.124   4.092   1.038
 5240SOL     OW16618   2.588   2.959   5.961
 5240SOL    HW116619   2.650   2.933   5.887
 5240SOL    HW216620   2.518   2.889   5.973
 5241SOL     OW16621   1.519   5.826   2.210
 5241SOL    HW116622   1.573   5.871   2.139
 5241SOL    HW216623   1.566   5.836   2.298
 5242SOL     OW16624   4.903   0.805   1.149
 5242SOL    HW116625   4.948   0.718   1.131
 5242SOL    HW216626   4.810   0.789   1.180
 5243SOL     OW16627   2.045   6.234   1.508
 5243SOL    HW116628   2.045   6.334   1.519
 5243SOL    HW216629   2.110   6.210   1.436
 5244SOL     OW16630   5.074   3.063   0.738
 5244SOL    HW116631   5.041   3.081   0.645
 5244SOL    HW216632   5.110   2.969   0.742
 5245SOL     OW16633   3.794   4.454   0.258
 5245SOL    HW116634   3.791   4.548   0.226
 5245SOL    HW216635   3.729   4.398   0.206
 5246SOL     OW16636   6.747   2.779   1.957
 5246SOL    HW116637   6.771   2.776   1.860
 5246SOL    HW216638   6.666   2.836   1.969
 5247SOL     OW16639   3.914   1.619   5.543
 5247SOL    HW116640   3.914   1.714   5.574
 5247SOL    HW216641   3.991   1.604   5.481
 5248SOL     OW16642   0.069   1.935   2.996
 5248SOL    HW116643   0.077   1.839   3.022
 5248SOL    HW216644   0.090   1.946   2.899
 5249SOL     OW16645   1.014   4.731   0.222
 5249SOL    HW116646   0.973   4.821   0.241
 5249SOL    HW216647   1.111   4.742   0.201
 5250SOL     OW16648   2.253   5.312   0.354
 5250SOL    HW116649   2.236   5.214   0.365
 5250SOL    HW216650   2.340   5.336   0.396
 5251SOL     OW16651   0.987   4.583   1.246
 5251SOL    HW116652   0.949   4.493   1.269
 5251SOL    HW216653   0.914   4.651   1.246
 5252SOL     OW16654   3.092   6.392   2.126
 5252SOL    HW116655   3.042   6.439   2.198
 5252SOL    HW216656   3.037   6.391   2.042
 5253SOL     OW16657   5.794   4.160   4.624
 5253SOL    HW116658   5.841   4.232   4.573
 5253SOL    HW216659   5.706   4.142   4.582
 5254SOL     OW16660   5.790   0.349   3.225
 5254SOL    HW116661   5.837   0.271   3.184
 5254SOL    HW216662   5.848   0.430   3.218
 5255SOL     OW16663   5.413   2.249   4.421
 5255SOL    HW116664   5.444   2.156   4.439
 5255SOL    HW216665   5.366   2.253   4.333
 5256SOL     OW16666   4.736   1.042   2.878
 5256SOL    HW116667   4.801   1.106   2.918
 5256SOL    HW216668   4.747   0.952   2.919
 5257SOL     OW16669   4.347   0.322   0.348
 5257SOL    HW116670   4.435   0.280   0.327
 5257SOL    HW216671   4.274   0.268   0.308
 5258SOL     OW16672   5.689   1.758   2.847
 5258SOL    HW116673   5.714   1.851   2.819
 5258SOL    HW216674   5.712   1.694   2.774
 5259SOL     OW16675   5.055   5.839   2.828
 5259SOL    HW116676   5.106   5.761   2.864
 5259SOL    HW216677   5.112   5.921   2.832
 5260SOL     OW16678   3.158   5.520   0.042
 5260SOL    HW116679   3.099   5.442   0.063
 5260SOL    HW216680   3.171   5.527   6.962
 5261SOL     OW16681   0.126   5.007   1.069
 5261SOL    HW116682   0.190   5.080   1.044
 5261SOL    HW216683   0.115   4.944   0.992
 5262SOL     OW16684   2.419   0.796   2.926
 5262SOL    HW116685   2.468   0.883   2.931
 5262SOL    HW216686   2.346   0.803   2.858
 5263SOL     OW16687   1.742   1.278   3.088
 5263SOL    HW116688   1.812   1.283   3.159
 5263SOL    HW216689   1.661   1.231   3.123
 5264SOL     OW16690   6.727   2.060   1.836
 5264SOL    HW116691   6.804   2.086   1.778
 5264SOL    HW216692   6.687   2.141   1.877
 5265SOL     OW16693   5.500   2.892   4.350
 5265SOL    HW116694   5.433   2.828   4.312
 5265SOL    HW216695   5.471   2.922   4.440
 5266SOL     OW16696   2.238   6.482   0.831
 5266SOL    HW116697   2.173   6.507   0.759
 5266SOL    HW216698   2.293   6.561   0.856
 5267SOL     OW16699   4.461   2.368   4.336
 5267SOL    HW116700   4.477   2.351   4.433
 5267SOL    HW216701   4.500   2.457   4.311
 5268SOL     OW16702   5.458   0.577   0.049
 5268SOL    HW116703   5.519   0.500   0.067
 5268SOL    HW216704   5.466   0.603   6.972
 5269SOL     OW16705   0.488   6.715   2.573
 5269SOL    HW116706   0.550   6.692   2.498
 5269SOL    HW216707   0.397   6.677   2.555
 5270SOL     OW16708   6.119   1.789   0.700
 5270SOL    HW116709   6.087   1.879   0.728
 5270SOL    HW216710   6.072   1.761   0.616
 5271SOL     OW16711   6.448   5.569   5.054
 5271SOL    HW116712   6.362   5.569   5.004
 5271SOL    HW216713   6.498   5.484   5.034
 5272SOL     OW16714   4.018   6.532   1.060
 5272SOL    HW116715   3.981   6.471   0.991
 5272SOL    HW216716   4.025   6.484   1.147
 5273SOL     OW16717   1.037   3.191   2.798
 5273SOL    HW116718   1.068   3.282   2.824
 5273SOL    HW216719   1.081   3.164   2.713
 5274SOL     OW16720   4.438   6.746   2.418
 5274SOL    HW116721   4.457   6.777   2.325
 5274SOL    HW216722   4.519   6.699   2.455
 5275SOL     OW16723   2.613   0.204   0.891
 5275SOL    HW116724   2.693   0.258   0.918
 5275SOL    HW216725   2.532   0.263   0.890
 5276SOL     OW16726   2.288   6.988   1.665
 5276SOL    HW116727   2.317   0.064   1.651
 5276SOL    HW216728   2.312   6.959   1.757
 5277SOL     OW16729   3.053   1.258   2.568
 5277SOL    HW116730   3.098   1.334   2.522
 5277SOL    HW216731   3.021   1.192   2.499
 5278SOL     OW16732   3.978   4.751   3.015
 5278SOL    HW116733   3.939   4.763   2.923
 5278SOL    HW216734   3.940   4.820   3.076
 5279SOL     OW16735   2.646   5.483   1.229
 5279SOL    HW116736   2.672   5.546   1.156
 5279SOL    HW216737   2.569   5.427   1.198
 5280SOL     OW16738   3.071   6.424   5.155
 5280SOL    HW116739   3.005   6.489   5.116
 5280SOL    HW216740   3.024   6.358   5.213
 5281SOL     OW16741   6.904   1.596   2.605
 5281SOL    HW116742   6.811   1.633   2.613
 5281SOL    HW216743   6.957   1.622   2.685
 5282SOL     OW16744   2.443   1.897   3.614
 5282SOL    HW116745   2.542   1.881   3.608
 5282SOL    HW216746   2.395   1.812   3.591
 5283SOL     OW16747   5.526   5.448   0.769
 5283SOL    HW116748   5.556   5.414   0.680
 5283SOL    HW216749   5.426   5.446   0.772
 5284SOL     OW16750   5.493   4.343   2.888
 5284SOL    HW116751   5.458   4.386   2.805
 5284SOL    HW216752   5.426   4.277   2.922
 5285SOL     OW16753   3.281   4.892   3.956
 5285SOL    HW116754   3.232   4.839   4.026
 5285SOL    HW216755   3.374   4.911   3.987
 5286SOL     OW16756   2.236   4.157   1.287
 5286SOL    HW116757   2.180   4.118   1.360
 5286SOL    HW216758   2.201   4.128   1.198
 5287SOL     OW16759   2.383   1.235   0.602
 5287SOL    HW116760   2.423   1.327   0.602
 5287SOL    HW216761   2.314   1.228   0.530
 5288SOL     OW16762   3.274   0.148   1.156
 5288SOL    HW116763   3.244   0.193   1.240
 5288SOL    HW216764   3.256   0.208   1.078
 5289SOL     OW16765   0.630   5.248   0.450
 5289SOL    HW116766   0.599   5.166   0.402
 5289SOL    HW216767   0.600   5.330   0.400
 5290SOL     OW16768   3.727   6.013   6.982
 5290SOL    HW116769   3.715   6.111   6.993
 5290SOL    HW216770   3.712   5.987   6.887
 5291SOL     OW16771   1.917   4.504   5.282
 5291SOL    HW116772   1.921   4.574   5.211
 5291SOL    HW216773   2.010   4.474   5.304
 5292SOL     OW16774   4.973   3.293   6.845
 5292SOL    HW116775   4.935   3.273   6.755
 5292SOL    HW216776   4.941   3.225   6.911
 5293SOL     OW16777   0.588   0.546   4.302
 5293SOL    HW116778   0.631   0.473   4.354
 5293SOL    HW216779   0.656   0.587   4.240
 5294SOL     OW16780   5.761   2.844   6.268
 5294SOL    HW116781   5.667   2.878   6.268
 5294SOL    HW216782   5.769   2.769   6.203
 5295SOL     OW16783   5.195   1.097   2.941
 5295SOL    HW116784   5.232   1.168   2.882
 5295SOL    HW216785   5.190   1.131   3.035
 5296SOL     OW16786   1.836   4.542   0.808
 5296SOL    HW116787   1.860   4.502   0.719
 5296SOL    HW216788   1.856   4.640   0.808
 5297SOL     OW16789   2.015   1.212   1.173
 5297SOL    HW116790   2.073   1.198   1.253
 5297SOL    HW216791   1.977   1.125   1.142
 5298SOL     OW16792   6.389   4.723   1.674
 5298SOL    HW116793   6.393   4.780   1.756
 5298SOL    HW216794   6.454   4.647   1.682
 5299SOL     OW16795   2.774   0.490   1.441
 5299SOL    HW116796   2.725   0.457   1.360
 5299SOL    HW216797   2.813   0.580   1.422
 5300SOL     OW16798   0.244   6.619   3.688
 5300SOL    HW116799   0.233   6.641   3.591
 5300SOL    HW216800   0.160   6.643   3.737
 5301SOL     OW16801   4.325   1.636   6.607
 5301SOL    HW116802   4.275   1.687   6.678
 5301SOL    HW216803   4.323   1.539   6.628
 5302SOL     OW16804   6.713   4.262   3.055
 5302SOL    HW116805   6.763   4.245   3.140
 5302SOL    HW216806   6.700   4.361   3.043
 5303SOL     OW16807   6.989   4.883   3.574
 5303SOL    HW116808   6.982   4.796   3.525
 5303SOL    HW216809   6.952   4.872   3.667
 5304SOL     OW16810   5.010   1.755   5.927
 5304SOL    HW116811   5.022   1.715   6.018
 5304SOL    HW216812   4.924   1.723   5.888
 5305SOL     OW16813   2.131   0.881   3.774
 5305SOL    HW116814   2.230   0.895   3.780
 5305SOL    HW216815   2.089   0.911   3.860
 5306SOL     OW16816   2.855   6.439   5.869
 5306SOL    HW116817   2.889   6.522   5.913
 5306SOL    HW216818   2.933   6.380   5.846
 5307SOL     OW16819   4.680   6.825   5.985
 5307SOL    HW116820   4.749   6.891   6.013
 5307SOL    HW216821   4.655   6.767   6.063
 5308SOL     OW16822   6.943   0.946   3.386
 5308SOL    HW116823   6.972   0.907   3.473
 5308SOL    HW216824   6.874   1.018   3.402
 5309SOL     OW16825   3.868   4.011   4.065
 5309SOL    HW116826   3.908   3.991   3.976
 5309SOL    HW216827   3.783   4.061   4.053
 5310SOL     OW16828   5.304   2.260   1.460
 5310SOL    HW116829   5.214   2.234   1.494
 5310SOL    HW216830   5.359   2.296   1.535
 5311SOL     OW16831   2.146   5.386   6.870
 5311SOL    HW116832   2.088   5.432   6.802
 5311SOL    HW216833   2.242   5.405   6.849
 5312SOL     OW16834   0.941   4.174   2.975
 5312SOL    HW116835   0.932   4.139   3.068
 5312SOL    HW216836   1.028   4.144   2.936
 5313SOL     OW16837   1.393   5.825   6.276
 5313SOL    HW116838   1.305   5.830   6.324
 5313SOL    HW216839   1.467   5.848   6.340
 5314SOL     OW16840   4.173   5.370   6.672
 5314SOL    HW116841   4.214   5.460   6.686
 5314SOL    HW216842   4.244   5.300   6.675
 5315SOL     OW16843   5.901   3.540   1.903
 5315SOL    HW116844   5.853   3.536   1.990
 5315SOL    HW216845   5.877   3.625   1.855
 5316SOL     OW16846   6.756   4.971   4.596
 5316SOL    HW116847   6.787   4.941   4.687
 5316SOL    HW216848   6.832   4.962   4.531
 5317SOL     OW16849   5.321   0.428   2.341
 5317SOL    HW116850   5.347   0.451   2.435
 5317SOL    HW216851   5.390   0.462   2.278
 5318SOL     OW16852   0.080   2.582   4.536
 5318SOL    HW116853   0.107   2.529   4.616
 5318SOL    HW216854   0.121   2.674   4.541
 5319SOL     OW16855   4.954   0.240   0.256
 5319SOL    HW116856   4.928   0.146   0.234
 5319SOL    HW216857   5.031   0.267   0.199
 5320SOL     OW16858   5.559   3.633   6.817
 5320SOL    HW116859   5.601   3.543   6.822
 5320SOL    HW216860   5.463   3.627   6.845
 5321SOL     OW16861   1.611   5.723   5.705
 5321SOL    HW116862   1.564   5.680   5.628
 5321SOL    HW216863   1.606   5.663   5.785
 5322SOL     OW16864   3.605   5.423   6.343
 5322SOL    HW116865   3.567   5.336   6.374
 5322SOL    HW216866   3.539   5.496   6.359
 5323SOL     OW16867   4.330   1.979   0.496
 5323SOL    HW116868   4.366   2.058   0.447
 5323SOL    HW216869   4.380   1.897   0.466
 5324SOL     OW16870   4.279   2.921   1.521
 5324SOL    HW116871   4.229   2.889   1.602
 5324SOL    HW216872   4.249   3.014   1.499
 5325SOL     OW16873   5.180   6.358   1.752
 5325SOL    HW116874   5.268   6.364   1.705
 5325SOL    HW216875   5.177   6.425   1.826
 5326SOL     OW16876   6.543   5.904   1.654
 5326SOL    HW116877   6.511   5.998   1.638
 5326SOL    HW216878   6.474   5.840   1.621
 5327SOL     OW16879   6.659   6.529   4.323
 5327SOL    HW116880   6.602   6.606   4.352
 5327SOL    HW216881   6.601   6.448   4.309
 5328SOL     OW16882   3.576   3.856   6.997
 5328SOL    HW116883   3.565   3.809   0.065
 5328SOL    HW216884   3.646   3.927   7.007
 5329SOL     OW16885   0.605   4.785   0.846
 5329SOL    HW116886   0.510   4.759   0.865
 5329SOL    HW216887   0.666   4.716   0.883
 5330SOL     OW16888   3.847   3.889   1.458
 5330SOL    HW116889   3.872   3.792   1.459
 5330SOL    HW216890   3.774   3.905   1.524
 5331SOL     OW16891   4.312   2.397   0.426
 5331SOL    HW116892   4.302   2.496   0.413
 5331SOL    HW216893   4.319   2.376   0.523
 5332SOL     OW16894   5.996   4.754   0.580
 5332SOL    HW116895   6.091   4.756   0.550
 5332SOL    HW216896   5.979   4.670   0.632
 5333SOL     OW16897   1.532   1.120   3.185
 5333SOL    HW116898   1.501   1.028   3.210
 5333SOL    HW216899   1.457   1.184   3.198
 5334SOL     OW16900   4.407   4.656   3.132
 5334SOL    HW116901   4.410   4.617   3.040
 5334SOL    HW216902   4.346   4.735   3.133
 5335SOL     OW16903   0.184   5.089   1.331
 5335SOL    HW116904   0.232   5.017   1.382
 5335SOL    HW216905   0.159   5.055   1.240
 5336SOL     OW16906   1.816   2.113   4.455
 5336SOL    HW116907   1.867   2.189   4.416
 5336SOL    HW216908   1.733   2.147   4.499
 5337SOL     OW16909   0.087   4.441   1.193
 5337SOL    HW116910   0.043   4.369   1.248
 5337SOL    HW216911   0.029   4.523   1.193
 5338SOL     OW16912   6.430   3.387   0.522
 5338SOL    HW116913   6.486   3.469   0.533
 5338SOL    HW216914   6.337   3.413   0.499
 5339SOL     OW16915   5.990   2.409   2.679
 5339SOL    HW116916   5.973   2.312   2.665
 5339SOL    HW216917   5.928   2.463   2.621
 5340SOL     OW16918   5.683   2.836   2.711
 5340SOL    HW116919   5.779   2.856   2.731
 5340SOL    HW216920   5.665   2.853   2.615
 5341SOL     OW16921   4.566   5.033   3.688
 5341SOL    HW116922   4.604   5.118   3.722
 5341SOL    HW216923   4.628   4.993   3.620
 5342SOL     OW16924   6.047   0.584   4.829
 5342SOL    HW116925   6.103   0.635   4.763
 5342SOL    HW216926   5.985   0.522   4.780
 5343SOL     OW16927   4.085   3.721   5.332
 5343SOL    HW116928   4.133   3.803   5.301
 5343SOL    HW216929   4.119   3.642   5.281
 5344SOL     OW16930   0.451   1.991   6.289
 5344SOL    HW116931   0.419   2.031   6.375
 5344SOL    HW216932   0.381   2.003   6.218
 5345SOL     OW16933   5.219   1.472   6.911
 5345SOL    HW116934   5.293   1.512   6.965
 5345SOL    HW216935   5.240   1.483   6.814
 5346SOL     OW16936   2.717   5.378   4.090
 5346SOL    HW116937   2.682   5.370   3.996
 5346SOL    HW216938   2.673   5.309   4.147
 5347SOL     OW16939   6.395   1.877   3.938
 5347SOL    HW116940   6.413   1.858   3.841
 5347SOL    HW216941   6.445   1.810   3.994
 5348SOL     OW16942   5.453   2.592   3.983
 5348SOL    HW116943   5.476   2.682   3.946
 5348SOL    HW216944   5.377   2.553   3.931
 5349SOL     OW16945   0.773   3.031   2.030
 5349SOL    HW116946   0.767   3.102   2.101
 5349SOL    HW216947   0.865   2.993   2.029
 5350SOL     OW16948   2.588   6.590   5.792
 5350SOL    HW116949   2.669   6.539   5.819
 5350SOL    HW216950   2.608   6.688   5.795
 5351SOL     OW16951   0.633   5.546   1.723
 5351SOL    HW116952   0.724   5.553   1.683
 5351SOL    HW216953   0.637   5.496   1.809
 5352SOL     OW16954   2.119   3.948   4.221
 5352SOL    HW116955   2.102   4.011   4.297
 5352SOL    HW216956   2.033   3.924   4.178
 5353SOL     OW16957   4.847   5.536   3.269
 5353SOL    HW116958   4.786   5.478   3.323
 5353SOL    HW216959   4.812   5.630   3.268
 5354SOL     OW16960   3.851   5.591   0.447
 5354SOL    HW116961   3.778   5.563   0.510
 5354SOL    HW216962   3.913   5.654   0.494
 5355SOL     OW16963   4.897   4.794   5.326
 5355SOL    HW116964   4.982   4.786   5.377
 5355SOL    HW216965   4.886   4.715   5.266
 5356SOL     OW16966   0.465   4.879   1.166
 5356SOL    HW116967   0.392   4.864   1.098
 5356SOL    HW216968   0.468   4.801   1.228
 5357SOL     OW16969   4.922   5.290   2.284
 5357SOL    HW116970   4.900   5.193   2.274
 5357SOL    HW216971   4.904   5.337   2.197
 5358SOL     OW16972   4.347   1.289   0.443
 5358SOL    HW116973   4.284   1.325   0.374
 5358SOL    HW216974   4.440   1.289   0.406
 5359SOL     OW16975   1.472   2.303   6.760
 5359SOL    HW116976   1.431   2.354   6.685
 5359SOL    HW216977   1.547   2.357   6.800
 5360SOL     OW16978   5.209   4.324   3.121
 5360SOL    HW116979   5.130   4.264   3.109
 5360SOL    HW216980   5.200   4.403   3.060
 5361SOL     OW16981   3.135   5.976   2.850
 5361SOL    HW116982   3.106   5.881   2.837
 5361SOL    HW216983   3.074   6.037   2.800
 5362SOL     OW16984   5.657   0.211   1.808
 5362SOL    HW116985   5.575   0.260   1.777
 5362SOL    HW216986   5.631   0.131   1.861
 5363SOL     OW16987   5.517   5.117   4.913
 5363SOL    HW116988   5.604   5.120   4.864
 5363SOL    HW216989   5.483   5.023   4.916
 5364SOL     OW16990   4.761   0.904   2.437
 5364SOL    HW116991   4.816   0.824   2.411
 5364SOL    HW216992   4.694   0.878   2.506
 5365SOL     OW16993   3.346   3.083   4.268
 5365SOL    HW116994   3.380   3.152   4.332
 5365SOL    HW216995   3.382   2.994   4.294
 5366SOL     OW16996   6.281   6.446   1.649
 5366SOL    HW116997   6.222   6.386   1.595
 5366SOL    HW216998   6.346   6.492   1.588
 5367SOL     OW16999   6.921   6.401   1.624
 5367SOL    HW117000   6.895   6.491   1.659
 5367SOL    HW217001   6.857   6.332   1.658
 5368SOL     OW17002   6.749   5.803   3.609
 5368SOL    HW117003   6.653   5.820   3.585
 5368SOL    HW217004   6.807   5.874   3.571
 5369SOL     OW17005   2.852   5.893   1.807
 5369SOL    HW117006   2.766   5.848   1.782
 5369SOL    HW217007   2.927   5.853   1.756
 5370SOL     OW17008   3.048   3.819   1.609
 5370SOL    HW117009   3.039   3.852   1.515
 5370SOL    HW217010   2.960   3.781   1.639
 5371SOL     OW17011   6.607   5.312   5.092
 5371SOL    HW117012   6.689   5.331   5.147
 5371SOL    HW217013   6.605   5.216   5.067
 5372SOL     OW17014   0.742   0.121   2.406
 5372SOL    HW117015   0.654   0.143   2.450
 5372SOL    HW217016   0.802   0.200   2.411
 5373SOL     OW17017   3.454   0.616   6.014
 5373SOL    HW117018   3.501   0.554   5.951
 5373SOL    HW217019   3.480   0.593   6.108
 5374SOL     OW17020   3.227   5.192   1.608
 5374SOL    HW117021   3.253   5.242   1.691
 5374SOL    HW217022   3.238   5.252   1.529
 5375SOL     OW17023   0.607   6.173   4.597
 5375SOL    HW117024   0.565   6.132   4.516
 5375SOL    HW217025   0.706   6.181   4.583
 5376SOL     OW17026   0.490   1.759   0.026
 5376SOL    HW117027   0.429   1.714   6.979
 5376SOL    HW217028   0.540   1.690   0.077
 5377SOL     OW17029   2.257   0.494   3.429
 5377SOL    HW117030   2.299   0.475   3.340
 5377SOL    HW217031   2.170   0.541   3.416
 5378SOL     OW17032   5.476   0.891   1.763
 5378SOL    HW117033   5.561   0.929   1.799
 5378SOL    HW217034   5.448   0.813   1.820
 5379SOL     OW17035   1.048   3.151   6.480
 5379SOL    HW117036   0.991   3.075   6.511
 5379SOL    HW217037   1.132   3.155   6.534
 5380SOL     OW17038   4.734   0.200   1.108
 5380SOL    HW117039   4.777   0.154   1.185
 5380SOL    HW217040   4.779   0.171   1.023
 5381SOL     OW17041   4.456   6.239   2.973
 5381SOL    HW117042   4.378   6.176   2.975
 5381SOL    HW217043   4.493   6.243   2.880
 5382SOL     OW17044   3.908   1.789   1.629
 5382SOL    HW117045   3.951   1.843   1.700
 5382SOL    HW217046   3.904   1.693   1.658
 5383SOL     OW17047   2.248   3.015   4.402
 5383SOL    HW117048   2.264   3.088   4.469
 5383SOL    HW217049   2.160   2.971   4.420
 5384SOL     OW17050   4.671   6.261   5.551
 5384SOL    HW117051   4.673   6.359   5.566
 5384SOL    HW217052   4.652   6.214   5.637
 5385SOL     OW17053   5.418   2.628   5.644
 5385SOL    HW117054   5.321   2.652   5.637
 5385SOL    HW217055   5.452   2.649   5.735
 5386SOL     OW17056   6.595   3.575   4.103
 5386SOL    HW117057   6.563   3.635   4.029
 5386SOL    HW217058   6.693   3.591   4.119
 5387SOL     OW17059   1.896   1.594   2.460
 5387SOL    HW117060   1.837   1.593   2.379
 5387SOL    HW217061   1.845   1.631   2.538
 5388SOL     OW17062   0.761   6.822   2.761
 5388SOL    HW117063   0.821   6.894   2.726
 5388SOL    HW217064   0.726   6.767   2.685
 5389SOL     OW17065   4.328   2.000   4.071
 5389SOL    HW117066   4.259   2.066   4.041
 5389SOL    HW217067   4.287   1.909   4.077
 5390SOL     OW17068   6.624   3.101   3.718
 5390SOL    HW117069   6.551   3.043   3.756
 5390SOL    HW217070   6.593   3.196   3.716
 5391SOL     OW17071   2.225   2.466   0.334
 5391SOL    HW117072   2.247   2.485   0.239
 5391SOL    HW217073   2.157   2.532   0.366
 5392SOL     OW17074   5.457   2.025   3.668
 5392SOL    HW117075   5.512   1.950   3.707
 5392SOL    HW217076   5.507   2.111   3.678
 5393SOL     OW17077   3.669   1.971   5.518
 5393SOL    HW117078   3.740   1.913   5.558
 5393SOL    HW217079   3.597   1.987   5.586
 5394SOL     OW17080   1.932   0.386   1.017
 5394SOL    HW117081   1.908   0.345   0.929
 5394SOL    HW217082   1.974   0.475   1.002
 5395SOL     OW17083   5.407   2.196   1.201
 5395SOL    HW117084   5.394   2.214   1.298
 5395SOL    HW217085   5.495   2.235   1.172
 5396SOL     OW17086   5.885   5.227   3.339
 5396SOL    HW117087   5.981   5.231   3.313
 5396SOL    HW217088   5.872   5.160   3.412
 5397SOL     OW17089   6.304   1.320   2.990
 5397SOL    HW117090   6.326   1.223   2.983
 5397SOL    HW217091   6.216   1.331   3.035
 5398SOL     OW17092   4.880   2.115   3.437
 5398SOL    HW117093   4.795   2.097   3.485
 5398SOL    HW217094   4.864   2.118   3.338
 5399SOL     OW17095   2.597   0.278   5.826
 5399SOL    HW117096   2.605   0.296   5.728
 5399SOL    HW217097   2.529   0.207   5.842
 5400SOL     OW17098   3.699   3.362   1.437
 5400SOL    HW117099   3.744   3.317   1.514
 5400SOL    HW217100   3.681   3.458   1.459
 5401SOL     OW17101   5.929   4.487   1.570
 5401SOL    HW117102   5.866   4.410   1.572
 5401SOL    HW217103   5.900   4.553   1.500
 5402SOL     OW17104   1.640   0.015   0.998
 5402SOL    HW117105   1.734   6.999   0.998
 5402SOL    HW217106   1.607   0.019   0.903
 5403SOL     OW17107   5.008   3.204   0.486
 5403SOL    HW117108   5.047   3.293   0.508
 5403SOL    HW217109   5.061   3.162   0.412
 5404SOL     OW17110   6.132   1.139   1.251
 5404SOL    HW117111   6.056   1.154   1.187
 5404SOL    HW217112   6.126   1.205   1.326
 5405SOL     OW17113   4.841   6.099   6.784
 5405SOL    HW117114   4.911   6.170   6.794
 5405SOL    HW217115   4.883   6.009   6.791
 5406SOL     OW17116   2.993   0.472   3.958
 5406SOL    HW117117   3.054   0.432   4.027
 5406SOL    HW217118   2.994   0.415   3.876
 5407SOL     OW17119   1.752   0.464   1.936
 5407SOL    HW117120   1.753   0.536   2.005
 5407SOL    HW217121   1.754   0.504   1.845
 5408SOL     OW17122   2.636   2.409   4.487
 5408SOL    HW117123   2.735   2.395   4.474
 5408SOL    HW217124   2.618   2.427   4.584
 5409SOL     OW17125   1.521   2.493   1.176
 5409SOL    HW117126   1.426   2.476   1.149
 5409SOL    HW217127   1.541   2.591   1.169
 5410SOL     OW17128   0.957   2.517   0.953
 5410SOL    HW117129   0.990   2.514   0.859
 5410SOL    HW217130   0.989   2.601   0.997
 5411SOL     OW17131   3.596   4.932   6.691
 5411SOL    HW117132   3.684   4.950   6.648
 5411SOL    HW217133   3.567   4.838   6.671
 5412SOL     OW17134   0.399   2.498   5.975
 5412SOL    HW117135   0.316   2.536   6.015
 5412SOL    HW217136   0.441   2.566   5.915
 5413SOL     OW17137   6.813   6.849   4.453
 5413SOL    HW117138   6.858   6.937   4.439
 5413SOL    HW217139   6.748   6.832   4.379
 5414SOL     OW17140   6.492   4.011   5.218
 5414SOL    HW117141   6.473   3.960   5.302
 5414SOL    HW217142   6.533   3.950   5.151
 5415SOL     OW17143   3.503   0.369   0.665
 5415SOL    HW117144   3.430   0.407   0.609
 5415SOL    HW217145   3.499   0.269   0.663
 5416SOL     OW17146   3.350   5.170   5.982
 5416SOL    HW117147   3.333   5.159   6.080
 5416SOL    HW217148   3.386   5.085   5.944
 5417SOL     OW17149   4.643   6.112   3.632
 5417SOL    HW117150   4.595   6.150   3.554
 5417SOL    HW217151   4.676   6.186   3.691
 5418SOL     OW17152   6.472   3.833   4.651
 5418SOL    HW117153   6.537   3.875   4.714
 5418SOL    HW217154   6.511   3.834   4.558
 5419SOL     OW17155   4.113   0.084   6.229
 5419SOL    HW117156   4.019   0.056   6.209
 5419SOL    HW217157   4.112   0.175   6.272
 5420SOL     OW17158   0.853   1.050   1.690
 5420SOL    HW117159   0.824   1.043   1.786
 5420SOL    HW217160   0.923   0.981   1.672
 5421SOL     OW17161   3.916   5.446   2.424
 5421SOL    HW117162   3.972   5.489   2.352
 5421SOL    HW217163   3.866   5.369   2.385
 5422SOL     OW17164   2.507   6.479   4.028
 5422SOL    HW117165   2.463   6.478   4.118
 5422SOL    HW217166   2.554   6.392   4.011
 5423SOL     OW17167   6.188   6.287   2.360
 5423SOL    HW117168   6.168   6.360   2.426
 5423SOL    HW217169   6.102   6.250   2.325
 5424SOL     OW17170   4.568   4.329   5.630
 5424SOL    HW117171   4.513   4.248   5.612
 5424SOL    HW217172   4.651   4.303   5.678
 5425SOL     OW17173   0.377   3.505   5.990
 5425SOL    HW117174   0.336   3.414   5.986
 5425SOL    HW217175   0.315   3.571   5.949
 5426SOL     OW17176   5.614   5.182   2.311
 5426SOL    HW117177   5.697   5.237   2.298
 5426SOL    HW217178   5.545   5.212   2.245
 5427SOL     OW17179   4.773   2.372   6.548
 5427SOL    HW117180   4.678   2.381   6.578
 5427SOL    HW217181   4.803   2.277   6.560
 5428SOL     OW17182   0.193   5.284   3.021
 5428SOL    HW117183   0.291   5.301   3.011
 5428SOL    HW217184   0.144   5.324   2.944
 5429SOL     OW17185   2.797   0.136   3.632
 5429SOL    HW117186   2.801   0.079   3.714
 5429SOL    HW217187   2.856   0.216   3.644
 5430SOL     OW17188   2.688   3.699   6.060
 5430SOL    HW117189   2.750   3.769   6.023
 5430SOL    HW217190   2.621   3.674   5.990
 5431SOL     OW17191   3.662   4.991   6.279
 5431SOL    HW117192   3.580   5.020   6.229
 5431SOL    HW217193   3.668   5.041   6.366
 5432SOL     OW17194   5.412   5.113   0.399
 5432SOL    HW117195   5.410   5.013   0.397
 5432SOL    HW217196   5.443   5.145   0.489
 5433SOL     OW17197   1.497   6.929   1.217
 5433SOL    HW117198   1.552   6.966   1.141
 5433SOL    HW217199   1.555   6.869   1.273
 5434SOL     OW17200   5.204   0.612   4.389
 5434SOL    HW117201   5.275   0.622   4.459
 5434SOL    HW217202   5.203   0.518   4.354
 5435SOL     OW17203   6.799   4.082   1.112
 5435SOL    HW117204   6.767   4.003   1.165
 5435SOL    HW217205   6.791   4.062   1.014
 5436SOL     OW17206   1.368   4.361   2.652
 5436SOL    HW117207   1.350   4.334   2.558
 5436SOL    HW217208   1.332   4.452   2.669
 5437SOL     OW17209   3.657   5.979   0.744
 5437SOL    HW117210   3.565   5.939   0.738
 5437SOL    HW217211   3.694   5.991   0.652
 5438SOL     OW17212   4.687   4.680   2.950
 5438SOL    HW117213   4.678   4.776   2.923
 5438SOL    HW217214   4.601   4.632   2.932
 5439SOL     OW17215   1.257   4.886   1.479
 5439SOL    HW117216   1.171   4.922   1.443
 5439SOL    HW217217   1.326   4.885   1.406
 5440SOL     OW17218   5.894   5.660   3.652
 5440SOL    HW117219   5.882   5.571   3.607
 5440SOL    HW217220   5.821   5.722   3.624
 5441SOL     OW17221   4.522   2.162   3.489
 5441SOL    HW117222   4.518   2.200   3.397
 5441SOL    HW217223   4.454   2.207   3.547
 5442SOL     OW17224   5.117   0.086   4.965
 5442SOL    HW117225   5.032   0.136   4.981
 5442SOL    HW217226   5.100   7.006   4.970
 5443SOL     OW17227   4.635   0.381   4.436
 5443SOL    HW117228   4.579   0.400   4.517
 5443SOL    HW217229   4.600   0.300   4.390
 5444SOL     OW17230   6.861   0.571   4.459
 5444SOL    HW117231   6.804   0.579   4.377
 5444SOL    HW217232   6.918   0.652   4.467
 5445SOL     OW17233   5.200   5.390   5.378
 5445SOL    HW117234   5.218   5.483   5.409
 5445SOL    HW217235   5.161   5.392   5.286
 5446SOL     OW17236   0.729   4.413   5.926
 5446SOL    HW117237   0.676   4.428   5.843
 5446SOL    HW217238   0.751   4.316   5.934
 5447SOL     OW17239   1.177   1.174   0.321
 5447SOL    HW117240   1.086   1.134   0.319
 5447SOL    HW217241   1.172   1.268   0.353
 5448SOL     OW17242   4.657   5.440   3.087
 5448SOL    HW117243   4.742   5.480   3.123
 5448SOL    HW217244   4.581   5.462   3.148
 5449SOL     OW17245   2.958   1.729   1.951
 5449SOL    HW117246   2.994   1.638   1.927
 5449SOL    HW217247   3.033   1.795   1.953
 5450SOL     OW17248   4.011   5.604   1.670
 5450SOL    HW117249   4.059   5.523   1.703
 5450SOL    HW217250   4.054   5.636   1.586
 5451SOL     OW17251   1.078   0.110   3.512
 5451SOL    HW117252   1.097   0.153   3.600
 5451SOL    HW217253   1.144   0.141   3.444
 5452SOL     OW17254   2.085   4.808   1.947
 5452SOL    HW117255   2.074   4.892   1.999
 5452SOL    HW217256   2.158   4.753   1.987
 5453SOL     OW17257   5.731   4.347   3.294
 5453SOL    HW117258   5.634   4.326   3.295
 5453SOL    HW217259   5.762   4.356   3.199
 5454SOL     OW17260   5.877   5.058   3.569
 5454SOL    HW117261   5.933   5.116   3.629
 5454SOL    HW217262   5.803   5.017   3.622
 5455SOL     OW17263   0.413   1.848   2.823
 5455SOL    HW117264   0.459   1.805   2.745
 5455SOL    HW217265   0.379   1.777   2.884
 5456SOL     OW17266   5.774   1.017   0.041
 5456SOL    HW117267   5.749   1.017   0.137
 5456SOL    HW217268   5.739   1.100   7.016
 5457SOL     OW17269   6.113   2.557   0.239
 5457SOL    HW117270   6.202   2.534   0.278
 5457SOL    HW217271   6.062   2.473   0.220
 5458SOL     OW17272   6.505   4.864   0.798
 5458SOL    HW117273   6.516   4.926   0.720
 5458SOL    HW217274   6.519   4.914   0.883
 5459SOL     OW17275   1.940   3.951   5.583
 5459SOL    HW117276   1.920   4.049   5.582
 5459SOL    HW217277   2.013   3.932   5.648
 5460SOL     OW17278   2.081   0.172   0.128
 5460SOL    HW117279   2.013   0.099   0.140
 5460SOL    HW217280   2.038   0.261   0.144
 5461SOL     OW17281   6.631   1.249   6.519
 5461SOL    HW117282   6.531   1.248   6.512
 5461SOL    HW217283   6.666   1.156   6.511
 5462SOL     OW17284   5.615   5.608   6.655
 5462SOL    HW117285   5.606   5.707   6.640
 5462SOL    HW217286   5.651   5.592   6.747
 5463SOL     OW17287   0.000   2.874   0.131
 5463SOL    HW117288   6.924   2.869   0.162
 5463SOL    HW217289   0.003   2.911   0.038
 5464SOL     OW17290   6.841   6.517   5.335
 5464SOL    HW117291   6.892   6.594   5.295
 5464SOL    HW217292   6.870   6.432   5.291
 5465SOL     OW17293   6.779   6.588   3.685
 5465SOL    HW117294   6.736   6.517   3.629
 5465SOL    HW217295   6.840   6.643   3.628
 5466SOL     OW17296   5.863   2.751   5.341
 5466SOL    HW117297   5.810   2.808   5.404
 5466SOL    HW217298   5.831   2.657   5.347
 5467SOL     OW17299   5.672   3.861   3.480
 5467SOL    HW117300   5.627   3.772   3.487
 5467SOL    HW217301   5.650   3.903   3.391
 5468SOL     OW17302   0.129   1.432   2.147
 5468SOL    HW117303   0.169   1.509   2.097
 5468SOL    HW217304   0.111   1.460   2.241
 5469SOL     OW17305   2.376   1.274   5.464
 5469SOL    HW117306   2.354   1.225   5.380
 5469SOL    HW217307   2.428   1.357   5.442
 5470SOL     OW17308   3.861   5.359   4.107
 5470SOL    HW117309   3.886   5.383   4.201
 5470SOL    HW217310   3.766   5.386   4.090
 5471SOL     OW17311   4.738   0.159   2.817
 5471SOL    HW117312   4.785   0.098   2.753
 5471SOL    HW217313   4.686   0.104   2.883
 5472SOL     OW17314   2.749   1.591   6.276
 5472SOL    HW117315   2.755   1.637   6.187
 5472SOL    HW217316   2.785   1.498   6.267
 5473SOL     OW17317   2.514   4.255   1.676
 5473SOL    HW117318   2.501   4.249   1.577
 5473SOL    HW217319   2.433   4.219   1.722
 5474SOL     OW17320   0.644   5.371   3.444
 5474SOL    HW117321   0.704   5.443   3.479
 5474SOL    HW217322   0.594   5.330   3.520
 5475SOL     OW17323   0.132   1.944   6.452
 5475SOL    HW117324   0.049   1.999   6.442
 5475SOL    HW217325   0.193   1.961   6.375
 5476SOL     OW17326   2.576   6.379   6.095
 5476SOL    HW117327   2.551   6.288   6.129
 5476SOL    HW217328   2.526   6.397   6.010
 5477SOL     OW17329   2.137   5.648   4.462
 5477SOL    HW117330   2.086   5.581   4.407
 5477SOL    HW217331   2.073   5.700   4.518
 5478SOL     OW17332   5.427   4.563   6.316
 5478SOL    HW117333   5.413   4.650   6.269
 5478SOL    HW217334   5.444   4.491   6.249
 5479SOL     OW17335   4.053   1.907   4.533
 5479SOL    HW117336   3.975   1.907   4.596
 5479SOL    HW217337   4.062   1.997   4.491
 5480SOL     OW17338   6.153   4.519   4.901
 5480SOL    HW117339   6.182   4.614   4.896
 5480SOL    HW217340   6.082   4.510   4.971
 5481SOL     OW17341   4.475   1.163   6.428
 5481SOL    HW117342   4.432   1.146   6.516
 5481SOL    HW217343   4.478   1.079   6.375
 5482SOL     OW17344   4.119   3.136   1.690
 5482SOL    HW117345   4.150   3.175   1.604
 5482SOL    HW217346   4.143   3.197   1.765
 5483SOL     OW17347   6.949   3.594   6.121
 5483SOL    HW117348   7.003   3.674   6.149
 5483SOL    HW217349   6.886   3.569   6.194
 5484SOL     OW17350   6.906   6.644   4.289
 5484SOL    HW117351   6.905   6.686   4.380
 5484SOL    HW217352   6.830   6.580   4.281
 5485SOL     OW17353   4.062   6.953   4.935
 5485SOL    HW117354   4.120   6.891   4.988
 5485SOL    HW217355   4.033   6.908   4.851
 5486SOL     OW17356   1.089   0.605   3.135
 5486SOL    HW117357   1.013   0.541   3.146
 5486SOL    HW217358   1.151   0.571   3.065
 5487SOL     OW17359   6.286   4.470   0.293
 5487SOL    HW117360   6.278   4.372   0.313
 5487SOL    HW217361   6.274   4.485   0.195
 5488SOL     OW17362   5.147   2.228   6.728
 5488SOL    HW117363   5.207   2.153   6.758
 5488SOL    HW217364   5.085   2.252   6.802
 5489SOL     OW17365   1.743   4.598   2.547
 5489SOL    HW117366   1.788   4.569   2.463
 5489SOL    HW217367   1.786   4.554   2.626
 5490SOL     OW17368   3.341   0.963   0.028
 5490SOL    HW117369   3.412   0.997   6.985
 5490SOL    HW217370   3.291   1.040   0.066
 5491SOL     OW17371   1.751   4.594   0.425
 5491SOL    HW117372   1.803   4.549   0.498
 5491SOL    HW217373   1.793   4.682   0.404
 5492SOL     OW17374   0.754   2.411   0.114
 5492SOL    HW117375   0.793   2.502   0.132
 5492SOL    HW217376   0.658   2.420   0.088
 5493SOL     OW17377   3.736   3.323   5.748
 5493SOL    HW117378   3.747   3.395   5.817
 5493SOL    HW217379   3.650   3.274   5.765
 5494SOL     OW17380   6.558   3.425   1.787
 5494SOL    HW117381   6.522   3.342   1.829
 5494SOL    HW217382   6.658   3.424   1.791
 5495SOL     OW17383   3.976   3.890   2.028
 5495SOL    HW117384   4.044   3.882   1.955
 5495SOL    HW217385   4.007   3.840   2.109
 5496SOL     OW17386   3.929   6.258   2.113
 5496SOL    HW117387   3.917   6.261   2.014
 5496SOL    HW217388   3.886   6.339   2.154
 5497SOL     OW17389   0.331   1.412   3.047
 5497SOL    HW117390   0.407   1.364   3.091
 5497SOL    HW217391   0.341   1.510   3.062
 5498SOL     OW17392   4.822   1.359   5.848
 5498SOL    HW117393   4.802   1.399   5.759
 5498SOL    HW217394   4.779   1.414   5.920
 5499SOL     OW17395   6.614   1.548   3.290
 5499SOL    HW117396   6.565   1.470   3.250
 5499SOL    HW217397   6.712   1.528   3.291
 5500SOL     OW17398   2.506   5.195   0.985
 5500SOL    HW117399   2.537   5.100   0.980
 5500SOL    HW217400   2.559   5.251   0.922
 5501SOL     OW17401   2.741   0.066   1.932
 5501SOL    HW117402   2.812   0.081   2.000
 5501SOL    HW217403   2.701   0.153   1.905
 5502SOL     OW17404   5.908   4.086   5.736
 5502SOL    HW117405   5.882   4.009   5.679
 5502SOL    HW217406   6.006   4.082   5.755
 5503SOL     OW17407   0.987   4.833   3.427
 5503SOL    HW117408   0.918   4.764   3.446
 5503SOL    HW217409   0.979   4.907   3.493
 5504SOL     OW17410   3.286   1.390   5.129
 5504SOL    HW117411   3.317   1.363   5.221
 5504SOL    HW217412   3.201   1.442   5.137
 5505SOL     OW17413   2.531   5.589   5.139
 5505SOL    HW117414   2.464   5.584   5.064
 5505SOL    HW217415   2.596   5.514   5.130
 5506SOL     OW17416   6.775   0.862   4.745
 5506SOL    HW117417   6.815   0.790   4.801
 5506SOL    HW217418   6.675   0.858   4.751
 5507SOL     OW17419   2.378   6.756   3.237
 5507SOL    HW117420   2.318   6.750   3.317
 5507SOL    HW217421   2.414   6.665   3.215
 5508SOL     OW17422   2.233   0.594   6.294
 5508SOL    HW117423   2.307   0.645   6.338
 5508SOL    HW217424   2.226   0.622   6.199
 5509SOL     OW17425   5.974   6.462   0.249
 5509SOL    HW117426   5.971   6.545   0.195
 5509SOL    HW217427   5.881   6.433   0.271
 5510SOL     OW17428   4.691   0.315   6.196
 5510SOL    HW117429   4.648   0.258   6.125
 5510SOL    HW217430   4.625   0.382   6.229
 5511SOL     OW17431   0.490   0.621   2.537
 5511SOL    HW117432   0.523   0.704   2.582
 5511SOL    HW217433   0.538   0.609   2.451
 5512SOL     OW17434   6.629   1.887   0.274
 5512SOL    HW117435   6.606   1.951   0.348
 5512SOL    HW217436   6.580   1.801   0.289
 5513SOL     OW17437   4.579   4.594   4.452
 5513SOL    HW117438   4.601   4.689   4.431
 5513SOL    HW217439   4.585   4.580   4.551
 5514SOL     OW17440   5.895   4.901   3.032
 5514SOL    HW117441   5.972   4.875   3.092
 5514SOL    HW217442   5.810   4.865   3.071
 5515SOL     OW17443   6.734   2.649   2.296
 5515SOL    HW117444   6.713   2.710   2.219
 5515SOL    HW217445   6.675   2.672   2.374
 5516SOL     OW17446   1.621   2.705   0.069
 5516SOL    HW117447   1.598   2.634   0.136
 5516SOL    HW217448   1.713   2.740   0.087
 5517SOL     OW17449   3.249   2.038   1.292
 5517SOL    HW117450   3.262   1.968   1.362
 5517SOL    HW217451   3.213   2.121   1.333
 5518SOL     OW17452   5.243   4.890   6.415
 5518SOL    HW117453   5.339   4.862   6.413
 5518SOL    HW217454   5.236   4.989   6.407
 5519SOL     OW17455   5.308   3.802   2.947
 5519SOL    HW117456   5.258   3.829   3.029
 5519SOL    HW217457   5.244   3.771   2.877
 5520SOL     OW17458   1.634   3.842   2.845
 5520SOL    HW117459   1.563   3.801   2.788
 5520SOL    HW217460   1.593   3.885   2.925
 5521SOL     OW17461   4.918   6.344   1.742
 5521SOL    HW117462   4.892   6.281   1.814
 5521SOL    HW217463   5.015   6.334   1.722
 5522SOL     OW17464   2.692   3.479   1.727
 5522SOL    HW117465   2.712   3.435   1.640
 5522SOL    HW217466   2.594   3.501   1.731
 5523SOL     OW17467   3.480   6.858   2.880
 5523SOL    HW117468   3.409   6.920   2.912
 5523SOL    HW217469   3.445   6.804   2.803
 5524SOL     OW17470   0.580   5.605   4.767
 5524SOL    HW117471   0.508   5.536   4.776
 5524SOL    HW217472   0.669   5.561   4.763
 5525SOL     OW17473   6.837   4.880   6.909
 5525SOL    HW117474   6.800   4.885   7.002
 5525SOL    HW217475   6.936   4.891   6.913
 5526SOL     OW17476   6.339   3.457   3.543
 5526SOL    HW117477   6.329   3.358   3.531
 5526SOL    HW217478   6.253   3.502   3.521
 5527SOL     OW17479   0.769   2.656   1.741
 5527SOL    HW117480   0.796   2.572   1.693
 5527SOL    HW217481   0.813   2.660   1.830
 5528SOL     OW17482   6.820   2.658   5.164
 5528SOL    HW117483   6.919   2.672   5.173
 5528SOL    HW217484   6.802   2.562   5.144
 5529SOL     OW17485   2.458   0.616   4.800
 5529SOL    HW117486   2.486   0.633   4.705
 5529SOL    HW217487   2.420   0.700   4.838
 5530SOL     OW17488   0.159   2.616   0.942
 5530SOL    HW117489   0.095   2.544   0.915
 5530SOL    HW217490   0.117   2.705   0.927
 5531SOL     OW17491   4.008   3.188   4.476
 5531SOL    HW117492   4.053   3.274   4.457
 5531SOL    HW217493   3.984   3.183   4.573
 5532SOL     OW17494   1.602   0.787   0.388
 5532SOL    HW117495   1.660   0.716   0.347
 5532SOL    HW217496   1.514   0.789   0.340
 5533SOL     OW17497   2.581   0.725   3.339
 5533SOL    HW117498   2.641   0.707   3.417
 5533SOL    HW217499   2.623   0.794   3.280
 5534SOL     OW17500   1.448   2.966   6.728
 5534SOL    HW117501   1.493   3.019   6.800
 5534SOL    HW217502   1.459   2.869   6.746
 5535SOL     OW17503   6.867   2.957   3.069
 5535SOL    HW117504   6.846   2.912   3.156
 5535SOL    HW217505   6.877   3.055   3.084
 5536SOL     OW17506   2.239   0.482   4.395
 5536SOL    HW117507   2.316   0.538   4.424
 5536SOL    HW217508   2.202   0.433   4.474
 5537SOL     OW17509   3.543   0.136   4.895
 5537SOL    HW117510   3.451   0.163   4.866
 5537SOL    HW217511   3.545   0.038   4.913
 5538SOL     OW17512   3.961   0.572   5.555
 5538SOL    HW117513   3.915   0.539   5.473
 5538SOL    HW217514   4.017   0.500   5.594
 5539SOL     OW17515   0.639   1.710   2.031
 5539SOL    HW117516   0.580   1.646   1.983
 5539SOL    HW217517   0.677   1.666   2.112
 5540SOL     OW17518   5.114   2.781   1.447
 5540SOL    HW117519   5.041   2.842   1.417
 5540SOL    HW217520   5.169   2.827   1.517
 5541SOL     OW17521   5.157   3.195   5.506
 5541SOL    HW117522   5.181   3.107   5.466
 5541SOL    HW217523   5.076   3.186   5.563
 5542SOL     OW17524   5.510   5.209   6.525
 5542SOL    HW117525   5.429   5.264   6.547
 5542SOL    HW217526   5.584   5.231   6.588
 5543SOL     OW17527   2.443   5.512   6.794
 5543SOL    HW117528   2.402   5.598   6.762
 5543SOL    HW217529   2.525   5.493   6.740
 5544SOL     OW17530   5.495   5.361   6.139
 5544SOL    HW117531   5.419   5.426   6.145
 5544SOL    HW217532   5.471   5.287   6.076
 5545SOL     OW17533   3.739   1.443   2.646
 5545SOL    HW117534   3.819   1.480   2.598
 5545SOL    HW217535   3.765   1.420   2.740
 5546SOL     OW17536   0.997   6.540   4.530
 5546SOL    HW117537   1.006   6.463   4.594
 5546SOL    HW217538   1.059   6.614   4.558
 5547SOL     OW17539   4.248   1.541   5.911
 5547SOL    HW117540   4.316   1.606   5.876
 5547SOL    HW217541   4.186   1.589   5.973
 5548SOL     OW17542   6.450   4.349   6.006
 5548SOL    HW117543   6.413   4.337   6.098
 5548SOL    HW217544   6.546   4.379   6.012
 5549SOL     OW17545   3.944   3.057   1.226
 5549SOL    HW117546   3.872   3.117   1.191
 5549SOL    HW217547   3.906   2.998   1.297
 5550SOL     OW17548   2.299   4.346   3.257
 5550SOL    HW117549   2.352   4.364   3.340
 5550SOL    HW217550   2.329   4.407   3.184
 5551SOL     OW17551   1.759   6.096   2.767
 5551SOL    HW117552   1.851   6.056   2.771
 5551SOL    HW217553   1.736   6.118   2.672
 5552SOL     OW17554   6.108   0.151   6.044
 5552SOL    HW117555   6.069   0.073   5.996
 5552SOL    HW217556   6.037   0.197   6.097
 5553SOL     OW17557   4.455   0.125   6.582
 5553SOL    HW117558   4.466   0.127   6.681
 5553SOL    HW217559   4.393   0.198   6.554
 5554SOL     OW17560   4.780   3.221   1.725
 5554SOL    HW117561   4.717   3.299   1.729
 5554SOL    HW217562   4.742   3.144   1.776
 5555SOL     OW17563   1.046   3.713   2.428
 5555SOL    HW117564   1.012   3.644   2.492
 5555SOL    HW217565   1.128   3.756   2.466
 5556SOL     OW17566   6.243   0.897   3.812
 5556SOL    HW117567   6.155   0.927   3.775
 5556SOL    HW217568   6.265   0.806   3.778
 5557SOL     OW17569   4.135   5.389   1.789
 5557SOL    HW117570   4.220   5.341   1.767
 5557SOL    HW217571   4.060   5.323   1.797
 5558SOL     OW17572   3.517   3.740   0.232
 5558SOL    HW117573   3.511   3.654   0.182
 5558SOL    HW217574   3.583   3.731   0.306
 5559SOL     OW17575   1.170   0.417   2.053
 5559SOL    HW117576   1.098   0.351   2.033
 5559SOL    HW217577   1.231   0.425   1.974
 5560SOL     OW17578   0.106   5.564   1.508
 5560SOL    HW117579   0.141   5.483   1.461
 5560SOL    HW217580   0.012   5.548   1.537
 5561SOL     OW17581   2.920   0.594   4.895
 5561SOL    HW117582   2.829   0.611   4.932
 5561SOL    HW217583   2.986   0.656   4.939
 5562SOL     OW17584   4.234   3.798   0.473
 5562SOL    HW117585   4.162   3.818   0.540
 5562SOL    HW217586   4.206   3.721   0.417
 5563SOL     OW17587   2.980   5.179   2.878
 5563SOL    HW117588   2.924   5.237   2.818
 5563SOL    HW217589   2.946   5.185   2.972
 5564SOL     OW17590   4.782   6.759   6.397
 5564SOL    HW117591   4.705   6.823   6.393
 5564SOL    HW217592   4.854   6.796   6.455
 5565SOL     OW17593   3.912   2.693   6.344
 5565SOL    HW117594   3.892   2.614   6.401
 5565SOL    HW217595   3.832   2.752   6.339
 5566SOL     OW17596   2.162   4.486   0.404
 5566SOL    HW117597   2.215   4.416   0.355
 5566SOL    HW217598   2.224   4.544   0.457
 5567SOL     OW17599   0.545   3.941   1.950
 5567SOL    HW117600   0.603   3.995   2.012
 5567SOL    HW217601   0.463   3.992   1.928
 5568SOL     OW17602   4.508   0.917   2.998
 5568SOL    HW117603   4.545   0.833   2.958
 5568SOL    HW217604   4.582   0.983   3.011
 5569SOL     OW17605   1.926   2.138   2.589
 5569SOL    HW117606   2.008   2.092   2.622
 5569SOL    HW217607   1.926   2.233   2.621
 5570SOL     OW17608   6.509   2.994   3.301
 5570SOL    HW117609   6.564   3.073   3.328
 5570SOL    HW217610   6.517   2.922   3.370
 5571SOL     OW17611   6.879   5.452   2.026
 5571SOL    HW117612   6.907   5.371   2.077
 5571SOL    HW217613   6.952   5.521   2.030
 5572SOL     OW17614   1.654   4.247   4.662
 5572SOL    HW117615   1.679   4.277   4.755
 5572SOL    HW217616   1.735   4.250   4.604
 5573SOL     OW17617   1.514   5.624   5.464
 5573SOL    HW117618   1.562   5.680   5.397
 5573SOL    HW217619   1.424   5.599   5.428
 5574SOL     OW17620   0.293   3.235   0.621
 5574SOL    HW117621   0.307   3.301   0.695
 5574SOL    HW217622   0.372   3.237   0.560
 5575SOL     OW17623   6.948   0.526   0.735
 5575SOL    HW117624   6.922   0.439   0.777
 5575SOL    HW217625   6.877   0.555   0.672
 5576SOL     OW17626   1.445   4.292   2.292
 5576SOL    HW117627   1.371   4.258   2.350
 5576SOL    HW217628   1.434   4.254   2.200
 5577SOL     OW17629   2.467   2.749   6.762
 5577SOL    HW117630   2.393   2.757   6.830
 5577SOL    HW217631   2.427   2.728   6.673
 5578SOL     OW17632   3.528   4.061   2.247
 5578SOL    HW117633   3.555   4.067   2.343
 5578SOL    HW217634   3.503   4.151   2.213
 5579SOL     OW17635   0.475   3.668   0.946
 5579SOL    HW117636   0.566   3.655   0.984
 5579SOL    HW217637   0.412   3.697   1.018
 5580SOL     OW17638   4.369   1.805   5.877
 5580SOL    HW117639   4.430   1.876   5.842
 5580SOL    HW217640   4.358   1.815   5.976
 5581SOL     OW17641   1.179   0.735   1.766
 5581SOL    HW117642   1.251   0.802   1.754
 5581SOL    HW217643   1.100   0.760   1.710
 5582SOL     OW17644   2.699   4.228   6.448
 5582SOL    HW117645   2.769   4.269   6.506
 5582SOL    HW217646   2.741   4.166   6.383
 5583SOL     OW17647   4.363   1.028   2.751
 5583SOL    HW117648   4.269   1.054   2.727
 5583SOL    HW217649   4.367   1.002   2.848
 5584SOL     OW17650   6.624   3.763   4.378
 5584SOL    HW117651   6.652   3.709   4.299
 5584SOL    HW217652   6.688   3.749   4.453
 5585SOL     OW17653   5.363   5.646   3.293
 5585SOL    HW117654   5.432   5.712   3.323
 5585SOL    HW217655   5.366   5.638   3.194
 5586SOL     OW17656   0.255   3.963   5.850
 5586SOL    HW117657   0.309   3.952   5.933
 5586SOL    HW217658   0.167   4.006   5.873
 5587SOL     OW17659   4.495   0.101   0.719
 5587SOL    HW117660   4.435   0.177   0.694
 5587SOL    HW217661   4.441   0.018   0.732
 5588SOL     OW17662   2.977   6.112   3.119
 5588SOL    HW117663   2.909   6.178   3.085
 5588SOL    HW217664   2.930   6.031   3.153
 5589SOL     OW17665   6.128   3.806   6.005
 5589SOL    HW117666   6.039   3.767   5.981
 5589SOL    HW217667   6.182   3.737   6.054
 5590SOL     OW17668   6.653   6.668   3.904
 5590SOL    HW117669   6.702   6.636   3.823
 5590SOL    HW217670   6.643   6.593   3.969
 5591SOL     OW17671   6.931   2.164   1.692
 5591SOL    HW117672   6.998   2.167   1.618
 5591SOL    HW217673   6.948   2.239   1.755
 5592SOL     OW17674   2.335   5.862   3.354
 5592SOL    HW117675   2.433   5.870   3.334
 5592SOL    HW217676   2.322   5.844   3.451
 5593SOL     OW17677   0.086   3.036   6.602
 5593SOL    HW117678   0.100   2.972   6.527
 5593SOL    HW217679   7.007   3.048   6.618
 5594SOL     OW17680   4.892   0.460   4.806
 5594SOL    HW117681   4.877   0.524   4.882
 5594SOL    HW217682   4.925   0.510   4.726
 5595SOL     OW17683   0.792   1.398   4.570
 5595SOL    HW117684   0.787   1.492   4.604
 5595SOL    HW217685   0.884   1.380   4.536
 5596SOL     OW17686   4.003   6.561   2.878
 5596SOL    HW117687   3.935   6.495   2.912
 5596SOL    HW217688   3.974   6.653   2.903
 5597SOL     OW17689   4.676   2.405   4.614
 5597SOL    HW117690   4.752   2.438   4.671
 5597SOL    HW217691   4.710   2.339   4.548
 5598SOL     OW17692   5.225   3.688   4.174
 5598SOL    HW117693   5.283   3.649   4.245
 5598SOL    HW217694   5.129   3.688   4.204
 5599SOL     OW17695   1.008   1.359   4.263
 5599SOL    HW117696   1.034   1.326   4.354
 5599SOL    HW217697   0.947   1.438   4.272
 5600SOL     OW17698   0.785   1.060   1.986
 5600SOL    HW117699   0.707   1.014   2.028
 5600SOL    HW217700   0.840   1.105   2.056
 5601SOL     OW17701   2.339   1.094   5.245
 5601SOL    HW117702   2.353   1.013   5.301
 5601SOL    HW217703   2.396   1.088   5.163
 5602SOL     OW17704   6.199   1.817   1.180
 5602SOL    HW117705   6.244   1.736   1.142
 5602SOL    HW217706   6.138   1.856   1.111
 5603SOL     OW17707   5.719   2.107   6.632
 5603SOL    HW117708   5.715   2.039   6.706
 5603SOL    HW217709   5.722   2.199   6.671
 5604SOL     OW17710   6.228   2.045   4.639
 5604SOL    HW117711   6.273   1.965   4.601
 5604SOL    HW217712   6.287   2.125   4.629
 5605SOL     OW17713   0.399   0.533   4.911
 5605SOL    HW117714   0.407   0.633   4.918
 5605SOL    HW217715   0.387   0.494   5.002
 5606SOL     OW17716   4.647   6.786   0.491
 5606SOL    HW117717   4.727   6.789   0.551
 5606SOL    HW217718   4.659   6.715   0.422
 5607SOL     OW17719   5.350   0.571   2.582
 5607SOL    HW117720   5.390   0.571   2.674
 5607SOL    HW217721   5.303   0.658   2.566
 5608SOL     OW17722   4.744   0.102   5.152
 5608SOL    HW117723   4.698   0.042   5.086
 5608SOL    HW217724   4.804   0.166   5.104
 5609SOL     OW17725   2.909   5.625   0.912
 5609SOL    HW117726   2.962   5.564   0.971
 5609SOL    HW217727   2.821   5.646   0.955
 5610SOL     OW17728   4.710   6.704   0.842
 5610SOL    HW117729   4.697   6.611   0.808
 5610SOL    HW217730   4.625   6.736   0.884
 5611SOL     OW17731   0.951   5.537   2.445
 5611SOL    HW117732   0.999   5.577   2.523
 5611SOL    HW217733   0.937   5.439   2.461
 5612SOL     OW17734   3.887   1.520   6.926
 5612SOL    HW117735   3.895   1.504   6.828
 5612SOL    HW217736   3.937   1.603   6.951
 5613SOL     OW17737   5.583   3.969   3.893
 5613SOL    HW117738   5.607   3.872   3.894
 5613SOL    HW217739   5.484   3.979   3.888
 5614SOL     OW17740   4.662   2.725   4.619
 5614SOL    HW117741   4.699   2.815   4.641
 5614SOL    HW217742   4.658   2.714   4.520
 5615SOL     OW17743   0.313   1.169   4.470
 5615SOL    HW117744   0.264   1.116   4.540
 5615SOL    HW217745   0.334   1.260   4.506
 5616SOL     OW17746   2.361   1.829   4.944
 5616SOL    HW117747   2.304   1.906   4.973
 5616SOL    HW217748   2.334   1.747   4.994
 5617SOL     OW17749   3.055   0.241   6.591
 5617SOL    HW117750   3.138   0.209   6.546
 5617SOL    HW217751   3.026   0.174   6.659
 5618SOL     OW17752   0.443   4.382   3.640
 5618SOL    HW117753   0.456   4.480   3.623
 5618SOL    HW217754   0.440   4.366   3.739
 5619SOL     OW17755   2.925   3.873   6.100
 5619SOL    HW117756   2.981   3.791   6.106
 5619SOL    HW217757   2.982   3.954   6.113
 5620SOL     OW17758   3.436   2.921   0.890
 5620SOL    HW117759   3.385   2.991   0.940
 5620SOL    HW217760   3.524   2.906   0.935
 5621SOL     OW17761   0.881   2.718   6.171
 5621SOL    HW117762   0.901   2.659   6.249
 5621SOL    HW217763   0.798   2.685   6.125
 5622SOL     OW17764   4.647   0.146   5.968
 5622SOL    HW117765   4.552   0.167   5.946
 5622SOL    HW217766   4.702   0.150   5.885
 5623SOL     OW17767   2.284   5.856   5.825
 5623SOL    HW117768   2.297   5.804   5.909
 5623SOL    HW217769   2.322   5.804   5.748
 5624SOL     OW17770   1.032   4.445   3.327
 5624SOL    HW117771   0.973   4.526   3.327
 5624SOL    HW217772   0.982   4.366   3.292
 5625SOL     OW17773   6.754   1.504   4.342
 5625SOL    HW117774   6.715   1.516   4.250
 5625SOL    HW217775   6.835   1.446   4.336
 5626SOL     OW17776   2.928   6.422   4.034
 5626SOL    HW117777   2.904   6.471   4.118
 5626SOL    HW217778   2.920   6.324   4.049
 5627SOL     OW17779   1.120   5.855   6.770
 5627SOL    HW117780   1.185   5.924   6.800
 5627SOL    HW217781   1.072   5.817   6.849
 5628SOL     OW17782   1.644   2.566   6.601
 5628SOL    HW117783   1.743   2.557   6.608
 5628SOL    HW217784   1.605   2.580   6.692
 5629SOL     OW17785   3.174   3.815   2.374
 5629SOL    HW117786   3.129   3.835   2.287
 5629SOL    HW217787   3.178   3.897   2.429
 5630SOL     OW17788   1.978   4.811   1.032
 5630SOL    HW117789   1.966   4.863   0.947
 5630SOL    HW217790   2.047   4.740   1.018
 5631SOL     OW17791   4.458   2.166   0.341
 5631SOL    HW117792   4.410   2.249   0.369
 5631SOL    HW217793   4.553   2.187   0.322
 5632SOL     OW17794   3.605   3.150   6.072
 5632SOL    HW117795   3.562   3.226   6.024
 5632SOL    HW217796   3.560   3.138   6.161
 5633SOL     OW17797   6.809   2.993   4.512
 5633SOL    HW117798   6.809   2.895   4.491
 5633SOL    HW217799   6.797   3.045   4.428
 5634SOL     OW17800   2.078   5.808   5.133
 5634SOL    HW117801   2.075   5.748   5.213
 5634SOL    HW217802   2.026   5.892   5.152
 5635SOL     OW17803   2.359   3.757   5.248
 5635SOL    HW117804   2.381   3.854   5.264
 5635SOL    HW217805   2.271   3.736   5.293
 5636SOL     OW17806   3.761   6.759   3.357
 5636SOL    HW117807   3.784   6.793   3.266
 5636SOL    HW217808   3.784   6.828   3.425
 5637SOL     OW17809   5.147   6.541   3.403
 5637SOL    HW117810   5.063   6.488   3.400
 5637SOL    HW217811   5.178   6.560   3.310
 5638SOL     OW17812   5.767   3.759   1.509
 5638SOL    HW117813   5.829   3.828   1.470
 5638SOL    HW217814   5.822   3.683   1.545
 5639SOL     OW17815   0.685   0.438   6.915
 5639SOL    HW117816   0.717   0.413   6.823
 5639SOL    HW217817   0.595   0.398   6.930
 5640SOL     OW17818   2.745   0.661   3.907
 5640SOL    HW117819   2.651   0.671   3.941
 5640SOL    HW217820   2.790   0.586   3.955
 5641SOL     OW17821   0.322   4.984   5.348
 5641SOL    HW117822   0.227   4.958   5.366
 5641SOL    HW217823   0.383   4.935   5.410
 5642SOL     OW17824   1.904   6.839   5.656
 5642SOL    HW117825   1.962   6.773   5.704
 5642SOL    HW217826   1.886   6.917   5.716
 5643SOL     OW17827   5.072   0.888   4.888
 5643SOL    HW117828   5.060   0.951   4.812
 5643SOL    HW217829   5.140   0.819   4.865
 5644SOL     OW17830   3.262   0.080   5.121
 5644SOL    HW117831   3.322   7.019   5.125
 5644SOL    HW217832   3.256   0.112   5.027
 5645SOL     OW17833   6.747   4.268   3.593
 5645SOL    HW117834   6.762   4.367   3.591
 5645SOL    HW217835   6.649   4.248   3.589
 5646SOL     OW17836   1.789   5.328   3.227
 5646SOL    HW117837   1.818   5.239   3.262
 5646SOL    HW217838   1.841   5.351   3.145
 5647SOL     OW17839   5.040   6.628   1.063
 5647SOL    HW117840   5.008   6.561   1.129
 5647SOL    HW217841   4.966   6.692   1.042
 5648SOL     OW17842   2.105   6.110   2.988
 5648SOL    HW117843   2.127   6.033   3.048
 5648SOL    HW217844   2.129   6.196   3.034
 5649SOL     OW17845   1.371   0.105   3.891
 5649SOL    HW117846   1.305   0.050   3.841
 5649SOL    HW217847   1.353   0.098   3.989
 5650SOL     OW17848   1.409   4.499   1.332
 5650SOL    HW117849   1.322   4.519   1.377
 5650SOL    HW217850   1.455   4.584   1.307
 5651SOL     OW17851   1.360   0.842   0.290
 5651SOL    HW117852   1.269   0.877   0.315
 5651SOL    HW217853   1.380   0.867   0.195
 5652SOL     OW17854   6.839   5.728   1.033
 5652SOL    HW117855   6.936   5.714   1.013
 5652SOL    HW217856   6.825   5.731   1.132
 5653SOL     OW17857   0.755   6.060   6.882
 5653SOL    HW117858   0.695   6.128   6.925
 5653SOL    HW217859   0.819   6.106   6.821
 5654SOL     OW17860   1.556   5.456   4.446
 5654SOL    HW117861   1.559   5.436   4.348
 5654SOL    HW217862   1.561   5.555   4.460
 5655SOL     OW17863   0.192   2.933   3.449
 5655SOL    HW117864   0.147   2.908   3.363
 5655SOL    HW217865   0.169   3.027   3.472
 5656SOL     OW17866   6.924   4.388   6.199
 5656SOL    HW117867   6.834   4.395   6.155
 5656SOL    HW217868   6.928   4.303   6.253
 5657SOL     OW17869   4.589   4.337   5.078
 5657SOL    HW117870   4.573   4.388   4.994
 5657SOL    HW217871   4.651   4.261   5.060
 5658SOL     OW17872   3.102   3.277   5.745
 5658SOL    HW117873   3.051   3.355   5.781
 5658SOL    HW217874   3.041   3.219   5.690
 5659SOL     OW17875   3.639   3.770   5.892
 5659SOL    HW117876   3.633   3.703   5.818
 5659SOL    HW217877   3.552   3.819   5.898
 5660SOL     OW17878   4.291   6.951   6.391
 5660SOL    HW117879   4.243   0.001   6.335
 5660SOL    HW217880   4.324   6.995   6.475
 5661SOL     OW17881   1.148   5.451   4.868
 5661SOL    HW117882   1.119   5.385   4.937
 5661SOL    HW217883   1.246   5.471   4.880
 5662SOL     OW17884   2.205   0.153   2.464
 5662SOL    HW117885   2.173   0.070   2.419
 5662SOL    HW217886   2.241   0.130   2.555
 5663SOL     OW17887   1.823   2.151   0.646
 5663SOL    HW117888   1.753   2.080   0.653
 5663SOL    HW217889   1.914   2.109   0.650
 5664SOL     OW17890   6.163   3.288   4.480
 5664SOL    HW117891   6.132   3.256   4.390
 5664SOL    HW217892   6.172   3.210   4.541
 5665SOL     OW17893   1.162   5.703   0.250
 5665SOL    HW117894   1.082   5.762   0.257
 5665SOL    HW217895   1.194   5.680   0.341
 5666SOL     OW17896   5.903   0.631   3.909
 5666SOL    HW117897   5.995   0.593   3.893
 5666SOL    HW217898   5.864   0.659   3.822
 5667SOL     OW17899   1.889   5.207   4.762
 5667SOL    HW117900   1.962   5.259   4.718
 5667SOL    HW217901   1.859   5.254   4.845
 5668SOL     OW17902   6.044   2.539   3.175
 5668SOL    HW117903   6.017   2.535   3.079
 5668SOL    HW217904   5.966   2.515   3.233
 5669SOL     OW17905   6.722   4.942   0.413
 5669SOL    HW117906   6.632   4.984   0.427
 5669SOL    HW217907   6.710   4.845   0.390
 5670SOL     OW17908   1.598   3.554   3.859
 5670SOL    HW117909   1.517   3.509   3.896
 5670SOL    HW217910   1.642   3.494   3.791
 5671SOL     OW17911   6.248   5.305   5.679
 5671SOL    HW117912   6.165   5.300   5.622
 5671SOL    HW217913   6.319   5.355   5.630
 5672SOL     OW17914   4.775   4.140   5.104
 5672SOL    HW117915   4.814   4.050   5.082
 5672SOL    HW217916   4.716   4.132   5.184
 5673SOL     OW17917   0.978   6.114   1.279
 5673SOL    HW117918   0.917   6.167   1.221
 5673SOL    HW217919   1.018   6.174   1.349
 5674SOL     OW17920   2.092   4.951   4.653
 5674SOL    HW117921   2.044   4.914   4.574
 5674SOL    HW217922   2.125   4.875   4.710
 5675SOL     OW17923   3.940   2.189   0.321
 5675SOL    HW117924   3.890   2.220   0.402
 5675SOL    HW217925   3.937   2.089   0.317
 5676SOL     OW17926   3.134   1.649   2.289
 5676SOL    HW117927   3.186   1.679   2.209
 5676SOL    HW217928   3.096   1.729   2.335
 5677SOL     OW17929   0.471   0.598   0.069
 5677SOL    HW117930   0.567   0.590   0.098
 5677SOL    HW217931   0.468   0.625   6.991
 5678SOL     OW17932   4.096   1.064   1.848
 5678SOL    HW117933   4.112   1.002   1.772
 5678SOL    HW217934   4.160   1.141   1.843
 5679SOL     OW17935   5.677   2.038   4.702
 5679SOL    HW117936   5.742   2.112   4.719
 5679SOL    HW217937   5.711   1.953   4.741
 5680SOL     OW17938   1.259   5.086   6.458
 5680SOL    HW117939   1.347   5.045   6.482
 5680SOL    HW217940   1.265   5.185   6.470
 5681SOL     OW17941   0.434   4.183   2.532
 5681SOL    HW117942   0.336   4.193   2.548
 5681SOL    HW217943   0.481   4.180   2.620
 5682SOL     OW17944   2.198   5.644   4.098
 5682SOL    HW117945   2.273   5.591   4.139
 5682SOL    HW217946   2.209   5.740   4.119
 5683SOL     OW17947   4.183   2.451   5.967
 5683SOL    HW117948   4.239   2.533   5.951
 5683SOL    HW217949   4.205   2.382   5.899
 5684SOL     OW17950   1.940   3.480   6.502
 5684SOL    HW117951   1.863   3.465   6.563
 5684SOL    HW217952   1.927   3.566   6.453
 5685SOL     OW17953   2.072   2.242   3.404
 5685SOL    HW117954   2.168   2.212   3.407
 5685SOL    HW217955   2.067   2.336   3.370
 5686SOL     OW17956   3.264   1.142   4.733
 5686SOL    HW117957   3.346   1.167   4.681
 5686SOL    HW217958   3.213   1.072   4.683
 5687SOL     OW17959   0.866   6.123   6.121
 5687SOL    HW117960   0.957   6.150   6.091
 5687SOL    HW217961   0.863   6.023   6.132
 5688SOL     OW17962   2.189   2.876   3.256
 5688SOL    HW117963   2.185   2.912   3.349
 5688SOL    HW217964   2.265   2.811   3.249
 5689SOL     OW17965   2.233   0.468   1.768
 5689SOL    HW117966   2.332   0.476   1.758
 5689SOL    HW217967   2.198   0.548   1.817
 5690SOL     OW17968   0.994   5.054   6.400
 5690SOL    HW117969   0.990   5.107   6.315
 5690SOL    HW217970   1.081   5.073   6.447
 5691SOL     OW17971   3.938   1.001   2.739
 5691SOL    HW117972   4.009   1.059   2.699
 5691SOL    HW217973   3.971   0.907   2.745
 5692SOL     OW17974   4.951   4.599   0.889
 5692SOL    HW117975   4.918   4.612   0.796
 5692SOL    HW217976   4.994   4.683   0.922
 5693SOL     OW17977   4.453   0.415   1.358
 5693SOL    HW117978   4.481   0.468   1.438
 5693SOL    HW217979   4.356   0.390   1.366
 5694SOL     OW17980   0.163   6.908   2.464
 5694SOL    HW117981   0.218   6.927   2.546
 5694SOL    HW217982   0.132   6.994   2.424
 5695SOL     OW17983   0.923   0.807   2.619
 5695SOL    HW117984   0.971   0.783   2.703
 5695SOL    HW217985   0.920   0.727   2.559
 5696SOL     OW17986   1.439   0.325   4.276
 5696SOL    HW117987   1.396   0.319   4.186
 5696SOL    HW217988   1.526   0.374   4.268
 5697SOL     OW17989   6.121   2.384   1.944
 5697SOL    HW117990   6.185   2.361   1.870
 5697SOL    HW217991   6.084   2.300   1.983
 5698SOL     OW17992   1.875   3.900   4.103
 5698SOL    HW117993   1.850   3.844   4.183
 5698SOL    HW217994   1.850   3.852   4.019
 5699SOL     OW17995   1.661   2.502   2.780
 5699SOL    HW117996   1.638   2.536   2.689
 5699SOL    HW217997   1.715   2.570   2.829
 5700SOL     OW17998   6.592   0.480   3.014
 5700SOL    HW117999   6.641   0.440   2.937
 5700SOL    HW218000   6.656   0.496   3.090
 5701SOL     OW18001   6.727   0.768   1.382
 5701SOL    HW118002   6.649   0.825   1.407
 5701SOL    HW218003   6.720   0.740   1.287
 5702SOL     OW18004   1.466   6.527   4.318
 5702SOL    HW118005   1.416   6.535   4.232
 5702SOL    HW218006   1.559   6.563   4.306
 5703SOL     OW18007   6.963   4.298   6.796
 5703SOL    HW118008   6.972   4.314   6.895
 5703SOL    HW218009   6.972   4.385   6.748
 5704SOL     OW18010   4.752   4.180   3.729
 5704SOL    HW118011   4.766   4.275   3.702
 5704SOL    HW218012   4.693   4.176   3.810
 5705SOL     OW18013   5.915   5.633   0.025
 5705SOL    HW118014   5.893   5.659   0.119
 5705SOL    HW218015   5.980   5.557   0.027
 5706SOL     OW18016   5.191   2.944   1.660
 5706SOL    HW118017   5.093   2.930   1.652
 5706SOL    HW218018   5.210   3.040   1.680
 5707SOL     OW18019   6.089   0.288   1.098
 5707SOL    HW118020   6.058   0.230   1.023
 5707SOL    HW218021   6.014   0.347   1.128
 5708SOL     OW18022   5.067   6.248   2.682
 5708SOL    HW118023   5.125   6.216   2.607
 5708SOL    HW218024   5.094   6.202   2.767
 5709SOL     OW18025   0.152   1.054   2.737
 5709SOL    HW118026   0.216   1.091   2.804
 5709SOL    HW218027   0.112   0.970   2.772
 5710SOL     OW18028   2.799   2.100   0.514
 5710SOL    HW118029   2.890   2.117   0.552
 5710SOL    HW218030   2.807   2.078   0.417
 5711SOL     OW18031   4.889   0.682   1.871
 5711SOL    HW118032   4.930   0.624   1.941
 5711SOL    HW218033   4.921   0.776   1.883
 5712SOL     OW18034   6.401   6.897   0.254
 5712SOL    HW118035   6.313   6.900   0.303
 5712SOL    HW218036   6.471   6.940   0.311
 5713SOL     OW18037   3.472   5.207   0.683
 5713SOL    HW118038   3.492   5.158   0.598
 5713SOL    HW218039   3.384   5.177   0.719
 5714SOL     OW18040   6.852   6.582   1.159
 5714SOL    HW118041   6.889   6.636   1.083
 5714SOL    HW218042   6.851   6.638   1.242
 5715SOL     OW18043   6.834   0.032   1.720
 5715SOL    HW118044   6.834   0.054   1.818
 5715SOL    HW218045   6.887   6.967   1.705
 5716SOL     OW18046   0.567   5.885   6.383
 5716SOL    HW118047   0.513   5.964   6.415
 5716SOL    HW218048   0.592   5.899   6.287
 5717SOL     OW18049   2.325   5.039   1.833
 5717SOL    HW118050   2.279   5.125   1.813
 5717SOL    HW218051   2.310   4.974   1.758
 5718SOL     OW18052   0.717   3.395   0.359
 5718SOL    HW118053   0.703   3.492   0.340
 5718SOL    HW218054   0.795   3.361   0.306
 5719SOL     OW18055   2.947   3.713   0.850
 5719SOL    HW118056   2.980   3.727   0.944
 5719SOL    HW218057   3.021   3.676   0.794
 5720SOL     OW18058   1.724   6.450   4.862
 5720SOL    HW118059   1.807   6.402   4.892
 5720SOL    HW218060   1.674   6.484   4.941
 5721SOL     OW18061   6.111   4.231   1.141
 5721SOL    HW118062   6.060   4.201   1.060
 5721SOL    HW218063   6.075   4.318   1.173
 5722SOL     OW18064   0.099   2.267   5.369
 5722SOL    HW118065   0.068   2.171   5.365
 5722SOL    HW218066   0.020   2.326   5.386
 5723SOL     OW18067   3.947   3.521   6.977
 5723SOL    HW118068   3.862   3.472   6.956
 5723SOL    HW218069   4.020   3.486   6.918
 5724SOL     OW18070   6.411   2.571   3.275
 5724SOL    HW118071   6.385   2.475   3.268
 5724SOL    HW218072   6.338   2.628   3.235
 5725SOL     OW18073   6.527   5.199   3.600
 5725SOL    HW118074   6.468   5.223   3.523
 5725SOL    HW218075   6.502   5.254   3.679
 5726SOL     OW18076   5.994   4.923   3.984
 5726SOL    HW118077   6.028   5.017   3.988
 5726SOL    HW218078   6.071   4.860   3.989
 5727SOL     OW18079   0.146   2.481   4.807
 5727SOL    HW118080   0.096   2.568   4.814
 5727SOL    HW218081   0.134   2.429   4.891
 5728SOL     OW18082   5.005   5.947   5.303
 5728SOL    HW118083   4.934   6.017   5.309
 5728SOL    HW218084   5.095   5.989   5.300
 5729SOL     OW18085   1.096   2.540   5.954
 5729SOL    HW118086   1.118   2.464   6.014
 5729SOL    HW218087   1.011   2.584   5.985
 5730SOL     OW18088   6.329   4.426   6.253
 5730SOL    HW118089   6.342   4.522   6.231
 5730SOL    HW218090   6.232   4.403   6.243
 5731SOL     OW18091   6.857   6.661   1.665
 5731SOL    HW118092   6.872   6.708   1.579
 5731SOL    HW218093   6.764   6.680   1.697
 5732SOL     OW18094   1.138   6.693   3.372
 5732SOL    HW118095   1.129   6.618   3.438
 5732SOL    HW218096   1.067   6.761   3.390
 5733SOL     OW18097   4.374   6.424   5.185
 5733SOL    HW118098   4.293   6.466   5.227
 5733SOL    HW218099   4.454   6.444   5.241
 5734SOL     OW18100   1.253   6.785   5.064
 5734SOL    HW118101   1.204   6.839   4.995
 5734SOL    HW218102   1.349   6.777   5.037
 5735SOL     OW18103   2.790   1.161   1.279
 5735SOL    HW118104   2.888   1.162   1.293
 5735SOL    HW218105   2.770   1.137   1.184
 5736SOL     OW18106   0.680   4.364   7.012
 5736SOL    HW118107   0.659   4.423   0.071
 5736SOL    HW218108   0.606   4.297   7.000
 5737SOL     OW18109   5.555   6.353   6.833
 5737SOL    HW118110   5.592   6.368   6.741
 5737SOL    HW218111   5.614   6.289   6.882
 5738SOL     OW18112   1.609   3.444   0.011
 5738SOL    HW118113   1.677   3.371   0.015
 5738SOL    HW218114   1.517   3.404   0.009
 5739SOL     OW18115   1.856   1.012   6.746
 5739SOL    HW118116   1.840   1.043   6.839
 5739SOL    HW218117   1.814   1.077   6.682
 5740SOL     OW18118   4.372   5.963   0.191
 5740SOL    HW118119   4.309   5.885   0.199
 5740SOL    HW218120   4.337   6.039   0.246
 5741SOL     OW18121   6.613   5.834   4.511
 5741SOL    HW118122   6.523   5.878   4.517
 5741SOL    HW218123   6.619   5.761   4.579
 5742SOL     OW18124   5.619   6.452   2.175
 5742SOL    HW118125   5.571   6.364   2.181
 5742SOL    HW218126   5.587   6.512   2.249
 5743SOL     OW18127   2.540   6.858   4.700
 5743SOL    HW118128   2.563   6.766   4.733
 5743SOL    HW218129   2.618   6.919   4.717
 5744SOL     OW18130   5.091   0.970   0.445
 5744SOL    HW118131   5.090   0.936   0.351
 5744SOL    HW218132   5.033   1.051   0.452
 5745SOL     OW18133   1.565   1.505   4.500
 5745SOL    HW118134   1.471   1.473   4.502
 5745SOL    HW218135   1.571   1.588   4.444
 5746SOL     OW18136   4.994   1.082   0.101
 5746SOL    HW118137   5.042   1.010   0.151
 5746SOL    HW218138   5.061   1.144   0.060
 5747SOL     OW18139   0.402   5.560   2.396
 5747SOL    HW118140   0.420   5.465   2.420
 5747SOL    HW218141   0.488   5.609   2.386
 5748SOL     OW18142   2.508   4.878   1.956
 5748SOL    HW118143   2.424   4.927   1.934
 5748SOL    HW218144   2.485   4.788   1.993
 5749SOL     OW18145   1.914   1.643   4.399
 5749SOL    HW118146   1.842   1.703   4.432
 5749SOL    HW218147   1.987   1.697   4.357
 5750SOL     OW18148   6.295   5.052   4.270
 5750SOL    HW118149   6.389   5.048   4.305
 5750SOL    HW218150   6.246   5.127   4.314
 5751SOL     OW18151   2.172   2.990   5.240
 5751SOL    HW118152   2.209   3.049   5.312
 5751SOL    HW218153   2.240   2.978   5.168
 5752SOL     OW18154   6.848   6.973   5.911
 5752SOL    HW118155   6.749   6.979   5.896
 5752SOL    HW218156   6.867   6.969   6.009
 5753SOL     OW18157   3.489   3.291   6.498
 5753SOL    HW118158   3.408   3.240   6.526
 5753SOL    HW218159   3.475   3.330   6.407
 5754SOL     OW18160   5.921   5.049   2.053
 5754SOL    HW118161   5.917   4.982   2.127
 5754SOL    HW218162   5.831   5.056   2.010
 5755SOL     OW18163   2.922   3.860   6.459
 5755SOL    HW118164   2.909   3.818   6.549
 5755SOL    HW218165   2.997   3.813   6.411
 5756SOL     OW18166   6.797   4.919   3.219
 5756SOL    HW118167   6.747   4.836   3.243
 5756SOL    HW218168   6.870   4.935   3.285
 5757SOL     OW18169   5.838   5.866   1.508
 5757SOL    HW118170   5.781   5.825   1.579
 5757SOL    HW218171   5.831   5.812   1.424
 5758SOL     OW18172   2.689   2.360   5.075
 5758SOL    HW118173   2.766   2.339   5.136
 5758SOL    HW218174   2.603   2.344   5.123
 5759SOL     OW18175   5.172   2.198   6.285
 5759SOL    HW118176   5.154   2.274   6.347
 5759SOL    HW218177   5.214   2.232   6.201
 5760SOL     OW18178   2.091   5.377   2.316
 5760SOL    HW118179   2.138   5.329   2.390
 5760SOL    HW218180   2.014   5.429   2.353
 5761SOL     OW18181   5.207   0.251   4.771
 5761SOL    HW118182   5.159   0.191   4.834
 5761SOL    HW218183   5.279   0.200   4.724
 5762SOL     OW18184   5.645   6.784   0.827
 5762SOL    HW118185   5.706   6.721   0.779
 5762SOL    HW218186   5.550   6.761   0.807
 5763SOL     OW18187   1.196   0.240   0.412
 5763SOL    HW118188   1.252   0.267   0.334
 5763SOL    HW218189   1.141   0.318   0.441
 5764SOL     OW18190   5.729   4.460   5.429
 5764SOL    HW118191   5.764   4.461   5.523
 5764SOL    HW218192   5.785   4.521   5.373
 5765SOL     OW18193   6.665   4.240   6.623
 5765SOL    HW118194   6.757   4.252   6.660
 5765SOL    HW218195   6.635   4.146   6.638
 5766SOL     OW18196   3.316   1.418   2.083
 5766SOL    HW118197   3.318   1.399   1.985
 5766SOL    HW218198   3.246   1.361   2.126
 5767SOL     OW18199   0.864   6.293   0.771
 5767SOL    HW118200   0.957   6.303   0.735
 5767SOL    HW218201   0.814   6.228   0.715
 5768SOL     OW18202   6.865   1.046   2.951
 5768SOL    HW118203   6.902   1.034   2.859
 5768SOL    HW218204   6.779   0.996   2.959
 5769SOL     OW18205   2.811   6.568   3.085
 5769SOL    HW118206   2.793   6.565   3.183
 5769SOL    HW218207   2.779   6.655   3.048
 5770SOL     OW18208   6.849   6.815   0.958
 5770SOL    HW118209   6.783   6.879   0.997
 5770SOL    HW218210   6.932   6.864   0.933
 5771SOL     OW18211   1.071   0.663   1.184
 5771SOL    HW118212   1.093   0.567   1.172
 5771SOL    HW218213   1.038   0.701   1.097
 5772SOL     OW18214   6.225   2.877   0.335
 5772SOL    HW118215   6.275   2.931   0.401
 5772SOL    HW218216   6.161   2.817   0.382
 5773SOL     OW18217   5.630   6.508   3.809
 5773SOL    HW118218   5.534   6.530   3.792
 5773SOL    HW218219   5.652   6.421   3.766
 5774SOL     OW18220   2.350   4.618   3.517
 5774SOL    HW118221   2.448   4.618   3.536
 5774SOL    HW218222   2.312   4.708   3.538
 5775SOL     OW18223   0.039   6.622   0.268
 5775SOL    HW118224   0.038   6.524   0.287
 5775SOL    HW218225   0.114   6.643   0.205
 5776SOL     OW18226   5.523   0.472   6.142
 5776SOL    HW118227   5.511   0.524   6.226
 5776SOL    HW218228   5.561   0.531   6.071
 5777SOL     OW18229   6.242   0.847   4.076
 5777SOL    HW118230   6.219   0.933   4.122
 5777SOL    HW218231   6.256   0.863   3.979
 5778SOL     OW18232   1.322   6.448   2.931
 5778SOL    HW118233   1.385   6.376   2.904
 5778SOL    HW218234   1.251   6.458   2.862
 5779SOL     OW18235   3.696   1.125   1.237
 5779SOL    HW118236   3.792   1.148   1.222
 5779SOL    HW218237   3.670   1.048   1.179
 5780SOL     OW18238   6.980   4.386   1.494
 5780SOL    HW118239   6.899   4.342   1.455
 5780SOL    HW218240   6.954   4.442   1.572
 5781SOL     OW18241   2.023   4.490   4.939
 5781SOL    HW118242   2.057   4.568   4.991
 5781SOL    HW218243   2.049   4.405   4.985
 5782SOL     OW18244   2.000   0.896   1.604
 5782SOL    HW118245   1.949   0.970   1.560
 5782SOL    HW218246   2.053   0.933   1.680
 5783SOL     OW18247   1.310   0.176   1.292
 5783SOL    HW118248   1.355   0.264   1.279
 5783SOL    HW218249   1.313   0.125   1.206
 5784SOL     OW18250   0.862   6.009   0.393
 5784SOL    HW118251   0.906   5.943   0.332
 5784SOL    HW218252   0.796   6.063   0.342
 5785SOL     OW18253   1.571   0.870   0.681
 5785SOL    HW118254   1.584   0.856   0.583
 5785SOL    HW218255   1.636   0.815   0.732
 5786SOL     OW18256   1.850   3.119   1.772
 5786SOL    HW118257   1.814   3.049   1.710
 5786SOL    HW218258   1.945   3.096   1.796
 5787SOL     OW18259   5.887   2.651   4.693
 5787SOL    HW118260   5.908   2.746   4.717
 5787SOL    HW218261   5.963   2.592   4.720
 5788SOL     OW18262   3.226   0.869   2.479
 5788SOL    HW118263   3.149   0.828   2.529
 5788SOL    HW218264   3.294   0.799   2.459
 5789SOL     OW18265   4.003   3.873   0.661
 5789SOL    HW118266   3.939   3.886   0.737
 5789SOL    HW218267   4.061   3.954   0.654
 5790SOL     OW18268   6.035   5.246   4.835
 5790SOL    HW118269   5.935   5.245   4.829
 5790SOL    HW218270   6.073   5.189   4.762
 5791SOL     OW18271   3.682   1.016   2.651
 5791SOL    HW118272   3.772   1.000   2.690
 5791SOL    HW218273   3.691   1.055   2.560
 5792SOL     OW18274   4.753   4.011   3.118
 5792SOL    HW118275   4.681   4.074   3.087
 5792SOL    HW218276   4.782   3.954   3.041
 5793SOL     OW18277   5.658   2.170   5.325
 5793SOL    HW118278   5.676   2.073   5.342
 5793SOL    HW218279   5.638   2.183   5.228
 5794SOL     OW18280   3.088   6.616   5.868
 5794SOL    HW118281   3.089   6.669   5.783
 5794SOL    HW218282   3.173   6.565   5.877
 5795SOL     OW18283   1.210   5.150   1.960
 5795SOL    HW118284   1.158   5.200   2.028
 5795SOL    HW218285   1.293   5.201   1.937
 5796SOL     OW18286   4.394   1.409   6.362
 5796SOL    HW118287   4.420   1.316   6.390
 5796SOL    HW218288   4.324   1.443   6.425
 5797SOL     OW18289   5.221   2.444   0.075
 5797SOL    HW118290   5.304   2.396   0.044
 5797SOL    HW218291   5.229   2.464   0.173
 5798SOL     OW18292   1.703   3.791   5.073
 5798SOL    HW118293   1.745   3.850   5.004
 5798SOL    HW218294   1.766   3.717   5.096
 5799SOL     OW18295   1.525   6.156   3.558
 5799SOL    HW118296   1.551   6.122   3.648
 5799SOL    HW218297   1.430   6.186   3.559
 5800SOL     OW18298   0.251   6.901   0.830
 5800SOL    HW118299   0.253   6.813   0.877
 5800SOL    HW218300   0.324   6.959   0.865
 5801SOL     OW18301   2.436   2.564   2.526
 5801SOL    HW118302   2.518   2.520   2.487
 5801SOL    HW218303   2.452   2.663   2.534
 5802SOL     OW18304   0.045   1.725   2.296
 5802SOL    HW118305   0.001   1.636   2.307
 5802SOL    HW218306   6.995   1.798   2.301
 5803SOL     OW18307   1.014   5.237   4.423
 5803SOL    HW118308   1.083   5.249   4.352
 5803SOL    HW218309   0.929   5.204   4.381
 5804SOL     OW18310   5.580   0.023   3.522
 5804SOL    HW118311   5.590   6.960   3.465
 5804SOL    HW218312   5.591   7.017   3.618
 5805SOL     OW18313   2.485   3.127   0.994
 5805SOL    HW118314   2.444   3.038   1.012
 5805SOL    HW218315   2.470   3.152   0.898
 5806SOL     OW18316   0.629   3.230   3.209
 5806SOL    HW118317   0.573   3.285   3.271
 5806SOL    HW218318   0.680   3.162   3.262
 5807SOL     OW18319   1.076   6.567   0.509
 5807SOL    HW118320   1.014   6.617   0.449
 5807SOL    HW218321   1.126   6.630   0.568
 5808SOL     OW18322   5.755   1.022   4.968
 5808SOL    HW118323   5.822   0.975   4.910
 5808SOL    HW218324   5.748   1.117   4.940
 5809SOL     OW18325   0.246   2.826   6.083
 5809SOL    HW118326   0.261   2.798   6.178
 5809SOL    HW218327   0.184   2.762   6.039
 5810SOL     OW18328   4.284   6.815   4.669
 5810SOL    HW118329   4.302   6.910   4.694
 5810SOL    HW218330   4.187   6.804   4.645
 5811SOL     OW18331   2.809   3.570   5.651
 5811SOL    HW118332   2.843   3.556   5.744
 5811SOL    HW218333   2.769   3.485   5.617
 5812SOL     OW18334   5.755   3.122   0.469
 5812SOL    HW118335   5.802   3.132   0.557
 5812SOL    HW218336   5.676   3.062   0.480
 5813SOL     OW18337   4.644   6.454   1.268
 5813SOL    HW118338   4.552   6.483   1.241
 5813SOL    HW218339   4.678   6.514   1.340
 5814SOL     OW18340   5.227   1.806   2.001
 5814SOL    HW118341   5.255   1.729   2.058
 5814SOL    HW218342   5.250   1.787   1.906
 5815SOL     OW18343   6.459   1.039   3.793
 5815SOL    HW118344   6.370   0.993   3.781
 5815SOL    HW218345   6.502   1.007   3.877
 5816SOL     OW18346   6.978   3.829   3.092
 5816SOL    HW118347   0.053   3.860   3.107
 5816SOL    HW218348   6.923   3.845   3.174
 5817SOL     OW18349   5.349   4.444   3.741
 5817SOL    HW118350   5.318   4.531   3.779
 5817SOL    HW218351   5.271   4.385   3.724
 5818SOL     OW18352   1.951   0.018   4.815
 5818SOL    HW118353   1.915   0.094   4.868
 5818SOL    HW218354   2.035   0.045   4.769
 5819SOL     OW18355   4.387   4.794   6.769
 5819SOL    HW118356   4.373   4.705   6.812
 5819SOL    HW218357   4.468   4.791   6.710
 5820SOL     OW18358   6.032   5.134   2.809
 5820SOL    HW118359   5.932   5.134   2.816
 5820SOL    HW218360   6.071   5.115   2.899
 5821SOL     OW18361   6.489   0.926   1.455
 5821SOL    HW118362   6.521   0.973   1.537
 5821SOL    HW218363   6.401   0.882   1.475
 5822SOL     OW18364   1.641   2.969   2.572
 5822SOL    HW118365   1.653   2.936   2.665
 5822SOL    HW218366   1.645   3.069   2.572
 5823SOL     OW18367   2.123   6.369   3.638
 5823SOL    HW118368   2.102   6.402   3.731
 5823SOL    HW218369   2.204   6.311   3.641
 5824SOL     OW18370   0.782   7.012   2.113
 5824SOL    HW118371   0.720   0.038   2.178
 5824SOL    HW218372   0.837   6.943   2.160
 5825SOL     OW18373   6.352   0.013   4.414
 5825SOL    HW118374   6.334   7.009   4.318
 5825SOL    HW218375   6.330   0.109   4.430
 5826SOL     OW18376   0.383   6.779   4.808
 5826SOL    HW118377   0.409   6.809   4.717
 5826SOL    HW218378   0.295   6.731   4.804
 5827SOL     OW18379   2.209   4.277   5.309
 5827SOL    HW118380   2.302   4.304   5.333
 5827SOL    HW218381   2.200   4.275   5.209
 5828SOL     OW18382   4.616   0.058   4.540
 5828SOL    HW118383   4.655   0.126   4.603
 5828SOL    HW218384   4.521   0.082   4.522
 5829SOL     OW18385   2.458   1.251   3.933
 5829SOL    HW118386   2.472   1.285   3.840
 5829SOL    HW218387   2.360   1.252   3.954
 5830SOL     OW18388   3.849   6.071   5.099
 5830SOL    HW118389   3.781   6.041   5.033
 5830SOL    HW218390   3.806   6.085   5.188
 5831SOL     OW18391   1.552   1.378   5.759
 5831SOL    HW118392   1.574   1.284   5.787
 5831SOL    HW218393   1.485   1.417   5.823
 5832SOL     OW18394   3.337   5.033   1.008
 5832SOL    HW118395   3.383   4.959   1.057
 5832SOL    HW218396   3.355   5.120   1.055
 5833SOL     OW18397   3.864   3.566   5.805
 5833SOL    HW118398   3.919   3.640   5.766
 5833SOL    HW218399   3.910   3.531   5.887
 5834SOL     OW18400   5.820   3.966   6.829
 5834SOL    HW118401   5.748   3.923   6.775
 5834SOL    HW218402   5.908   3.954   6.783
 5835SOL     OW18403   5.558   0.771   2.653
 5835SOL    HW118404   5.465   0.796   2.626
 5835SOL    HW218405   5.577   0.807   2.744
 5836SOL     OW18406   3.774   6.854   1.781
 5836SOL    HW118407   3.837   6.920   1.822
 5836SOL    HW218408   3.752   6.883   1.688
 5837SOL     OW18409   3.624   4.328   0.083
 5837SOL    HW118410   3.637   4.361   7.008
 5837SOL    HW218411   3.526   4.318   0.102
 5838SOL     OW18412   2.692   1.999   0.759
 5838SOL    HW118413   2.743   1.913   0.748
 5838SOL    HW218414   2.716   2.061   0.684
 5839SOL     OW18415   1.554   1.791   1.244
 5839SOL    HW118416   1.626   1.786   1.175
 5839SOL    HW218417   1.582   1.852   1.318
 5840SOL     OW18418   0.942   3.338   2.417
 5840SOL    HW118419   0.981   3.403   2.482
 5840SOL    HW218420   0.843   3.347   2.417
 5841SOL     OW18421   5.155   1.501   0.240
 5841SOL    HW118422   5.076   1.492   0.180
 5841SOL    HW218423   5.132   1.465   0.331
 5842SOL     OW18424   2.973   1.497   0.683
 5842SOL    HW118425   3.063   1.456   0.694
 5842SOL    HW218426   2.913   1.467   0.757
 5843SOL     OW18427   1.771   2.908   1.166
 5843SOL    HW118428   1.864   2.932   1.194
 5843SOL    HW218429   1.719   2.992   1.148
 5844SOL     OW18430   0.735   0.730   4.914
 5844SOL    HW118431   0.650   0.761   4.957
 5844SOL    HW218432   0.736   0.630   4.909
 5845SOL     OW18433   0.883   5.832   1.823
 5845SOL    HW118434   0.978   5.803   1.821
 5845SOL    HW218435   0.859   5.863   1.915
 5846SOL     OW18436   6.581   3.500   5.687
 5846SOL    HW118437   6.561   3.587   5.731
 5846SOL    HW218438   6.672   3.504   5.645
 5847SOL     OW18439   2.782   3.048   0.516
 5847SOL    HW118440   2.747   2.994   0.440
 5847SOL    HW218441   2.804   3.140   0.484
 5848SOL     OW18442   2.071   5.953   3.538
 5848SOL    HW118443   2.021   5.966   3.452
 5848SOL    HW218444   2.012   5.981   3.615
 5849SOL     OW18445   2.549   5.709   5.366
 5849SOL    HW118446   2.622   5.649   5.399
 5849SOL    HW218447   2.515   5.675   5.278
 5850SOL     OW18448   0.720   1.856   1.705
 5850SOL    HW118449   0.714   1.793   1.627
 5850SOL    HW218450   0.630   1.863   1.749
 5851SOL     OW18451   5.554   2.969   4.847
 5851SOL    HW118452   5.575   2.969   4.945
 5851SOL    HW218453   5.639   2.975   4.794
 5852SOL     OW18454   5.273   5.122   3.232
 5852SOL    HW118455   5.255   5.091   3.138
 5852SOL    HW218456   5.222   5.206   3.249
 5853SOL     OW18457   3.798   4.820   5.505
 5853SOL    HW118458   3.725   4.832   5.572
 5853SOL    HW218459   3.858   4.900   5.508
 5854SOL     OW18460   2.454   5.116   6.177
 5854SOL    HW118461   2.375   5.055   6.183
 5854SOL    HW218462   2.429   5.196   6.123
 5855SOL     OW18463   2.226   2.310   3.688
 5855SOL    HW118464   2.281   2.391   3.709
 5855SOL    HW218465   2.183   2.277   3.772
 5856SOL     OW18466   1.605   0.389   2.933
 5856SOL    HW118467   1.579   0.367   2.839
 5856SOL    HW218468   1.562   0.324   2.996
 5857SOL     OW18469   0.206   4.453   6.424
 5857SOL    HW118470   0.250   4.462   6.513
 5857SOL    HW218471   0.142   4.528   6.410
 5858SOL     OW18472   1.557   1.887   3.283
 5858SOL    HW118473   1.657   1.894   3.282
 5858SOL    HW218474   1.526   1.882   3.378
 5859SOL     OW18475   6.202   6.936   2.399
 5859SOL    HW118476   6.113   6.902   2.370
 5859SOL    HW218477   6.257   6.861   2.435
 5860SOL     OW18478   0.286   2.990   3.772
 5860SOL    HW118479   0.347   2.911   3.766
 5860SOL    HW218480   0.295   3.033   3.862
 5861SOL     OW18481   5.333   1.206   4.994
 5861SOL    HW118482   5.353   1.132   4.929
 5861SOL    HW218483   5.264   1.174   5.060
 5862SOL     OW18484   0.188   5.254   3.284
 5862SOL    HW118485   0.141   5.178   3.330
 5862SOL    HW218486   0.155   5.262   3.190
 5863SOL     OW18487   3.733   0.183   5.174
 5863SOL    HW118488   3.645   0.166   5.219
 5863SOL    HW218489   3.718   0.239   5.092
 5864SOL     OW18490   3.219   4.111   3.267
 5864SOL    HW118491   3.313   4.110   3.299
 5864SOL    HW218492   3.218   4.099   3.168
 5865SOL     OW18493   5.864   0.891   5.508
 5865SOL    HW118494   5.816   0.918   5.425
 5865SOL    HW218495   5.961   0.878   5.488
 5866SOL     OW18496   4.133   3.333   2.081
 5866SOL    HW118497   4.140   3.405   2.150
 5866SOL    HW218498   4.078   3.258   2.116
 5867SOL     OW18499   2.735   2.327   1.437
 5867SOL    HW118500   2.814   2.348   1.494
 5867SOL    HW218501   2.683   2.251   1.477
 5868SOL     OW18502   0.656   1.816   6.341
 5868SOL    HW118503   0.624   1.905   6.308
 5868SOL    HW218504   0.704   1.829   6.428
 5869SOL     OW18505   0.995   4.593   4.434
 5869SOL    HW118506   1.095   4.597   4.431
 5869SOL    HW218507   0.957   4.670   4.383
 5870SOL     OW18508   4.312   4.768   4.963
 5870SOL    HW118509   4.393   4.808   5.006
 5870SOL    HW218510   4.324   4.669   4.956
 5871SOL     OW18511   3.181   3.409   2.988
 5871SOL    HW118512   3.190   3.503   3.020
 5871SOL    HW218513   3.084   3.382   2.988
 5872SOL     OW18514   4.136   6.534   2.285
 5872SOL    HW118515   4.110   6.612   2.228
 5872SOL    HW218516   4.147   6.453   2.227
 5873SOL     OW18517   3.434   4.895   2.837
 5873SOL    HW118518   3.417   4.850   2.750
 5873SOL    HW218519   3.347   4.922   2.878
 5874SOL     OW18520   2.286   4.218   6.058
 5874SOL    HW118521   2.349   4.285   6.099
 5874SOL    HW218522   2.207   4.266   6.019
 5875SOL     OW18523   3.634   1.598   0.215
 5875SOL    HW118524   3.611   1.555   0.128
 5875SOL    HW218525   3.554   1.596   0.275
 5876SOL     OW18526   3.557   3.201   2.082
 5876SOL    HW118527   3.598   3.292   2.078
 5876SOL    HW218528   3.574   3.153   1.996
 5877SOL     OW18529   6.047   5.345   1.051
 5877SOL    HW118530   6.118   5.288   1.093
 5877SOL    HW218531   6.073   5.441   1.057
 5878SOL     OW18532   1.943   4.765   2.892
 5878SOL    HW118533   1.879   4.772   2.815
 5878SOL    HW218534   1.958   4.668   2.913
 5879SOL     OW18535   6.885   4.078   0.111
 5879SOL    HW118536   6.931   4.011   0.170
 5879SOL    HW218537   6.825   4.031   0.046
 5880SOL     OW18538   2.748   6.547   1.454
 5880SOL    HW118539   2.672   6.499   1.410
 5880SOL    HW218540   2.734   6.549   1.553
 5881SOL     OW18541   0.710   4.624   3.846
 5881SOL    HW118542   0.744   4.667   3.930
 5881SOL    HW218543   0.633   4.563   3.869
 5882SOL     OW18544   5.063   0.278   1.372
 5882SOL    HW118545   4.995   0.352   1.369
 5882SOL    HW218546   5.044   0.218   1.450
 5883SOL     OW18547   6.196   2.613   6.562
 5883SOL    HW118548   6.142   2.559   6.628
 5883SOL    HW218549   6.138   2.638   6.485
 5884SOL     OW18550   0.805   1.135   3.234
 5884SOL    HW118551   0.755   1.049   3.235
 5884SOL    HW218552   0.796   1.178   3.145
 5885SOL     OW18553   6.491   6.609   1.187
 5885SOL    HW118554   6.526   6.681   1.247
 5885SOL    HW218555   6.563   6.540   1.173
 5886SOL     OW18556   0.644   2.650   5.093
 5886SOL    HW118557   0.568   2.639   5.156
 5886SOL    HW218558   0.658   2.566   5.041
 5887SOL     OW18559   3.195   0.917   4.327
 5887SOL    HW118560   3.154   1.001   4.364
 5887SOL    HW218561   3.203   0.924   4.228
 5888SOL     OW18562   1.460   6.147   3.140
 5888SOL    HW118563   1.525   6.151   3.216
 5888SOL    HW218564   1.376   6.195   3.164
 5889SOL     OW18565   2.421   0.397   0.967
 5889SOL    HW118566   2.424   0.496   0.971
 5889SOL    HW218567   2.341   0.369   0.913
 5890SOL     OW18568   1.996   6.374   5.331
 5890SOL    HW118569   1.929   6.348   5.401
 5890SOL    HW218570   2.062   6.437   5.372
 5891SOL     OW18571   4.020   2.929   6.919
 5891SOL    HW118572   3.924   2.954   6.927
 5891SOL    HW218573   4.058   2.968   6.836
 5892SOL     OW18574   0.729   6.362   1.462
 5892SOL    HW118575   0.697   6.397   1.550
 5892SOL    HW218576   0.816   6.405   1.438
 5893SOL     OW18577   1.265   2.302   3.639
 5893SOL    HW118578   1.339   2.337   3.581
 5893SOL    HW218579   1.304   2.266   3.723
 5894SOL     OW18580   1.592   4.233   3.658
 5894SOL    HW118581   1.530   4.158   3.633
 5894SOL    HW218582   1.546   4.321   3.643
 5895SOL     OW18583   5.296   2.910   4.820
 5895SOL    HW118584   5.393   2.930   4.828
 5895SOL    HW218585   5.257   2.896   4.911
 5896SOL     OW18586   3.876   2.357   6.517
 5896SOL    HW118587   3.778   2.355   6.533
 5896SOL    HW218588   3.915   2.441   6.555
 5897SOL     OW18589   3.853   0.873   0.718
 5897SOL    HW118590   3.766   0.907   0.754
 5897SOL    HW218591   3.878   0.790   0.768
 5898SOL     OW18592   1.464   0.273   1.712
 5898SOL    HW118593   1.541   0.297   1.653
 5898SOL    HW218594   1.398   0.220   1.659
 5899SOL     OW18595   5.438   0.044   4.899
 5899SOL    HW118596   5.340   0.051   4.918
 5899SOL    HW218597   5.452   7.012   4.814
 5900SOL     OW18598   4.924   4.980   2.914
 5900SOL    HW118599   4.927   4.890   2.871
 5900SOL    HW218600   4.898   5.048   2.845
 5901SOL     OW18601   2.131   6.588   6.478
 5901SOL    HW118602   2.038   6.611   6.448
 5901SOL    HW218603   2.126   6.517   6.548
 5902SOL     OW18604   6.747   2.305   0.512
 5902SOL    HW118605   6.813   2.232   0.531
 5902SOL    HW218606   6.784   2.392   0.544
 5903SOL     OW18607   6.250   4.597   0.044
 5903SOL    HW118608   6.234   4.602   6.964
 5903SOL    HW218609   6.167   4.625   0.092
 5904SOL     OW18610   0.581   3.305   2.164
 5904SOL    HW118611   0.555   3.332   2.071
 5904SOL    HW218612   0.600   3.387   2.218
 5905SOL     OW18613   6.859   6.007   2.654
 5905SOL    HW118614   6.764   5.976   2.654
 5905SOL    HW218615   6.905   5.973   2.572
 5906SOL     OW18616   5.684   1.186   3.786
 5906SOL    HW118617   5.669   1.119   3.860
 5906SOL    HW218618   5.688   1.278   3.826
 5907SOL     OW18619   0.816   6.305   1.110
 5907SOL    HW118620   0.857   6.295   1.019
 5907SOL    HW218621   0.773   6.395   1.117
 5908SOL     OW18622   0.770   2.607   5.520
 5908SOL    HW118623   0.833   2.654   5.457
 5908SOL    HW218624   0.781   2.645   5.612
 5909SOL     OW18625   1.340   5.904   0.607
 5909SOL    HW118626   1.413   5.944   0.553
 5909SOL    HW218627   1.253   5.946   0.581
 5910SOL     OW18628   1.365   2.507   3.372
 5910SOL    HW118629   1.342   2.459   3.287
 5910SOL    HW218630   1.281   2.544   3.412
 5911SOL     OW18631   6.516   5.823   6.772
 5911SOL    HW118632   6.605   5.788   6.743
 5911SOL    HW218633   6.526   5.918   6.804
 5912SOL     OW18634   6.576   1.554   5.812
 5912SOL    HW118635   6.650   1.505   5.766
 5912SOL    HW218636   6.519   1.600   5.744
 5913SOL     OW18637   5.357   3.237   0.515
 5913SOL    HW118638   5.366   3.266   0.420
 5913SOL    HW218639   5.329   3.141   0.518
 5914SOL     OW18640   0.869   6.713   6.236
 5914SOL    HW118641   0.940   6.764   6.188
 5914SOL    HW218642   0.870   6.618   6.204
 5915SOL     OW18643   3.520   6.913   0.435
 5915SOL    HW118644   3.442   6.879   0.383
 5915SOL    HW218645   3.590   6.842   0.443
 5916SOL     OW18646   1.158   6.634   1.825
 5916SOL    HW118647   1.244   6.668   1.863
 5916SOL    HW218648   1.084   6.652   1.889
 5917SOL     OW18649   3.345   4.382   6.340
 5917SOL    HW118650   3.378   4.360   6.249
 5917SOL    HW218651   3.246   4.395   6.337
 5918SOL     OW18652   2.594   5.938   5.695
 5918SOL    HW118653   2.504   5.921   5.655
 5918SOL    HW218654   2.653   5.860   5.677
 5919SOL     OW18655   3.330   3.424   3.354
 5919SOL    HW118656   3.374   3.512   3.372
 5919SOL    HW218657   3.285   3.392   3.437
 5920SOL     OW18658   5.750   1.073   5.981
 5920SOL    HW118659   5.792   0.988   6.012
 5920SOL    HW218660   5.821   1.135   5.947
 5921SOL     OW18661   3.945   4.667   6.700
 5921SOL    HW118662   3.931   4.764   6.720
 5921SOL    HW218663   4.011   4.657   6.626
 5922SOL     OW18664   6.537   3.968   3.494
 5922SOL    HW118665   6.489   3.880   3.498
 5922SOL    HW218666   6.525   4.008   3.403
 5923SOL     OW18667   6.169   1.252   1.666
 5923SOL    HW118668   6.236   1.326   1.652
 5923SOL    HW218669   6.082   1.292   1.695
 5924SOL     OW18670   5.442   0.022   3.037
 5924SOL    HW118671   5.484   0.111   3.018
 5924SOL    HW218672   5.386   0.029   3.119
 5925SOL     OW18673   4.688   5.492   1.134
 5925SOL    HW118674   4.661   5.446   1.219
 5925SOL    HW218675   4.688   5.426   1.059
 5926SOL     OW18676   3.774   4.930   3.271
 5926SOL    HW118677   3.706   4.948   3.342
 5926SOL    HW218678   3.844   4.869   3.307
 5927SOL     OW18679   1.604   3.781   2.022
 5927SOL    HW118680   1.592   3.692   2.066
 5927SOL    HW218681   1.593   3.772   1.923
 5928SOL     OW18682   4.036   0.547   1.015
 5928SOL    HW118683   4.021   0.561   0.917
 5928SOL    HW218684   4.117   0.490   1.028
 5929SOL     OW18685   6.732   0.296   5.402
 5929SOL    HW118686   6.741   0.395   5.403
 5929SOL    HW218687   6.769   0.260   5.317
 5930SOL     OW18688   1.106   3.004   1.343
 5930SOL    HW118689   1.099   2.905   1.351
 5930SOL    HW218690   1.031   3.047   1.394
 5931SOL     OW18691   5.412   6.315   2.713
 5931SOL    HW118692   5.390   6.372   2.634
 5931SOL    HW218693   5.360   6.346   2.792
 5932SOL     OW18694   3.274   0.158   6.467
 5932SOL    HW118695   3.313   0.233   6.519
 5932SOL    HW218696   3.302   0.165   6.371
 5933SOL     OW18697   0.052   5.707   4.388
 5933SOL    HW118698   0.076   5.727   4.293
 5933SOL    HW218699   6.977   5.672   4.392
 5934SOL     OW18700   3.462   3.846   5.601
 5934SOL    HW118701   3.502   3.756   5.619
 5934SOL    HW218702   3.401   3.871   5.676
 5935SOL     OW18703   0.561   6.324   5.325
 5935SOL    HW118704   0.540   6.259   5.397
 5935SOL    HW218705   0.519   6.294   5.239
 5936SOL     OW18706   3.311   2.976   2.766
 5936SOL    HW118707   3.280   2.979   2.671
 5936SOL    HW218708   3.408   2.951   2.769
 5937SOL     OW18709   0.104   2.612   2.184
 5937SOL    HW118710   0.193   2.597   2.227
 5937SOL    HW218711   0.054   2.683   2.233
 5938SOL     OW18712   5.872   5.482   5.361
 5938SOL    HW118713   5.936   5.532   5.303
 5938SOL    HW218714   5.778   5.505   5.335
 5939SOL     OW18715   3.908   6.640   4.236
 5939SOL    HW118716   3.985   6.638   4.300
 5939SOL    HW218717   3.918   6.718   4.175
 5940SOL     OW18718   4.969   5.368   2.945
 5940SOL    HW118719   4.907   5.418   2.885
 5940SOL    HW218720   4.939   5.273   2.952
 5941SOL     OW18721   6.323   2.353   2.194
 5941SOL    HW118722   6.247   2.347   2.259
 5941SOL    HW218723   6.317   2.278   2.128
 5942SOL     OW18724   6.327   3.150   5.881
 5942SOL    HW118725   6.352   3.152   5.978
 5942SOL    HW218726   6.404   3.184   5.826
 5943SOL     OW18727   3.912   3.067   0.276
 5943SOL    HW118728   3.946   3.118   0.197
 5943SOL    HW218729   3.930   2.970   0.263
 5944SOL     OW18730   0.437   3.074   0.229
 5944SOL    HW118731   0.487   3.089   0.143
 5944SOL    HW218732   0.358   3.134   0.233
 5945SOL     OW18733   0.550   6.124   4.848
 5945SOL    HW118734   0.557   6.149   4.751
 5945SOL    HW218735   0.596   6.036   4.863
 5946SOL     OW18736   3.836   4.319   6.386
 5946SOL    HW118737   3.836   4.220   6.371
 5946SOL    HW218738   3.920   4.346   6.432
 5947SOL     OW18739   3.181   3.020   4.871
 5947SOL    HW118740   3.146   2.929   4.847
 5947SOL    HW218741   3.132   3.090   4.819
 5948SOL     OW18742   4.833   4.068   2.147
 5948SOL    HW118743   4.868   4.161   2.150
 5948SOL    HW218744   4.800   4.047   2.055
 5949SOL     OW18745   5.761   5.338   1.213
 5949SOL    HW118746   5.687   5.366   1.274
 5949SOL    HW218747   5.849   5.366   1.252
 5950SOL     OW18748   5.009   2.285   5.325
 5950SOL    HW118749   5.087   2.260   5.268
 5950SOL    HW218750   4.948   2.345   5.274
 5951SOL     OW18751   0.714   5.348   5.022
 5951SOL    HW118752   0.750   5.296   4.944
 5951SOL    HW218753   0.776   5.423   5.043
 5952SOL     OW18754   4.477   5.115   2.203
 5952SOL    HW118755   4.496   5.188   2.269
 5952SOL    HW218756   4.502   5.027   2.243
 5953SOL     OW18757   6.442   2.736   4.907
 5953SOL    HW118758   6.501   2.785   4.972
 5953SOL    HW218759   6.449   2.780   4.817
 5954SOL     OW18760   0.635   5.581   5.327
 5954SOL    HW118761   0.589   5.559   5.241
 5954SOL    HW218762   0.567   5.584   5.401
 5955SOL     OW18763   4.787   4.868   1.360
 5955SOL    HW118764   4.809   4.801   1.430
 5955SOL    HW218765   4.779   4.823   1.271
 5956SOL     OW18766   5.236   2.703   4.308
 5956SOL    HW118767   5.237   2.619   4.253
 5956SOL    HW218768   5.171   2.768   4.268
 5957SOL     OW18769   1.036   1.015   2.982
 5957SOL    HW118770   1.009   1.051   2.892
 5957SOL    HW218771   0.965   0.952   3.015
 5958SOL     OW18772   3.304   0.267   2.806
 5958SOL    HW118773   3.207   0.246   2.808
 5958SOL    HW218774   3.341   0.264   2.899
 5959SOL     OW18775   4.795   2.428   5.212
 5959SOL    HW118776   4.741   2.370   5.151
 5959SOL    HW218777   4.797   2.521   5.177
 5960SOL     OW18778   3.268   6.691   4.956
 5960SOL    HW118779   3.197   6.738   4.904
 5960SOL    HW218780   3.331   6.646   4.892
 5961SOL     OW18781   3.824   1.793   2.355
 5961SOL    HW118782   3.833   1.891   2.368
 5961SOL    HW218783   3.753   1.757   2.416
 5962SOL     OW18784   4.929   6.190   6.482
 5962SOL    HW118785   4.867   6.246   6.427
 5962SOL    HW218786   4.875   6.130   6.541
 5963SOL     OW18787   3.579   4.522   6.457
 5963SOL    HW118788   3.521   4.456   6.408
 5963SOL    HW218789   3.670   4.484   6.469
 5964SOL     OW18790   2.039   0.360   2.812
 5964SOL    HW118791   2.099   0.378   2.734
 5964SOL    HW218792   2.073   0.281   2.863
 5965SOL     OW18793   1.619   0.396   6.968
 5965SOL    HW118794   1.678   0.472   6.940
 5965SOL    HW218795   1.574   0.419   0.036
 5966SOL     OW18796   1.562   0.014   5.714
 5966SOL    HW118797   1.594   6.938   5.716
 5966SOL    HW218798   1.466   0.018   5.744
 5967SOL     OW18799   2.521   2.116   5.082
 5967SOL    HW118800   2.588   2.055   5.040
 5967SOL    HW218801   2.455   2.146   5.014
 5968SOL     OW18802   5.625   2.509   0.118
 5968SOL    HW118803   5.651   2.482   0.211
 5968SOL    HW218804   5.706   2.541   0.068
 5969SOL     OW18805   5.132   0.423   6.390
 5969SOL    HW118806   5.080   0.508   6.386
 5969SOL    HW218807   5.120   0.380   6.480
 5970SOL     OW18808   0.111   4.108   0.552
 5970SOL    HW118809   0.119   4.130   0.455
 5970SOL    HW218810   0.178   4.038   0.576
 5971SOL     OW18811   5.789   0.133   2.595
 5971SOL    HW118812   5.710   0.193   2.587
 5971SOL    HW218813   5.853   0.151   2.521
 5972SOL     OW18814   4.930   5.330   0.005
 5972SOL    HW118815   4.935   5.325   6.924
 5972SOL    HW218816   4.869   5.259   0.039
 5973SOL     OW18817   1.979   3.398   2.876
 5973SOL    HW118818   2.026   3.464   2.935
 5973SOL    HW218819   1.882   3.398   2.897
 5974SOL     OW18820   4.532   0.802   6.953
 5974SOL    HW118821   4.494   0.760   0.016
 5974SOL    HW218822   4.459   0.825   6.889
 5975SOL     OW18823   5.025   4.966   0.569
 5975SOL    HW118824   5.091   4.891   0.562
 5975SOL    HW218825   5.066   5.044   0.614
 5976SOL     OW18826   3.634   3.601   5.622
 5976SOL    HW118827   3.613   3.512   5.583
 5976SOL    HW218828   3.718   3.594   5.676
 5977SOL     OW18829   0.752   5.402   0.106
 5977SOL    HW118830   0.677   5.363   0.158
 5977SOL    HW218831   0.793   5.477   0.156
 5978SOL     OW18832   3.568   5.279   6.934
 5978SOL    HW118833   3.627   5.233   7.000
 5978SOL    HW218834   3.615   5.288   6.846
 5979SOL     OW18835   5.970   0.488   2.207
 5979SOL    HW118836   5.905   0.500   2.131
 5979SOL    HW218837   6.062   0.512   2.176
 5980SOL     OW18838   3.248   2.773   1.867
 5980SOL    HW118839   3.152   2.747   1.877
 5980SOL    HW218840   3.266   2.798   1.772
 5981SOL     OW18841   4.676   2.787   0.554
 5981SOL    HW118842   4.654   2.710   0.614
 5981SOL    HW218843   4.751   2.762   0.492
 5982SOL     OW18844   5.404   2.115   2.193
 5982SOL    HW118845   5.401   2.211   2.221
 5982SOL    HW218846   5.391   2.108   2.094
 5983SOL     OW18847   0.328   0.351   4.086
 5983SOL    HW118848   0.375   0.434   4.054
 5983SOL    HW218849   0.291   0.366   4.177
 5984SOL     OW18850   5.911   6.082   3.475
 5984SOL    HW118851   5.912   6.180   3.495
 5984SOL    HW218852   5.963   6.064   3.391
 5985SOL     OW18853   6.307   1.988   3.557
 5985SOL    HW118854   6.287   2.053   3.629
 5985SOL    HW218855   6.226   1.972   3.502
 5986SOL     OW18856   4.218   3.949   5.268
 5986SOL    HW118857   4.302   3.928   5.317
 5986SOL    HW218858   4.186   4.040   5.291
 5987SOL     OW18859   6.923   1.004   4.588
 5987SOL    HW118860   6.891   0.932   4.649
 5987SOL    HW218861   6.848   1.037   4.532
 5988SOL     OW18862   3.017   1.424   6.474
 5988SOL    HW118863   3.073   1.385   6.401
 5988SOL    HW218864   3.052   1.394   6.562
 5989SOL     OW18865   1.215   5.595   6.672
 5989SOL    HW118866   1.209   5.523   6.740
 5989SOL    HW218867   1.144   5.664   6.690
 5990SOL     OW18868   4.494   4.077   1.153
 5990SOL    HW118869   4.574   4.017   1.164
 5990SOL    HW218870   4.413   4.021   1.136
 5991SOL     OW18871   4.153   5.782   0.240
 5991SOL    HW118872   4.125   5.789   0.336
 5991SOL    HW218873   4.086   5.827   0.182
 5992SOL     OW18874   2.942   0.288   2.313
 5992SOL    HW118875   3.039   0.298   2.331
 5992SOL    HW218876   2.892   0.365   2.354
 5993SOL     OW18877   6.331   3.661   6.871
 5993SOL    HW118878   6.268   3.653   6.949
 5993SOL    HW218879   6.285   3.626   6.789
 5994SOL     OW18880   7.007   3.386   1.278
 5994SOL    HW118881   0.078   3.424   1.303
 5994SOL    HW218882   6.962   3.447   1.213
 5995SOL     OW18883   4.193   3.122   1.183
 5995SOL    HW118884   4.094   3.113   1.194
 5995SOL    HW218885   4.222   3.084   1.096
 5996SOL     OW18886   2.277   5.845   1.349
 5996SOL    HW118887   2.202   5.797   1.305
 5996SOL    HW218888   2.266   5.841   1.448
 5997SOL     OW18889   6.725   6.872   3.380
 5997SOL    HW118890   6.754   6.938   3.311
 5997SOL    HW218891   6.803   6.817   3.408
 5998SOL     OW18892   5.313   0.670   1.638
 5998SOL    HW118893   5.372   0.749   1.656
 5998SOL    HW218894   5.224   0.702   1.605
 5999SOL     OW18895   3.864   3.266   0.950
 5999SOL    HW118896   3.782   3.306   0.991
 5999SOL    HW218897   3.849   3.255   0.852
 6000SOL     OW18898   0.503   5.411   0.266
 6000SOL    HW118899   0.449   5.479   0.315
 6000SOL    HW218900   0.449   5.375   0.190
 6001SOL     OW18901   5.329   6.120   6.404
 6001SOL    HW118902   5.328   6.078   6.495
 6001SOL    HW218903   5.239   6.112   6.362
 6002SOL     OW18904   6.625   0.010   4.898
 6002SOL    HW118905   6.719   0.042   4.913
 6002SOL    HW218906   6.584   0.063   4.824
 6003SOL     OW18907   6.759   2.421   4.437
 6003SOL    HW118908   6.812   2.466   4.365
 6003SOL    HW218909   6.673   2.471   4.451
 6004SOL     OW18910   5.853   2.435   3.346
 6004SOL    HW118911   5.903   2.483   3.418
 6004SOL    HW218912   5.902   2.352   3.320
 6005SOL     OW18913   5.184   4.225   4.977
 6005SOL    HW118914   5.120   4.174   5.034
 6005SOL    HW218915   5.158   4.321   4.974
 6006SOL     OW18916   3.470   0.219   5.251
 6006SOL    HW118917   3.385   0.193   5.205
 6006SOL    HW218918   3.463   0.314   5.283
 6007SOL     OW18919   0.513   3.942   6.751
 6007SOL    HW118920   0.452   4.022   6.752
 6007SOL    HW218921   0.463   3.862   6.784
 6008SOL     OW18922   2.023   4.314   5.589
 6008SOL    HW118923   1.982   4.376   5.522
 6008SOL    HW218924   2.123   4.316   5.581
 6009SOL     OW18925   5.091   5.892   3.283
 6009SOL    HW118926   5.029   5.880   3.205
 6009SOL    HW218927   5.114   5.802   3.320
 6010SOL     OW18928   0.218   4.121   4.373
 6010SOL    HW118929   0.144   4.057   4.351
 6010SOL    HW218930   0.209   4.203   4.318
 6011SOL     OW18931   4.511   2.014   3.056
 6011SOL    HW118932   4.592   1.957   3.068
 6011SOL    HW218933   4.503   2.041   2.960
 6012SOL     OW18934   5.821   0.215   6.778
 6012SOL    HW118935   5.722   0.201   6.779
 6012SOL    HW218936   5.841   0.312   6.770
 6013SOL     OW18937   5.183   0.826   2.282
 6013SOL    HW118938   5.120   0.904   2.285
 6013SOL    HW218939   5.275   0.859   2.264
 6014SOL     OW18940   3.237   3.499   3.824
 6014SOL    HW118941   3.152   3.499   3.877
 6014SOL    HW218942   3.227   3.438   3.745
 6015SOL     OW18943   6.441   2.579   4.613
 6015SOL    HW118944   6.526   2.605   4.659
 6015SOL    HW218945   6.453   2.586   4.514
 6016SOL     OW18946   4.648   1.728   5.557
 6016SOL    HW118947   4.746   1.714   5.570
 6016SOL    HW218948   4.602   1.639   5.553
 6017SOL     OW18949   0.207   4.077   4.671
 6017SOL    HW118950   0.252   3.988   4.663
 6017SOL    HW218951   0.214   4.125   4.583
 6018SOL     OW18952   3.359   1.520   4.542
 6018SOL    HW118953   3.348   1.445   4.476
 6018SOL    HW218954   3.324   1.491   4.631
 6019SOL     OW18955   1.084   3.778   5.853
 6019SOL    HW118956   1.127   3.731   5.776
 6019SOL    HW218957   1.092   3.722   5.936
 6020SOL     OW18958   1.299   5.054   0.935
 6020SOL    HW118959   1.349   4.969   0.920
 6020SOL    HW218960   1.347   5.110   1.003
 6021SOL     OW18961   4.382   0.612   2.408
 6021SOL    HW118962   4.435   0.574   2.484
 6021SOL    HW218963   4.295   0.646   2.442
 6022SOL     OW18964   6.432   1.908   3.258
 6022SOL    HW118965   6.374   1.921   3.338
 6022SOL    HW218966   6.428   1.812   3.230
 6023SOL     OW18967   5.056   0.101   1.654
 6023SOL    HW118968   5.018   0.111   1.746
 6023SOL    HW218969   5.096   0.010   1.645
 6024SOL     OW18970   0.673   4.968   1.039
 6024SOL    HW118971   0.588   4.944   1.085
 6024SOL    HW218972   0.677   4.924   0.949
 6025SOL     OW18973   2.731   1.297   3.687
 6025SOL    HW118974   2.747   1.278   3.784
 6025SOL    HW218975   2.793   1.241   3.632
 6026SOL     OW18976   6.515   4.541   4.216
 6026SOL    HW118977   6.496   4.448   4.247
 6026SOL    HW218978   6.432   4.581   4.178
 6027SOL     OW18979   6.086   3.465   6.086
 6027SOL    HW118980   6.049   3.377   6.058
 6027SOL    HW218981   6.047   3.492   6.174
 6028SOL     OW18982   5.515   4.846   1.191
 6028SOL    HW118983   5.507   4.945   1.194
 6028SOL    HW218984   5.507   4.814   1.097
 6029SOL     OW18985   2.273   0.216   3.598
 6029SOL    HW118986   2.368   0.188   3.587
 6029SOL    HW218987   2.262   0.311   3.567
 6030SOL     OW18988   4.889   3.560   4.739
 6030SOL    HW118989   4.876   3.651   4.699
 6030SOL    HW218990   4.872   3.565   4.838
 6031SOL     OW18991   1.234   6.110   4.027
 6031SOL    HW118992   1.147   6.156   4.005
 6031SOL    HW218993   1.234   6.084   4.123
 6032SOL     OW18994   3.494   5.921   4.091
 6032SOL    HW118995   3.553   5.860   4.038
 6032SOL    HW218996   3.536   6.012   4.095
 6033SOL     OW18997   2.289   2.614   2.786
 6033SOL    HW118998   2.253   2.527   2.752
 6033SOL    HW218999   2.381   2.629   2.750
 6034SOL     OW19000   0.947   0.204   6.431
 6034SOL    HW119001   0.960   0.152   6.347
 6034SOL    HW219002   0.990   0.156   6.507
 6035SOL     OW19003   0.551   1.146   2.680
 6035SOL    HW119004   0.591   1.210   2.614
 6035SOL    HW219005   0.593   1.056   2.668
 6036SOL     OW19006   6.122   4.807   1.622
 6036SOL    HW119007   6.137   4.830   1.526
 6036SOL    HW219008   6.206   4.768   1.660
 6037SOL     OW19009   3.907   1.181   0.682
 6037SOL    HW119010   3.945   1.193   0.774
 6037SOL    HW219011   3.818   1.134   0.688
 6038SOL     OW19012   0.345   2.450   6.823
 6038SOL    HW119013   0.275   2.444   6.894
 6038SOL    HW219014   0.339   2.538   6.776
 6039SOL     OW19015   4.013   3.478   3.792
 6039SOL    HW119016   4.011   3.386   3.833
 6039SOL    HW219017   4.076   3.478   3.714
 6040SOL     OW19018   1.587   1.535   0.448
 6040SOL    HW119019   1.591   1.438   0.424
 6040SOL    HW219020   1.644   1.588   0.385
 6041SOL     OW19021   3.168   2.965   5.431
 6041SOL    HW119022   3.191   3.043   5.372
 6041SOL    HW219023   3.226   2.887   5.407
 6042SOL     OW19024   3.957   6.049   3.042
 6042SOL    HW119025   4.037   6.037   2.982
 6042SOL    HW219026   3.988   6.066   3.136
 6043SOL     OW19027   1.437   0.827   3.757
 6043SOL    HW119028   1.516   0.863   3.706
 6043SOL    HW219029   1.452   0.730   3.778
 6044SOL     OW19030   2.017   1.647   1.812
 6044SOL    HW119031   1.991   1.659   1.907
 6044SOL    HW219032   2.115   1.626   1.806
 6045SOL     OW19033   5.181   3.224   3.816
 6045SOL    HW119034   5.106   3.180   3.866
 6045SOL    HW219035   5.195   3.317   3.851
 6046SOL     OW19036   3.179   2.626   1.419
 6046SOL    HW119037   3.241   2.620   1.340
 6046SOL    HW219038   3.195   2.547   1.479
 6047SOL     OW19039   5.478   2.300   0.834
 6047SOL    HW119040   5.476   2.230   0.763
 6047SOL    HW219041   5.557   2.285   0.894
 6048SOL     OW19042   5.215   4.792   5.308
 6048SOL    HW119043   5.269   4.867   5.270
 6048SOL    HW219044   5.229   4.710   5.252
 6049SOL     OW19045   5.448   4.299   6.151
 6049SOL    HW119046   5.349   4.287   6.159
 6049SOL    HW219047   5.477   4.278   6.057
 6050SOL     OW19048   3.015   5.444   0.385
 6050SOL    HW119049   3.012   5.374   0.456
 6050SOL    HW219050   3.058   5.527   0.420
 6051SOL     OW19051   0.353   1.021   2.503
 6051SOL    HW119052   0.420   1.031   2.576
 6051SOL    HW219053   0.261   1.039   2.539
 6052SOL     OW19054   5.538   0.272   1.037
 6052SOL    HW119055   5.468   0.305   0.974
 6052SOL    HW219056   5.629   0.294   1.001
 6053SOL     OW19057   4.639   0.882   5.959
 6053SOL    HW119058   4.695   0.964   5.962
 6053SOL    HW219059   4.552   0.902   5.914
 6054SOL     OW19060   3.883   5.063   0.839
 6054SOL    HW119061   3.839   5.111   0.763
 6054SOL    HW219062   3.976   5.099   0.850
 6055SOL     OW19063   3.353   4.898   6.491
 6055SOL    HW119064   3.376   4.849   6.575
 6055SOL    HW219065   3.278   4.961   6.508
 6056SOL     OW19066   5.941   2.884   4.843
 6056SOL    HW119067   5.912   2.889   4.939
 6056SOL    HW219068   6.038   2.863   4.839
 6057SOL     OW19069   5.599   0.248   2.436
 6057SOL    HW119070   5.615   0.347   2.434
 6057SOL    HW219071   5.606   0.211   2.343
 6058SOL     OW19072   6.138   3.588   0.486
 6058SOL    HW119073   6.107   3.543   0.402
 6058SOL    HW219074   6.148   3.519   0.559
 6059SOL     OW19075   5.245   3.957   5.350
 6059SOL    HW119076   5.213   3.947   5.444
 6059SOL    HW219077   5.248   3.866   5.307
 6060SOL     OW19078   3.140   3.071   0.412
 6060SOL    HW119079   3.134   2.984   0.460
 6060SOL    HW219080   3.144   3.055   0.313
 6061SOL     OW19081   4.219   4.735   0.094
 6061SOL    HW119082   4.309   4.690   0.094
 6061SOL    HW219083   4.160   4.691   0.027
 6062SOL     OW19084   2.300   1.794   6.794
 6062SOL    HW119085   2.370   1.859   6.822
 6062SOL    HW219086   2.331   1.701   6.812
 6063SOL     OW19087   3.695   4.412   5.270
 6063SOL    HW119088   3.744   4.490   5.231
 6063SOL    HW219089   3.662   4.353   5.197
 6064SOL     OW19090   0.570   0.355   0.629
 6064SOL    HW119091   0.603   0.292   0.558
 6064SOL    HW219092   0.566   0.307   0.717
 6065SOL     OW19093   1.411   5.335   1.893
 6065SOL    HW119094   1.347   5.406   1.921
 6065SOL    HW219095   1.476   5.318   1.967
 6066SOL     OW19096   5.095   1.286   3.566
 6066SOL    HW119097   5.057   1.321   3.481
 6066SOL    HW219098   5.073   1.189   3.574
 6067SOL     OW19099   5.869   0.324   5.777
 6067SOL    HW119100   5.771   0.316   5.761
 6067SOL    HW219101   5.907   0.395   5.717
 6068SOL     OW19102   5.219   2.384   5.031
 6068SOL    HW119103   5.152   2.370   4.958
 6068SOL    HW219104   5.231   2.299   5.082
 6069SOL     OW19105   6.947   3.037   5.793
 6069SOL    HW119106   6.865   2.987   5.767
 6069SOL    HW219107   6.970   3.017   5.888
 6070SOL     OW19108   3.682   2.294   1.619
 6070SOL    HW119109   3.645   2.280   1.710
 6070SOL    HW219110   3.615   2.265   1.550
 6071SOL     OW19111   0.262   6.347   4.367
 6071SOL    HW119112   0.203   6.287   4.421
 6071SOL    HW219113   0.213   6.379   4.287
 6072SOL     OW19114   6.875   1.806   0.925
 6072SOL    HW119115   6.962   1.766   0.955
 6072SOL    HW219116   6.803   1.736   0.929
 6073SOL     OW19117   4.912   2.916   1.317
 6073SOL    HW119118   4.958   2.992   1.271
 6073SOL    HW219119   4.822   2.946   1.349
 6074SOL     OW19120   1.835   0.063   2.274
 6074SOL    HW119121   1.801   0.112   2.194
 6074SOL    HW219122   1.849   0.128   2.349
 6075SOL     OW19123   4.840   0.002   6.127
 6075SOL    HW119124   4.778   0.081   6.131
 6075SOL    HW219125   4.884   7.009   6.215
 6076SOL     OW19126   2.589   5.374   3.835
 6076SOL    HW119127   2.504   5.364   3.888
 6076SOL    HW219128   2.577   5.448   3.768
 6077SOL     OW19129   5.620   6.432   0.822
 6077SOL    HW119130   5.647   6.473   0.910
 6077SOL    HW219131   5.694   6.442   0.756
 6078SOL     OW19132   4.422   4.461   0.685
 6078SOL    HW119133   4.442   4.363   0.683
 6078SOL    HW219134   4.329   4.477   0.652
 6079SOL     OW19135   4.853   4.310   6.534
 6079SOL    HW119136   4.824   4.392   6.483
 6079SOL    HW219137   4.938   4.276   6.495
 6080SOL     OW19138   0.808   4.994   1.838
 6080SOL    HW119139   0.818   5.094   1.839
 6080SOL    HW219140   0.791   4.961   1.930
 6081SOL     OW19141   0.660   3.546   5.598
 6081SOL    HW119142   0.680   3.642   5.614
 6081SOL    HW219143   0.743   3.492   5.610
 6082SOL     OW19144   3.214   0.053   1.925
 6082SOL    HW119145   3.238   0.071   1.829
 6082SOL    HW219146   3.213   6.973   1.941
 6083SOL     OW19147   5.699   6.664   0.183
 6083SOL    HW119148   5.694   6.582   0.240
 6083SOL    HW219149   5.679   6.639   0.088
 6084SOL     OW19150   0.778   6.215   2.131
 6084SOL    HW119151   0.761   6.173   2.220
 6084SOL    HW219152   0.858   6.173   2.089
 6085SOL     OW19153   6.174   5.929   6.580
 6085SOL    HW119154   6.239   5.949   6.507
 6085SOL    HW219155   6.087   5.899   6.540
 6086SOL     OW19156   3.734   2.918   6.347
 6086SOL    HW119157   3.661   2.901   6.280
 6086SOL    HW219158   3.795   2.988   6.311
 6087SOL     OW19159   5.413   6.249   0.701
 6087SOL    HW119160   5.339   6.204   0.750
 6087SOL    HW219161   5.474   6.295   0.767
 6088SOL     OW19162   5.477   6.478   5.398
 6088SOL    HW119163   5.519   6.388   5.407
 6088SOL    HW219164   5.547   6.549   5.410
 6089SOL     OW19165   6.575   2.223   2.391
 6089SOL    HW119166   6.533   2.292   2.450
 6089SOL    HW219167   6.588   2.261   2.299
 6090SOL     OW19168   2.794   5.123   4.434
 6090SOL    HW119169   2.820   5.171   4.518
 6090SOL    HW219170   2.801   5.024   4.449
 6091SOL     OW19171   2.487   1.403   0.967
 6091SOL    HW119172   2.587   1.407   0.966
 6091SOL    HW219173   2.450   1.495   0.961
 6092SOL     OW19174   4.618   0.688   1.888
 6092SOL    HW119175   4.709   0.652   1.906
 6092SOL    HW219176   4.578   0.724   1.973
 6093SOL     OW19177   2.520   1.727   2.243
 6093SOL    HW119178   2.462   1.807   2.226
 6093SOL    HW219179   2.542   1.682   2.157
 6094SOL     OW19180   1.241   6.617   3.804
 6094SOL    HW119181   1.314   6.549   3.796
 6094SOL    HW219182   1.165   6.590   3.745
 6095SOL     OW19183   4.548   5.446   6.933
 6095SOL    HW119184   4.598   5.375   6.882
 6095SOL    HW219185   4.518   5.408   0.002
 6096SOL     OW19186   5.457   6.233   2.260
 6096SOL    HW119187   5.516   6.162   2.300
 6096SOL    HW219188   5.396   6.269   2.331
 6097SOL     OW19189   1.195   5.532   1.875
 6097SOL    HW119190   1.194   5.527   1.775
 6097SOL    HW219191   1.257   5.605   1.904
 6098SOL     OW19192   6.315   0.827   5.618
 6098SOL    HW119193   6.268   0.748   5.658
 6098SOL    HW219194   6.251   0.902   5.607
 6099SOL     OW19195   4.526   6.441   5.756
 6099SOL    HW119196   4.599   6.503   5.783
 6099SOL    HW219197   4.482   6.475   5.673
 6100SOL     OW19198   0.470   5.754   1.617
 6100SOL    HW119199   0.433   5.814   1.688
 6100SOL    HW219200   0.493   5.666   1.657
 6101SOL     OW19201   5.992   2.567   2.342
 6101SOL    HW119202   5.909   2.536   2.389
 6101SOL    HW219203   6.062   2.495   2.347
 6102SOL     OW19204   4.193   5.520   3.096
 6102SOL    HW119205   4.093   5.516   3.096
 6102SOL    HW219206   4.228   5.504   3.004
 6103SOL     OW19207   6.313   1.589   1.056
 6103SOL    HW119208   6.234   1.536   1.024
 6103SOL    HW219209   6.395   1.531   1.054
 6104SOL     OW19210   5.625   1.216   5.296
 6104SOL    HW119211   5.554   1.246   5.233
 6104SOL    HW219212   5.634   1.283   5.370
 6105SOL     OW19213   2.649   5.283   5.606
 6105SOL    HW119214   2.631   5.376   5.573
 6105SOL    HW219215   2.747   5.274   5.625
 6106SOL     OW19216   1.104   4.722   0.680
 6106SOL    HW119217   1.168   4.762   0.615
 6106SOL    HW219218   1.070   4.793   0.742
 6107SOL     OW19219   4.837   5.534   4.022
 6107SOL    HW119220   4.936   5.548   4.017
 6107SOL    HW219221   4.790   5.618   3.998
 6108SOL     OW19222   1.284   1.993   2.838
 6108SOL    HW119223   1.309   1.910   2.889
 6108SOL    HW219224   1.365   2.029   2.792
 6109SOL     OW19225   5.203   0.980   4.140
 6109SOL    HW119226   5.190   1.034   4.223
 6109SOL    HW219227   5.185   0.884   4.160
 6110SOL     OW19228   1.269   2.581   6.401
 6110SOL    HW119229   1.251   2.583   6.499
 6110SOL    HW219230   1.212   2.650   6.355
 6111SOL     OW19231   1.260   3.397   1.948
 6111SOL    HW119232   1.276   3.418   2.045
 6111SOL    HW219233   1.182   3.334   1.941
 6112SOL     OW19234   4.085   0.458   1.905
 6112SOL    HW119235   4.094   0.515   1.987
 6112SOL    HW219236   4.005   0.398   1.915
 6113SOL     OW19237   2.518   4.058   6.642
 6113SOL    HW119238   2.585   4.103   6.583
 6113SOL    HW219239   2.452   4.125   6.675
 6114SOL     OW19240   4.952   2.739   2.416
 6114SOL    HW119241   4.958   2.829   2.371
 6114SOL    HW219242   4.923   2.751   2.510
 6115SOL     OW19243   0.407   1.548   5.217
 6115SOL    HW119244   0.414   1.562   5.316
 6115SOL    HW219245   0.319   1.584   5.185
 6116SOL     OW19246   3.943   2.398   5.359
 6116SOL    HW119247   3.990   2.486   5.348
 6116SOL    HW219248   3.855   2.413   5.403
 6117SOL     OW19249   1.115   1.273   3.138
 6117SOL    HW119250   1.077   1.314   3.055
 6117SOL    HW219251   1.109   1.173   3.132
 6118SOL     OW19252   5.650   1.660   1.730
 6118SOL    HW119253   5.714   1.642   1.805
 6118SOL    HW219254   5.592   1.580   1.716
 6119SOL     OW19255   0.156   2.934   0.358
 6119SOL    HW119256   0.239   2.897   0.316
 6119SOL    HW219257   0.077   2.906   0.304
 6120SOL     OW19258   1.853   6.514   5.562
 6120SOL    HW119259   1.822   6.419   5.561
 6120SOL    HW219260   1.864   6.545   5.657
 6121SOL     OW19261   0.446   4.252   5.523
 6121SOL    HW119262   0.499   4.238   5.440
 6121SOL    HW219263   0.350   4.268   5.498
 6122SOL     OW19264   5.236   5.711   6.377
 6122SOL    HW119265   5.191   5.761   6.302
 6122SOL    HW219266   5.208   5.615   6.376
 6123SOL     OW19267   5.244   0.901   5.452
 6123SOL    HW119268   5.219   0.915   5.356
 6123SOL    HW219269   5.342   0.881   5.458
 6124SOL     OW19270   1.639   6.616   5.355
 6124SOL    HW119271   1.702   6.577   5.422
 6124SOL    HW219272   1.597   6.699   5.392
 6125SOL     OW19273   2.396   3.406   7.000
 6125SOL    HW119274   2.387   3.434   6.905
 6125SOL    HW219275   2.414   3.486   0.038
 6126SOL     OW19276   0.859   1.912   5.318
 6126SOL    HW119277   0.766   1.883   5.297
 6126SOL    HW219278   0.866   1.937   5.414
 6127SOL     OW19279   4.074   1.029   1.314
 6127SOL    HW119280   4.152   0.976   1.348
 6127SOL    HW219281   4.068   1.020   1.215
 6128SOL     OW19282   5.913   5.406   0.598
 6128SOL    HW119283   5.920   5.506   0.603
 6128SOL    HW219284   5.997   5.365   0.634
 6129SOL     OW19285   1.911   4.695   3.182
 6129SOL    HW119286   1.964   4.662   3.260
 6129SOL    HW219287   1.947   4.782   3.151
 6130SOL     OW19288   6.102   2.445   2.933
 6130SOL    HW119289   6.049   2.428   2.850
 6130SOL    HW219290   6.187   2.492   2.910
 6131SOL     OW19291   0.731   2.435   2.018
 6131SOL    HW119292   0.666   2.436   2.095
 6131SOL    HW219293   0.681   2.420   1.933
 6132SOL     OW19294   3.322   1.607   6.672
 6132SOL    HW119295   3.377   1.636   6.750
 6132SOL    HW219296   3.319   1.507   6.668
 6133SOL     OW19297   1.081   2.216   3.332
 6133SOL    HW119298   1.138   2.137   3.357
 6133SOL    HW219299   1.140   2.292   3.304
 6134SOL     OW19300   4.655   6.881   6.666
 6134SOL    HW119301   4.640   6.917   6.574
 6134SOL    HW219302   4.753   6.878   6.685
 6135SOL     OW19303   5.953   6.662   0.078
 6135SOL    HW119304   5.862   6.695   0.102
 6135SOL    HW219305   6.015   6.739   0.066
 6136SOL     OW19306   1.535   2.030   1.402
 6136SOL    HW119307   1.607   1.986   1.455
 6136SOL    HW219308   1.562   2.032   1.305
 6137SOL     OW19309   0.741   3.925   2.481
 6137SOL    HW119310   0.802   3.857   2.441
 6137SOL    HW219311   0.772   3.948   2.573
 6138SOL     OW19312   3.279   0.282   2.091
 6138SOL    HW119313   3.267   0.364   2.035
 6138SOL    HW219314   3.232   0.205   2.048
 6139SOL     OW19315   0.762   6.956   5.403
 6139SOL    HW119316   0.706   6.955   5.486
 6139SOL    HW219317   0.709   6.995   5.327
 6140SOL     OW19318   0.629   0.880   3.273
 6140SOL    HW119319   0.547   0.838   3.312
 6140SOL    HW219320   0.605   0.927   3.188
 6141SOL     OW19321   0.780   0.363   6.046
 6141SOL    HW119322   0.795   0.436   5.979
 6141SOL    HW219323   0.837   0.284   6.022
 6142SOL     OW19324   0.630   0.538   5.699
 6142SOL    HW119325   0.577   0.454   5.707
 6142SOL    HW219326   0.568   0.616   5.689
 6143SOL     OW19327   0.243   4.270   0.742
 6143SOL    HW119328   0.199   4.313   0.820
 6143SOL    HW219329   0.174   4.231   0.681
 6144SOL     OW19330   4.860   4.459   3.053
 6144SOL    HW119331   4.944   4.449   3.001
 6144SOL    HW219332   4.813   4.543   3.026
 6145SOL     OW19333   5.726   4.690   3.831
 6145SOL    HW119334   5.772   4.750   3.896
 6145SOL    HW219335   5.794   4.653   3.767
 6146SOL     OW19336   3.909   6.885   4.069
 6146SOL    HW119337   3.983   6.833   4.028
 6146SOL    HW219338   3.863   6.939   3.999
 6147SOL     OW19339   1.912   2.933   4.652
 6147SOL    HW119340   1.878   3.025   4.671
 6147SOL    HW219341   1.950   2.894   4.736
 6148SOL     OW19342   3.876   4.939   6.625
 6148SOL    HW119343   3.899   5.021   6.678
 6148SOL    HW219344   3.919   4.944   6.535
 6149SOL     OW19345   2.286   6.941   1.999
 6149SOL    HW119346   2.276   0.022   1.996
 6149SOL    HW219347   2.205   6.899   1.957
 6150SOL     OW19348   6.579   3.952   6.496
 6150SOL    HW119349   6.660   3.949   6.438
 6150SOL    HW219350   6.604   3.983   6.587
 6151SOL     OW19351   5.407   5.107   4.044
 6151SOL    HW119352   5.443   5.166   3.972
 6151SOL    HW219353   5.438   5.013   4.029
 6152SOL     OW19354   1.017   5.735   4.447
 6152SOL    HW119355   0.953   5.659   4.442
 6152SOL    HW219356   1.050   5.745   4.541
 6153SOL     OW19357   4.840   5.086   0.842
 6153SOL    HW119358   4.922   5.126   0.803
 6153SOL    HW219359   4.760   5.112   0.786
 6154SOL     OW19360   5.367   3.679   3.276
 6154SOL    HW119361   5.432   3.718   3.211
 6154SOL    HW219362   5.363   3.737   3.357
 6155SOL     OW19363   2.740   0.962   3.163
 6155SOL    HW119364   2.794   0.898   3.109
 6155SOL    HW219365   2.798   1.036   3.196
 6156SOL     OW19366   5.274   3.757   1.777
 6156SOL    HW119367   5.370   3.731   1.778
 6156SOL    HW219368   5.265   3.855   1.792
 6157SOL     OW19369   0.761   1.982   3.568
 6157SOL    HW119370   0.683   1.986   3.506
 6157SOL    HW219371   0.829   1.918   3.531
 6158SOL     OW19372   2.882   2.363   6.722
 6158SOL    HW119373   2.882   2.299   6.646
 6158SOL    HW219374   2.940   2.328   6.796
 6159SOL     OW19375   5.463   3.870   0.848
 6159SOL    HW119376   5.417   3.792   0.805
 6159SOL    HW219377   5.490   3.845   0.941
 6160SOL     OW19378   6.757   6.949   6.932
 6160SOL    HW119379   6.790   7.009   6.859
 6160SOL    HW219380   6.695   6.881   6.894
 6161SOL     OW19381   5.275   1.828   6.870
 6161SOL    HW119382   5.315   1.751   6.919
 6161SOL    HW219383   5.176   1.824   6.877
 6162SOL     OW19384   5.937   6.660   3.623
 6162SOL    HW119385   5.881   6.580   3.598
 6162SOL    HW219386   5.878   6.740   3.632
 6163SOL     OW19387   5.298   5.730   2.440
 6163SOL    HW119388   5.367   5.705   2.508
 6163SOL    HW219389   5.267   5.823   2.457
 6164SOL     OW19390   3.468   4.178   4.522
 6164SOL    HW119391   3.534   4.199   4.594
 6164SOL    HW219392   3.377   4.171   4.562
 6165SOL     OW19393   4.157   2.196   6.160
 6165SOL    HW119394   4.249   2.221   6.188
 6165SOL    HW219395   4.115   2.273   6.111
 6166SOL     OW19396   6.365   1.809   0.107
 6166SOL    HW119397   6.431   1.877   0.074
 6166SOL    HW219398   6.283   1.812   0.050
 6167SOL     OW19399   1.126   4.444   2.835
 6167SOL    HW119400   1.167   4.536   2.834
 6167SOL    HW219401   1.182   4.383   2.892
 6168SOL     OW19402   0.182   2.293   2.998
 6168SOL    HW119403   0.092   2.290   2.955
 6168SOL    HW219404   0.230   2.207   2.983
 6169SOL     OW19405   0.681   1.081   6.174
 6169SOL    HW119406   0.729   1.144   6.112
 6169SOL    HW219407   0.738   1.062   6.253
 6170SOL     OW19408   3.468   4.265   6.145
 6170SOL    HW119409   3.454   4.299   6.052
 6170SOL    HW219410   3.521   4.180   6.142
 6171SOL     OW19411   1.380   3.577   2.156
 6171SOL    HW119412   1.305   3.564   2.220
 6171SOL    HW219413   1.376   3.669   2.117
 6172SOL     OW19414   0.012   0.398   2.442
 6172SOL    HW119415   0.107   0.423   2.426
 6172SOL    HW219416   6.975   0.423   2.363
 6173SOL     OW19417   0.348   5.006   2.502
 6173SOL    HW119418   0.425   5.026   2.562
 6173SOL    HW219419   0.364   5.047   2.412
 6174SOL     OW19420   6.202   4.762   2.914
 6174SOL    HW119421   6.129   4.791   2.977
 6174SOL    HW219422   6.177   4.788   2.821
 6175SOL     OW19423   5.291   6.998   2.777
 6175SOL    HW119424   5.319   0.065   2.735
 6175SOL    HW219425   5.350   6.978   2.855
 6176SOL     OW19426   6.612   3.661   6.626
 6176SOL    HW119427   6.606   3.758   6.603
 6176SOL    HW219428   6.524   3.617   6.609
 6177SOL     OW19429   5.414   1.693   1.281
 6177SOL    HW119430   5.365   1.682   1.367
 6177SOL    HW219431   5.422   1.790   1.259
 6178SOL     OW19432   5.151   5.443   1.668
 6178SOL    HW119433   5.065   5.394   1.656
 6178SOL    HW219434   5.142   5.536   1.631
 6179SOL     OW19435   0.313   3.515   5.125
 6179SOL    HW119436   0.362   3.463   5.195
 6179SOL    HW219437   0.294   3.607   5.159
 6180SOL     OW19438   3.099   6.775   6.307
 6180SOL    HW119439   3.130   6.689   6.346
 6180SOL    HW219440   3.146   6.792   6.220
 6181SOL     OW19441   4.626   6.439   0.652
 6181SOL    HW119442   4.543   6.476   0.612
 6181SOL    HW219443   4.646   6.350   0.610
 6182SOL     OW19444   5.185   5.427   5.857
 6182SOL    HW119445   5.247   5.432   5.779
 6182SOL    HW219446   5.170   5.331   5.881
 6183SOL     OW19447   1.924   0.490   3.054
 6183SOL    HW119448   1.865   0.409   3.053
 6183SOL    HW219449   2.001   0.475   2.991
 6184SOL     OW19450   1.986   6.694   6.154
 6184SOL    HW119451   1.914   6.763   6.160
 6184SOL    HW219452   2.066   6.734   6.109
 6185SOL     OW19453   1.414   4.009   0.461
 6185SOL    HW119454   1.332   4.062   0.483
 6185SOL    HW219455   1.409   3.978   0.366
 6186SOL     OW19456   5.604   6.973   3.792
 6186SOL    HW119457   5.673   0.018   3.824
 6186SOL    HW219458   5.518   6.991   3.840
 6187SOL     OW19459   5.105   4.772   3.984
 6187SOL    HW119460   5.059   4.859   3.999
 6187SOL    HW219461   5.043   4.709   3.937
 6188SOL     OW19462   2.753   5.891   1.419
 6188SOL    HW119463   2.804   5.844   1.347
 6188SOL    HW219464   2.751   5.835   1.501
 6189SOL     OW19465   4.757   4.703   3.703
 6189SOL    HW119466   4.830   4.661   3.757
 6189SOL    HW219467   4.680   4.725   3.763
 6190SOL     OW19468   5.603   3.595   5.697
 6190SOL    HW119469   5.656   3.617   5.615
 6190SOL    HW219470   5.568   3.679   5.738
 6191SOL     OW19471   5.001   2.810   0.988
 6191SOL    HW119472   4.959   2.898   1.013
 6191SOL    HW219473   5.066   2.783   1.059
 6192SOL     OW19474   3.695   3.778   0.426
 6192SOL    HW119475   3.745   3.864   0.437
 6192SOL    HW219476   3.688   3.732   0.514
 6193SOL     OW19477   3.653   0.756   2.366
 6193SOL    HW119478   3.641   0.716   2.457
 6193SOL    HW219479   3.750   0.753   2.341
 6194SOL     OW19480   1.984   6.796   0.142
 6194SOL    HW119481   1.978   6.713   0.087
 6194SOL    HW219482   1.916   6.862   0.110
 6195SOL     OW19483   3.732   5.655   5.584
 6195SOL    HW119484   3.649   5.599   5.584
 6195SOL    HW219485   3.764   5.667   5.677
 6196SOL     OW19486   6.411   2.212   0.532
 6196SOL    HW119487   6.402   2.121   0.573
 6196SOL    HW219488   6.500   2.251   0.557
 6197SOL     OW19489   4.501   3.472   0.238
 6197SOL    HW119490   4.580   3.427   0.195
 6197SOL    HW219491   4.532   3.524   0.318
 6198SOL     OW19492   3.578   5.767   3.106
 6198SOL    HW119493   3.678   5.763   3.109
 6198SOL    HW219494   3.545   5.828   3.178
 6199SOL     OW19495   6.964   0.258   1.564
 6199SOL    HW119496   6.922   0.213   1.642
 6199SOL    HW219497   6.975   0.192   1.489
 6200SOL     OW19498   2.484   1.504   6.446
 6200SOL    HW119499   2.509   1.453   6.364
 6200SOL    HW219500   2.545   1.582   6.457
 6201SOL     OW19501   2.331   4.641   5.830
 6201SOL    HW119502   2.235   4.659   5.846
 6201SOL    HW219503   2.387   4.704   5.883
 6202SOL     OW19504   3.499   1.780   1.206
 6202SOL    HW119505   3.497   1.690   1.163
 6202SOL    HW219506   3.437   1.780   1.285
 6203SOL     OW19507   5.241   0.306   3.693
 6203SOL    HW119508   5.322   0.360   3.714
 6203SOL    HW219509   5.268   0.223   3.644
 6204SOL     OW19510   0.668   5.140   5.204
 6204SOL    HW119511   0.681   5.202   5.126
 6204SOL    HW219512   0.598   5.176   5.264
 6205SOL     OW19513   5.729   6.748   6.710
 6205SOL    HW119514   5.776   6.826   6.669
 6205SOL    HW219515   5.631   6.755   6.692
 6206SOL     OW19516   6.562   0.544   2.680
 6206SOL    HW119517   6.492   0.487   2.638
 6206SOL    HW219518   6.627   0.486   2.730
 6207SOL     OW19519   1.557   3.669   4.759
 6207SOL    HW119520   1.522   3.578   4.780
 6207SOL    HW219521   1.654   3.663   4.734
 6208SOL     OW19522   6.202   6.906   6.300
 6208SOL    HW119523   6.261   6.827   6.312
 6208SOL    HW219524   6.123   6.881   6.244
 6209SOL     OW19525   4.144   5.891   6.980
 6209SOL    HW119526   4.094   5.806   6.990
 6209SOL    HW219527   4.123   5.932   6.891
 6210SOL     OW19528   5.230   4.643   3.478
 6210SOL    HW119529   5.223   4.706   3.401
 6210SOL    HW219530   5.317   4.659   3.526
 6211SOL     OW19531   3.170   6.657   5.433
 6211SOL    HW119532   3.157   6.669   5.532
 6211SOL    HW219533   3.171   6.746   5.389
 6212SOL     OW19534   0.905   5.090   2.942
 6212SOL    HW119535   0.924   5.059   3.035
 6212SOL    HW219536   0.985   5.074   2.885
 6213SOL     OW19537   5.293   6.910   6.210
 6213SOL    HW119538   5.266   6.988   6.153
 6213SOL    HW219539   5.385   6.880   6.185
 6214SOL     OW19540   6.330   5.230   3.414
 6214SOL    HW119541   6.248   5.184   3.381
 6214SOL    HW219542   6.398   5.235   3.341
 6215SOL     OW19543   3.146   1.381   6.750
 6215SOL    HW119544   3.090   1.302   6.776
 6215SOL    HW219545   3.243   1.358   6.763
 6216SOL     OW19546   6.340   2.145   2.017
 6216SOL    HW119547   6.348   2.059   2.068
 6216SOL    HW219548   6.302   2.128   1.927
 6217SOL     OW19549   5.860   2.885   2.032
 6217SOL    HW119550   5.871   2.824   1.954
 6217SOL    HW219551   5.920   2.855   2.107
 6218SOL     OW19552   3.424   4.983   4.259
 6218SOL    HW119553   3.376   4.909   4.306
 6218SOL    HW219554   3.358   5.049   4.223
 6219SOL     OW19555   0.432   1.401   4.574
 6219SOL    HW119556   0.496   1.390   4.498
 6219SOL    HW219557   0.481   1.395   4.661
 6220SOL     OW19558   1.581   4.397   5.596
 6220SOL    HW119559   1.666   4.360   5.559
 6220SOL    HW219560   1.509   4.390   5.527
 6221SOL     OW19561   5.552   5.270   5.869
 6221SOL    HW119562   5.485   5.270   5.794
 6221SOL    HW219563   5.566   5.177   5.901
 6222SOL     OW19564   0.877   6.635   1.561
 6222SOL    HW119565   0.959   6.588   1.596
 6222SOL    HW219566   0.795   6.588   1.594
 6223SOL     OW19567   6.990   3.287   4.510
 6223SOL    HW119568   7.012   3.211   4.571
 6223SOL    HW219569   6.965   3.251   4.420
 6224SOL     OW19570   1.691   1.775   6.311
 6224SOL    HW119571   1.694   1.785   6.212
 6224SOL    HW219572   1.705   1.865   6.354
 6225SOL     OW19573   2.972   3.095   1.570
 6225SOL    HW119574   2.954   3.193   1.566
 6225SOL    HW219575   3.068   3.078   1.551
 6226SOL     OW19576   5.056   1.760   3.767
 6226SOL    HW119577   5.028   1.665   3.758
 6226SOL    HW219578   5.123   1.767   3.841
 6227SOL     OW19579   3.459   4.715   6.315
 6227SOL    HW119580   3.517   4.658   6.372
 6227SOL    HW219581   3.429   4.795   6.368
 6228SOL     OW19582   0.172   2.322   2.414
 6228SOL    HW119583   0.087   2.374   2.399
 6228SOL    HW219584   0.155   2.225   2.398
 6229SOL     OW19585   1.114   2.764   2.778
 6229SOL    HW119586   1.029   2.764   2.725
 6229SOL    HW219587   1.145   2.858   2.792
 6230SOL     OW19588   1.328   1.394   4.446
 6230SOL    HW119589   1.340   1.428   4.353
 6230SOL    HW219590   1.233   1.364   4.459
 6231SOL     OW19591   6.671   4.879   1.401
 6231SOL    HW119592   6.633   4.952   1.457
 6231SOL    HW219593   6.758   4.848   1.440
 6232SOL     OW19594   6.319   1.629   0.529
 6232SOL    HW119595   6.326   1.530   0.515
 6232SOL    HW219596   6.284   1.648   0.620
 6233SOL     OW19597   5.389   1.394   0.235
 6233SOL    HW119598   5.298   1.435   0.236
 6233SOL    HW219599   5.430   1.401   0.326
 6234SOL     OW19600   0.455   1.115   5.614
 6234SOL    HW119601   0.439   1.213   5.596
 6234SOL    HW219602   0.446   1.097   5.712
 6235SOL     OW19603   1.371   0.240   2.333
 6235SOL    HW119604   1.285   0.191   2.348
 6235SOL    HW219605   1.382   0.259   2.235
 6236SOL     OW19606   0.943   5.276   0.391
 6236SOL    HW119607   0.968   5.372   0.407
 6236SOL    HW219608   0.845   5.265   0.405
 6237SOL     OW19609   3.998   6.501   0.368
 6237SOL    HW119610   3.982   6.403   0.362
 6237SOL    HW219611   3.929   6.549   0.315
 6238SOL     OW19612   4.253   5.000   3.306
 6238SOL    HW119613   4.169   4.999   3.360
 6238SOL    HW219614   4.236   4.963   3.215
 6239SOL     OW19615   2.958   6.803   1.475
 6239SOL    HW119616   2.864   6.772   1.485
 6239SOL    HW219617   3.013   6.770   1.552
 6240SOL     OW19618   2.642   2.566   0.077
 6240SOL    HW119619   2.739   2.573   0.053
 6240SOL    HW219620   2.632   2.549   0.175
 6241SOL     OW19621   2.744   1.330   2.603
 6241SOL    HW119622   2.830   1.285   2.579
 6241SOL    HW219623   2.751   1.370   2.695
 6242SOL     OW19624   5.319   1.222   3.230
 6242SOL    HW119625   5.279   1.301   3.276
 6242SOL    HW219626   5.349   1.248   3.139
 6243SOL     OW19627   5.716   6.864   3.035
 6243SOL    HW119628   5.789   6.886   2.970
 6243SOL    HW219629   5.630   6.904   3.003
 6244SOL     OW19630   1.549   2.551   1.462
 6244SOL    HW119631   1.499   2.499   1.531
 6244SOL    HW219632   1.541   2.505   1.373
 6245SOL     OW19633   2.977   4.679   1.399
 6245SOL    HW119634   3.006   4.587   1.376
 6245SOL    HW219635   2.976   4.690   1.499
 6246SOL     OW19636   2.552   2.794   6.258
 6246SOL    HW119637   2.582   2.885   6.286
 6246SOL    HW219638   2.588   2.726   6.322
 6247SOL     OW19639   0.550   6.224   3.369
 6247SOL    HW119640   0.479   6.217   3.439
 6247SOL    HW219641   0.585   6.318   3.366
 6248SOL     OW19642   1.868   3.690   1.438
 6248SOL    HW119643   1.843   3.777   1.397
 6248SOL    HW219644   1.884   3.622   1.365
 6249SOL     OW19645   0.831   4.619   0.386
 6249SOL    HW119646   0.921   4.657   0.363
 6249SOL    HW219647   0.837   4.568   0.472
 6250SOL     OW19648   6.361   6.017   0.428
 6250SOL    HW119649   6.412   6.091   0.385
 6250SOL    HW219650   6.422   5.961   0.484
 6251SOL     OW19651   3.612   6.590   0.581
 6251SOL    HW119652   3.566   6.538   0.509
 6251SOL    HW219653   3.694   6.632   0.544
 6252SOL     OW19654   1.834   6.451   4.337
 6252SOL    HW119655   1.927   6.483   4.354
 6252SOL    HW219656   1.776   6.473   4.416
 6253SOL     OW19657   2.172   3.789   2.430
 6253SOL    HW119658   2.128   3.823   2.347
 6253SOL    HW219659   2.232   3.712   2.406
 6254SOL     OW19660   5.484   0.776   0.370
 6254SOL    HW119661   5.475   0.875   0.358
 6254SOL    HW219662   5.393   0.735   0.381
 6255SOL     OW19663   1.795   0.919   1.353
 6255SOL    HW119664   1.724   0.856   1.384
 6255SOL    HW219665   1.779   1.009   1.392
 6256SOL     OW19666   3.879   5.053   3.062
 6256SOL    HW119667   3.816   5.025   3.134
 6256SOL    HW219668   3.841   5.030   2.973
 6257SOL     OW19669   5.657   2.260   1.067
 6257SOL    HW119670   5.729   2.318   1.107
 6257SOL    HW219671   5.682   2.164   1.080
 6258SOL     OW19672   4.715   0.199   3.519
 6258SOL    HW119673   4.747   0.183   3.612
 6258SOL    HW219674   4.748   0.288   3.487
 6259SOL     OW19675   2.768   1.361   1.053
 6259SOL    HW119676   2.769   1.400   1.146
 6259SOL    HW219677   2.860   1.330   1.030
 6260SOL     OW19678   3.279   4.018   0.168
 6260SOL    HW119679   3.238   3.927   0.156
 6260SOL    HW219680   3.345   4.015   0.243
 6261SOL     OW19681   2.826   6.818   6.301
 6261SOL    HW119682   2.925   6.803   6.304
 6261SOL    HW219683   2.797   6.861   6.387
 6262SOL     OW19684   2.162   4.121   1.008
 6262SOL    HW119685   2.137   4.178   0.930
 6262SOL    HW219686   2.089   4.056   1.027
 6263SOL     OW19687   0.425   0.319   5.739
 6263SOL    HW119688   0.357   0.330   5.812
 6263SOL    HW219689   0.379   0.313   5.651
 6264SOL     OW19690   1.393   6.810   0.990
 6264SOL    HW119691   1.415   6.871   1.066
 6264SOL    HW219692   1.478   6.776   0.949
 6265SOL     OW19693   3.458   3.967   1.054
 6265SOL    HW119694   3.466   3.922   0.965
 6265SOL    HW219695   3.524   3.927   1.118
 6266SOL     OW19696   4.260   1.168   4.651
 6266SOL    HW119697   4.347   1.202   4.614
 6266SOL    HW219698   4.278   1.117   4.735
 6267SOL     OW19699   3.473   0.565   0.277
 6267SOL    HW119700   3.419   0.649   0.277
 6267SOL    HW219701   3.545   0.572   0.346
 6268SOL     OW19702   2.968   6.192   2.727
 6268SOL    HW119703   2.877   6.165   2.694
 6268SOL    HW219704   2.958   6.251   2.807
 6269SOL     OW19705   6.710   5.887   2.380
 6269SOL    HW119706   6.660   5.906   2.465
 6269SOL    HW219707   6.799   5.933   2.384
 6270SOL     OW19708   1.941   0.249   5.208
 6270SOL    HW119709   1.933   0.166   5.153
 6270SOL    HW219710   1.875   0.245   5.283
 6271SOL     OW19711   6.498   2.328   5.792
 6271SOL    HW119712   6.439   2.369   5.862
 6271SOL    HW219713   6.446   2.262   5.739
 6272SOL     OW19714   0.827   2.898   5.468
 6272SOL    HW119715   0.863   2.878   5.560
 6272SOL    HW219716   0.731   2.926   5.475
 6273SOL     OW19717   1.169   0.578   2.295
 6273SOL    HW119718   1.173   0.504   2.226
 6273SOL    HW219719   1.260   0.591   2.334
 6274SOL     OW19720   2.404   5.630   6.124
 6274SOL    HW119721   2.415   5.703   6.192
 6274SOL    HW219722   2.492   5.583   6.112
 6275SOL     OW19723   2.857   6.596   5.070
 6275SOL    HW119724   2.791   6.526   5.043
 6275SOL    HW219725   2.848   6.616   5.167
 6276SOL     OW19726   1.386   4.897   3.747
 6276SOL    HW119727   1.465   4.953   3.721
 6276SOL    HW219728   1.340   4.939   3.825
 6277SOL     OW19729   5.415   3.183   2.314
 6277SOL    HW119730   5.364   3.201   2.398
 6277SOL    HW219731   5.360   3.124   2.254
 6278SOL     OW19732   4.553   0.495   4.686
 6278SOL    HW119733   4.609   0.502   4.768
 6278SOL    HW219734   4.586   0.561   4.618
 6279SOL     OW19735   3.793   0.857   6.466
 6279SOL    HW119736   3.875   0.813   6.503
 6279SOL    HW219737   3.811   0.955   6.453
 6280SOL     OW19738   0.475   2.733   5.840
 6280SOL    HW119739   0.440   2.802   5.904
 6280SOL    HW219740   0.402   2.703   5.779
 6281SOL     OW19741   2.442   6.307   5.033
 6281SOL    HW119742   2.528   6.259   5.016
 6281SOL    HW219743   2.387   6.256   5.099
 6282SOL     OW19744   1.552   0.263   4.901
 6282SOL    HW119745   1.548   0.355   4.862
 6282SOL    HW219746   1.647   0.233   4.904
 6283SOL     OW19747   6.162   2.602   4.561
 6283SOL    HW119748   6.132   2.696   4.580
 6283SOL    HW219749   6.248   2.585   4.609
 6284SOL     OW19750   2.353   5.583   4.902
 6284SOL    HW119751   2.334   5.675   4.867
 6284SOL    HW219752   2.444   5.554   4.873
 6285SOL     OW19753   1.600   2.849   3.922
 6285SOL    HW119754   1.610   2.756   3.956
 6285SOL    HW219755   1.669   2.867   3.851
 6286SOL     OW19756   6.191   2.019   4.058
 6286SOL    HW119757   6.190   2.071   3.973
 6286SOL    HW219758   6.270   1.958   4.060
 6287SOL     OW19759   4.191   4.717   2.587
 6287SOL    HW119760   4.098   4.751   2.576
 6287SOL    HW219761   4.231   4.700   2.497
 6288SOL     OW19762   5.645   4.162   2.081
 6288SOL    HW119763   5.726   4.178   2.025
 6288SOL    HW219764   5.573   4.226   2.054
 6289SOL     OW19765   1.559   3.628   2.606
 6289SOL    HW119766   1.655   3.605   2.617
 6289SOL    HW219767   1.542   3.657   2.511
 6290SOL     OW19768   5.760   3.779   4.188
 6290SOL    HW119769   5.691   3.760   4.118
 6290SOL    HW219770   5.765   3.878   4.204
 6291SOL     OW19771   3.904   3.066   3.328
 6291SOL    HW119772   4.000   3.083   3.306
 6291SOL    HW219773   3.849   3.078   3.246
 6292SOL     OW19774   0.588   2.899   3.210
 6292SOL    HW119775   0.540   2.981   3.179
 6292SOL    HW219776   0.592   2.832   3.135
 6293SOL     OW19777   4.045   6.928   6.868
 6293SOL    HW119778   3.959   6.931   6.920
 6293SOL    HW219779   4.103   7.004   6.897
 6294SOL     OW19780   3.544   4.941   3.976
 6294SOL    HW119781   3.556   4.951   4.075
 6294SOL    HW219782   3.632   4.957   3.930
 6295SOL     OW19783   5.174   5.211   5.615
 6295SOL    HW119784   5.088   5.161   5.625
 6295SOL    HW219785   5.182   5.247   5.522
 6296SOL     OW19786   6.890   6.415   4.657
 6296SOL    HW119787   6.790   6.405   4.655
 6296SOL    HW219788   6.914   6.511   4.674
 6297SOL     OW19789   4.902   6.872   5.162
 6297SOL    HW119790   4.850   6.957   5.169
 6297SOL    HW219791   4.982   6.878   5.222
 6298SOL     OW19792   1.487   2.867   5.981
 6298SOL    HW119793   1.542   2.814   6.046
 6298SOL    HW219794   1.405   2.816   5.956
 6299SOL     OW19795   5.532   2.120   0.186
 6299SOL    HW119796   5.498   2.184   0.116
 6299SOL    HW219797   5.526   2.163   0.276
 6300SOL     OW19798   5.375   1.009   4.792
 6300SOL    HW119799   5.388   1.008   4.693
 6300SOL    HW219800   5.316   0.933   4.818
 6301SOL     OW19801   2.527   0.036   0.683
 6301SOL    HW119802   2.435   0.028   0.645
 6301SOL    HW219803   2.521   0.078   0.774
 6302SOL     OW19804   1.598   1.767   4.428
 6302SOL    HW119805   1.539   1.825   4.484
 6302SOL    HW219806   1.624   1.816   4.345
 6303SOL     OW19807   2.698   0.954   4.600
 6303SOL    HW119808   2.711   0.957   4.699
 6303SOL    HW219809   2.660   1.041   4.568
 6304SOL     OW19810   2.211   0.923   0.768
 6304SOL    HW119811   2.273   1.000   0.787
 6304SOL    HW219812   2.152   0.946   0.691
 6305SOL     OW19813   6.540   6.779   0.678
 6305SOL    HW119814   6.533   6.755   0.775
 6305SOL    HW219815   6.498   6.869   0.663
 6306SOL     OW19816   0.424   3.908   4.381
 6306SOL    HW119817   0.389   3.847   4.310
 6306SOL    HW219818   0.369   3.992   4.383
 6307SOL     OW19819   4.135   4.068   5.957
 6307SOL    HW119820   4.214   4.072   5.896
 6307SOL    HW219821   4.061   4.123   5.919
 6308SOL     OW19822   1.412   1.865   4.942
 6308SOL    HW119823   1.330   1.808   4.936
 6308SOL    HW219824   1.455   1.869   4.852
 6309SOL     OW19825   4.916   3.828   4.648
 6309SOL    HW119826   4.974   3.852   4.726
 6309SOL    HW219827   4.886   3.911   4.601
 6310SOL     OW19828   2.029   5.163   4.187
 6310SOL    HW119829   2.015   5.136   4.282
 6310SOL    HW219830   1.950   5.135   4.132
 6311SOL     OW19831   5.582   0.563   5.817
 6311SOL    HW119832   5.604   0.466   5.811
 6311SOL    HW219833   5.660   0.617   5.787
 6312SOL     OW19834   5.400   5.120   5.680
 6312SOL    HW119835   5.394   5.020   5.677
 6312SOL    HW219836   5.312   5.160   5.658
 6313SOL     OW19837   1.566   5.958   2.917
 6313SOL    HW119838   1.626   5.997   2.847
 6313SOL    HW219839   1.518   6.032   2.964
 6314SOL     OW19840   3.626   6.664   1.878
 6314SOL    HW119841   3.676   6.737   1.833
 6314SOL    HW219842   3.536   6.698   1.907
 6315SOL     OW19843   3.854   2.789   6.682
 6315SOL    HW119844   3.811   2.803   6.771
 6315SOL    HW219845   3.794   2.822   6.609
 6316SOL     OW19846   4.792   2.354   6.147
 6316SOL    HW119847   4.695   2.340   6.168
 6316SOL    HW219848   4.838   2.266   6.137
 6317SOL     OW19849   5.415   5.561   3.620
 6317SOL    HW119850   5.409   5.658   3.597
 6317SOL    HW219851   5.449   5.510   3.541
 6318SOL     OW19852   2.987   1.900   4.962
 6318SOL    HW119853   3.002   1.983   5.017
 6318SOL    HW219854   2.987   1.820   5.021
 6319SOL     OW19855   0.004   2.763   3.571
 6319SOL    HW119856   0.081   2.805   3.522
 6319SOL    HW219857   6.940   2.819   3.558
 6320SOL     OW19858   6.035   4.483   4.292
 6320SOL    HW119859   6.086   4.521   4.370
 6320SOL    HW219860   5.947   4.529   4.284
 6321SOL     OW19861   3.492   5.305   1.193
 6321SOL    HW119862   3.525   5.345   1.279
 6321SOL    HW219863   3.445   5.219   1.212
 6322SOL     OW19864   1.457   2.407   6.475
 6322SOL    HW119865   1.391   2.481   6.457
 6322SOL    HW219866   1.535   2.444   6.524
 6323SOL     OW19867   3.396   2.577   1.207
 6323SOL    HW119868   3.437   2.493   1.172
 6323SOL    HW219869   3.299   2.581   1.181
 6324SOL     OW19870   4.597   0.687   6.130
 6324SOL    HW119871   4.603   0.753   6.055
 6324SOL    HW219872   4.557   0.602   6.097
 6325SOL     OW19873   1.155   1.942   2.020
 6325SOL    HW119874   1.059   1.966   2.033
 6325SOL    HW219875   1.200   1.937   2.110
 6326SOL     OW19876   5.506   5.888   1.221
 6326SOL    HW119877   5.456   5.959   1.171
 6326SOL    HW219878   5.530   5.813   1.159
 6327SOL     OW19879   6.900   0.294   5.174
 6327SOL    HW119880   6.943   0.204   5.160
 6327SOL    HW219881   6.956   0.364   5.130
 6328SOL     OW19882   1.867   3.696   0.365
 6328SOL    HW119883   1.858   3.785   0.320
 6328SOL    HW219884   1.790   3.637   0.338
 6329SOL     OW19885   1.693   2.422   3.228
 6329SOL    HW119886   1.668   2.443   3.322
 6329SOL    HW219887   1.612   2.392   3.178
 6330SOL     OW19888   4.690   0.736   1.334
 6330SOL    HW119889   4.667   0.711   1.428
 6330SOL    HW219890   4.607   0.763   1.285
 6331SOL     OW19891   5.964   2.425   0.725
 6331SOL    HW119892   5.993   2.419   0.820
 6331SOL    HW219893   6.042   2.405   0.665
 6332SOL     OW19894   6.731   4.645   2.339
 6332SOL    HW119895   6.685   4.558   2.353
 6332SOL    HW219896   6.830   4.632   2.338
 6333SOL     OW19897   3.681   5.005   4.197
 6333SOL    HW119898   3.590   4.998   4.238
 6333SOL    HW219899   3.748   4.964   4.259
 6334SOL     OW19900   1.884   0.521   2.500
 6334SOL    HW119901   1.868   0.508   2.598
 6334SOL    HW219902   1.953   0.593   2.487
 6335SOL     OW19903   5.254   1.530   0.916
 6335SOL    HW119904   5.254   1.450   0.856
 6335SOL    HW219905   5.163   1.540   0.958
 6336SOL     OW19906   0.060   2.356   5.795
 6336SOL    HW119907   0.031   2.271   5.838
 6336SOL    HW219908   0.130   2.337   5.726
 6337SOL     OW19909   4.984   3.579   6.646
 6337SOL    HW119910   4.977   3.674   6.676
 6337SOL    HW219911   5.050   3.572   6.572
 6338SOL     OW19912   2.700   2.386   2.498
 6338SOL    HW119913   2.792   2.352   2.479
 6338SOL    HW219914   2.659   2.331   2.571
 6339SOL     OW19915   0.875   2.705   3.881
 6339SOL    HW119916   0.880   2.741   3.787
 6339SOL    HW219917   0.893   2.607   3.880
 6340SOL     OW19918   2.551   5.245   3.221
 6340SOL    HW119919   2.515   5.163   3.266
 6340SOL    HW219920   2.547   5.323   3.283
 6341SOL     OW19921   0.449   5.118   3.304
 6341SOL    HW119922   0.482   5.108   3.398
 6341SOL    HW219923   0.356   5.154   3.306
 6342SOL     OW19924   2.657   1.271   1.760
 6342SOL    HW119925   2.694   1.364   1.769
 6342SOL    HW219926   2.558   1.274   1.772
 6343SOL     OW19927   4.886   2.498   6.825
 6343SOL    HW119928   4.863   2.484   6.729
 6343SOL    HW219929   4.820   2.560   6.867
 6344SOL     OW19930   6.130   3.538   5.755
 6344SOL    HW119931   6.154   3.630   5.725
 6344SOL    HW219932   6.137   3.532   5.854
 6345SOL     OW19933   4.298   1.285   1.795
 6345SOL    HW119934   4.266   1.333   1.713
 6345SOL    HW219935   4.395   1.307   1.811
 6346SOL     OW19936   6.790   3.735   3.652
 6346SOL    HW119937   6.856   3.739   3.576
 6346SOL    HW219938   6.777   3.828   3.688
 6347SOL     OW19939   2.498   0.518   1.706
 6347SOL    HW119940   2.536   0.480   1.621
 6347SOL    HW219941   2.473   0.613   1.690
 6348SOL     OW19942   1.221   3.654   5.420
 6348SOL    HW119943   1.198   3.573   5.367
 6348SOL    HW219944   1.298   3.702   5.377
 6349SOL     OW19945   2.667   0.447   1.178
 6349SOL    HW119946   2.663   0.350   1.153
 6349SOL    HW219947   2.656   0.503   1.097
 6350SOL     OW19948   2.240   4.831   3.894
 6350SOL    HW119949   2.235   4.858   3.990
 6350SOL    HW219950   2.259   4.733   3.888
 6351SOL     OW19951   6.836   3.014   2.451
 6351SOL    HW119952   6.884   2.979   2.371
 6351SOL    HW219953   6.849   2.951   2.528
 6352SOL     OW19954   1.973   5.123   4.452
 6352SOL    HW119955   1.943   5.218   4.458
 6352SOL    HW219956   1.999   5.090   4.543
 6353SOL     OW19957   6.463   0.703   6.281
 6353SOL    HW119958   6.378   0.658   6.310
 6353SOL    HW219959   6.516   0.641   6.223
 6354SOL     OW19960   1.258   6.944   2.461
 6354SOL    HW119961   1.222   6.854   2.438
 6354SOL    HW219962   1.211   6.979   2.542
 6355SOL     OW19963   0.732   4.860   5.227
 6355SOL    HW119964   0.717   4.945   5.177
 6355SOL    HW219965   0.798   4.803   5.177
 6356SOL     OW19966   4.824   4.925   1.911
 6356SOL    HW119967   4.826   4.901   2.008
 6356SOL    HW219968   4.763   4.863   1.863
 6357SOL     OW19969   4.866   2.620   1.760
 6357SOL    HW119970   4.772   2.635   1.730
 6357SOL    HW219971   4.919   2.578   1.687
 6358SOL     OW19972   0.769   2.380   5.359
 6358SOL    HW119973   0.826   2.400   5.280
 6358SOL    HW219974   0.769   2.459   5.420
 6359SOL     OW19975   5.684   0.151   6.291
 6359SOL    HW119976   5.765   0.203   6.263
 6359SOL    HW219977   5.711   0.057   6.314
 6360SOL     OW19978   2.229   4.251   4.253
 6360SOL    HW119979   2.209   4.213   4.162
 6360SOL    HW219980   2.186   4.341   4.261
 6361SOL     OW19981   5.607   6.907   6.999
 6361SOL    HW119982   5.595   6.812   6.969
 6361SOL    HW219983   5.675   6.910   0.053
 6362SOL     OW19984   5.737   5.321   6.614
 6362SOL    HW119985   5.769   5.387   6.681
 6362SOL    HW219986   5.786   5.333   6.528
 6363SOL     OW19987   2.424   4.951   3.295
 6363SOL    HW119988   2.497   4.895   3.334
 6363SOL    HW219989   2.394   4.911   3.208
 6364SOL     OW19990   2.929   1.021   5.687
 6364SOL    HW119991   2.929   1.102   5.629
 6364SOL    HW219992   3.019   0.979   5.687
 6365SOL     OW19993   4.776   6.730   4.291
 6365SOL    HW119994   4.804   6.801   4.356
 6365SOL    HW219995   4.804   6.641   4.325
 6366SOL     OW19996   0.251   6.329   6.086
 6366SOL    HW119997   0.244   6.412   6.142
 6366SOL    HW219998   0.256   6.249   6.145
 6367SOL     OW19999   4.324   0.679   4.058
 6367SOL    HW120000   4.409   0.664   4.008
 6367SOL    HW220001   4.341   0.740   4.136
 6368SOL     OW20002   3.135   6.939   3.466
 6368SOL    HW120003   3.169   6.999   3.539
 6368SOL    HW220004   3.212   6.900   3.416
 6369SOL     OW20005   2.809   5.006   4.806
 6369SOL    HW120006   2.880   4.972   4.867
 6369SOL    HW220007   2.719   4.980   4.841
 6370SOL     OW20008   1.582   3.131   2.998
 6370SOL    HW120009   1.591   3.163   2.904
 6370SOL    HW220010   1.672   3.131   3.042
 6371SOL     OW20011   4.881   3.483   4.134
 6371SOL    HW120012   4.866   3.422   4.057
 6371SOL    HW220013   4.844   3.441   4.217
 6372SOL     OW20014   3.030   6.952   1.753
 6372SOL    HW120015   3.083   6.972   1.835
 6372SOL    HW220016   3.009   6.854   1.750
 6373SOL     OW20017   6.312   4.154   3.911
 6373SOL    HW120018   6.317   4.148   4.010
 6373SOL    HW220019   6.276   4.244   3.885
 6374SOL     OW20020   3.443   3.884   4.192
 6374SOL    HW120021   3.533   3.909   4.230
 6374SOL    HW220022   3.376   3.954   4.219
 6375SOL     OW20023   0.945   1.460   3.850
 6375SOL    HW120024   0.861   1.406   3.846
 6375SOL    HW220025   1.000   1.430   3.928
 6376SOL     OW20026   6.393   2.131   5.600
 6376SOL    HW120027   6.417   2.174   5.513
 6376SOL    HW220028   6.440   2.043   5.608
 6377SOL     OW20029   6.768   1.801   6.269
 6377SOL    HW120030   6.840   1.743   6.307
 6377SOL    HW220031   6.772   1.798   6.169
 6378SOL     OW20032   5.873   4.767   3.466
 6378SOL    HW120033   5.907   4.739   3.556
 6378SOL    HW220034   5.831   4.857   3.472
 6379SOL     OW20035   2.157   4.746   4.815
 6379SOL    HW120036   2.235   4.683   4.810
 6379SOL    HW220037   2.122   4.748   4.908
 6380SOL     OW20038   1.195   1.318   5.343
 6380SOL    HW120039   1.106   1.312   5.388
 6380SOL    HW220040   1.267   1.295   5.409
 6381SOL     OW20041   3.634   3.359   2.954
 6381SOL    HW120042   3.620   3.366   2.856
 6381SOL    HW220043   3.549   3.328   2.998
 6382SOL     OW20044   1.145   2.748   0.647
 6382SOL    HW120045   1.204   2.675   0.615
 6382SOL    HW220046   1.154   2.828   0.587
 6383SOL     OW20047   2.114   2.325   3.080
 6383SOL    HW120048   2.034   2.266   3.065
 6383SOL    HW220049   2.175   2.320   3.000
 6384SOL     OW20050   5.301   4.364   1.507
 6384SOL    HW120051   5.323   4.462   1.510
 6384SOL    HW220052   5.204   4.351   1.529
 6385SOL     OW20053   6.568   5.132   3.946
 6385SOL    HW120054   6.660   5.136   3.984
 6385SOL    HW220055   6.556   5.045   3.898
 6386SOL     OW20056   2.267   4.046   6.930
 6386SOL    HW120057   2.173   4.021   6.952
 6386SOL    HW220058   2.271   4.087   6.839
 6387SOL     OW20059   0.769   1.882   6.591
 6387SOL    HW120060   0.848   1.944   6.584
 6387SOL    HW220061   0.715   1.906   6.671
 6388SOL     OW20062   4.337   4.476   1.784
 6388SOL    HW120063   4.378   4.386   1.797
 6388SOL    HW220064   4.322   4.519   1.873
 6389SOL     OW20065   0.743   5.898   2.074
 6389SOL    HW120066   0.769   5.918   2.169
 6389SOL    HW220067   0.688   5.815   2.071
 6390SOL     OW20068   1.017   2.469   3.863
 6390SOL    HW120069   0.972   2.393   3.910
 6390SOL    HW220070   1.098   2.436   3.815
 6391SOL     OW20071   3.048   0.164   6.289
 6391SOL    HW120072   3.006   0.142   6.377
 6391SOL    HW220073   3.089   0.255   6.293
 6392SOL     OW20074   2.496   6.531   3.380
 6392SOL    HW120075   2.538   6.441   3.383
 6392SOL    HW220076   2.397   6.522   3.389
 6393SOL     OW20077   6.063   6.353   1.269
 6393SOL    HW120078   6.128   6.422   1.236
 6393SOL    HW220079   6.017   6.310   1.191
 6394SOL     OW20080   2.540   4.148   1.049
 6394SOL    HW120081   2.507   4.146   1.143
 6394SOL    HW220082   2.572   4.239   1.026
 6395SOL     OW20083   5.434   2.391   1.984
 6395SOL    HW120084   5.446   2.469   1.923
 6395SOL    HW220085   5.462   2.307   1.937
 6396SOL     OW20086   5.521   2.659   6.484
 6396SOL    HW120087   5.469   2.701   6.558
 6396SOL    HW220088   5.618   2.664   6.505
 6397SOL     OW20089   5.834   1.772   6.959
 6397SOL    HW120090   5.915   1.770   6.901
 6397SOL    HW220091   5.755   1.739   6.907
 6398SOL     OW20092   3.534   0.899   0.790
 6398SOL    HW120093   3.569   0.815   0.747
 6398SOL    HW220094   3.558   0.978   0.734
 6399SOL     OW20095   1.872   5.130   6.531
 6399SOL    HW120096   1.904   5.036   6.525
 6399SOL    HW220097   1.936   5.190   6.483
 6400SOL     OW20098   2.223   5.616   3.157
 6400SOL    HW120099   2.201   5.710   3.183
 6400SOL    HW220100   2.312   5.592   3.194
 6401SOL     OW20101   6.984   4.639   3.473
 6401SOL    HW120102   0.031   4.577   3.516
 6401SOL    HW220103   7.008   4.651   3.377
 6402SOL     OW20104   2.851   0.766   2.995
 6402SOL    HW120105   2.821   0.793   2.904
 6402SOL    HW220106   2.841   0.667   3.006
 6403SOL     OW20107   0.918   6.292   6.744
 6403SOL    HW120108   0.927   6.340   6.832
 6403SOL    HW220109   0.888   6.356   6.674
 6404SOL     OW20110   4.244   1.388   2.834
 6404SOL    HW120111   4.337   1.397   2.869
 6404SOL    HW220112   4.205   1.301   2.865
 6405SOL     OW20113   1.897   1.316   3.586
 6405SOL    HW120114   1.890   1.288   3.491
 6405SOL    HW220115   1.807   1.346   3.618
 6406SOL     OW20116   1.765   2.602   3.880
 6406SOL    HW120117   1.749   2.547   3.798
 6406SOL    HW220118   1.777   2.698   3.855
 6407SOL     OW20119   3.094   6.579   2.925
 6407SOL    HW120120   3.055   6.517   2.857
 6407SOL    HW220121   3.194   6.576   2.920
 6408SOL     OW20122   6.329   2.436   0.013
 6408SOL    HW120123   6.339   2.386   0.099
 6408SOL    HW220124   6.332   2.534   0.030
 6409SOL     OW20125   0.128   4.368   3.306
 6409SOL    HW120126   0.188   4.308   3.253
 6409SOL    HW220127   0.075   4.426   3.244
 6410SOL     OW20128   1.391   1.731   0.436
 6410SOL    HW120129   1.468   1.668   0.424
 6410SOL    HW220130   1.332   1.699   0.510
 6411SOL     OW20131   1.138   2.672   3.484
 6411SOL    HW120132   1.055   2.617   3.497
 6411SOL    HW220133   1.193   2.670   3.568
 6412SOL     OW20134   6.892   2.723   5.466
 6412SOL    HW120135   6.904   2.730   5.367
 6412SOL    HW220136   6.823   2.789   5.496
 6413SOL     OW20137   5.278   4.866   2.817
 6413SOL    HW120138   5.328   4.780   2.808
 6413SOL    HW220139   5.219   4.879   2.737
 6414SOL     OW20140   5.983   0.813   1.818
 6414SOL    HW120141   6.004   0.878   1.745
 6414SOL    HW220142   6.018   0.848   1.905
 6415SOL     OW20143   3.208   2.138   2.701
 6415SOL    HW120144   3.305   2.132   2.724
 6415SOL    HW220145   3.171   2.046   2.686
 6416SOL     OW20146   0.671   0.587   6.189
 6416SOL    HW120147   0.695   0.670   6.139
 6416SOL    HW220148   0.706   0.507   6.140
 6417SOL     OW20149   0.535   5.039   2.716
 6417SOL    HW120150   0.603   5.107   2.744
 6417SOL    HW220151   0.453   5.049   2.772
 6418SOL     OW20152   6.491   4.814   2.588
 6418SOL    HW120153   6.489   4.829   2.687
 6418SOL    HW220154   6.456   4.722   2.567
 6419SOL     OW20155   3.106   5.149   2.279
 6419SOL    HW120156   3.082   5.203   2.359
 6419SOL    HW220157   3.056   5.062   2.280
 6420SOL     OW20158   2.955   3.806   5.662
 6420SOL    HW120159   2.894   3.727   5.675
 6420SOL    HW220160   2.943   3.870   5.738
 6421SOL     OW20161   5.820   1.613   1.941
 6421SOL    HW120162   5.754   1.555   1.988
 6421SOL    HW220163   5.849   1.688   2.001
 6422SOL     OW20164   6.412   0.277   3.912
 6422SOL    HW120165   6.408   0.177   3.919
 6422SOL    HW220166   6.448   0.302   3.822
 6423SOL     OW20167   4.568   4.417   2.255
 6423SOL    HW120168   4.587   4.340   2.316
 6423SOL    HW220169   4.543   4.384   2.165
 6424SOL     OW20170   6.606   5.115   5.710
 6424SOL    HW120171   6.687   5.160   5.747
 6424SOL    HW220172   6.632   5.026   5.672
 6425SOL     OW20173   6.831   5.559   4.381
 6425SOL    HW120174   6.857   5.467   4.352
 6425SOL    HW220175   6.831   5.564   4.481
 6426SOL     OW20176   0.894   3.752   3.887
 6426SOL    HW120177   0.962   3.731   3.817
 6426SOL    HW220178   0.808   3.706   3.864
 6427SOL     OW20179   1.794   2.999   0.104
 6427SOL    HW120180   1.832   3.065   0.169
 6427SOL    HW220181   1.861   2.980   0.033
 6428SOL     OW20182   6.169   3.450   0.694
 6428SOL    HW120183   6.159   3.351   0.706
 6428SOL    HW220184   6.259   3.478   0.728
 6429SOL     OW20185   0.866   1.026   4.676
 6429SOL    HW120186   0.825   1.090   4.611
 6429SOL    HW220187   0.869   0.934   4.636
 6430SOL     OW20188   4.643   1.492   1.714
 6430SOL    HW120189   4.657   1.544   1.630
 6430SOL    HW220190   4.655   1.394   1.695
 6431SOL     OW20191   5.874   0.110   3.118
 6431SOL    HW120192   5.793   0.052   3.118
 6431SOL    HW220193   5.949   0.061   3.163
 6432SOL     OW20194   4.601   4.225   0.416
 6432SOL    HW120195   4.593   4.305   0.357
 6432SOL    HW220196   4.598   4.141   0.361
 6433SOL     OW20197   3.302   4.429   1.021
 6433SOL    HW120198   3.288   4.331   1.032
 6433SOL    HW220199   3.249   4.478   1.090
 6434SOL     OW20200   1.335   3.116   1.243
 6434SOL    HW120201   1.245   3.088   1.275
 6434SOL    HW220202   1.347   3.214   1.261
 6435SOL     OW20203   3.988   5.131   6.770
 6435SOL    HW120204   4.009   5.219   6.813
 6435SOL    HW220205   4.010   5.057   6.834
 6436SOL     OW20206   2.145   3.122   4.103
 6436SOL    HW120207   2.162   3.218   4.080
 6436SOL    HW220208   2.171   3.105   4.198
 6437SOL     OW20209   1.332   1.032   0.992
 6437SOL    HW120210   1.312   0.994   0.902
 6437SOL    HW220211   1.383   0.965   1.046
 6438SOL     OW20212   6.785   4.734   5.538
 6438SOL    HW120213   6.843   4.697   5.466
 6438SOL    HW220214   6.797   4.681   5.622
 6439SOL     OW20215   0.290   6.691   1.349
 6439SOL    HW120216   0.230   6.612   1.367
 6439SOL    HW220217   0.337   6.716   1.434
 6440SOL     OW20218   2.163   1.349   1.981
 6440SOL    HW120219   2.083   1.309   1.938
 6440SOL    HW220220   2.164   1.448   1.965
 6441SOL     OW20221   0.939   6.984   2.544
 6441SOL    HW120222   0.846   7.015   2.522
 6441SOL    HW220223   1.001   7.011   2.470
 6442SOL     OW20224   1.622   1.410   3.562
 6442SOL    HW120225   1.563   1.491   3.558
 6442SOL    HW220226   1.571   1.333   3.601
 6443SOL     OW20227   3.065   2.888   0.831
 6443SOL    HW120228   3.103   2.874   0.739
 6443SOL    HW220229   3.116   2.834   0.897
 6444SOL     OW20230   0.847   2.605   3.450
 6444SOL    HW120231   0.794   2.597   3.366
 6444SOL    HW220232   0.897   2.520   3.467
 6445SOL     OW20233   4.817   2.574   5.667
 6445SOL    HW120234   4.868   2.501   5.621
 6445SOL    HW220235   4.794   2.545   5.760
 6446SOL     OW20236   0.670   2.162   6.196
 6446SOL    HW120237   0.591   2.117   6.239
 6446SOL    HW220238   0.650   2.179   6.099
 6447SOL     OW20239   0.564   6.231   2.467
 6447SOL    HW120240   0.518   6.168   2.529
 6447SOL    HW220241   0.663   6.222   2.479
 6448SOL     OW20242   6.042   4.645   2.423
 6448SOL    HW120243   6.051   4.579   2.349
 6448SOL    HW220244   6.061   4.600   2.510
 6449SOL     OW20245   3.681   4.485   1.350
 6449SOL    HW120246   3.583   4.484   1.372
 6449SOL    HW220247   3.694   4.526   1.260
 6450SOL     OW20248   0.041   3.109   1.564
 6450SOL    HW120249   0.015   3.205   1.549
 6450SOL    HW220250   0.129   3.092   1.520
 6451SOL     OW20251   2.919   6.240   5.329
 6451SOL    HW120252   2.843   6.257   5.392
 6451SOL    HW220253   2.915   6.146   5.297
 6452SOL     OW20254   3.547   6.423   5.194
 6452SOL    HW120255   3.510   6.341   5.239
 6452SOL    HW220256   3.486   6.500   5.210
 6453SOL     OW20257   2.138   6.369   6.644
 6453SOL    HW120258   2.116   6.289   6.700
 6453SOL    HW220259   2.208   6.424   6.690
 6454SOL     OW20260   3.076   0.916   3.721
 6454SOL    HW120261   3.137   0.952   3.792
 6454SOL    HW220262   3.129   0.859   3.658
 6455SOL     OW20263   0.819   2.251   4.266
 6455SOL    HW120264   0.864   2.275   4.180
 6455SOL    HW220265   0.803   2.334   4.319
 6456SOL     OW20266   1.352   0.289   3.608
 6456SOL    HW120267   1.427   0.222   3.607
 6456SOL    HW220268   1.390   0.381   3.610
 6457SOL     OW20269   5.165   1.326   1.175
 6457SOL    HW120270   5.205   1.234   1.170
 6457SOL    HW220271   5.237   1.394   1.173
 6458SOL     OW20272   1.260   6.033   2.833
 6458SOL    HW120273   1.320   6.108   2.803
 6458SOL    HW220274   1.235   6.047   2.928
 6459SOL     OW20275   5.849   5.677   0.853
 6459SOL    HW120276   5.843   5.652   0.756
 6459SOL    HW220277   5.876   5.773   0.860
 6460SOL     OW20278   4.317   5.326   6.097
 6460SOL    HW120279   4.374   5.294   6.021
 6460SOL    HW220280   4.376   5.346   6.175
 6461SOL     OW20281   3.031   5.197   4.999
 6461SOL    HW120282   3.037   5.167   5.094
 6461SOL    HW220283   2.981   5.283   4.994
 6462SOL     OW20284   2.495   2.815   5.351
 6462SOL    HW120285   2.493   2.896   5.292
 6462SOL    HW220286   2.530   2.737   5.300
 6463SOL     OW20287   1.437   4.060   6.321
 6463SOL    HW120288   1.510   3.997   6.295
 6463SOL    HW220289   1.352   4.032   6.276
 6464SOL     OW20290   0.539   5.053   4.883
 6464SOL    HW120291   0.632   5.089   4.872
 6464SOL    HW220292   0.474   5.129   4.885
 6465SOL     OW20293   6.283   2.580   3.982
 6465SOL    HW120294   6.265   2.636   4.063
 6465SOL    HW220295   6.222   2.609   3.908
 6466SOL     OW20296   0.258   2.062   6.104
 6466SOL    HW120297   0.171   2.111   6.104
 6466SOL    HW220298   0.301   2.070   6.013
 6467SOL     OW20299   2.769   0.947   6.797
 6467SOL    HW120300   2.773   0.886   6.876
 6467SOL    HW220301   2.845   0.928   6.736
 6468SOL     OW20302   4.378   6.284   1.326
 6468SOL    HW120303   4.374   6.342   1.245
 6468SOL    HW220304   4.334   6.196   1.306
 6469SOL     OW20305   4.833   0.656   4.990
 6469SOL    HW120306   4.768   0.709   5.044
 6469SOL    HW220307   4.925   0.695   4.999
 6470SOL     OW20308   6.274   4.881   6.502
 6470SOL    HW120309   6.354   4.916   6.453
 6470SOL    HW220310   6.195   4.883   6.441
 6471SOL     OW20311   6.338   5.643   5.983
 6471SOL    HW120312   6.358   5.674   6.076
 6471SOL    HW220313   6.282   5.711   5.937
 6472SOL     OW20314   0.620   4.986   0.675
 6472SOL    HW120315   0.614   4.900   0.726
 6472SOL    HW220316   0.540   5.042   0.695
 6473SOL     OW20317   2.022   1.853   5.362
 6473SOL    HW120318   2.057   1.942   5.391
 6473SOL    HW220319   1.922   1.858   5.354
 6474SOL     OW20320   1.722   3.548   5.971
 6474SOL    HW120321   1.810   3.567   5.928
 6474SOL    HW220322   1.717   3.596   6.059
 6475SOL     OW20323   6.445   5.870   4.857
 6475SOL    HW120324   6.398   5.849   4.943
 6475SOL    HW220325   6.378   5.903   4.790
 6476SOL     OW20326   4.744   3.712   1.484
 6476SOL    HW120327   4.703   3.796   1.447
 6476SOL    HW220328   4.791   3.664   1.411
 6477SOL     OW20329   0.279   5.208   0.985
 6477SOL    HW120330   0.239   5.296   0.958
 6477SOL    HW220331   0.361   5.223   1.040
 6478SOL     OW20332   3.465   5.926   2.160
 6478SOL    HW120333   3.532   5.968   2.098
 6478SOL    HW220334   3.437   5.993   2.229
 6479SOL     OW20335   3.969   5.100   2.706
 6479SOL    HW120336   4.038   5.038   2.744
 6479SOL    HW220337   4.000   5.195   2.719
 6480SOL     OW20338   3.725   2.921   5.631
 6480SOL    HW120339   3.714   2.960   5.722
 6480SOL    HW220340   3.694   2.986   5.562
 6481SOL     OW20341   3.365   2.297   1.741
 6481SOL    HW120342   3.368   2.377   1.681
 6481SOL    HW220343   3.444   2.299   1.803
 6482SOL     OW20344   0.076   0.754   6.107
 6482SOL    HW120345   0.020   0.798   6.038
 6482SOL    HW220346   0.021   0.737   6.189
 6483SOL     OW20347   2.606   5.777   1.770
 6483SOL    HW120348   2.538   5.847   1.752
 6483SOL    HW220349   2.565   5.687   1.756
 6484SOL     OW20350   3.799   0.561   3.169
 6484SOL    HW120351   3.851   0.625   3.113
 6484SOL    HW220352   3.784   0.476   3.118
 6485SOL     OW20353   1.442   4.028   3.535
 6485SOL    HW120354   1.477   4.037   3.441
 6485SOL    HW220355   1.344   4.007   3.532
 6486SOL     OW20356   1.119   4.710   3.799
 6486SOL    HW120357   1.031   4.696   3.754
 6486SOL    HW220358   1.175   4.628   3.788
 6487SOL     OW20359   6.077   5.780   5.393
 6487SOL    HW120360   6.144   5.714   5.426
 6487SOL    HW220361   5.999   5.783   5.456
 6488SOL     OW20362   3.183   5.973   5.164
 6488SOL    HW120363   3.093   5.997   5.200
 6488SOL    HW220364   3.203   5.877   5.186
 6489SOL     OW20365   2.036   3.279   6.865
 6489SOL    HW120366   2.089   3.313   6.787
 6489SOL    HW220367   2.082   3.201   6.906
 6490SOL     OW20368   4.058   2.142   6.617
 6490SOL    HW120369   4.021   2.051   6.604
 6490SOL    HW220370   3.988   2.210   6.595
 6491SOL     OW20371   4.170   1.196   6.428
 6491SOL    HW120372   4.166   1.198   6.328
 6491SOL    HW220373   4.187   1.102   6.458
 6492SOL     OW20374   6.116   6.307   6.715
 6492SOL    HW120375   6.105   6.375   6.787
 6492SOL    HW220376   6.088   6.217   6.749
 6493SOL     OW20377   1.421   5.905   5.103
 6493SOL    HW120378   1.349   5.850   5.145
 6493SOL    HW220379   1.438   5.872   5.010
 6494SOL     OW20380   0.591   0.624   3.501
 6494SOL    HW120381   0.502   0.655   3.468
 6494SOL    HW220382   0.656   0.623   3.426
 6495SOL     OW20383   5.284   6.300   3.900
 6495SOL    HW120384   5.293   6.201   3.888
 6495SOL    HW220385   5.187   6.325   3.895
 6496SOL     OW20386   6.844   6.638   2.366
 6496SOL    HW120387   6.796   6.693   2.298
 6496SOL    HW220388   6.850   6.543   2.334
 6497SOL     OW20389   2.162   3.079   0.280
 6497SOL    HW120390   2.220   3.131   0.344
 6497SOL    HW220391   2.183   2.981   0.288
 6498SOL     OW20392   2.661   4.663   4.336
 6498SOL    HW120393   2.723   4.644   4.261
 6498SOL    HW220394   2.637   4.578   4.383
 6499SOL     OW20395   5.967   1.619   5.124
 6499SOL    HW120396   5.999   1.580   5.038
 6499SOL    HW220397   5.870   1.599   5.137
 6500SOL     OW20398   0.144   4.699   3.751
 6500SOL    HW120399   0.136   4.785   3.801
 6500SOL    HW220400   0.190   4.716   3.663
 6501SOL     OW20401   6.519   2.870   0.964
 6501SOL    HW120402   6.448   2.810   1.001
 6501SOL    HW220403   6.605   2.820   0.957
 6502SOL     OW20404   6.971   3.796   3.462
 6502SOL    HW120405   6.908   3.823   3.389
 6502SOL    HW220406   7.008   3.877   3.506
 6503SOL     OW20407   5.294   0.095   3.530
 6503SOL    HW120408   5.371   0.127   3.474
 6503SOL    HW220409   5.305   7.016   3.548
 6504SOL     OW20410   4.656   6.638   6.189
 6504SOL    HW120411   4.730   6.599   6.135
 6504SOL    HW220412   4.694   6.692   6.263
 6505SOL     OW20413   6.219   4.491   1.511
 6505SOL    HW120414   6.126   4.455   1.514
 6505SOL    HW220415   6.231   4.558   1.585
 6506SOL     OW20416   0.600   3.241   0.737
 6506SOL    HW120417   0.527   3.300   0.773
 6506SOL    HW220418   0.597   3.242   0.637
 6507SOL     OW20419   1.441   5.816   6.742
 6507SOL    HW120420   1.371   5.756   6.704
 6507SOL    HW220421   1.398   5.886   6.799
 6508SOL     OW20422   1.784   1.927   3.596
 6508SOL    HW120423   1.838   2.006   3.568
 6508SOL    HW220424   1.785   1.920   3.696
 6509SOL     OW20425   1.831   2.496   4.494
 6509SOL    HW120426   1.775   2.450   4.563
 6509SOL    HW220427   1.885   2.568   4.537
 6510SOL     OW20428   0.746   5.566   6.888
 6510SOL    HW120429   0.750   5.512   6.804
 6510SOL    HW220430   0.738   5.505   6.967
 6511SOL     OW20431   5.739   0.647   4.752
 6511SOL    HW120432   5.682   0.665   4.671
 6511SOL    HW220433   5.803   0.573   4.732
 6512SOL     OW20434   4.533   0.390   2.974
 6512SOL    HW120435   4.579   0.303   2.953
 6512SOL    HW220436   4.434   0.375   2.978
 6513SOL     OW20437   3.642   6.181   4.078
 6513SOL    HW120438   3.660   6.140   3.989
 6513SOL    HW220439   3.721   6.168   4.138
 6514SOL     OW20440   5.626   0.246   2.973
 6514SOL    HW120441   5.629   0.296   2.887
 6514SOL    HW220442   5.632   0.311   3.049
 6515SOL     OW20443   0.186   5.426   4.000
 6515SOL    HW120444   0.167   5.517   4.038
 6515SOL    HW220445   0.155   5.422   3.906
 6516SOL     OW20446   0.265   1.792   0.523
 6516SOL    HW120447   0.296   1.886   0.516
 6516SOL    HW220448   0.282   1.758   0.616
 6517SOL     OW20449   6.118   1.435   0.952
 6517SOL    HW120450   6.145   1.430   0.856
 6517SOL    HW220451   6.048   1.506   0.963
 6518SOL     OW20452   0.571   6.205   0.008
 6518SOL    HW120453   0.519   6.126   0.041
 6518SOL    HW220454   0.615   6.250   0.085
 6519SOL     OW20455   1.925   2.003   3.313
 6519SOL    HW120456   1.924   2.102   3.323
 6519SOL    HW220457   1.929   1.979   3.216
 6520SOL     OW20458   6.470   5.799   3.588
 6520SOL    HW120459   6.379   5.834   3.565
 6520SOL    HW220460   6.461   5.712   3.636
 6521SOL     OW20461   0.561   0.893   4.637
 6521SOL    HW120462   0.611   0.965   4.589
 6521SOL    HW220463   0.624   0.817   4.657
 6522SOL     OW20464   3.305   4.439   6.840
 6522SOL    HW120465   3.243   4.376   6.887
 6522SOL    HW220466   3.358   4.490   6.908
 6523SOL     OW20467   2.674   1.816   6.409
 6523SOL    HW120468   2.579   1.837   6.388
 6523SOL    HW220469   2.708   1.748   6.344
 6524SOL     OW20470   3.549   3.096   3.193
 6524SOL    HW120471   3.472   3.151   3.161
 6524SOL    HW220472   3.554   3.100   3.293
 6525SOL     OW20473   2.278   2.857   2.933
 6525SOL    HW120474   2.193   2.843   2.983
 6525SOL    HW220475   2.296   2.779   2.874
 6526SOL     OW20476   0.878   6.195   4.525
 6526SOL    HW120477   0.959   6.245   4.554
 6526SOL    HW220478   0.905   6.120   4.464
 6527SOL     OW20479   0.569   1.358   4.811
 6527SOL    HW120480   0.657   1.311   4.817
 6527SOL    HW220481   0.521   1.352   4.899
 6528SOL     OW20482   6.873   0.853   3.878
 6528SOL    HW120483   6.907   0.934   3.926
 6528SOL    HW220484   6.821   0.797   3.941
 6529SOL     OW20485   5.260   2.037   3.859
 6529SOL    HW120486   5.329   2.058   3.790
 6529SOL    HW220487   5.196   2.114   3.865
 6530SOL     OW20488   6.943   3.395   0.850
 6530SOL    HW120489   6.890   3.342   0.917
 6530SOL    HW220490   6.883   3.427   0.777
 6531SOL     OW20491   5.159   3.104   4.215
 6531SOL    HW120492   5.208   3.113   4.302
 6531SOL    HW220493   5.206   3.158   4.145
 6532SOL     OW20494   5.447   1.487   1.118
 6532SOL    HW120495   5.433   1.574   1.165
 6532SOL    HW220496   5.401   1.489   1.029
 6533SOL     OW20497   5.603   5.841   1.707
 6533SOL    HW120498   5.556   5.795   1.631
 6533SOL    HW220499   5.591   5.940   1.698
 6534SOL     OW20500   2.589   4.501   1.792
 6534SOL    HW120501   2.563   4.432   1.725
 6534SOL    HW220502   2.686   4.490   1.815
 6535SOL     OW20503   0.403   2.869   4.718
 6535SOL    HW120504   0.422   2.891   4.813
 6535SOL    HW220505   0.489   2.854   4.669
 6536SOL     OW20506   6.744   2.841   5.784
 6536SOL    HW120507   6.650   2.807   5.789
 6536SOL    HW220508   6.807   2.775   5.825
 6537SOL     OW20509   6.496   5.529   6.974
 6537SOL    HW120510   6.591   5.551   6.953
 6537SOL    HW220511   6.444   5.613   6.986
 6538SOL     OW20512   3.731   4.077   0.066
 6538SOL    HW120513   3.755   4.023   0.146
 6538SOL    HW220514   3.695   4.166   0.095
 6539SOL     OW20515   2.411   1.943   6.278
 6539SOL    HW120516   2.364   1.893   6.206
 6539SOL    HW220517   2.461   2.020   6.238
 6540SOL     OW20518   4.233   1.740   4.823
 6540SOL    HW120519   4.286   1.789   4.754
 6540SOL    HW220520   4.291   1.671   4.866
 6541SOL     OW20521   3.120   2.141   4.744
 6541SOL    HW120522   3.029   2.126   4.707
 6541SOL    HW220523   3.115   2.205   4.821
 6542SOL     OW20524   6.802   4.153   3.301
 6542SOL    HW120525   6.864   4.132   3.376
 6542SOL    HW220526   6.709   4.166   3.337
 6543SOL     OW20527   6.501   4.871   0.032
 6543SOL    HW120528   6.587   4.892   0.079
 6543SOL    HW220529   6.441   4.821   0.095
 6544SOL     OW20530   0.683   6.376   3.680
 6544SOL    HW120531   0.687   6.322   3.764
 6544SOL    HW220532   0.589   6.404   3.662
 6545SOL     OW20533   4.838   1.867   6.179
 6545SOL    HW120534   4.912   1.812   6.218
 6545SOL    HW220535   4.793   1.815   6.106
 6546SOL     OW20536   4.493   4.078   6.288
 6546SOL    HW120537   4.558   4.153   6.273
 6546SOL    HW220538   4.407   4.116   6.324
 6547SOL     OW20539   4.298   1.408   5.477
 6547SOL    HW120540   4.390   1.438   5.504
 6547SOL    HW220541   4.261   1.348   5.547
 6548SOL     OW20542   0.777   3.988   6.681
 6548SOL    HW120543   0.811   4.072   6.638
 6548SOL    HW220544   0.677   3.988   6.678
 6549SOL     OW20545   3.149   1.127   0.841
 6549SOL    HW120546   3.216   1.053   0.844
 6549SOL    HW220547   3.057   1.088   0.835
 6550SOL     OW20548   0.124   5.976   3.151
 6550SOL    HW120549   0.171   6.055   3.111
 6550SOL    HW220550   0.120   5.902   3.084
 6551SOL     OW20551   2.088   4.061   2.566
 6551SOL    HW120552   2.138   4.006   2.500
 6551SOL    HW220553   2.019   4.006   2.611
 6552SOL     OW20554   2.650   6.404   4.396
 6552SOL    HW120555   2.687   6.328   4.342
 6552SOL    HW220556   2.572   6.372   4.450
 6553SOL     OW20557   0.353   2.518   1.155
 6553SOL    HW120558   0.294   2.508   1.075
 6553SOL    HW220559   0.301   2.563   1.228
 6554SOL     OW20560   5.946   1.605   5.758
 6554SOL    HW120561   5.873   1.659   5.715
 6554SOL    HW220562   6.006   1.567   5.688
 6555SOL     OW20563   1.921   1.153   2.623
 6555SOL    HW120564   1.948   1.071   2.674
 6555SOL    HW220565   1.979   1.230   2.650
 6556SOL     OW20566   4.540   4.821   5.147
 6556SOL    HW120567   4.575   4.858   5.233
 6556SOL    HW220568   4.577   4.874   5.070
 6557SOL     OW20569   5.270   5.624   1.119
 6557SOL    HW120570   5.317   5.535   1.122
 6557SOL    HW220571   5.308   5.680   1.046
 6558SOL     OW20572   6.999   5.406   1.123
 6558SOL    HW120573   0.042   5.414   1.045
 6558SOL    HW220574   6.906   5.430   1.095
 6559SOL     OW20575   6.299   3.870   0.921
 6559SOL    HW120576   6.371   3.927   0.962
 6559SOL    HW220577   6.245   3.828   0.993
 6560SOL     OW20578   3.910   2.693   1.687
 6560SOL    HW120579   3.955   2.604   1.677
 6560SOL    HW220580   3.812   2.679   1.700
 6561SOL     OW20581   3.790   3.877   2.680
 6561SOL    HW120582   3.878   3.830   2.685
 6561SOL    HW220583   3.788   3.950   2.749
 6562SOL     OW20584   5.899   4.588   6.413
 6562SOL    HW120585   5.961   4.510   6.411
 6562SOL    HW220586   5.810   4.559   6.447
 6563SOL     OW20587   0.848   6.288   0.108
 6563SOL    HW120588   0.804   6.314   0.194
 6563SOL    HW220589   0.859   6.369   0.051
 6564SOL     OW20590   1.169   3.845   2.064
 6564SOL    HW120591   1.230   3.803   1.997
 6564SOL    HW220592   1.101   3.902   2.017
 6565SOL     OW20593   6.430   1.866   4.848
 6565SOL    HW120594   6.416   1.824   4.758
 6565SOL    HW220595   6.492   1.944   4.840
 6566SOL     OW20596   3.224   6.709   1.554
 6566SOL    HW120597   3.223   6.695   1.653
 6566SOL    HW220598   3.307   6.758   1.528
 6567SOL     OW20599   4.186   2.522   1.389
 6567SOL    HW120600   4.096   2.563   1.373
 6567SOL    HW220601   4.179   2.423   1.380
 6568SOL     OW20602   4.932   5.262   2.013
 6568SOL    HW120603   4.969   5.207   1.938
 6568SOL    HW220604   4.837   5.286   1.994
 6569SOL     OW20605   3.096   4.674   1.085
 6569SOL    HW120606   3.149   4.716   1.011
 6569SOL    HW220607   3.025   4.616   1.046
 6570SOL     OW20608   5.005   6.913   1.279
 6570SOL    HW120609   5.103   6.928   1.296
 6570SOL    HW220610   4.992   6.884   1.185
 6571SOL     OW20611   1.878   6.446   2.704
 6571SOL    HW120612   1.834   6.394   2.777
 6571SOL    HW220613   1.976   6.429   2.705
 6572SOL     OW20614   6.066   4.913   4.959
 6572SOL    HW120615   6.127   4.896   4.882
 6572SOL    HW220616   6.120   4.923   5.043
 6573SOL     OW20617   3.290   1.003   3.127
 6573SOL    HW120618   3.223   0.935   3.158
 6573SOL    HW220619   3.256   1.047   3.044
 6574SOL     OW20620   2.372   6.213   1.884
 6574SOL    HW120621   2.452   6.204   1.943
 6574SOL    HW220622   2.364   6.132   1.826
 6575SOL     OW20623   0.587   1.400   1.606
 6575SOL    HW120624   0.558   1.341   1.681
 6575SOL    HW220625   0.682   1.379   1.581
 6576SOL     OW20626   1.467   6.140   6.406
 6576SOL    HW120627   1.560   6.173   6.422
 6576SOL    HW220628   1.449   6.061   6.465
 6577SOL     OW20629   7.012   1.165   3.590
 6577SOL    HW120630   0.072   1.146   3.531
 6577SOL    HW220631   6.980   1.080   3.632
 6578SOL     OW20632   6.807   5.123   2.891
 6578SOL    HW120633   6.814   5.131   2.990
 6578SOL    HW220634   6.884   5.070   2.856
 6579SOL     OW20635   0.153   4.405   4.451
 6579SOL    HW120636   0.226   4.353   4.408
 6579SOL    HW220637   0.131   4.485   4.395
 6580SOL     OW20638   5.847   1.346   1.290
 6580SOL    HW120639   5.750   1.362   1.308
 6580SOL    HW220640   5.902   1.397   1.356
 6581SOL     OW20641   3.746   0.928   5.791
 6581SOL    HW120642   3.692   0.934   5.707
 6581SOL    HW220643   3.742   0.835   5.826
 6582SOL     OW20644   1.695   6.928   2.088
 6582SOL    HW120645   1.659   6.834   2.086
 6582SOL    HW220646   1.710   6.956   2.183
 6583SOL     OW20647   4.280   1.176   6.166
 6583SOL    HW120648   4.374   1.200   6.189
 6583SOL    HW220649   4.269   1.178   6.066
 6584SOL     OW20650   5.245   1.236   0.041
 6584SOL    HW120651   5.299   1.291   0.105
 6584SOL    HW220652   5.220   1.291   6.981
 6585SOL     OW20653   6.781   1.089   0.687
 6585SOL    HW120654   6.820   1.036   0.611
 6585SOL    HW220655   6.682   1.098   0.673
 6586SOL     OW20656   6.206   2.271   5.868
 6586SOL    HW120657   6.113   2.244   5.890
 6586SOL    HW220658   6.270   2.202   5.901
 6587SOL     OW20659   3.075   5.826   4.509
 6587SOL    HW120660   3.067   5.749   4.573
 6587SOL    HW220661   2.996   5.886   4.520
 6588SOL     OW20662   1.727   3.988   1.476
 6588SOL    HW120663   1.812   4.037   1.457
 6588SOL    HW220664   1.715   3.980   1.575
 6589SOL     OW20665   4.529   0.468   6.729
 6589SOL    HW120666   4.586   0.427   6.800
 6589SOL    HW220667   4.561   0.560   6.710
 6590SOL     OW20668   0.521   1.887   5.584
 6590SOL    HW120669   0.573   1.972   5.581
 6590SOL    HW220670   0.430   1.902   5.545
 6591SOL     OW20671   5.646   6.081   2.017
 6591SOL    HW120672   5.569   6.108   2.075
 6591SOL    HW220673   5.680   6.161   1.967
 6592SOL     OW20674   4.900   6.589   3.804
 6592SOL    HW120675   4.929   6.629   3.892
 6592SOL    HW220676   4.803   6.608   3.789
 6593SOL     OW20677   2.147   2.561   3.568
 6593SOL    HW120678   2.149   2.468   3.606
 6593SOL    HW220679   2.132   2.556   3.469
 6594SOL     OW20680   4.140   1.097   0.284
 6594SOL    HW120681   4.103   1.046   0.362
 6594SOL    HW220682   4.107   1.191   0.287
 6595SOL     OW20683   0.541   4.029   1.554
 6595SOL    HW120684   0.562   4.108   1.610
 6595SOL    HW220685   0.442   4.017   1.549
 6596SOL     OW20686   4.008   0.151   5.305
 6596SOL    HW120687   4.083   0.189   5.252
 6596SOL    HW220688   3.922   0.164   5.254
 6597SOL     OW20689   1.145   6.497   3.540
 6597SOL    HW120690   1.058   6.490   3.588
 6597SOL    HW220691   1.162   6.414   3.488
 6598SOL     OW20692   1.711   5.937   5.448
 6598SOL    HW120693   1.666   5.893   5.370
 6598SOL    HW220694   1.774   5.872   5.491
 6599SOL     OW20695   4.109   5.403   5.599
 6599SOL    HW120696   4.024   5.374   5.554
 6599SOL    HW220697   4.171   5.442   5.530
 6600SOL     OW20698   4.988   4.941   4.924
 6600SOL    HW120699   5.042   5.003   4.867
 6600SOL    HW220700   4.961   4.988   5.008
 6601SOL     OW20701   1.010   0.244   0.676
 6601SOL    HW120702   1.035   0.333   0.714
 6601SOL    HW220703   0.971   0.187   0.748
 6602SOL     OW20704   6.879   1.825   1.461
 6602SOL    HW120705   6.902   1.812   1.558
 6602SOL    HW220706   6.783   1.800   1.446
 6603SOL     OW20707   1.507   3.045   4.266
 6603SOL    HW120708   1.563   3.074   4.189
 6603SOL    HW220709   1.534   2.953   4.295
 6604SOL     OW20710   2.691   6.137   1.310
 6604SOL    HW120711   2.700   6.058   1.371
 6604SOL    HW220712   2.782   6.162   1.275
 6605SOL     OW20713   4.883   4.689   0.626
 6605SOL    HW120714   4.785   4.691   0.645
 6605SOL    HW220715   4.908   4.772   0.575
 6606SOL     OW20716   4.915   6.852   2.080
 6606SOL    HW120717   4.823   6.886   2.062
 6606SOL    HW220718   4.911   6.784   2.154
 6607SOL     OW20719   1.973   1.236   1.845
 6607SOL    HW120720   1.927   1.237   1.756
 6607SOL    HW220721   1.905   1.220   1.917
 6608SOL     OW20722   5.093   4.227   2.448
 6608SOL    HW120723   5.193   4.221   2.442
 6608SOL    HW220724   5.052   4.177   2.373
 6609SOL     OW20725   4.902   1.050   6.501
 6609SOL    HW120726   4.836   1.001   6.445
 6609SOL    HW220727   4.954   0.985   6.557
 6610SOL     OW20728   2.249   0.277   6.791
 6610SOL    HW120729   2.233   0.226   6.876
 6610SOL    HW220730   2.341   0.260   6.758
 6611SOL     OW20731   0.021   2.451   2.698
 6611SOL    HW120732   0.052   2.357   2.689
 6611SOL    HW220733   6.956   2.454   2.752
 6612SOL     OW20734   0.761   4.006   6.970
 6612SOL    HW120735   0.698   4.038   0.022
 6612SOL    HW220736   0.741   4.053   6.884
 6613SOL     OW20737   6.137   5.936   3.266
 6613SOL    HW120738   6.046   5.947   3.226
 6613SOL    HW220739   6.175   5.848   3.237
 6614SOL     OW20740   4.859   6.548   6.632
 6614SOL    HW120741   4.772   6.590   6.605
 6614SOL    HW220742   4.918   6.540   6.552
 6615SOL     OW20743   1.047   3.602   4.835
 6615SOL    HW120744   0.995   3.665   4.777
 6615SOL    HW220745   0.997   3.515   4.843
 6616SOL     OW20746   4.090   1.272   5.687
 6616SOL    HW120747   4.066   1.176   5.670
 6616SOL    HW220748   4.006   1.327   5.686
 6617SOL     OW20749   3.556   6.591   3.431
 6617SOL    HW120750   3.590   6.567   3.522
 6617SOL    HW220751   3.623   6.650   3.386
 6618SOL     OW20752   1.202   3.119   2.551
 6618SOL    HW120753   1.124   3.081   2.502
 6618SOL    HW220754   1.243   3.193   2.498
 6619SOL     OW20755   5.435   6.691   4.477
 6619SOL    HW120756   5.411   6.695   4.574
 6619SOL    HW220757   5.402   6.774   4.431
 6620SOL     OW20758   1.866   2.833   5.365
 6620SOL    HW120759   1.845   2.772   5.289
 6620SOL    HW220760   1.862   2.928   5.334
 6621SOL     OW20761   3.498   3.967   0.423
 6621SOL    HW120762   3.517   3.900   0.351
 6621SOL    HW220763   3.585   4.003   0.458
 6622SOL     OW20764   6.219   5.661   1.324
 6622SOL    HW120765   6.141   5.607   1.293
 6622SOL    HW220766   6.287   5.668   1.252
 6623SOL     OW20767   3.730   3.126   1.868
 6623SOL    HW120768   3.709   3.086   1.778
 6623SOL    HW220769   3.796   3.068   1.915
 6624SOL     OW20770   2.734   6.554   3.886
 6624SOL    HW120771   2.804   6.497   3.930
 6624SOL    HW220772   2.652   6.555   3.943
 6625SOL     OW20773   5.613   2.165   6.072
 6625SOL    HW120774   5.658   2.075   6.075
 6625SOL    HW220775   5.653   2.225   6.141
 6626SOL     OW20776   3.435   4.924   3.194
 6626SOL    HW120777   3.467   4.853   3.130
 6626SOL    HW220778   3.500   4.933   3.269
 6627SOL     OW20779   2.123   0.922   5.740
 6627SOL    HW120780   2.134   0.996   5.674
 6627SOL    HW220781   2.062   0.952   5.813
 6628SOL     OW20782   5.028   5.299   3.215
 6628SOL    HW120783   5.007   5.201   3.211
 6628SOL    HW220784   4.986   5.345   3.136
 6629SOL     OW20785   3.313   6.439   0.928
 6629SOL    HW120786   3.378   6.491   0.983
 6629SOL    HW220787   3.283   6.494   0.850
 6630SOL     OW20788   3.663   1.958   0.499
 6630SOL    HW120789   3.736   2.002   0.552
 6630SOL    HW220790   3.650   1.864   0.532
 6631SOL     OW20791   4.394   0.004   2.529
 6631SOL    HW120792   4.386   6.933   2.487
 6631SOL    HW220793   4.303   0.039   2.551
 6632SOL     OW20794   6.754   1.171   1.826
 6632SOL    HW120795   6.822   1.141   1.893
 6632SOL    HW220796   6.721   1.262   1.851
 6633SOL     OW20797   1.379   5.448   5.900
 6633SOL    HW120798   1.299   5.507   5.896
 6633SOL    HW220799   1.379   5.397   5.986
 6634SOL     OW20800   5.988   3.310   5.718
 6634SOL    HW120801   6.008   3.222   5.761
 6634SOL    HW220802   6.051   3.380   5.752
 6635SOL     OW20803   4.491   4.859   3.408
 6635SOL    HW120804   4.391   4.865   3.416
 6635SOL    HW220805   4.532   4.941   3.449
 6636SOL     OW20806   2.228   2.718   5.415
 6636SOL    HW120807   2.158   2.772   5.461
 6636SOL    HW220808   2.306   2.777   5.394
 6637SOL     OW20809   1.016   0.681   0.020
 6637SOL    HW120810   1.082   0.633   6.981
 6637SOL    HW220811   0.991   0.767   6.996
 6638SOL     OW20812   4.123   4.761   5.260
 6638SOL    HW120813   4.173   4.741   5.177
 6638SOL    HW220814   4.137   4.687   5.326
 6639SOL     OW20815   5.805   6.205   6.074
 6639SOL    HW120816   5.867   6.127   6.071
 6639SOL    HW220817   5.728   6.189   6.011
 6640SOL     OW20818   6.847   1.853   5.045
 6640SOL    HW120819   6.942   1.869   5.017
 6640SOL    HW220820   6.787   1.916   4.997
 6641SOL     OW20821   2.830   3.320   6.335
 6641SOL    HW120822   2.844   3.419   6.340
 6641SOL    HW220823   2.732   3.302   6.322
 6642SOL     OW20824   2.955   4.950   0.212
 6642SOL    HW120825   2.945   4.979   0.117
 6642SOL    HW220826   2.927   5.024   0.273
 6643SOL     OW20827   6.910   4.583   6.950
 6643SOL    HW120828   6.993   4.579   6.895
 6643SOL    HW220829   6.865   4.671   6.937
 6644SOL     OW20830   3.077   4.782   2.019
 6644SOL    HW120831   2.995   4.727   2.033
 6644SOL    HW220832   3.110   4.768   1.926
 6645SOL     OW20833   6.557   5.151   0.652
 6645SOL    HW120834   6.515   5.150   0.561
 6645SOL    HW220835   6.650   5.187   0.645
 6646SOL     OW20836   4.651   5.679   4.312
 6646SOL    HW120837   4.667   5.750   4.243
 6646SOL    HW220838   4.704   5.701   4.394
 6647SOL     OW20839   3.436   1.329   2.812
 6647SOL    HW120840   3.415   1.399   2.880
 6647SOL    HW220841   3.443   1.371   2.722
 6648SOL     OW20842   3.775   6.435   2.251
 6648SOL    HW120843   3.781   6.487   2.166
 6648SOL    HW220844   3.679   6.430   2.280
 6649SOL     OW20845   5.466   1.863   6.540
 6649SOL    HW120846   5.463   1.943   6.480
 6649SOL    HW220847   5.377   1.817   6.539
 6650SOL     OW20848   4.022   1.202   3.469
 6650SOL    HW120849   4.045   1.293   3.504
 6650SOL    HW220850   3.930   1.177   3.498
 6651SOL     OW20851   1.491   1.673   0.114
 6651SOL    HW120852   1.428   1.605   0.151
 6651SOL    HW220853   1.565   1.689   0.179
 6652SOL     OW20854   6.437   4.459   6.910
 6652SOL    HW120855   6.526   4.452   6.955
 6652SOL    HW220856   6.376   4.517   6.963
 6653SOL     OW20857   4.077   3.217   2.813
 6653SOL    HW120858   4.072   3.182   2.906
 6653SOL    HW220859   4.040   3.149   2.750
 6654SOL     OW20860   1.928   2.664   1.298
 6654SOL    HW120861   2.020   2.702   1.291
 6654SOL    HW220862   1.900   2.626   1.210
 6655SOL     OW20863   2.677   6.828   1.818
 6655SOL    HW120864   2.668   6.828   1.719
 6655SOL    HW220865   2.709   6.918   1.848
 6656SOL     OW20866   6.357   1.555   2.865
 6656SOL    HW120867   6.336   1.468   2.910
 6656SOL    HW220868   6.433   1.543   2.801
 6657SOL     OW20869   4.425   6.639   6.081
 6657SOL    HW120870   4.370   6.710   6.124
 6657SOL    HW220871   4.519   6.643   6.115
 6658SOL     OW20872   6.106   1.685   5.364
 6658SOL    HW120873   6.053   1.745   5.425
 6658SOL    HW220874   6.065   1.686   5.273
 6659SOL     OW20875   2.373   2.253   6.884
 6659SOL    HW120876   2.404   2.343   6.855
 6659SOL    HW220877   2.452   2.192   6.894
 6660SOL     OW20878   0.187   6.058   1.304
 6660SOL    HW120879   0.271   6.102   1.336
 6660SOL    HW220880   0.209   5.993   1.232
 6661SOL     OW20881   0.504   4.935   3.948
 6661SOL    HW120882   0.550   5.022   3.932
 6661SOL    HW220883   0.573   4.862   3.957
 6662SOL     OW20884   1.508   0.736   6.984
 6662SOL    HW120885   1.472   0.740   6.891
 6662SOL    HW220886   1.565   0.817   7.001
 6663SOL     OW20887   0.178   5.594   3.207
 6663SOL    HW120888   0.235   5.633   3.279
 6663SOL    HW220889   0.200   5.497   3.195
 6664SOL     OW20890   1.319   0.107   1.555
 6664SOL    HW120891   1.316   0.125   1.457
 6664SOL    HW220892   1.265   0.025   1.575
 6665SOL     OW20893   1.618   0.578   3.209
 6665SOL    HW120894   1.712   0.554   3.186
 6665SOL    HW220895   1.570   0.496   3.241
 6666SOL     OW20896   6.102   2.141   5.429
 6666SOL    HW120897   6.086   2.155   5.331
 6666SOL    HW220898   6.063   2.054   5.457
 6667SOL     OW20899   6.191   5.074   4.673
 6667SOL    HW120900   6.250   5.129   4.733
 6667SOL    HW220901   6.227   4.981   4.668
 6668SOL     OW20902   6.966   6.115   2.209
 6668SOL    HW120903   6.906   6.087   2.133
 6668SOL    HW220904   0.043   6.114   2.178
 6669SOL     OW20905   2.129   3.494   3.735
 6669SOL    HW120906   2.147   3.550   3.654
 6669SOL    HW220907   2.131   3.552   3.817
 6670SOL     OW20908   3.262   3.903   6.728
 6670SOL    HW120909   3.310   3.949   6.653
 6670SOL    HW220910   3.309   3.924   6.814
 6671SOL     OW20911   6.192   4.991   0.573
 6671SOL    HW120912   6.163   4.925   0.504
 6671SOL    HW220913   6.172   5.083   0.541
 6672SOL     OW20914   0.669   1.133   5.179
 6672SOL    HW120915   0.641   1.219   5.221
 6672SOL    HW220916   0.604   1.108   5.107
 6673SOL     OW20917   4.853   5.608   2.924
 6673SOL    HW120918   4.838   5.698   2.884
 6673SOL    HW220919   4.932   5.611   2.984
 6674SOL     OW20920   0.611   5.451   6.127
 6674SOL    HW120921   0.545   5.525   6.136
 6674SOL    HW220922   0.567   5.364   6.152
 6675SOL     OW20923   5.300   4.028   1.812
 6675SOL    HW120924   5.355   4.070   1.741
 6675SOL    HW220925   5.209   4.070   1.814
 6676SOL     OW20926   0.442   3.811   5.691
 6676SOL    HW120927   0.362   3.859   5.728
 6676SOL    HW220928   0.428   3.713   5.697
 6677SOL     OW20929   6.870   3.131   6.907
 6677SOL    HW120930   6.958   3.175   6.922
 6677SOL    HW220931   6.811   3.146   6.986
 6678SOL     OW20932   1.138   2.552   0.132
 6678SOL    HW120933   1.133   2.456   0.160
 6678SOL    HW220934   1.049   2.595   0.147
 6679SOL     OW20935   1.706   1.618   4.719
 6679SOL    HW120936   1.662   1.602   4.631
 6679SOL    HW220937   1.680   1.545   4.783
 6680SOL     OW20938   4.266   6.010   5.977
 6680SOL    HW120939   4.294   6.096   5.934
 6680SOL    HW220940   4.258   5.940   5.906
 6681SOL     OW20941   4.899   5.839   6.879
 6681SOL    HW120942   4.957   5.792   6.812
 6681SOL    HW220943   4.941   5.831   6.970
 6682SOL     OW20944   0.862   4.377   2.209
 6682SOL    HW120945   0.849   4.321   2.291
 6682SOL    HW220946   0.923   4.329   2.145
 6683SOL     OW20947   4.864   2.092   5.610
 6683SOL    HW120948   4.794   2.107   5.540
 6683SOL    HW220949   4.881   2.178   5.658
 6684SOL     OW20950   1.735   6.705   1.237
 6684SOL    HW120951   1.699   6.683   1.328
 6684SOL    HW220952   1.820   6.757   1.247
 6685SOL     OW20953   5.432   2.067   6.329
 6685SOL    HW120954   5.346   2.119   6.331
 6685SOL    HW220955   5.501   2.119   6.278
 6686SOL     OW20956   6.234   4.758   3.754
 6686SOL    HW120957   6.327   4.721   3.748
 6686SOL    HW220958   6.228   4.840   3.698
 6687SOL     OW20959   0.757   1.625   0.848
 6687SOL    HW120960   0.752   1.532   0.810
 6687SOL    HW220961   0.699   1.631   0.929
 6688SOL     OW20962   0.611   4.189   2.101
 6688SOL    HW120963   0.518   4.196   2.138
 6688SOL    HW220964   0.673   4.247   2.155
 6689SOL     OW20965   4.103   2.711   0.690
 6689SOL    HW120966   4.163   2.787   0.664
 6689SOL    HW220967   4.128   2.678   0.781
 6690SOL     OW20968   2.461   1.012   1.689
 6690SOL    HW120969   2.451   1.110   1.671
 6690SOL    HW220970   2.452   0.995   1.787
 6691SOL     OW20971   3.145   5.669   0.758
 6691SOL    HW120972   3.225   5.658   0.816
 6691SOL    HW220973   3.062   5.650   0.810
 6692SOL     OW20974   2.799   4.724   5.325
 6692SOL    HW120975   2.741   4.687   5.398
 6692SOL    HW220976   2.824   4.650   5.263
 6693SOL     OW20977   5.163   3.484   6.423
 6693SOL    HW120978   5.260   3.491   6.446
 6693SOL    HW220979   5.135   3.567   6.374
 6694SOL     OW20980   4.404   5.704   6.991
 6694SOL    HW120981   4.468   5.630   6.972
 6694SOL    HW220982   4.338   5.674   0.041
 6695SOL     OW20983   0.654   1.954   6.873
 6695SOL    HW120984   0.631   1.863   6.908
 6695SOL    HW220985   0.744   1.981   6.907
 6696SOL     OW20986   1.882   2.547   1.065
 6696SOL    HW120987   1.967   2.495   1.055
 6696SOL    HW220988   1.805   2.489   1.041
 6697SOL     OW20989   4.538   2.501   3.076
 6697SOL    HW120990   4.617   2.541   3.122
 6697SOL    HW220991   4.528   2.543   2.986
 6698SOL     OW20992   3.390   2.295   0.529
 6698SOL    HW120993   3.441   2.368   0.482
 6698SOL    HW220994   3.307   2.334   0.570
 6699SOL     OW20995   3.872   4.054   6.308
 6699SOL    HW120996   3.813   4.075   6.230
 6699SOL    HW220997   3.821   4.001   6.375
 6700SOL     OW20998   0.828   5.597   0.319
 6700SOL    HW120999   0.740   5.590   0.367
 6700SOL    HW221000   0.901   5.567   0.380
 6701SOL     OW21001   6.103   2.943   1.496
 6701SOL    HW121002   6.019   2.889   1.504
 6701SOL    HW221003   6.134   2.969   1.587
 6702SOL     OW21004   2.646   2.163   6.870
 6702SOL    HW121005   2.619   2.208   6.785
 6702SOL    HW221006   2.740   2.130   6.862
 6703SOL     OW21007   6.135   2.132   0.092
 6703SOL    HW121008   6.139   2.068   0.016
 6703SOL    HW221009   6.222   2.128   0.143
 6704SOL     OW21010   4.395   2.479   2.537
 6704SOL    HW121011   4.371   2.573   2.562
 6704SOL    HW221012   4.320   2.418   2.560
 6705SOL     OW21013   0.135   2.095   1.517
 6705SOL    HW121014   0.222   2.143   1.519
 6705SOL    HW221015   0.144   2.007   1.563
 6706SOL     OW21016   1.607   4.313   0.508
 6706SOL    HW121017   1.625   4.350   0.416
 6706SOL    HW221018   1.604   4.213   0.503
 6707SOL     OW21019   6.073   5.938   4.935
 6707SOL    HW121020   6.120   5.987   4.862
 6707SOL    HW221021   6.003   5.879   4.895
 6708SOL     OW21022   1.672   5.771   2.491
 6708SOL    HW121023   1.588   5.819   2.517
 6708SOL    HW221024   1.718   5.738   2.573
 6709SOL     OW21025   3.778   6.310   1.516
 6709SOL    HW121026   3.735   6.385   1.567
 6709SOL    HW221027   3.720   6.285   1.438
 6710SOL     OW21028   2.161   2.006   5.698
 6710SOL    HW121029   2.213   2.058   5.766
 6710SOL    HW221030   2.151   1.912   5.728
 6711SOL     OW21031   5.822   4.228   6.595
 6711SOL    HW121032   5.814   4.250   6.498
 6711SOL    HW221033   5.768   4.147   6.616
 6712SOL     OW21034   4.035   5.433   0.358
 6712SOL    HW121035   3.957   5.489   0.386
 6712SOL    HW221036   4.071   5.384   0.437
 6713SOL     OW21037   2.638   1.560   1.840
 6713SOL    HW121038   2.637   1.578   1.742
 6713SOL    HW221039   2.603   1.640   1.890
 6714SOL     OW21040   5.458   0.045   5.421
 6714SOL    HW121041   5.526   0.111   5.388
 6714SOL    HW221042   5.369   0.065   5.380
 6715SOL     OW21043   0.140   0.677   0.001
 6715SOL    HW121044   0.205   0.686   0.077
 6715SOL    HW221045   0.155   0.750   6.953
 6716SOL     OW21046   1.321   6.502   1.254
 6716SOL    HW121047   1.401   6.460   1.213
 6716SOL    HW221048   1.249   6.511   1.185
 6717SOL     OW21049   4.053   3.147   0.495
 6717SOL    HW121050   3.996   3.117   0.418
 6717SOL    HW221051   4.106   3.228   0.468
 6718SOL     OW21052   4.115   5.900   6.713
 6718SOL    HW121053   4.033   5.849   6.739
 6718SOL    HW221054   4.091   5.997   6.701
 6719SOL     OW21055   0.217   6.964   6.019
 6719SOL    HW121056   0.306   7.009   6.014
 6719SOL    HW221057   0.169   6.977   5.932
 6720SOL     OW21058   2.284   6.053   1.686
 6720SOL    HW121059   2.203   6.106   1.663
 6720SOL    HW221060   2.275   5.960   1.650
 6721SOL     OW21061   5.426   6.432   4.393
 6721SOL    HW121062   5.442   6.527   4.420
 6721SOL    HW221063   5.397   6.429   4.297
 6722SOL     OW21064   4.897   3.407   0.777
 6722SOL    HW121065   4.915   3.426   0.680
 6722SOL    HW221066   4.945   3.323   0.803
 6723SOL     OW21067   1.869   6.891   2.807
 6723SOL    HW121068   1.909   6.903   2.716
 6723SOL    HW221069   1.929   6.832   2.862
 6724SOL     OW21070   2.052   4.321   5.957
 6724SOL    HW121071   2.021   4.416   5.952
 6724SOL    HW221072   1.980   4.260   5.925
 6725SOL     OW21073   1.053   4.304   2.607
 6725SOL    HW121074   1.034   4.375   2.539
 6725SOL    HW221075   1.061   4.346   2.697
 6726SOL     OW21076   1.618   2.651   4.973
 6726SOL    HW121077   1.630   2.747   4.948
 6726SOL    HW221078   1.680   2.627   5.047
 6727SOL     OW21079   5.672   3.768   6.414
 6727SOL    HW121080   5.724   3.729   6.338
 6727SOL    HW221081   5.599   3.826   6.378
 6728SOL     OW21082   3.809   1.755   4.415
 6728SOL    HW121083   3.903   1.722   4.407
 6728SOL    HW221084   3.796   1.834   4.356
 6729SOL     OW21085   6.511   1.310   2.526
 6729SOL    HW121086   6.461   1.349   2.448
 6729SOL    HW221087   6.560   1.229   2.496
 6730SOL     OW21088   2.527   0.104   6.901
 6730SOL    HW121089   2.500   0.127   6.807
 6730SOL    HW221090   2.446   0.076   6.952
 6731SOL     OW21091   2.903   4.345   1.450
 6731SOL    HW121092   2.886   4.331   1.547
 6731SOL    HW221093   2.964   4.273   1.416
 6732SOL     OW21094   2.849   5.729   0.347
 6732SOL    HW121095   2.892   5.745   0.258
 6732SOL    HW221096   2.849   5.632   0.368
 6733SOL     OW21097   4.568   5.550   6.214
 6733SOL    HW121098   4.631   5.627   6.223
 6733SOL    HW221099   4.504   5.550   6.291
 6734SOL     OW21100   0.882   3.429   5.732
 6734SOL    HW121101   0.900   3.474   5.820
 6734SOL    HW221102   0.965   3.384   5.700
 6735SOL     OW21103   0.213   5.181   5.175
 6735SOL    HW121104   0.272   5.124   5.231
 6735SOL    HW221105   0.134   5.128   5.145
 6736SOL     OW21106   2.252   3.433   0.993
 6736SOL    HW121107   2.317   3.442   1.068
 6736SOL    HW221108   2.290   3.476   0.911
 6737SOL     OW21109   2.362   1.302   1.798
 6737SOL    HW121110   2.283   1.305   1.859
 6737SOL    HW221111   2.334   1.334   1.707
 6738SOL     OW21112   2.552   1.975   2.439
 6738SOL    HW121113   2.494   1.955   2.360
 6738SOL    HW221114   2.647   1.986   2.409
 6739SOL     OW21115   3.197   5.274   5.218
 6739SOL    HW121116   3.248   5.359   5.203
 6739SOL    HW221117   3.240   5.200   5.166
 6740SOL     OW21118   1.663   1.061   4.083
 6740SOL    HW121119   1.570   1.098   4.087
 6740SOL    HW221120   1.720   1.106   4.152
 6741SOL     OW21121   4.998   1.638   6.166
 6741SOL    HW121122   5.077   1.682   6.208
 6741SOL    HW221123   4.967   1.563   6.224
 6742SOL     OW21124   0.264   5.964   4.635
 6742SOL    HW121125   0.200   6.022   4.585
 6742SOL    HW221126   0.353   6.011   4.641
 6743SOL     OW21127   4.176   3.437   6.844
 6743SOL    HW121128   4.225   3.382   6.777
 6743SOL    HW221129   4.226   3.437   6.930
 6744SOL     OW21130   3.842   4.793   6.168
 6744SOL    HW121131   3.762   4.841   6.204
 6744SOL    HW221132   3.818   4.698   6.147
 6745SOL     OW21133   1.158   5.033   2.815
 6745SOL    HW121134   1.134   5.040   2.718
 6745SOL    HW221135   1.197   5.120   2.845
 6746SOL     OW21136   0.533   0.945   1.681
 6746SOL    HW121137   0.529   0.937   1.781
 6746SOL    HW221138   0.489   1.031   1.653
 6747SOL     OW21139   5.490   6.469   4.068
 6747SOL    HW121140   5.552   6.484   3.991
 6747SOL    HW221141   5.544   6.457   4.152
 6748SOL     OW21142   0.814   1.059   2.316
 6748SOL    HW121143   0.841   1.026   2.406
 6748SOL    HW221144   0.891   1.107   2.273
 6749SOL     OW21145   3.585   0.419   0.080
 6749SOL    HW121146   3.684   0.434   0.079
 6749SOL    HW221147   3.541   0.493   0.130
 6750SOL     OW21148   2.490   1.966   4.151
 6750SOL    HW121149   2.587   1.946   4.156
 6750SOL    HW221150   2.452   1.976   4.243
 6751SOL     OW21151   2.861   2.292   3.649
 6751SOL    HW121152   2.933   2.229   3.676
 6751SOL    HW221153   2.777   2.270   3.698
 6752SOL     OW21154   6.025   2.732   1.082
 6752SOL    HW121155   6.048   2.829   1.077
 6752SOL    HW221156   6.058   2.694   1.168
 6753SOL     OW21157   4.123   1.715   6.109
 6753SOL    HW121158   4.078   1.700   6.197
 6753SOL    HW221159   4.096   1.805   6.073
 6754SOL     OW21160   6.408   1.776   6.219
 6754SOL    HW121161   6.493   1.819   6.250
 6754SOL    HW221162   6.418   1.677   6.223
 6755SOL     OW21163   5.479   1.810   3.232
 6755SOL    HW121164   5.561   1.843   3.185
 6755SOL    HW221165   5.467   1.712   3.215
 6756SOL     OW21166   4.684   4.341   4.432
 6756SOL    HW121167   4.595   4.385   4.416
 6756SOL    HW221168   4.755   4.412   4.438
 6757SOL     OW21169   4.616   5.895   0.793
 6757SOL    HW121170   4.634   5.986   0.830
 6757SOL    HW221171   4.521   5.891   0.762
 6758SOL     OW21172   5.262   3.496   2.138
 6758SOL    HW121173   5.253   3.401   2.110
 6758SOL    HW221174   5.172   3.540   2.135
 6759SOL     OW21175   1.653   4.736   3.061
 6759SOL    HW121176   1.749   4.720   3.084
 6759SOL    HW221177   1.630   4.832   3.077
 6760SOL     OW21178   0.522   4.905   4.648
 6760SOL    HW121179   0.451   4.842   4.616
 6760SOL    HW221180   0.504   4.928   4.744
 6761SOL     OW21181   5.177   3.084   5.818
 6761SOL    HW121182   5.273   3.112   5.827
 6761SOL    HW221183   5.136   3.074   5.909
 6762SOL     OW21184   6.759   5.380   3.417
 6762SOL    HW121185   6.684   5.326   3.454
 6762SOL    HW221186   6.741   5.477   3.432
 6763SOL     OW21187   5.840   6.474   5.380
 6763SOL    HW121188   5.938   6.484   5.396
 6763SOL    HW221189   5.825   6.434   5.290
 6764SOL     OW21190   2.789   4.021   6.292
 6764SOL    HW121191   2.842   3.976   6.364
 6764SOL    HW221192   2.819   3.986   6.203
 6765SOL     OW21193   6.766   4.638   3.240
 6765SOL    HW121194   6.858   4.675   3.247
 6765SOL    HW221195   6.752   4.599   3.149
 6766SOL     OW21196   1.502   0.881   6.106
 6766SOL    HW121197   1.467   0.804   6.160
 6766SOL    HW221198   1.491   0.861   6.009
 6767SOL     OW21199   0.133   2.660   0.257
 6767SOL    HW121200   0.225   2.688   0.282
 6767SOL    HW221201   0.094   2.726   0.193
 6768SOL     OW21202   0.876   0.331   3.724
 6768SOL    HW121203   0.891   0.407   3.660
 6768SOL    HW221204   0.960   0.279   3.735
 6769SOL     OW21205   2.574   2.121   5.344
 6769SOL    HW121206   2.554   2.125   5.246
 6769SOL    HW221207   2.663   2.163   5.362
 6770SOL     OW21208   0.229   2.214   3.465
 6770SOL    HW121209   0.306   2.229   3.403
 6770SOL    HW221210   0.146   2.249   3.424
 6771SOL     OW21211   3.620   2.089   3.374
 6771SOL    HW121212   3.705   2.036   3.372
 6771SOL    HW221213   3.605   2.131   3.285
 6772SOL     OW21214   6.229   1.705   2.701
 6772SOL    HW121215   6.273   1.639   2.762
 6772SOL    HW221216   6.293   1.733   2.629
 6773SOL     OW21217   0.084   6.175   1.562
 6773SOL    HW121218   0.068   6.166   1.464
 6773SOL    HW221219   0.036   6.256   1.596
 6774SOL     OW21220   1.811   2.088   5.153
 6774SOL    HW121221   1.758   2.067   5.235
 6774SOL    HW221222   1.821   2.187   5.144
 6775SOL     OW21223   0.711   1.603   4.745
 6775SOL    HW121224   0.736   1.669   4.816
 6775SOL    HW221225   0.660   1.527   4.785
 6776SOL     OW21226   3.980   4.267   1.618
 6776SOL    HW121227   3.947   4.361   1.629
 6776SOL    HW221228   3.958   4.215   1.700
 6777SOL     OW21229   4.661   5.764   1.488
 6777SOL    HW121230   4.729   5.773   1.560
 6777SOL    HW221231   4.706   5.733   1.404
 6778SOL     OW21232   6.463   3.955   2.474
 6778SOL    HW121233   6.507   3.885   2.417
 6778SOL    HW221234   6.449   3.919   2.566
 6779SOL     OW21235   5.890   4.228   5.994
 6779SOL    HW121236   5.878   4.185   6.084
 6779SOL    HW221237   5.875   4.161   5.922
 6780SOL     OW21238   2.771   2.371   3.017
 6780SOL    HW121239   2.820   2.368   2.930
 6780SOL    HW221240   2.824   2.424   3.083
 6781SOL     OW21241   6.628   1.184   4.295
 6781SOL    HW121242   6.584   1.097   4.273
 6781SOL    HW221243   6.581   1.227   4.372
 6782SOL     OW21244   6.557   1.680   3.780
 6782SOL    HW121245   6.528   1.673   3.685
 6782SOL    HW221246   6.637   1.739   3.786
 6783SOL     OW21247   1.114   5.195   4.997
 6783SOL    HW121248   1.175   5.157   5.065
 6783SOL    HW221249   1.068   5.121   4.947
 6784SOL     OW21250   1.576   3.092   1.465
 6784SOL    HW121251   1.622   3.027   1.525
 6784SOL    HW221252   1.477   3.088   1.481
 6785SOL     OW21253   5.526   4.957   4.554
 6785SOL    HW121254   5.506   4.884   4.489
 6785SOL    HW221255   5.572   5.032   4.507
 6786SOL     OW21256   6.599   2.302   0.289
 6786SOL    HW121257   6.639   2.307   0.381
 6786SOL    HW221258   6.670   2.277   0.223
 6787SOL     OW21259   3.368   2.152   6.835
 6787SOL    HW121260   3.376   2.249   6.810
 6787SOL    HW221261   3.445   2.101   6.797
 6788SOL     OW21262   0.284   4.132   3.923
 6788SOL    HW121263   0.233   4.208   3.882
 6788SOL    HW221264   0.353   4.100   3.858
 6789SOL     OW21265   6.536   3.801   3.874
 6789SOL    HW121266   6.441   3.828   3.862
 6789SOL    HW221267   6.596   3.868   3.831
 6790SOL     OW21268   0.747   5.026   6.088
 6790SOL    HW121269   0.649   5.042   6.096
 6790SOL    HW221270   0.764   4.930   6.067
 6791SOL     OW21271   4.176   0.868   3.857
 6791SOL    HW121272   4.168   0.933   3.782
 6791SOL    HW221273   4.265   0.822   3.853
 6792SOL     OW21274   4.197   0.090   5.489
 6792SOL    HW121275   4.174   0.037   5.571
 6792SOL    HW221276   4.113   0.111   5.438
 6793SOL     OW21277   2.426   3.423   0.581
 6793SOL    HW121278   2.424   3.351   0.511
 6793SOL    HW221279   2.465   3.507   0.542
 6794SOL     OW21280   4.622   1.518   5.938
 6794SOL    HW121281   4.565   1.503   5.857
 6794SOL    HW221282   4.568   1.501   6.020
 6795SOL     OW21283   0.762   0.864   1.282
 6795SOL    HW121284   0.721   0.955   1.296
 6795SOL    HW221285   0.754   0.810   1.366
 6796SOL     OW21286   5.823   1.378   2.667
 6796SOL    HW121287   5.882   1.310   2.710
 6796SOL    HW221288   5.878   1.457   2.640
 6797SOL     OW21289   0.317   2.267   1.763
 6797SOL    HW121290   0.404   2.316   1.766
 6797SOL    HW221291   0.274   2.270   1.853
 6798SOL     OW21292   5.177   0.190   2.028
 6798SOL    HW121293   5.236   0.268   2.007
 6798SOL    HW221294   5.196   0.157   2.121
 6799SOL     OW21295   5.245   0.559   3.359
 6799SOL    HW121296   5.161   0.511   3.382
 6799SOL    HW221297   5.305   0.561   3.438
 6800SOL     OW21298   0.059   1.677   1.308
 6800SOL    HW121299   0.005   1.742   1.361
 6800SOL    HW221300   0.108   1.615   1.369
 6801SOL     OW21301   1.207   5.811   5.667
 6801SOL    HW121302   1.239   5.900   5.633
 6801SOL    HW221303   1.125   5.784   5.617
 6802SOL     OW21304   3.346   5.575   1.186
 6802SOL    HW121305   3.398   5.490   1.189
 6802SOL    HW221306   3.408   5.652   1.170
 6803SOL     OW21307   5.146   4.536   6.028
 6803SOL    HW121308   5.214   4.530   5.955
 6803SOL    HW221309   5.136   4.632   6.056
 6804SOL     OW21310   2.817   4.924   2.974
 6804SOL    HW121311   2.720   4.928   2.954
 6804SOL    HW221312   2.869   4.944   2.891
 6805SOL     OW21313   6.758   4.181   5.754
 6805SOL    HW121314   6.754   4.138   5.664
 6805SOL    HW221315   6.668   4.177   5.798
 6806SOL     OW21316   6.770   1.221   3.130
 6806SOL    HW121317   6.778   1.184   3.222
 6806SOL    HW221318   6.801   1.153   3.064
 6807SOL     OW21319   3.821   3.671   1.815
 6807SOL    HW121320   3.886   3.700   1.745
 6807SOL    HW221321   3.871   3.639   1.895
 6808SOL     OW21322   3.760   1.256   4.371
 6808SOL    HW121323   3.850   1.254   4.327
 6808SOL    HW221324   3.747   1.344   4.416
 6809SOL     OW21325   5.569   3.937   2.447
 6809SOL    HW121326   5.581   3.883   2.363
 6809SOL    HW221327   5.477   3.924   2.483
 6810SOL     OW21328   2.595   1.117   4.317
 6810SOL    HW121329   2.501   1.099   4.347
 6810SOL    HW221330   2.647   1.154   4.393
 6811SOL     OW21331   6.257   1.606   2.144
 6811SOL    HW121332   6.205   1.629   2.062
 6811SOL    HW221333   6.226   1.517   2.178
 6812SOL     OW21334   3.070   4.025   5.239
 6812SOL    HW121335   3.041   4.115   5.273
 6812SOL    HW221336   3.133   4.037   5.163
 6813SOL     OW21337   5.849   3.792   2.327
 6813SOL    HW121338   5.750   3.779   2.317
 6813SOL    HW221339   5.883   3.850   2.253
 6814SOL     OW21340   5.215   1.255   6.351
 6814SOL    HW121341   5.243   1.236   6.257
 6814SOL    HW221342   5.182   1.171   6.393
 6815SOL     OW21343   2.222   4.882   6.574
 6815SOL    HW121344   2.221   4.789   6.611
 6815SOL    HW221345   2.316   4.914   6.564
 6816SOL     OW21346   0.457   1.710   3.680
 6816SOL    HW121347   0.549   1.706   3.641
 6816SOL    HW221348   0.422   1.803   3.670
 6817SOL     OW21349   3.511   2.045   2.008
 6817SOL    HW121350   3.537   2.017   2.100
 6817SOL    HW221351   3.569   2.121   1.978
 6818SOL     OW21352   1.995   6.416   6.130
 6818SOL    HW121353   1.990   6.514   6.149
 6818SOL    HW221354   1.913   6.371   6.165
 6819SOL     OW21355   4.404   4.565   2.412
 6819SOL    HW121356   4.334   4.611   2.356
 6819SOL    HW221357   4.457   4.504   2.354
 6820SOL     OW21358   3.138   6.031   1.165
 6820SOL    HW121359   3.124   6.126   1.193
 6820SOL    HW221360   3.140   6.025   1.065
 6821SOL     OW21361   4.244   2.983   5.710
 6821SOL    HW121362   4.148   2.996   5.733
 6821SOL    HW221363   4.260   3.006   5.614
 6822SOL     OW21364   0.145   2.493   6.454
 6822SOL    HW121365   0.197   2.433   6.515
 6822SOL    HW221366   0.058   2.517   6.496
 6823SOL     OW21367   5.913   3.527   6.946
 6823SOL    HW121368   5.999   3.477   6.954
 6823SOL    HW221369   5.839   3.463   6.924
 6824SOL     OW21370   0.690   2.657   6.399
 6824SOL    HW121371   0.626   2.611   6.461
 6824SOL    HW221372   0.782   2.620   6.414
 6825SOL     OW21373   6.072   5.835   1.778
 6825SOL    HW121374   6.129   5.810   1.699
 6825SOL    HW221375   5.990   5.779   1.778
 6826SOL     OW21376   0.242   3.700   3.480
 6826SOL    HW121377   0.178   3.629   3.450
 6826SOL    HW221378   0.336   3.668   3.467
 6827SOL     OW21379   4.612   6.020   5.098
 6827SOL    HW121380   4.699   5.987   5.061
 6827SOL    HW221381   4.557   5.943   5.129
 6828SOL     OW21382   3.215   1.483   2.479
 6828SOL    HW121383   3.198   1.547   2.404
 6828SOL    HW221384   3.300   1.433   2.463
 6829SOL     OW21385   5.033   6.672   4.605
 6829SOL    HW121386   5.064   6.648   4.514
 6829SOL    HW221387   4.945   6.629   4.623
 6830SOL     OW21388   5.130   0.241   3.054
 6830SOL    HW121389   5.199   0.185   3.101
 6830SOL    HW221390   5.176   0.302   2.990
 6831SOL     OW21391   1.154   1.530   6.748
 6831SOL    HW121392   1.068   1.566   6.712
 6831SOL    HW221393   1.199   1.475   6.678
 6832SOL     OW21394   3.096   2.268   0.395
 6832SOL    HW121395   3.001   2.289   0.373
 6832SOL    HW221396   3.124   2.320   0.476
 6833SOL     OW21397   2.869   5.279   5.864
 6833SOL    HW121398   2.868   5.216   5.942
 6833SOL    HW221399   2.964   5.294   5.835
 6834SOL     OW21400   5.389   0.392   0.519
 6834SOL    HW121401   5.431   0.313   0.565
 6834SOL    HW221402   5.402   0.474   0.575
 6835SOL     OW21403   2.704   1.956   4.572
 6835SOL    HW121404   2.607   1.977   4.585
 6835SOL    HW221405   2.725   1.869   4.616
 6836SOL     OW21406   1.705   4.877   6.369
 6836SOL    HW121407   1.798   4.862   6.403
 6836SOL    HW221408   1.681   4.805   6.304
 6837SOL     OW21409   0.746   0.339   2.098
 6837SOL    HW121410   0.664   0.304   2.053
 6837SOL    HW221411   0.784   0.414   2.045
 6838SOL     OW21412   2.765   4.399   5.321
 6838SOL    HW121413   2.765   4.301   5.343
 6838SOL    HW221414   2.850   4.422   5.274
 6839SOL     OW21415   5.767   2.522   4.002
 6839SOL    HW121416   5.757   2.555   3.908
 6839SOL    HW221417   5.683   2.543   4.053
 6840SOL     OW21418   2.712   0.034   4.740
 6840SOL    HW121419   2.754   0.116   4.701
 6840SOL    HW221420   2.659   0.059   4.821
 6841SOL     OW21421   4.223   5.943   1.468
 6841SOL    HW121422   4.187   5.854   1.440
 6841SOL    HW221423   4.320   5.949   1.444
 6842SOL     OW21424   0.365   4.186   6.728
 6842SOL    HW121425   0.326   4.182   6.636
 6842SOL    HW221426   0.446   4.244   6.726
 6843SOL     OW21427   3.503   1.778   1.914
 6843SOL    HW121428   3.496   1.811   1.820
 6843SOL    HW221429   3.521   1.855   1.975
 6844SOL     OW21430   4.907   5.138   4.112
 6844SOL    HW121431   4.997   5.142   4.069
 6844SOL    HW221432   4.843   5.195   4.060
 6845SOL     OW21433   4.586   4.806   2.030
 6845SOL    HW121434   4.632   4.729   2.075
 6845SOL    HW221435   4.619   4.892   2.068
 6846SOL     OW21436   3.711   2.942   2.460
 6846SOL    HW121437   3.626   2.994   2.447
 6846SOL    HW221438   3.730   2.889   2.378
 6847SOL     OW21439   5.486   3.597   2.025
 6847SOL    HW121440   5.479   3.666   1.954
 6847SOL    HW221441   5.394   3.564   2.048
 6848SOL     OW21442   0.761   5.786   3.897
 6848SOL    HW121443   0.789   5.881   3.886
 6848SOL    HW221444   0.807   5.747   3.978
 6849SOL     OW21445   3.830   5.981   3.938
 6849SOL    HW121446   3.891   5.903   3.954
 6849SOL    HW221447   3.800   5.981   3.843
 6850SOL     OW21448   5.488   2.824   2.861
 6850SOL    HW121449   5.407   2.829   2.803
 6850SOL    HW221450   5.570   2.814   2.804
 6851SOL     OW21451   1.687   4.832   5.900
 6851SOL    HW121452   1.588   4.827   5.917
 6851SOL    HW221453   1.722   4.739   5.885
 6852SOL     OW21454   1.333   4.286   1.751
 6852SOL    HW121455   1.350   4.379   1.718
 6852SOL    HW221456   1.241   4.281   1.791
 6853SOL     OW21457   0.555   4.473   5.665
 6853SOL    HW121458   0.497   4.416   5.607
 6853SOL    HW221459   0.593   4.548   5.610
 6854SOL     OW21460   7.003   2.380   6.179
 6854SOL    HW121461   6.923   2.344   6.131
 6854SOL    HW221462   6.978   2.402   6.273
 6855SOL     OW21463   3.177   6.768   2.343
 6855SOL    HW121464   3.233   6.841   2.307
 6855SOL    HW221465   3.080   6.793   2.336
 6856SOL     OW21466   6.374   3.697   4.856
 6856SOL    HW121467   6.411   3.746   4.777
 6856SOL    HW221468   6.312   3.625   4.824
 6857SOL     OW21469   2.489   2.516   6.115
 6857SOL    HW121470   2.453   2.603   6.150
 6857SOL    HW221471   2.425   2.478   6.049
 6858SOL     OW21472   3.911   3.471   4.628
 6858SOL    HW121473   3.897   3.394   4.690
 6858SOL    HW221474   3.986   3.450   4.565
 6859SOL     OW21475   2.994   6.745   0.880
 6859SOL    HW121476   3.073   6.780   0.931
 6859SOL    HW221477   2.981   6.799   0.797
 6860SOL     OW21478   5.882   4.645   0.968
 6860SOL    HW121479   5.861   4.724   1.026
 6860SOL    HW221480   5.968   4.661   0.920
 6861SOL     OW21481   5.650   5.708   6.968
 6861SOL    HW121482   5.598   5.623   6.967
 6861SOL    HW221483   5.746   5.688   6.988
 6862SOL     OW21484   3.362   5.511   4.698
 6862SOL    HW121485   3.280   5.464   4.729
 6862SOL    HW221486   3.352   5.539   4.603
 6863SOL     OW21487   5.531   1.651   3.821
 6863SOL    HW121488   5.577   1.567   3.849
 6863SOL    HW221489   5.600   1.721   3.798
 6864SOL     OW21490   2.704   6.048   3.515
 6864SOL    HW121491   2.798   6.064   3.485
 6864SOL    HW221492   2.698   6.058   3.614
 6865SOL     OW21493   6.909   4.544   4.632
 6865SOL    HW121494   6.856   4.531   4.549
 6865SOL    HW221495   6.918   4.457   4.681
 6866SOL     OW21496   6.658   3.589   2.112
 6866SOL    HW121497   6.700   3.499   2.124
 6866SOL    HW221498   6.580   3.581   2.051
 6867SOL     OW21499   2.183   4.202   2.315
 6867SOL    HW121500   2.098   4.210   2.263
 6867SOL    HW221501   2.252   4.157   2.258
 6868SOL     OW21502   2.154   6.069   4.728
 6868SOL    HW121503   2.092   6.148   4.728
 6868SOL    HW221504   2.114   5.996   4.783
 6869SOL     OW21505   5.038   2.014   5.914
 6869SOL    HW121506   4.995   2.040   6.001
 6869SOL    HW221507   5.031   1.915   5.902
 6870SOL     OW21508   5.560   3.738   3.083
 6870SOL    HW121509   5.653   3.721   3.051
 6870SOL    HW221510   5.495   3.704   3.016
 6871SOL     OW21511   5.746   5.070   1.378
 6871SOL    HW121512   5.829   5.093   1.328
 6871SOL    HW221513   5.770   5.033   1.468
 6872SOL     OW21514   2.153   3.154   0.638
 6872SOL    HW121515   2.063   3.115   0.620
 6872SOL    HW221516   2.147   3.254   0.632
 6873SOL     OW21517   6.055   3.144   5.950
 6873SOL    HW121518   6.036   3.079   6.023
 6873SOL    HW221519   6.153   3.146   5.931
 6874SOL     OW21520   0.630   2.805   3.931
 6874SOL    HW121521   0.721   2.763   3.925
 6874SOL    HW221522   0.565   2.752   3.876
 6875SOL     OW21523   1.544   1.328   2.732
 6875SOL    HW121524   1.559   1.230   2.719
 6875SOL    HW221525   1.446   1.347   2.730
 6876SOL     OW21526   3.695   5.647   0.232
 6876SOL    HW121527   3.640   5.564   0.226
 6876SOL    HW221528   3.780   5.628   0.280
 6877SOL     OW21529   2.375   3.629   0.147
 6877SOL    HW121530   2.276   3.625   0.143
 6877SOL    HW221531   2.405   3.633   0.242
 6878SOL     OW21532   2.197   1.553   4.679
 6878SOL    HW121533   2.266   1.513   4.740
 6878SOL    HW221534   2.107   1.543   4.719
 6879SOL     OW21535   0.369   2.143   0.049
 6879SOL    HW121536   0.380   2.240   0.074
 6879SOL    HW221537   0.300   2.135   6.996
 6880SOL     OW21538   2.043   3.927   5.095
 6880SOL    HW121539   2.064   3.902   5.190
 6880SOL    HW221540   2.127   3.956   5.049
 6881SOL     OW21541   0.520   4.415   1.442
 6881SOL    HW121542   0.576   4.497   1.444
 6881SOL    HW221543   0.553   4.354   1.370
 6882SOL     OW21544   2.162   1.130   5.591
 6882SOL    HW121545   2.069   1.166   5.579
 6882SOL    HW221546   2.227   1.191   5.545
 6883SOL     OW21547   4.178   0.424   1.421
 6883SOL    HW121548   4.106   0.412   1.352
 6883SOL    HW221549   4.204   0.521   1.425
 6884SOL     OW21550   2.410   4.592   4.812
 6884SOL    HW121551   2.493   4.640   4.783
 6884SOL    HW221552   2.420   4.565   4.908
 6885SOL     OW21553   3.244   6.166   4.109
 6885SOL    HW121554   3.314   6.229   4.141
 6885SOL    HW221555   3.259   6.146   4.012
 6886SOL     OW21556   5.458   1.126   2.481
 6886SOL    HW121557   5.369   1.113   2.524
 6886SOL    HW221558   5.510   1.042   2.485
 6887SOL     OW21559   5.764   0.644   5.176
 6887SOL    HW121560   5.693   0.714   5.168
 6887SOL    HW221561   5.851   0.681   5.143
 6888SOL     OW21562   6.364   0.351   4.812
 6888SOL    HW121563   6.423   0.396   4.879
 6888SOL    HW221564   6.412   0.273   4.772
 6889SOL     OW21565   1.300   3.605   6.429
 6889SOL    HW121566   1.309   3.656   6.515
 6889SOL    HW221567   1.307   3.669   6.352
 6890SOL     OW21568   2.253   6.823   1.179
 6890SOL    HW121569   2.338   6.876   1.169
 6890SOL    HW221570   2.275   6.732   1.214
 6891SOL     OW21571   2.087   3.650   3.979
 6891SOL    HW121572   1.989   3.663   3.998
 6891SOL    HW221573   2.130   3.738   3.963
 6892SOL     OW21574   3.649   0.181   4.074
 6892SOL    HW121575   3.658   0.225   3.985
 6892SOL    HW221576   3.561   0.206   4.115
 6893SOL     OW21577   5.310   5.855   3.640
 6893SOL    HW121578   5.221   5.811   3.630
 6893SOL    HW221579   5.309   5.916   3.719
 6894SOL     OW21580   5.941   5.669   0.504
 6894SOL    HW121581   5.930   5.675   0.405
 6894SOL    HW221582   5.977   5.755   0.539
 6895SOL     OW21583   2.891   3.518   0.079
 6895SOL    HW121584   2.854   3.461   0.006
 6895SOL    HW221585   2.979   3.480   0.110
 6896SOL     OW21586   3.883   0.550   3.426
 6896SOL    HW121587   3.978   0.577   3.443
 6896SOL    HW221588   3.862   0.564   3.330
 6897SOL     OW21589   3.171   3.533   0.153
 6897SOL    HW121590   3.160   3.467   0.228
 6897SOL    HW221591   3.243   3.501   0.091
 6898SOL     OW21592   3.814   1.376   1.542
 6898SOL    HW121593   3.828   1.450   1.476
 6898SOL    HW221594   3.886   1.307   1.531
 6899SOL     OW21595   5.122   6.704   6.145
 6899SOL    HW121596   5.183   6.757   6.204
 6899SOL    HW221597   5.067   6.767   6.090
 6900SOL     OW21598   5.738   0.716   6.203
 6900SOL    HW121599   5.802   0.729   6.127
 6900SOL    HW221600   5.785   0.732   6.289
 6901SOL     OW21601   1.697   0.485   6.378
 6901SOL    HW121602   1.743   0.493   6.466
 6901SOL    HW221603   1.632   0.409   6.382
 6902SOL     OW21604   0.959   6.455   6.948
 6902SOL    HW121605   0.909   6.532   6.987
 6902SOL    HW221606   1.056   6.461   6.973
 6903SOL     OW21607   3.847   4.435   0.520
 6903SOL    HW121608   3.780   4.377   0.565
 6903SOL    HW221609   3.827   4.439   0.422
 6904SOL     OW21610   6.034   0.682   4.212
 6904SOL    HW121611   5.958   0.724   4.163
 6904SOL    HW221612   6.118   0.692   4.159
 6905SOL     OW21613   6.193   6.559   1.169
 6905SOL    HW121614   6.282   6.606   1.172
 6905SOL    HW221615   6.124   6.622   1.133
 6906SOL     OW21616   3.694   0.539   3.627
 6906SOL    HW121617   3.674   0.612   3.692
 6906SOL    HW221618   3.781   0.558   3.582
 6907SOL     OW21619   3.540   1.054   1.628
 6907SOL    HW121620   3.619   1.023   1.682
 6907SOL    HW221621   3.467   0.986   1.634
 6908SOL     OW21622   1.529   6.314   5.407
 6908SOL    HW121623   1.485   6.403   5.417
 6908SOL    HW221624   1.472   6.243   5.448
 6909SOL     OW21625   4.991   4.526   0.434
 6909SOL    HW121626   4.950   4.575   0.511
 6909SOL    HW221627   5.075   4.480   0.465
 6910SOL     OW21628   6.433   1.795   1.878
 6910SOL    HW121629   6.519   1.832   1.844
 6910SOL    HW221630   6.382   1.755   1.803
 6911SOL     OW21631   4.406   0.012   4.094
 6911SOL    HW121632   4.416   0.102   4.135
 6911SOL    HW221633   4.494   7.001   4.056
 6912SOL     OW21634   5.030   4.863   0.864
 6912SOL    HW121635   5.045   4.834   0.769
 6912SOL    HW221636   4.954   4.927   0.868
 6913SOL     OW21637   5.091   4.799   4.622
 6913SOL    HW121638   5.105   4.848   4.707
 6913SOL    HW221639   4.996   4.811   4.591
 6914SOL     OW21640   5.785   5.276   6.974
 6914SOL    HW121641   5.726   5.349   6.940
 6914SOL    HW221642   5.851   5.251   6.902
 6915SOL     OW21643   0.577   4.737   2.604
 6915SOL    HW121644   0.513   4.690   2.665
 6915SOL    HW221645   0.567   4.836   2.615
 6916SOL     OW21646   6.594   3.997   6.751
 6916SOL    HW121647   6.688   3.976   6.777
 6916SOL    HW221648   6.532   3.972   6.826
 6917SOL     OW21649   4.248   6.455   5.990
 6917SOL    HW121650   4.296   6.378   5.948
 6917SOL    HW221651   4.311   6.532   6.001
 6918SOL     OW21652   0.223   3.905   4.055
 6918SOL    HW121653   0.140   3.939   4.101
 6918SOL    HW221654   0.260   3.978   3.997
 6919SOL     OW21655   2.072   6.370   2.431
 6919SOL    HW121656   2.104   6.392   2.523
 6919SOL    HW221657   2.125   6.421   2.364
 6920SOL     OW21658   5.282   5.331   4.145
 6920SOL    HW121659   5.308   5.243   4.104
 6920SOL    HW221660   5.249   5.316   4.238
 6921SOL     OW21661   6.380   6.728   3.779
 6921SOL    HW121662   6.472   6.729   3.819
 6921SOL    HW221663   6.378   6.789   3.700
 6922SOL     OW21664   2.495   6.343   0.358
 6922SOL    HW121665   2.515   6.353   0.455
 6922SOL    HW221666   2.580   6.323   0.308
 6923SOL     OW21667   4.393   0.127   3.731
 6923SOL    HW121668   4.490   0.149   3.744
 6923SOL    HW221669   4.337   0.187   3.789
 6924SOL     OW21670   0.816   4.957   0.473
 6924SOL    HW121671   0.763   4.947   0.557
 6924SOL    HW221672   0.757   4.992   0.400
 6925SOL     OW21673   4.198   6.287   3.347
 6925SOL    HW121674   4.120   6.224   3.352
 6925SOL    HW221675   4.207   6.322   3.254
 6926SOL     OW21676   3.879   3.892   3.693
 6926SOL    HW121677   3.802   3.829   3.691
 6926SOL    HW221678   3.916   3.903   3.601
 6927SOL     OW21679   5.299   3.569   6.875
 6927SOL    HW121680   5.241   3.618   6.941
 6927SOL    HW221681   5.274   3.473   6.874
 6928SOL     OW21682   4.823   0.632   6.489
 6928SOL    HW121683   4.849   0.679   6.404
 6928SOL    HW221684   4.895   0.643   6.557
 6929SOL     OW21685   4.164   6.249   6.856
 6929SOL    HW121686   4.135   6.229   6.763
 6929SOL    HW221687   4.155   6.347   6.874
 6930SOL     OW21688   0.926   6.628   1.982
 6930SOL    HW121689   0.859   6.554   1.973
 6930SOL    HW221690   0.882   6.716   1.964
 6931SOL     OW21691   0.932   6.896   1.639
 6931SOL    HW121692   0.905   6.805   1.609
 6931SOL    HW221693   0.921   6.961   1.564
 6932SOL     OW21694   2.562   0.845   0.112
 6932SOL    HW121695   2.567   0.759   0.061
 6932SOL    HW221696   2.592   0.920   0.053
 6933SOL     OW21697   3.734   5.647   5.277
 6933SOL    HW121698   3.739   5.639   5.376
 6933SOL    HW221699   3.639   5.659   5.249
 6934SOL     OW21700   4.989   2.735   0.126
 6934SOL    HW121701   4.929   2.738   0.206
 6934SOL    HW221702   4.944   2.779   0.049
 6935SOL     OW21703   4.031   6.082   3.626
 6935SOL    HW121704   3.983   6.169   3.641
 6935SOL    HW221705   4.116   6.081   3.678
 6936SOL     OW21706   0.505   2.621   1.555
 6936SOL    HW121707   0.561   2.650   1.478
 6936SOL    HW221708   0.563   2.579   1.625
 6937SOL     OW21709   4.385   6.582   5.552
 6937SOL    HW121710   4.401   6.586   5.453
 6937SOL    HW221711   4.370   6.675   5.587
 6938SOL     OW21712   5.031   3.518   5.603
 6938SOL    HW121713   5.041   3.482   5.696
 6938SOL    HW221714   5.117   3.504   5.553
 6939SOL     OW21715   0.117   4.489   2.050
 6939SOL    HW121716   0.201   4.496   2.103
 6939SOL    HW221717   0.098   4.577   2.007
 6940SOL     OW21718   4.864   0.498   6.070
 6940SOL    HW121719   4.809   0.430   6.118
 6940SOL    HW221720   4.821   0.588   6.079
 6941SOL     OW21721   3.198   3.036   2.502
 6941SOL    HW121722   3.221   3.087   2.419
 6941SOL    HW221723   3.240   2.945   2.498
 6942SOL     OW21724   6.931   2.831   0.553
 6942SOL    HW121725   7.013   2.781   0.524
 6942SOL    HW221726   6.958   2.914   0.601
 6943SOL     OW21727   5.483   6.320   6.290
 6943SOL    HW121728   5.578   6.302   6.316
 6943SOL    HW221729   5.423   6.262   6.345
 6944SOL     OW21730   0.956   5.485   5.788
 6944SOL    HW121731   0.927   5.503   5.694
 6944SOL    HW221732   1.036   5.541   5.810
 6945SOL     OW21733   6.376   3.094   6.141
 6945SOL    HW121734   6.300   3.116   6.201
 6945SOL    HW221735   6.394   2.996   6.144
 6946SOL     OW21736   5.734   4.578   2.900
 6946SOL    HW121737   5.669   4.636   2.949
 6946SOL    HW221738   5.741   4.489   2.946
 6947SOL     OW21739   3.726   7.015   2.860
 6947SOL    HW121740   3.644   6.964   2.834
 6947SOL    HW221741   3.807   6.963   2.835
 6948SOL     OW21742   4.787   0.284   0.465
 6948SOL    HW121743   4.862   0.265   0.402
 6948SOL    HW221744   4.781   0.210   0.533
 6949SOL     OW21745   4.964   6.765   3.083
 6949SOL    HW121746   5.036   6.697   3.091
 6949SOL    HW221747   5.003   6.853   3.055
 6950SOL     OW21748   2.006   0.604   3.314
 6950SOL    HW121749   2.049   0.685   3.274
 6950SOL    HW221750   2.006   0.530   3.247
 6951SOL     OW21751   6.478   6.402   5.850
 6951SOL    HW121752   6.535   6.397   5.767
 6951SOL    HW221753   6.423   6.319   5.856
 6952SOL     OW21754   0.124   5.458   3.730
 6952SOL    HW121755   0.188   5.433   3.657
 6952SOL    HW221756   0.035   5.481   3.690
 6953SOL     OW21757   4.953   0.862   6.165
 6953SOL    HW121758   4.958   0.872   6.065
 6953SOL    HW221759   5.015   0.928   6.208
 6954SOL     OW21760   0.261   3.078   4.321
 6954SOL    HW121761   0.293   2.996   4.273
 6954SOL    HW221762   0.172   3.105   4.284
 6955SOL     OW21763   0.390   6.303   1.405
 6955SOL    HW121764   0.479   6.272   1.370
 6955SOL    HW221765   0.388   6.292   1.505
 6956SOL     OW21766   4.849   5.578   1.901
 6956SOL    HW121767   4.936   5.553   1.945
 6956SOL    HW221768   4.783   5.504   1.917
 6957SOL     OW21769   6.573   4.521   1.671
 6957SOL    HW121770   6.563   4.435   1.620
 6957SOL    HW221771   6.670   4.537   1.689
 6958SOL     OW21772   2.175   2.408   6.359
 6958SOL    HW121773   2.094   2.373   6.311
 6958SOL    HW221774   2.252   2.345   6.344
 6959SOL     OW21775   3.157   1.509   4.785
 6959SOL    HW121776   3.100   1.479   4.861
 6959SOL    HW221777   3.137   1.605   4.765
 6960SOL     OW21778   0.209   4.936   0.237
 6960SOL    HW121779   0.268   4.858   0.217
 6960SOL    HW221780   0.159   4.962   0.154
 6961SOL     OW21781   0.913   1.771   3.503
 6961SOL    HW121782   0.978   1.750   3.577
 6961SOL    HW221783   0.954   1.748   3.415
 6962SOL     OW21784   5.184   5.480   2.709
 6962SOL    HW121785   5.185   5.580   2.703
 6962SOL    HW221786   5.144   5.442   2.626
 6963SOL     OW21787   0.442   5.122   1.561
 6963SOL    HW121788   0.386   5.042   1.538
 6963SOL    HW221789   0.500   5.145   1.483
 6964SOL     OW21790   4.824   5.306   5.362
 6964SOL    HW121791   4.835   5.402   5.336
 6964SOL    HW221792   4.738   5.271   5.325
 6965SOL     OW21793   6.480   3.578   6.276
 6965SOL    HW121794   6.449   3.574   6.371
 6965SOL    HW221795   6.502   3.486   6.244
 6966SOL     OW21796   5.255   2.763   2.735
 6966SOL    HW121797   5.201   2.839   2.696
 6966SOL    HW221798   5.193   2.692   2.766
 6967SOL     OW21799   1.023   2.244   6.234
 6967SOL    HW121800   0.998   2.285   6.322
 6967SOL    HW221801   1.004   2.146   6.236
 6968SOL     OW21802   4.519   5.723   1.003
 6968SOL    HW121803   4.575   5.790   0.954
 6968SOL    HW221804   4.578   5.660   1.054
 6969SOL     OW21805   3.447   1.148   1.366
 6969SOL    HW121806   3.528   1.169   1.311
 6969SOL    HW221807   3.465   1.065   1.420
 6970SOL     OW21808   4.005   4.674   0.444
 6970SOL    HW121809   3.962   4.604   0.501
 6970SOL    HW221810   3.935   4.734   0.405
 6971SOL     OW21811   6.219   2.760   1.753
 6971SOL    HW121812   6.240   2.733   1.659
 6971SOL    HW221813   6.287   2.720   1.815
 6972SOL     OW21814   5.486   4.334   3.509
 6972SOL    HW121815   5.429   4.376   3.580
 6972SOL    HW221816   5.581   4.331   3.540
 6973SOL     OW21817   1.688   5.003   4.733
 6973SOL    HW121818   1.752   5.079   4.747
 6973SOL    HW221819   1.620   5.030   4.665
 6974SOL     OW21820   3.939   3.924   3.418
 6974SOL    HW121821   4.011   3.932   3.349
 6974SOL    HW221822   3.850   3.940   3.375
 6975SOL     OW21823   3.563   0.437   5.799
 6975SOL    HW121824   3.506   0.471   5.724
 6975SOL    HW221825   3.540   0.342   5.818
 6976SOL     OW21826   3.092   4.787   6.495
 6976SOL    HW121827   3.187   4.773   6.467
 6976SOL    HW221828   3.031   4.745   6.428
 6977SOL     OW21829   3.891   1.683   2.125
 6977SOL    HW121830   3.882   1.720   2.217
 6977SOL    HW221831   3.841   1.597   2.119
 6978SOL     OW21832   6.897   0.836   1.909
 6978SOL    HW121833   6.968   0.891   1.866
 6978SOL    HW221834   6.938   0.751   1.943
 6979SOL     OW21835   1.211   4.977   2.356
 6979SOL    HW121836   1.171   4.887   2.339
 6979SOL    HW221837   1.260   5.008   2.275
 6980SOL     OW21838   2.369   0.935   3.307
 6980SOL    HW121839   2.420   0.925   3.392
 6980SOL    HW221840   2.430   0.962   3.233
 6981SOL     OW21841   2.514   4.177   6.983
 6981SOL    HW121842   2.582   4.127   0.018
 6981SOL    HW221843   2.430   4.123   6.977
 6982SOL     OW21844   1.500   0.908   4.530
 6982SOL    HW121845   1.578   0.947   4.482
 6982SOL    HW221846   1.457   0.979   4.586
 6983SOL     OW21847   6.934   0.342   4.293
 6983SOL    HW121848   6.995   0.414   4.261
 6983SOL    HW221849   6.878   0.310   4.216
 6984SOL     OW21850   2.046   1.658   5.163
 6984SOL    HW121851   2.045   1.690   5.068
 6984SOL    HW221852   2.025   1.734   5.224
 6985SOL     OW21853   4.013   5.803   2.249
 6985SOL    HW121854   4.013   5.772   2.344
 6985SOL    HW221855   3.941   5.873   2.237
 6986SOL     OW21856   1.858   6.085   5.781
 6986SOL    HW121857   1.895   6.177   5.796
 6986SOL    HW221858   1.824   6.049   5.868
 6987SOL     OW21859   0.332   2.682   6.344
 6987SOL    HW121860   0.295   2.590   6.356
 6987SOL    HW221861   0.402   2.680   6.273
 6988SOL     OW21862   5.043   1.487   4.560
 6988SOL    HW121863   5.036   1.438   4.647
 6988SOL    HW221864   5.118   1.449   4.506
 6989SOL     OW21865   0.870   1.351   3.354
 6989SOL    HW121866   0.861   1.262   3.310
 6989SOL    HW221867   0.885   1.421   3.284
 6990SOL     OW21868   4.814   2.448   0.372
 6990SOL    HW121869   4.794   2.414   0.464
 6990SOL    HW221870   4.875   2.383   0.325
 6991SOL     OW21871   2.533   4.543   5.072
 6991SOL    HW121872   2.626   4.579   5.064
 6991SOL    HW221873   2.534   4.461   5.128
 6992SOL     OW21874   6.220   6.561   4.783
 6992SOL    HW121875   6.266   6.482   4.744
 6992SOL    HW221876   6.257   6.580   4.873
 6993SOL     OW21877   6.321   0.158   3.327
 6993SOL    HW121878   6.386   0.227   3.357
 6993SOL    HW221879   6.344   0.127   3.235
 6994SOL     OW21880   1.136   3.344   5.711
 6994SOL    HW121881   1.157   3.431   5.667
 6994SOL    HW221882   1.179   3.341   5.802
 6995SOL     OW21883   5.768   5.468   4.651
 6995SOL    HW121884   5.759   5.386   4.707
 6995SOL    HW221885   5.687   5.477   4.591
 6996SOL     OW21886   2.638   0.893   5.146
 6996SOL    HW121887   2.595   0.969   5.097
 6996SOL    HW221888   2.677   0.926   5.231
 6997SOL     OW21889   4.643   6.077   4.786
 6997SOL    HW121890   4.704   6.019   4.840
 6997SOL    HW221891   4.557   6.092   4.836
 6998SOL     OW21892   1.574   2.876   1.675
 6998SOL    HW121893   1.625   2.798   1.638
 6998SOL    HW221894   1.597   2.888   1.772
 6999SOL     OW21895   2.062   1.856   5.968
 6999SOL    HW121896   2.114   1.805   5.899
 6999SOL    HW221897   2.035   1.944   5.930
 7000SOL     OW21898   0.759   5.832   2.788
 7000SOL    HW121899   0.686   5.898   2.808
 7000SOL    HW221900   0.741   5.746   2.836
 7001SOL     OW21901   2.499   2.484   5.675
 7001SOL    HW121902   2.438   2.482   5.597
 7001SOL    HW221903   2.500   2.394   5.720
 7002SOL     OW21904   2.679   5.130   3.724
 7002SOL    HW121905   2.685   5.061   3.796
 7002SOL    HW221906   2.670   5.221   3.765
 7003SOL     OW21907   2.816   0.079   6.921
 7003SOL    HW121908   2.841   0.051   6.828
 7003SOL    HW221909   2.717   0.094   6.925
 7004SOL     OW21910   1.934   4.064   1.746
 7004SOL    HW121911   1.964   4.145   1.694
 7004SOL    HW221912   1.834   4.059   1.745
 7005SOL     OW21913   6.409   6.146   6.013
 7005SOL    HW121914   6.505   6.140   5.985
 7005SOL    HW221915   6.392   6.079   6.086
 7006SOL     OW21916   4.799   4.196   4.818
 7006SOL    HW121917   4.834   4.290   4.819
 7006SOL    HW221918   4.792   4.162   4.912
 7007SOL     OW21919   4.787   6.617   2.909
 7007SOL    HW121920   4.828   6.689   2.965
 7007SOL    HW221921   4.696   6.645   2.879
 7008SOL     OW21922   2.244   5.160   4.754
 7008SOL    HW121923   2.199   5.071   4.740
 7008SOL    HW221924   2.186   5.218   4.811
 7009SOL     OW21925   6.439   5.715   2.477
 7009SOL    HW121926   6.387   5.797   2.501
 7009SOL    HW221927   6.524   5.713   2.530
 7010SOL     OW21928   3.216   4.685   6.168
 7010SOL    HW121929   3.271   4.711   6.247
 7010SOL    HW221930   3.147   4.619   6.195
 7011SOL     OW21931   1.913   6.684   5.163
 7011SOL    HW121932   1.938   6.721   5.253
 7011SOL    HW221933   1.814   6.669   5.159
 7012SOL     OW21934   0.926   6.812   2.215
 7012SOL    HW121935   0.867   6.780   2.289
 7012SOL    HW221936   0.945   6.736   2.152
 7013SOL     OW21937   1.009   6.785   1.222
 7013SOL    HW121938   1.105   6.796   1.249
 7013SOL    HW221939   0.957   6.748   1.299
 7014SOL     OW21940   3.666   4.157   0.976
 7014SOL    HW121941   3.619   4.101   1.044
 7014SOL    HW221942   3.628   4.249   0.975
 7015SOL     OW21943   5.412   3.263   2.656
 7015SOL    HW121944   5.454   3.339   2.606
 7015SOL    HW221945   5.482   3.213   2.707
 7016SOL     OW21946   4.659   5.408   2.003
 7016SOL    HW121947   4.600   5.351   1.945
 7016SOL    HW221948   4.602   5.471   2.056
 7017SOL     OW21949   2.725   1.491   3.293
 7017SOL    HW121950   2.746   1.507   3.390
 7017SOL    HW221951   2.792   1.427   3.254
 7018SOL     OW21952   0.085   4.463   4.925
 7018SOL    HW121953   0.018   4.391   4.904
 7018SOL    HW221954   0.153   4.469   4.852
 7019SOL     OW21955   1.990   4.475   6.849
 7019SOL    HW121956   2.078   4.441   6.883
 7019SOL    HW221957   1.937   4.512   6.925
 7020SOL     OW21958   5.979   0.150   0.354
 7020SOL    HW121959   5.933   0.232   0.390
 7020SOL    HW221960   6.016   0.170   0.263
 7021SOL     OW21961   2.729   1.269   4.522
 7021SOL    HW121962   2.808   1.260   4.582
 7021SOL    HW221963   2.664   1.334   4.561
 7022SOL     OW21964   5.264   3.473   0.831
 7022SOL    HW121965   5.191   3.529   0.792
 7022SOL    HW221966   5.224   3.397   0.883
 7023SOL     OW21967   6.228   2.502   2.593
 7023SOL    HW121968   6.241   2.601   2.594
 7023SOL    HW221969   6.145   2.478   2.643
 7024SOL     OW21970   1.794   5.668   6.604
 7024SOL    HW121971   1.875   5.689   6.549
 7024SOL    HW221972   1.726   5.624   6.546
 7025SOL     OW21973   2.962   1.918   6.358
 7025SOL    HW121974   3.049   1.877   6.329
 7025SOL    HW221975   2.898   1.846   6.383
 7026SOL     OW21976   3.214   1.176   2.219
 7026SOL    HW121977   3.168   1.088   2.207
 7026SOL    HW221978   3.195   1.211   2.311
 7027SOL     OW21979   4.035   5.467   3.445
 7027SOL    HW121980   3.947   5.493   3.407
 7027SOL    HW221981   4.095   5.548   3.448
 7028SOL     OW21982   4.663   6.514   3.444
 7028SOL    HW121983   4.637   6.547   3.535
 7028SOL    HW221984   4.728   6.577   3.402
 7029SOL     OW21985   3.438   6.423   6.353
 7029SOL    HW121986   3.515   6.476   6.318
 7029SOL    HW221987   3.408   6.358   6.284
 7030SOL     OW21988   0.101   4.032   5.583
 7030SOL    HW121989   0.094   4.052   5.681
 7030SOL    HW221990   0.143   4.109   5.536
 7031SOL     OW21991   2.363   6.129   3.950
 7031SOL    HW121992   2.352   6.054   4.016
 7031SOL    HW221993   2.282   6.187   3.952
 7032SOL     OW21994   4.541   0.086   2.990
 7032SOL    HW121995   4.484   0.078   2.908
 7032SOL    HW221996   4.506   0.025   3.060
 7033SOL     OW21997   6.889   1.124   4.280
 7033SOL    HW121998   6.795   1.158   4.289
 7033SOL    HW221999   6.953   1.197   4.303
 7034SOL     OW22000   5.077   0.345   2.658
 7034SOL    HW122001   5.165   0.391   2.669
 7034SOL    HW222002   5.016   0.371   2.733
 7035SOL     OW22003   1.124   6.442   2.766
 7035SOL    HW122004   1.156   6.409   2.677
 7035SOL    HW222005   1.069   6.524   2.753
 7036SOL     OW22006   6.484   5.484   1.616
 7036SOL    HW122007   6.545   5.412   1.650
 7036SOL    HW222008   6.444   5.534   1.693
 7037SOL     OW22009   0.508   6.659   5.741
 7037SOL    HW122010   0.460   6.598   5.804
 7037SOL    HW222011   0.605   6.636   5.740
 7038SOL     OW22012   1.175   4.425   3.824
 7038SOL    HW122013   1.132   4.416   3.734
 7038SOL    HW222014   1.118   4.383   3.894
 7039SOL     OW22015   3.688   0.096   6.872
 7039SOL    HW122016   3.733   0.182   6.897
 7039SOL    HW222017   3.675   0.093   6.773
 7040SOL     OW22018   4.712   2.763   6.150
 7040SOL    HW122019   4.644   2.693   6.169
 7040SOL    HW222020   4.689   2.847   6.199
 7041SOL     OW22021   1.292   0.887   3.091
 7041SOL    HW122022   1.323   0.962   3.033
 7041SOL    HW222023   1.192   0.888   3.096
 7042SOL     OW22024   5.058   5.142   6.250
 7042SOL    HW122025   5.051   5.239   6.272
 7042SOL    HW222026   4.982   5.092   6.292
 7043SOL     OW22027   1.830   3.125   3.420
 7043SOL    HW122028   1.896   3.197   3.399
 7043SOL    HW222029   1.743   3.145   3.375
 7044SOL     OW22030   4.603   4.933   2.905
 7044SOL    HW122031   4.624   4.995   2.981
 7044SOL    HW222032   4.505   4.916   2.901
 7045SOL     OW22033   4.863   6.849   1.014
 7045SOL    HW122034   4.871   6.937   0.968
 7045SOL    HW222035   4.812   6.785   0.956
 7046SOL     OW22036   3.660   0.984   4.437
 7046SOL    HW122037   3.626   0.930   4.359
 7046SOL    HW222038   3.711   1.063   4.403
 7047SOL     OW22039   0.546   1.918   3.357
 7047SOL    HW122040   0.458   1.888   3.395
 7047SOL    HW222041   0.553   1.889   3.262
 7048SOL     OW22042   1.296   5.818   0.935
 7048SOL    HW122043   1.252   5.841   1.022
 7048SOL    HW222044   1.391   5.791   0.953
 7049SOL     OW22045   2.025   0.611   0.931
 7049SOL    HW122046   2.069   0.694   0.965
 7049SOL    HW222047   2.040   0.603   0.832
 7050SOL     OW22048   3.791   4.138   4.282
 7050SOL    HW122049   3.853   4.140   4.361
 7050SOL    HW222050   3.834   4.088   4.208
 7051SOL     OW22051   6.978   0.701   1.355
 7051SOL    HW122052   0.023   0.705   1.432
 7051SOL    HW222053   6.885   0.716   1.388
 7052SOL     OW22054   6.478   1.947   4.549
 7052SOL    HW122055   6.542   1.875   4.523
 7052SOL    HW222056   6.523   2.010   4.612
 7053SOL     OW22057   0.221   3.905   6.583
 7053SOL    HW122058   0.220   3.967   6.504
 7053SOL    HW222059   0.162   3.942   6.655
 7054SOL     OW22060   0.085   6.209   1.099
 7054SOL    HW122061   0.102   6.308   1.096
 7054SOL    HW222062   0.101   6.176   1.192
 7055SOL     OW22063   4.383   0.162   5.897
 7055SOL    HW122064   4.296   0.199   5.932
 7055SOL    HW222065   4.382   0.164   5.797
 7056SOL     OW22066   5.486   4.671   3.596
 7056SOL    HW122067   5.582   4.648   3.580
 7056SOL    HW222068   5.455   4.631   3.682
 7057SOL     OW22069   0.334   3.844   4.615
 7057SOL    HW122070   0.367   3.866   4.524
 7057SOL    HW222071   0.411   3.840   4.679
 7058SOL     OW22072   0.213   5.706   5.072
 7058SOL    HW122073   0.221   5.607   5.081
 7058SOL    HW222074   0.261   5.736   4.989
 7059SOL     OW22075   0.252   6.731   1.904
 7059SOL    HW122076   0.201   6.714   1.988
 7059SOL    HW222077   0.221   6.668   1.833
 7060SOL     OW22078   3.150   0.422   1.610
 7060SOL    HW122079   3.057   0.399   1.638
 7060SOL    HW222080   3.175   0.367   1.530
 7061SOL     OW22081   0.280   1.925   3.184
 7061SOL    HW122082   0.269   1.889   3.277
 7061SOL    HW222083   0.196   1.971   3.156
 7062SOL     OW22084   5.798   2.135   5.730
 7062SOL    HW122085   5.831   2.163   5.640
 7062SOL    HW222086   5.758   2.044   5.724
 7063SOL     OW22087   1.583   6.201   0.930
 7063SOL    HW122088   1.673   6.239   0.909
 7063SOL    HW222089   1.578   6.106   0.899
 7064SOL     OW22090   4.308   2.158   1.557
 7064SOL    HW122091   4.245   2.149   1.480
 7064SOL    HW222092   4.335   2.254   1.567
 7065SOL     OW22093   4.793   4.056   1.401
 7065SOL    HW122094   4.767   4.046   1.497
 7065SOL    HW222095   4.874   4.114   1.394
 7066SOL     OW22096   3.590   1.038   0.541
 7066SOL    HW122097   3.506   0.992   0.512
 7066SOL    HW222098   3.614   1.109   0.475
 7067SOL     OW22099   0.959   3.777   5.225
 7067SOL    HW122100   1.053   3.760   5.195
 7067SOL    HW222101   0.914   3.838   5.160
 7068SOL     OW22102   1.360   3.053   3.538
 7068SOL    HW122103   1.429   2.983   3.551
 7068SOL    HW222104   1.269   3.011   3.534
 7069SOL     OW22105   6.208   3.816   5.036
 7069SOL    HW122106   6.266   3.767   4.971
 7069SOL    HW222107   6.225   3.914   5.028
 7070SOL     OW22108   6.362   5.267   5.284
 7070SOL    HW122109   6.293   5.292   5.216
 7070SOL    HW222110   6.453   5.268   5.242
 7071SOL     OW22111   1.076   6.185   5.290
 7071SOL    HW122112   1.110   6.162   5.381
 7071SOL    HW222113   0.977   6.170   5.286
 7072SOL     OW22114   6.865   6.595   5.983
 7072SOL    HW122115   6.872   6.643   5.896
 7072SOL    HW222116   6.837   6.660   6.055
 7073SOL     OW22117   6.612   1.081   5.074
 7073SOL    HW122118   6.576   1.174   5.073
 7073SOL    HW222119   6.569   1.028   5.000
 7074SOL     OW22120   3.186   3.004   1.992
 7074SOL    HW122121   3.225   2.924   1.946
 7074SOL    HW222122   3.217   3.006   2.087
 7075SOL     OW22123   1.874   6.159   4.431
 7075SOL    HW122124   1.827   6.231   4.380
 7075SOL    HW222125   1.841   6.069   4.401
 7076SOL     OW22126   3.437   1.703   6.897
 7076SOL    HW122127   3.491   1.633   6.946
 7076SOL    HW222128   3.420   1.780   6.959
 7077SOL     OW22129   2.264   5.237   5.706
 7077SOL    HW122130   2.174   5.202   5.730
 7077SOL    HW222131   2.254   5.318   5.647
 7078SOL     OW22132   6.198   6.935   2.814
 7078SOL    HW122133   6.208   7.019   2.868
 7078SOL    HW222134   6.289   6.894   2.800
 7079SOL     OW22135   6.606   5.975   5.823
 7079SOL    HW122136   6.669   5.957   5.748
 7079SOL    HW222137   6.511   5.966   5.791
 7080SOL     OW22138   4.094   2.144   3.755
 7080SOL    HW122139   4.133   2.152   3.847
 7080SOL    HW222140   3.997   2.166   3.758
 7081SOL     OW22141   3.385   1.344   5.367
 7081SOL    HW122142   3.389   1.442   5.388
 7081SOL    HW222143   3.462   1.297   5.409
 7082SOL     OW22144   5.400   0.206   0.271
 7082SOL    HW122145   5.387   0.277   0.340
 7082SOL    HW222146   5.467   0.237   0.203
 7083SOL     OW22147   2.876   0.975   6.402
 7083SOL    HW122148   2.866   1.038   6.480
 7083SOL    HW222149   2.844   0.884   6.428
 7084SOL     OW22150   0.228   6.550   5.519
 7084SOL    HW122151   0.299   6.608   5.480
 7084SOL    HW222152   0.181   6.600   5.592
 7085SOL     OW22153   2.132   1.858   2.887
 7085SOL    HW122154   2.200   1.790   2.912
 7085SOL    HW222155   2.132   1.872   2.788
 7086SOL     OW22156   5.642   1.053   6.254
 7086SOL    HW122157   5.646   1.075   6.156
 7086SOL    HW222158   5.732   1.065   6.295
 7087SOL     OW22159   0.844   2.880   4.648
 7087SOL    HW122160   0.869   2.970   4.612
 7087SOL    HW222161   0.817   2.820   4.572
 7088SOL     OW22162   4.534   2.590   4.188
 7088SOL    HW122163   4.529   2.525   4.113
 7088SOL    HW222164   4.448   2.639   4.196
 7089SOL     OW22165   3.289   2.761   6.231
 7089SOL    HW122166   3.225   2.789   6.161
 7089SOL    HW222167   3.252   2.682   6.281
 7090SOL     OW22168   2.132   1.321   5.809
 7090SOL    HW122169   2.124   1.238   5.755
 7090SOL    HW222170   2.069   1.390   5.775
 7091SOL     OW22171   0.239   1.137   6.527
 7091SOL    HW122172   0.301   1.064   6.500
 7091SOL    HW222173   0.151   1.125   6.482
 7092SOL     OW22174   4.175   3.618   0.234
 7092SOL    HW122175   4.075   3.617   0.236
 7092SOL    HW222176   4.208   3.544   0.176
 7093SOL     OW22177   3.244   4.097   4.217
 7093SOL    HW122178   3.326   4.151   4.199
 7093SOL    HW222179   3.198   4.075   4.130
 7094SOL     OW22180   0.655   6.930   5.657
 7094SOL    HW122181   0.660   7.015   5.710
 7094SOL    HW222182   0.575   6.878   5.688
 7095SOL     OW22183   2.226   2.837   0.164
 7095SOL    HW122184   2.326   2.841   0.171
 7095SOL    HW222185   2.200   2.827   0.067
 7096SOL     OW22186   5.495   2.365   3.523
 7096SOL    HW122187   5.454   2.290   3.471
 7096SOL    HW222188   5.572   2.331   3.576
 7097SOL     OW22189   6.991   0.595   1.924
 7097SOL    HW122190   0.058   0.562   1.965
 7097SOL    HW222191   6.985   0.561   1.830
 7098SOL     OW22192   1.776   5.997   4.840
 7098SOL    HW122193   1.830   6.066   4.792
 7098SOL    HW222194   1.755   6.030   4.933
 7099SOL     OW22195   1.479   1.002   5.118
 7099SOL    HW122196   1.545   1.003   5.193
 7099SOL    HW222197   1.387   0.985   5.155
 7100SOL     OW22198   4.995   3.786   0.957
 7100SOL    HW122199   4.939   3.857   0.999
 7100SOL    HW222200   4.975   3.698   1.001
 7101SOL     OW22201   2.804   0.509   4.676
 7101SOL    HW122202   2.839   0.538   4.765
 7101SOL    HW222203   2.712   0.546   4.662
 7102SOL     OW22204   4.372   0.851   0.889
 7102SOL    HW122205   4.302   0.783   0.911
 7102SOL    HW222206   4.337   0.943   0.908
 7103SOL     OW22207   3.866   5.686   6.776
 7103SOL    HW122208   3.865   5.600   6.724
 7103SOL    HW222209   3.897   5.668   6.869
 7104SOL     OW22210   1.464   3.678   3.633
 7104SOL    HW122211   1.426   3.597   3.587
 7104SOL    HW222212   1.518   3.648   3.712
 7105SOL     OW22213   3.839   2.933   4.852
 7105SOL    HW122214   3.904   2.866   4.889
 7105SOL    HW222215   3.762   2.943   4.916
 7106SOL     OW22216   3.814   2.995   3.579
 7106SOL    HW122217   3.730   2.944   3.561
 7106SOL    HW222218   3.851   3.029   3.493
 7107SOL     OW22219   2.567   0.997   0.600
 7107SOL    HW122220   2.553   0.951   0.513
 7107SOL    HW222221   2.490   1.058   0.618
 7108SOL     OW22222   4.379   6.462   1.150
 7108SOL    HW122223   4.382   6.398   1.073
 7108SOL    HW222224   4.327   6.543   1.125
 7109SOL     OW22225   3.593   0.002   6.108
 7109SOL    HW122226   3.634   6.933   6.135
 7109SOL    HW222227   3.665   0.062   6.073
 7110SOL     OW22228   5.472   5.223   3.792
 7110SOL    HW122229   5.437   5.202   3.700
 7110SOL    HW222230   5.529   5.305   3.787
 7111SOL     OW22231   0.953   3.091   4.516
 7111SOL    HW122232   1.035   3.061   4.565
 7111SOL    HW222233   0.970   3.089   4.418
 7112SOL     OW22234   1.883   5.382   4.430
 7112SOL    HW122235   1.793   5.411   4.398
 7112SOL    HW222236   1.948   5.384   4.354
 7113SOL     OW22237   3.530   4.185   4.265
 7113SOL    HW122238   3.497   4.178   4.359
 7113SOL    HW222239   3.628   4.169   4.263
 7114SOL     OW22240   4.122   0.131   1.539
 7114SOL    HW122241   4.220   0.114   1.531
 7114SOL    HW222242   4.105   0.197   1.612
 7115SOL     OW22243   5.208   2.058   1.772
 7115SOL    HW122244   5.145   1.996   1.727
 7115SOL    HW222245   5.164   2.148   1.783
 7116SOL     OW22246   5.788   3.939   3.722
 7116SOL    HW122247   5.711   3.952   3.784
 7116SOL    HW222248   5.755   3.934   3.628
 7117SOL     OW22249   0.023   6.744   4.059
 7117SOL    HW122250   6.991   6.678   4.114
 7117SOL    HW222251   0.106   6.770   4.107
 7118SOL     OW22252   5.517   3.615   0.555
 7118SOL    HW122253   5.503   3.526   0.599
 7118SOL    HW222254   5.430   3.649   0.520
 7119SOL     OW22255   4.950   1.197   2.999
 7119SOL    HW122256   4.949   1.295   3.020
 7119SOL    HW222257   5.012   1.180   2.923
 7120SOL     OW22258   4.147   1.815   2.404
 7120SOL    HW122259   4.152   1.851   2.311
 7120SOL    HW222260   4.231   1.766   2.426
 7121SOL     OW22261   2.041   0.027   3.542
 7121SOL    HW122262   1.944   0.037   3.566
 7121SOL    HW222263   2.071   0.108   3.492
 7122SOL     OW22264   0.124   0.370   0.174
 7122SOL    HW122265   0.030   0.402   0.180
 7122SOL    HW222266   0.187   0.446   0.193
 7123SOL     OW22267   3.525   5.803   1.186
 7123SOL    HW122268   3.575   5.884   1.154
 7123SOL    HW222269   3.442   5.831   1.233
 7124SOL     OW22270   1.407   4.375   0.685
 7124SOL    HW122271   1.369   4.297   0.735
 7124SOL    HW222272   1.483   4.344   0.628
 7125SOL     OW22273   6.461   6.123   1.310
 7125SOL    HW122274   6.541   6.087   1.263
 7125SOL    HW222275   6.404   6.175   1.246
 7126SOL     OW22276   2.543   3.761   0.656
 7126SOL    HW122277   2.561   3.698   0.732
 7126SOL    HW222278   2.534   3.854   0.691
 7127SOL     OW22279   3.112   5.222   4.416
 7127SOL    HW122280   3.094   5.137   4.465
 7127SOL    HW222281   3.177   5.204   4.342
 7128SOL     OW22282   3.180   4.511   0.188
 7128SOL    HW122283   3.150   4.429   0.139
 7128SOL    HW222284   3.257   4.488   0.247
 7129SOL     OW22285   2.719   0.648   0.975
 7129SOL    HW122286   2.795   0.701   1.013
 7129SOL    HW222287   2.685   0.693   0.892
 7130SOL     OW22288   3.200   4.866   4.371
 7130SOL    HW122289   3.125   4.852   4.306
 7130SOL    HW222290   3.163   4.901   4.457
 7131SOL     OW22291   2.526   1.664   0.785
 7131SOL    HW122292   2.479   1.740   0.740
 7131SOL    HW222293   2.622   1.687   0.799
 7132SOL     OW22294   4.084   3.491   2.300
 7132SOL    HW122295   3.984   3.493   2.299
 7132SOL    HW222296   4.116   3.443   2.381
 7133SOL     OW22297   5.147   4.872   3.315
 7133SOL    HW122298   5.221   4.937   3.294
 7133SOL    HW222299   5.072   4.885   3.251
 7134SOL     OW22300   6.291   5.832   3.975
 7134SOL    HW122301   6.330   5.920   3.946
 7134SOL    HW222302   6.201   5.820   3.933
 7135SOL     OW22303   1.218   1.058   4.160
 7135SOL    HW122304   1.248   1.003   4.081
 7135SOL    HW222305   1.290   1.124   4.183
 7136SOL     OW22306   1.647   1.394   0.897
 7136SOL    HW122307   1.583   1.331   0.851
 7136SOL    HW222308   1.672   1.467   0.834
 7137SOL     OW22309   4.129   1.447   4.543
 7137SOL    HW122310   4.060   1.432   4.613
 7137SOL    HW222311   4.140   1.364   4.489
 7138SOL     OW22312   2.917   2.734   1.419
 7138SOL    HW122313   2.999   2.680   1.436
 7138SOL    HW222314   2.903   2.745   1.321
 7139SOL     OW22315   4.929   3.210   2.048
 7139SOL    HW122316   4.851   3.147   2.055
 7139SOL    HW222317   4.967   3.206   1.955
 7140SOL     OW22318   6.067   3.046   5.162
 7140SOL    HW122319   5.990   2.991   5.130
 7140SOL    HW222320   6.052   3.072   5.257
 7141SOL     OW22321   3.253   6.820   0.923
 7141SOL    HW122322   3.289   6.844   1.014
 7141SOL    HW222323   3.262   6.899   0.862
 7142SOL     OW22324   4.393   6.666   3.728
 7142SOL    HW122325   4.387   6.748   3.785
 7142SOL    HW222326   4.348   6.684   3.640
 7143SOL     OW22327   1.677   3.051   5.950
 7143SOL    HW122328   1.602   2.988   5.970
 7143SOL    HW222329   1.640   3.140   5.921
 7144SOL     OW22330   0.841   0.839   3.058
 7144SOL    HW122331   0.816   0.765   2.996
 7144SOL    HW222332   0.799   0.823   3.147
 7145SOL     OW22333   4.007   6.356   5.992
 7145SOL    HW122334   4.106   6.372   5.988
 7145SOL    HW222335   3.988   6.283   6.058
 7146SOL     OW22336   2.058   0.092   0.725
 7146SOL    HW122337   2.112   0.066   0.645
 7146SOL    HW222338   2.100   0.055   0.808
 7147SOL     OW22339   6.111   0.028   3.800
 7147SOL    HW122340   6.207   7.017   3.799
 7147SOL    HW222341   6.098   0.100   3.732
 7148SOL     OW22342   0.997   5.897   1.580
 7148SOL    HW122343   0.964   5.912   1.673
 7148SOL    HW222344   0.920   5.904   1.517
 7149SOL     OW22345   6.539   0.284   3.662
 7149SOL    HW122346   6.604   0.208   3.669
 7149SOL    HW222347   6.522   0.304   3.565
 7150SOL     OW22348   4.718   3.080   1.467
 7150SOL    HW122349   4.635   3.068   1.520
 7150SOL    HW222350   4.777   3.147   1.512
 7151SOL     OW22351   1.616   5.310   0.874
 7151SOL    HW122352   1.578   5.339   0.786
 7151SOL    HW222353   1.694   5.368   0.896
 7152SOL     OW22354   0.300   3.268   5.871
 7152SOL    HW122355   0.324   3.175   5.900
 7152SOL    HW222356   0.246   3.263   5.787
 7153SOL     OW22357   3.865   6.511   5.001
 7153SOL    HW122358   3.816   6.555   5.076
 7153SOL    HW222359   3.814   6.431   4.970
 7154SOL     OW22360   4.342   5.691   4.802
 7154SOL    HW122361   4.395   5.607   4.817
 7154SOL    HW222362   4.334   5.708   4.704
 7155SOL     OW22363   1.675   6.004   1.530
 7155SOL    HW122364   1.701   6.076   1.465
 7155SOL    HW222365   1.577   5.984   1.520
 7156SOL     OW22366   0.074   5.172   4.456
 7156SOL    HW122367   0.127   5.097   4.419
 7156SOL    HW222368   0.120   5.259   4.437
 7157SOL     OW22369   6.351   5.131   0.862
 7157SOL    HW122370   6.298   5.049   0.885
 7157SOL    HW222371   6.419   5.108   0.792
 7158SOL     OW22372   0.051   6.938   3.569
 7158SOL    HW122373   0.082   7.018   3.518
 7158SOL    HW222374   0.032   6.965   3.664
 7159SOL     OW22375   0.343   4.524   1.606
 7159SOL    HW122376   0.410   4.480   1.547
 7159SOL    HW222377   0.387   4.552   1.692
 7160SOL     OW22378   6.627   0.733   2.497
 7160SOL    HW122379   6.582   0.700   2.581
 7160SOL    HW222380   6.610   0.669   2.423
 7161SOL     OW22381   3.112   4.051   3.981
 7161SOL    HW122382   3.014   4.042   3.961
 7161SOL    HW222383   3.162   4.067   3.895
 7162SOL     OW22384   3.101   5.441   5.462
 7162SOL    HW122385   3.053   5.369   5.512
 7162SOL    HW222386   3.189   5.406   5.430
 7163SOL     OW22387   3.742   6.998   4.254
 7163SOL    HW122388   3.810   6.943   4.206
 7163SOL    HW222389   3.701   0.044   4.190
 7164SOL     OW22390   1.717   1.749   2.962
 7164SOL    HW122391   1.679   1.709   3.045
 7164SOL    HW222392   1.782   1.821   2.985
 7165SOL     OW22393   6.166   0.521   0.554
 7165SOL    HW122394   6.250   0.489   0.512
 7165SOL    HW222395   6.163   0.491   0.650
 7166SOL     OW22396   5.063   4.321   1.600
 7166SOL    HW122397   5.052   4.222   1.611
 7166SOL    HW222398   4.996   4.369   1.657
 7167SOL     OW22399   5.182   3.835   4.989
 7167SOL    HW122400   5.234   3.818   4.905
 7167SOL    HW222401   5.139   3.926   4.984
 7168SOL     OW22402   1.272   1.779   4.280
 7168SOL    HW122403   1.289   1.878   4.280
 7168SOL    HW222404   1.267   1.746   4.375
 7169SOL     OW22405   1.686   3.092   5.643
 7169SOL    HW122406   1.620   3.165   5.658
 7169SOL    HW222407   1.766   3.106   5.702
 7170SOL     OW22408   4.354   5.250   3.383
 7170SOL    HW122409   4.305   5.171   3.347
 7170SOL    HW222410   4.311   5.280   3.469
 7171SOL     OW22411   5.563   3.446   6.267
 7171SOL    HW122412   5.526   3.362   6.228
 7171SOL    HW222413   5.615   3.495   6.197
 7172SOL     OW22414   1.600   0.036   6.526
 7172SOL    HW122415   1.679   0.037   6.587
 7172SOL    HW222416   1.569   6.961   6.512
 7173SOL     OW22417   6.871   5.277   4.861
 7173SOL    HW122418   6.926   5.225   4.926
 7173SOL    HW222419   6.890   5.245   4.768
 7174SOL     OW22420   1.184   5.407   6.895
 7174SOL    HW122421   1.138   5.445   6.975
 7174SOL    HW222422   1.247   5.335   6.924
 7175SOL     OW22423   5.066   3.095   1.160
 7175SOL    HW122424   5.061   3.179   1.215
 7175SOL    HW222425   5.154   3.051   1.174
 7176SOL     OW22426   0.681   5.654   2.310
 7176SOL    HW122427   0.758   5.609   2.355
 7176SOL    HW222428   0.704   5.750   2.293
 7177SOL     OW22429   1.886   6.081   4.123
 7177SOL    HW122430   1.869   6.041   4.033
 7177SOL    HW222431   1.869   6.179   4.120
 7178SOL     OW22432   2.299   2.445   5.935
 7178SOL    HW122433   2.243   2.483   6.008
 7178SOL    HW222434   2.309   2.513   5.861
 7179SOL     OW22435   2.275   3.370   5.895
 7179SOL    HW122436   2.272   3.470   5.902
 7179SOL    HW222437   2.184   3.332   5.915
 7180SOL     OW22438   1.001   5.557   6.294
 7180SOL    HW122439   0.927   5.523   6.352
 7180SOL    HW222440   0.995   5.514   6.204
 7181SOL     OW22441   3.783   0.114   0.593
 7181SOL    HW122442   3.824   0.023   0.593
 7181SOL    HW222443   3.690   0.109   0.632
 7182SOL     OW22444   1.747   3.904   5.993
 7182SOL    HW122445   1.692   3.899   5.910
 7182SOL    HW222446   1.839   3.870   5.975
 7183SOL     OW22447   1.745   4.795   2.728
 7183SOL    HW122448   1.653   4.821   2.757
 7183SOL    HW222449   1.739   4.720   2.663
 7184SOL     OW22450   0.474   6.944   3.277
 7184SOL    HW122451   0.398   6.959   3.214
 7184SOL    HW222452   0.460   6.859   3.327
 7185SOL     OW22453   5.184   2.547   6.824
 7185SOL    HW122454   5.174   2.524   6.921
 7185SOL    HW222455   5.094   2.561   6.784
 7186SOL     OW22456   6.985   6.981   5.360
 7186SOL    HW122457   0.048   6.983   5.417
 7186SOL    HW222458   6.906   7.014   5.412
 7187SOL     OW22459   1.879   4.382   1.928
 7187SOL    HW122460   1.874   4.454   1.859
 7187SOL    HW222461   1.787   4.347   1.946
 7188SOL     OW22462   5.800   6.967   1.351
 7188SOL    HW122463   5.739   6.985   1.274
 7188SOL    HW222464   5.748   6.972   1.437
 7189SOL     OW22465   6.519   1.656   6.541
 7189SOL    HW122466   6.442   1.646   6.604
 7189SOL    HW222467   6.512   1.588   6.468
 7190SOL     OW22468   5.381   3.889   3.550
 7190SOL    HW122469   5.286   3.920   3.540
 7190SOL    HW222470   5.443   3.963   3.523
 7191SOL     OW22471   0.970   4.005   2.643
 7191SOL    HW122472   1.016   3.961   2.720
 7191SOL    HW222473   0.963   4.104   2.661
 7192SOL     OW22474   2.301   6.291   5.515
 7192SOL    HW122475   2.265   6.243   5.595
 7192SOL    HW222476   2.307   6.388   5.535
 7193SOL     OW22477   3.027   2.164   4.018
 7193SOL    HW122478   3.036   2.083   4.076
 7193SOL    HW222479   3.101   2.228   4.040
 7194SOL     OW22480   2.227   1.547   1.177
 7194SOL    HW122481   2.179   1.481   1.120
 7194SOL    HW222482   2.189   1.639   1.161
 7195SOL     OW22483   0.399   4.743   0.215
 7195SOL    HW122484   0.444   4.703   0.135
 7195SOL    HW222485   0.466   4.758   0.288
 7196SOL     OW22486   3.096   3.076   2.932
 7196SOL    HW122487   3.167   3.046   2.868
 7196SOL    HW222488   3.077   3.173   2.918
 7197SOL     OW22489   6.568   2.158   6.053
 7197SOL    HW122490   6.530   2.124   6.138
 7197SOL    HW222491   6.537   2.253   6.039
 7198SOL     OW22492   1.090   0.265   6.129
 7198SOL    HW122493   1.185   0.234   6.122
 7198SOL    HW222494   1.031   0.208   6.072
 7199SOL     OW22495   1.048   0.812   2.208
 7199SOL    HW122496   1.076   0.725   2.248
 7199SOL    HW222497   1.124   0.852   2.157
 7200SOL     OW22498   2.654   0.415   6.982
 7200SOL    HW122499   2.598   0.497   6.975
 7200SOL    HW222500   2.602   0.344   0.012
 7201SOL     OW22501   1.993   5.104   3.438
 7201SOL    HW122502   1.977   5.034   3.509
 7201SOL    HW222503   1.928   5.091   3.364
 7202SOL     OW22504   3.859   0.235   6.280
 7202SOL    HW122505   3.764   0.213   6.303
 7202SOL    HW222506   3.907   0.266   6.362
 7203SOL     OW22507   6.070   0.740   0.787
 7203SOL    HW122508   6.037   0.761   0.879
 7203SOL    HW222509   5.992   0.725   0.726
 7204SOL     OW22510   6.037   6.713   4.323
 7204SOL    HW122511   6.056   6.630   4.271
 7204SOL    HW222512   6.033   6.791   4.260
 7205SOL     OW22513   1.168   5.705   2.949
 7205SOL    HW122514   1.175   5.667   2.857
 7205SOL    HW222515   1.255   5.745   2.976
 7206SOL     OW22516   0.308   1.269   1.133
 7206SOL    HW122517   0.337   1.297   1.225
 7206SOL    HW222518   0.364   1.192   1.103
 7207SOL     OW22519   3.740   0.327   1.386
 7207SOL    HW122520   3.668   0.397   1.381
 7207SOL    HW222521   3.821   0.359   1.338
 7208SOL     OW22522   4.075   6.691   4.440
 7208SOL    HW122523   4.014   6.753   4.489
 7208SOL    HW222524   4.165   6.735   4.429
 7209SOL     OW22525   3.200   3.369   3.598
 7209SOL    HW122526   3.208   3.270   3.590
 7209SOL    HW222527   3.113   3.399   3.558
 7210SOL     OW22528   4.659   1.331   3.145
 7210SOL    HW122529   4.703   1.397   3.206
 7210SOL    HW222530   4.590   1.280   3.195
 7211SOL     OW22531   0.787   6.127   3.532
 7211SOL    HW122532   0.763   6.209   3.584
 7211SOL    HW222533   0.727   6.119   3.453
 7212SOL     OW22534   0.739   6.074   4.289
 7212SOL    HW122535   0.678   6.027   4.353
 7212SOL    HW222536   0.714   6.171   4.284
 7213SOL     OW22537   5.230   6.496   5.034
 7213SOL    HW122538   5.255   6.505   5.131
 7213SOL    HW222539   5.309   6.463   4.983
 7214SOL     OW22540   2.331   5.837   4.369
 7214SOL    HW122541   2.255   5.772   4.371
 7214SOL    HW222542   2.418   5.787   4.372
 7215SOL     OW22543   0.582   3.049   4.484
 7215SOL    HW122544   0.601   3.097   4.570
 7215SOL    HW222545   0.516   3.102   4.431
 7216SOL     OW22546   2.934   4.750   6.994
 7216SOL    HW122547   2.973   4.734   6.904
 7216SOL    HW222548   3.003   4.733   0.045
 7217SOL     OW22549   1.520   4.512   2.009
 7217SOL    HW122550   1.450   4.564   2.059
 7217SOL    HW222551   1.588   4.575   1.973
 7218SOL     OW22552   4.791   2.812   5.553
 7218SOL    HW122553   4.705   2.836   5.597
 7218SOL    HW222554   4.821   2.722   5.584
 7219SOL     OW22555   4.485   6.649   3.211
 7219SOL    HW122556   4.411   6.618   3.152
 7219SOL    HW222557   4.563   6.587   3.202
 7220SOL     OW22558   6.519   0.344   3.408
 7220SOL    HW122559   6.459   0.393   3.345
 7220SOL    HW222560   6.609   0.333   3.367
 7221SOL     OW22561   5.394   4.865   5.632
 7221SOL    HW122562   5.424   4.815   5.550
 7221SOL    HW222563   5.299   4.842   5.652
 7222SOL     OW22564   6.650   6.613   0.480
 7222SOL    HW122565   6.591   6.676   0.530
 7222SOL    HW222566   6.716   6.665   0.426
 7223SOL     OW22567   3.161   2.045   1.025
 7223SOL    HW122568   3.222   2.102   0.969
 7223SOL    HW222569   3.197   2.042   1.119
 7224SOL     OW22570   5.616   1.706   4.556
 7224SOL    HW122571   5.610   1.674   4.461
 7224SOL    HW222572   5.529   1.749   4.581
 7225SOL     OW22573   1.868   5.578   0.265
 7225SOL    HW122574   1.807   5.547   0.192
 7225SOL    HW222575   1.817   5.634   0.330
 7226SOL     OW22576   0.520   0.042   0.380
 7226SOL    HW122577   0.591   0.111   0.392
 7226SOL    HW222578   0.454   0.048   0.454
 7227SOL     OW22579   0.547   1.999   0.176
 7227SOL    HW122580   0.536   1.906   0.143
 7227SOL    HW222581   0.474   2.056   0.137
 7228SOL     OW22582   0.429   0.035   2.159
 7228SOL    HW122583   0.406   0.123   2.202
 7228SOL    HW222584   0.375   0.023   2.077
 7229SOL     OW22585   1.074   0.582   4.286
 7229SOL    HW122586   1.162   0.618   4.316
 7229SOL    HW222587   1.079   0.483   4.279
 7230SOL     OW22588   4.349   5.181   4.598
 7230SOL    HW122589   4.383   5.088   4.611
 7230SOL    HW222590   4.250   5.179   4.582
 7231SOL     OW22591   5.264   1.636   6.615
 7231SOL    HW122592   5.263   1.672   6.708
 7231SOL    HW222593   5.172   1.607   6.589
 7232SOL     OW22594   3.806   5.284   3.252
 7232SOL    HW122595   3.737   5.265   3.322
 7232SOL    HW222596   3.818   5.203   3.194
 7233SOL     OW22597   0.548   2.880   4.979
 7233SOL    HW122598   0.597   2.806   5.025
 7233SOL    HW222599   0.613   2.950   4.949
 7234SOL     OW22600   5.551   2.531   1.733
 7234SOL    HW122601   5.634   2.500   1.686
 7234SOL    HW222602   5.527   2.622   1.700
 7235SOL     OW22603   6.053   3.818   4.390
 7235SOL    HW122604   6.145   3.824   4.351
 7235SOL    HW222605   6.016   3.727   4.375
 7236SOL     OW22606   3.583   1.761   2.931
 7236SOL    HW122607   3.486   1.742   2.950
 7236SOL    HW222608   3.598   1.759   2.832
 7237SOL     OW22609   6.952   6.279   5.229
 7237SOL    HW122610   6.951   6.179   5.224
 7237SOL    HW222611   0.023   6.309   5.261
 7238SOL     OW22612   2.472   1.110   2.389
 7238SOL    HW122613   2.482   1.130   2.291
 7238SOL    HW222614   2.489   1.193   2.442
 7239SOL     OW22615   2.068   1.566   3.256
 7239SOL    HW122616   2.035   1.610   3.172
 7239SOL    HW222617   2.011   1.593   3.333
 7240SOL     OW22618   2.993   4.432   0.406
 7240SOL    HW122619   3.004   4.505   0.474
 7240SOL    HW222620   3.042   4.456   0.323
 7241SOL     OW22621   3.615   0.638   5.635
 7241SOL    HW122622   3.637   0.588   5.551
 7241SOL    HW222623   3.632   0.579   5.714
 7242SOL     OW22624   5.848   4.383   0.217
 7242SOL    HW122625   5.910   4.342   0.150
 7242SOL    HW222626   5.755   4.347   0.203
 7243SOL     OW22627   1.246   4.746   6.442
 7243SOL    HW122628   1.313   4.819   6.449
 7243SOL    HW222629   1.207   4.744   6.350
 7244SOL     OW22630   5.220   1.343   0.722
 7244SOL    HW122631   5.215   1.243   0.729
 7244SOL    HW222632   5.161   1.373   0.647
 7245SOL     OW22633   0.109   2.427   5.105
 7245SOL    HW122634   0.079   2.522   5.115
 7245SOL    HW222635   0.091   2.377   5.189
 7246SOL     OW22636   6.020   6.957   4.942
 7246SOL    HW122637   6.024   0.016   5.005
 7246SOL    HW222638   6.112   6.938   4.908
 7247SOL     OW22639   2.513   6.376   1.722
 7247SOL    HW122640   2.447   6.315   1.766
 7247SOL    HW222641   2.519   6.354   1.624
 7248SOL     OW22642   3.827   0.967   4.152
 7248SOL    HW122643   3.872   1.056   4.159
 7248SOL    HW222644   3.888   0.902   4.106
 7249SOL     OW22645   5.385   4.491   1.086
 7249SOL    HW122646   5.289   4.516   1.093
 7249SOL    HW222647   5.396   4.393   1.101
 7250SOL     OW22648   2.134   4.975   6.864
 7250SOL    HW122649   2.203   5.046   6.882
 7250SOL    HW222650   2.098   4.987   6.771
 7251SOL     OW22651   6.653   6.528   5.001
 7251SOL    HW122652   6.666   6.587   4.921
 7251SOL    HW222653   6.715   6.449   4.995
 7252SOL     OW22654   3.344   3.349   4.738
 7252SOL    HW122655   3.255   3.361   4.695
 7252SOL    HW222656   3.397   3.434   4.731
 7253SOL     OW22657   2.612   6.235   0.796
 7253SOL    HW122658   2.557   6.250   0.878
 7253SOL    HW222659   2.667   6.152   0.808
 7254SOL     OW22660   3.577   5.269   4.136
 7254SOL    HW122661   3.531   5.315   4.212
 7254SOL    HW222662   3.621   5.186   4.169
 7255SOL     OW22663   2.940   3.131   1.958
 7255SOL    HW122664   3.029   3.086   1.970
 7255SOL    HW222665   2.878   3.068   1.912
 7256SOL     OW22666   4.430   4.921   4.632
 7256SOL    HW122667   4.493   4.906   4.557
 7256SOL    HW222668   4.389   4.834   4.660
 7257SOL     OW22669   6.064   2.244   3.099
 7257SOL    HW122670   6.071   2.310   3.025
 7257SOL    HW222671   5.968   2.220   3.113
 7258SOL     OW22672   4.123   0.535   4.396
 7258SOL    HW122673   4.084   0.482   4.471
 7258SOL    HW222674   4.110   0.633   4.413
 7259SOL     OW22675   2.543   3.790   6.725
 7259SOL    HW122676   2.476   3.786   6.799
 7259SOL    HW222677   2.543   3.881   6.685
 7260SOL     OW22678   3.516   2.075   2.565
 7260SOL    HW122679   3.490   2.147   2.501
 7260SOL    HW222680   3.460   1.994   2.549
 7261SOL     OW22681   2.390   3.265   1.677
 7261SOL    HW122682   2.466   3.213   1.715
 7261SOL    HW222683   2.368   3.342   1.737
 7262SOL     OW22684   5.487   2.216   4.787
 7262SOL    HW122685   5.544   2.144   4.748
 7262SOL    HW222686   5.476   2.290   4.721
 7263SOL     OW22687   1.304   5.729   1.386
 7263SOL    HW122688   1.349   5.646   1.352
 7263SOL    HW222689   1.221   5.746   1.332
 7264SOL     OW22690   6.810   1.063   6.784
 7264SOL    HW122691   6.800   1.060   6.685
 7264SOL    HW222692   6.892   1.115   6.808
 7265SOL     OW22693   5.387   4.995   6.091
 7265SOL    HW122694   5.468   4.940   6.104
 7265SOL    HW222695   5.326   4.985   6.170
 7266SOL     OW22696   4.867   0.372   1.565
 7266SOL    HW122697   4.820   0.288   1.593
 7266SOL    HW222698   4.955   0.379   1.613
 7267SOL     OW22699   0.090   3.886   4.923
 7267SOL    HW122700   0.163   3.819   4.942
 7267SOL    HW222701   0.054   3.870   4.832
 7268SOL     OW22702   4.059   5.940   1.693
 7268SOL    HW122703   4.103   5.859   1.730
 7268SOL    HW222704   4.112   5.975   1.617
 7269SOL     OW22705   0.865   5.265   1.856
 7269SOL    HW122706   0.913   5.317   1.785
 7269SOL    HW222707   0.929   5.239   1.928
 7270SOL     OW22708   2.368   1.740   2.977
 7270SOL    HW122709   2.395   1.649   2.946
 7270SOL    HW222710   2.354   1.739   3.076
 7271SOL     OW22711   0.276   3.788   2.606
 7271SOL    HW122712   0.207   3.848   2.646
 7271SOL    HW222713   0.232   3.705   2.572
 7272SOL     OW22714   4.854   2.922   2.753
 7272SOL    HW122715   4.885   3.002   2.804
 7272SOL    HW222716   4.845   2.844   2.816
 7273SOL     OW22717   5.527   4.356   1.933
 7273SOL    HW122718   5.539   4.456   1.933
 7273SOL    HW222719   5.431   4.334   1.920
 7274SOL     OW22720   6.851   5.220   5.780
 7274SOL    HW122721   6.941   5.180   5.759
 7274SOL    HW222722   6.859   5.319   5.784
 7275SOL     OW22723   0.212   0.454   6.878
 7275SOL    HW122724   0.151   0.400   6.819
 7275SOL    HW222725   0.158   0.524   6.926
 7276SOL     OW22726   2.059   2.193   3.864
 7276SOL    HW122727   2.014   2.274   3.900
 7276SOL    HW222728   2.099   2.140   3.939
 7277SOL     OW22729   4.880   1.306   5.051
 7277SOL    HW122730   4.963   1.362   5.053
 7277SOL    HW222731   4.807   1.354   5.099
 7278SOL     OW22732   3.814   1.085   3.656
 7278SOL    HW122733   3.759   1.040   3.726
 7278SOL    HW222734   3.865   1.015   3.604
 7279SOL     OW22735   4.398   4.336   0.267
 7279SOL    HW122736   4.352   4.402   0.327
 7279SOL    HW222737   4.351   4.248   0.271
 7280SOL     OW22738   5.203   1.878   5.366
 7280SOL    HW122739   5.252   1.796   5.395
 7280SOL    HW222740   5.131   1.899   5.432
 7281SOL     OW22741   3.654   6.496   1.673
 7281SOL    HW122742   3.628   6.546   1.756
 7281SOL    HW222743   3.709   6.555   1.614
 7282SOL     OW22744   6.590   5.468   2.090
 7282SOL    HW122745   6.548   5.381   2.063
 7282SOL    HW222746   6.671   5.485   2.034
 7283SOL     OW22747   3.445   5.742   2.672
 7283SOL    HW122748   3.477   5.648   2.683
 7283SOL    HW222749   3.422   5.779   2.762
 7284SOL     OW22750   6.692   2.382   4.092
 7284SOL    HW122751   6.741   2.394   4.178
 7284SOL    HW222752   6.713   2.459   4.031
 7285SOL     OW22753   4.946   2.884   1.860
 7285SOL    HW122754   4.908   2.799   1.823
 7285SOL    HW222755   4.873   2.937   1.903
 7286SOL     OW22756   0.554   1.092   0.709
 7286SOL    HW122757   0.568   0.998   0.738
 7286SOL    HW222758   0.457   1.116   0.721
 7287SOL     OW22759   1.249   1.768   3.513
 7287SOL    HW122760   1.182   1.713   3.563
 7287SOL    HW222761   1.229   1.865   3.524
 7288SOL     OW22762   3.033   2.149   3.101
 7288SOL    HW122763   2.964   2.146   3.173
 7288SOL    HW222764   2.994   2.190   3.019
 7289SOL     OW22765   6.126   2.393   1.475
 7289SOL    HW122766   6.126   2.294   1.461
 7289SOL    HW222767   6.200   2.418   1.537
 7290SOL     OW22768   3.982   1.651   4.752
 7290SOL    HW122769   4.068   1.657   4.802
 7290SOL    HW222770   3.936   1.740   4.754
 7291SOL     OW22771   3.768   0.496   6.903
 7291SOL    HW122772   3.841   0.428   6.899
 7291SOL    HW222773   3.727   0.506   6.812
 7292SOL     OW22774   1.784   0.266   3.291
 7292SOL    HW122775   1.882   0.271   3.271
 7292SOL    HW222776   1.744   0.188   3.243
 7293SOL     OW22777   1.177   0.466   5.329
 7293SOL    HW122778   1.128   0.544   5.366
 7293SOL    HW222779   1.262   0.452   5.380
 7294SOL     OW22780   3.194   4.879   1.529
 7294SOL    HW122781   3.180   4.968   1.571
 7294SOL    HW222782   3.231   4.815   1.597
 7295SOL     OW22783   6.397   5.481   2.357
 7295SOL    HW122784   6.408   5.563   2.414
 7295SOL    HW222785   6.480   5.468   2.302
 7296SOL     OW22786   3.929   4.845   2.617
 7296SOL    HW122787   3.945   4.942   2.600
 7296SOL    HW222788   3.886   4.804   2.537
 7297SOL     OW22789   3.392   6.017   1.613
 7297SOL    HW122790   3.325   6.089   1.595
 7297SOL    HW222791   3.429   6.028   1.705
 7298SOL     OW22792   5.052   5.708   6.663
 7298SOL    HW122793   5.019   5.738   6.573
 7298SOL    HW222794   5.148   5.734   6.674
 7299SOL     OW22795   1.182   2.945   0.435
 7299SOL    HW122796   1.199   3.043   0.429
 7299SOL    HW222797   1.231   2.898   0.362
 7300SOL     OW22798   0.737   5.038   1.456
 7300SOL    HW122799   0.658   5.075   1.406
 7300SOL    HW222800   0.705   4.980   1.530
 7301SOL     OW22801   5.516   6.829   5.302
 7301SOL    HW122802   5.482   6.909   5.352
 7301SOL    HW222803   5.576   6.776   5.361
 7302SOL     OW22804   5.149   2.764   5.945
 7302SOL    HW122805   5.091   2.764   6.026
 7302SOL    HW222806   5.107   2.821   5.874
 7303SOL     OW22807   2.386   1.105   0.853
 7303SOL    HW122808   2.376   1.164   0.773
 7303SOL    HW222809   2.411   1.160   0.932
 7304SOL     OW22810   3.045   5.237   2.007
 7304SOL    HW122811   3.089   5.201   2.089
 7304SOL    HW222812   3.045   5.167   1.936
 7305SOL     OW22813   5.708   2.416   0.344
 7305SOL    HW122814   5.752   2.330   0.371
 7305SOL    HW222815   5.741   2.490   0.404
 7306SOL     OW22816   2.478   1.075   1.354
 7306SOL    HW122817   2.547   1.005   1.334
 7306SOL    HW222818   2.461   1.129   1.272
 7307SOL     OW22819   1.701   6.441   1.608
 7307SOL    HW122820   1.607   6.409   1.614
 7307SOL    HW222821   1.703   6.536   1.578
 7308SOL     OW22822   4.787   0.624   1.624
 7308SOL    HW122823   4.833   0.633   1.713
 7308SOL    HW222824   4.821   0.542   1.578
 7309SOL     OW22825   2.273   5.219   2.492
 7309SOL    HW122826   2.324   5.217   2.406
 7309SOL    HW222827   2.221   5.134   2.501
 7310SOL     OW22828   1.575   2.521   0.254
 7310SOL    HW122829   1.651   2.487   0.309
 7310SOL    HW222830   1.544   2.450   0.191
 7311SOL     OW22831   0.497   0.043   6.975
 7311SOL    HW122832   0.493   0.142   6.957
 7311SOL    HW222833   0.442   0.021   0.037
 7312SOL     OW22834   0.278   2.601   5.699
 7312SOL    HW122835   0.221   2.674   5.660
 7312SOL    HW222836   0.219   2.526   5.730
 7313SOL     OW22837   2.385   0.962   1.978
 7313SOL    HW122838   2.455   0.914   2.031
 7313SOL    HW222839   2.304   0.977   2.035
 7314SOL     OW22840   0.056   4.275   0.081
 7314SOL    HW122841   7.008   4.201   0.090
 7314SOL    HW222842   0.109   4.282   0.166
 7315SOL     OW22843   0.548   5.137   2.135
 7315SOL    HW122844   0.578   5.227   2.167
 7315SOL    HW222845   0.627   5.075   2.134
 7316SOL     OW22846   2.962   2.182   6.481
 7316SOL    HW122847   2.984   2.102   6.425
 7316SOL    HW222848   3.036   2.249   6.475
 7317SOL     OW22849   3.340   1.384   1.821
 7317SOL    HW122850   3.364   1.290   1.844
 7317SOL    HW222851   3.394   1.415   1.743
 7318SOL     OW22852   3.592   0.241   1.788
 7318SOL    HW122853   3.556   0.150   1.770
 7318SOL    HW222854   3.535   0.287   1.857
 7319SOL     OW22855   6.432   4.722   0.246
 7319SOL    HW122856   6.508   4.725   0.310
 7319SOL    HW222857   6.401   4.628   0.236
 7320SOL     OW22858   6.782   3.599   1.504
 7320SOL    HW122859   6.850   3.533   1.534
 7320SOL    HW222860   6.757   3.581   1.409
 7321SOL     OW22861   2.366   5.966   6.505
 7321SOL    HW122862   2.283   6.001   6.460
 7321SOL    HW222863   2.402   6.036   6.566
 7322SOL     OW22864   0.184   2.265   2.049
 7322SOL    HW122865   0.265   2.280   2.105
 7322SOL    HW222866   0.104   2.256   2.109
 7323SOL     OW22867   1.230   1.727   0.877
 7323SOL    HW122868   1.144   1.767   0.908
 7323SOL    HW222869   1.306   1.788   0.901
 7324SOL     OW22870   5.959   4.551   3.324
 7324SOL    HW122871   5.888   4.481   3.319
 7324SOL    HW222872   5.936   4.618   3.394
 7325SOL     OW22873   3.914   0.884   6.082
 7325SOL    HW122874   3.838   0.840   6.129
 7325SOL    HW222875   3.888   0.902   5.987
 7326SOL     OW22876   2.531   0.685   6.682
 7326SOL    HW122877   2.466   0.627   6.632
 7326SOL    HW222878   2.509   0.781   6.665
 7327SOL     OW22879   6.091   3.801   2.971
 7327SOL    HW122880   6.101   3.870   3.042
 7327SOL    HW222881   6.181   3.759   2.953
 7328SOL     OW22882   4.299   4.994   5.371
 7328SOL    HW122883   4.345   4.988   5.459
 7328SOL    HW222884   4.232   4.921   5.362
 7329SOL     OW22885   2.498   2.843   0.824
 7329SOL    HW122886   2.428   2.863   0.756
 7329SOL    HW222887   2.588   2.868   0.788
 7330SOL     OW22888   3.517   2.703   1.540
 7330SOL    HW122889   3.560   2.643   1.608
 7330SOL    HW222890   3.486   2.648   1.463
 7331SOL     OW22891   4.239   0.381   1.710
 7331SOL    HW122892   4.200   0.405   1.621
 7331SOL    HW222893   4.175   0.406   1.782
 7332SOL     OW22894   3.110   4.162   6.863
 7332SOL    HW122895   3.196   4.120   6.834
 7332SOL    HW222896   3.039   4.093   6.872
 7333SOL     OW22897   6.437   2.631   1.917
 7333SOL    HW122898   6.485   2.556   1.872
 7333SOL    HW222899   6.404   2.601   2.006
 7334SOL     OW22900   2.873   6.855   5.815
 7334SOL    HW122901   2.922   6.823   5.896
 7334SOL    HW222902   2.775   6.845   5.829
 7335SOL     OW22903   6.749   3.309   2.764
 7335SOL    HW122904   6.740   3.278   2.669
 7335SOL    HW222905   6.663   3.350   2.794
 7336SOL     OW22906   1.627   5.918   1.072
 7336SOL    HW122907   1.589   5.828   1.096
 7336SOL    HW222908   1.594   5.945   0.982
 7337SOL     OW22909   2.410   2.515   2.131
 7337SOL    HW122910   2.349   2.555   2.200
 7337SOL    HW222911   2.490   2.475   2.176
 7338SOL     OW22912   5.705   3.072   1.603
 7338SOL    HW122913   5.730   3.142   1.669
 7338SOL    HW222914   5.734   2.982   1.637
 7339SOL     OW22915   6.519   5.700   5.350
 7339SOL    HW122916   6.490   5.621   5.403
 7339SOL    HW222917   6.497   5.685   5.253
 7340SOL     OW22918   2.522   0.646   6.950
 7340SOL    HW122919   2.426   0.624   6.968
 7340SOL    HW222920   2.535   0.662   6.852
 7341SOL     OW22921   0.250   5.051   4.312
 7341SOL    HW122922   0.300   4.973   4.273
 7341SOL    HW222923   0.295   5.136   4.286
 7342SOL     OW22924   6.729   0.497   0.521
 7342SOL    HW122925   6.765   0.450   0.440
 7342SOL    HW222926   6.641   0.457   0.546
 7343SOL     OW22927   5.752   4.044   2.963
 7343SOL    HW122928   5.690   4.058   2.885
 7343SOL    HW222929   5.781   3.948   2.965
 7344SOL     OW22930   1.982   6.570   6.979
 7344SOL    HW122931   1.941   6.599   6.893
 7344SOL    HW222932   1.922   6.502   0.003
 7345SOL     OW22933   4.470   5.256   5.893
 7345SOL    HW122934   4.544   5.295   5.838
 7345SOL    HW222935   4.390   5.241   5.835
 7346SOL     OW22936   3.512   4.877   1.189
 7346SOL    HW122937   3.441   4.809   1.210
 7346SOL    HW222938   3.487   4.965   1.229
 7347SOL     OW22939   6.092   1.955   2.159
 7347SOL    HW122940   6.068   2.048   2.131
 7347SOL    HW222941   6.019   1.892   2.131
 7348SOL     OW22942   1.490   2.541   4.130
 7348SOL    HW122943   1.397   2.510   4.107
 7348SOL    HW222944   1.484   2.615   4.197
 7349SOL     OW22945   3.633   2.076   0.933
 7349SOL    HW122946   3.597   2.115   0.849
 7349SOL    HW222947   3.561   2.077   1.003
 7350SOL     OW22948   0.524   2.308   2.981
 7350SOL    HW122949   0.512   2.380   3.050
 7350SOL    HW222950   0.590   2.241   3.014
 7351SOL     OW22951   4.270   4.939   6.447
 7351SOL    HW122952   4.278   4.999   6.526
 7351SOL    HW222953   4.346   4.955   6.384
 7352SOL     OW22954   1.628   2.172   2.256
 7352SOL    HW122955   1.609   2.214   2.345
 7352SOL    HW222956   1.725   2.149   2.250
 7353SOL     OW22957   6.148   1.712   4.571
 7353SOL    HW122958   6.081   1.740   4.640
 7353SOL    HW222959   6.108   1.721   4.480
 7354SOL     OW22960   6.324   6.593   6.009
 7354SOL    HW122961   6.399   6.570   5.947
 7354SOL    HW222962   6.303   6.690   6.002
 7355SOL     OW22963   1.198   5.506   1.585
 7355SOL    HW122964   1.227   5.577   1.521
 7355SOL    HW222965   1.269   5.435   1.589
 7356SOL     OW22966   6.058   1.854   6.715
 7356SOL    HW122967   6.037   1.944   6.752
 7356SOL    HW222968   6.043   1.854   6.616
 7357SOL     OW22969   4.946   1.535   6.995
 7357SOL    HW122970   4.875   1.495   6.937
 7357SOL    HW222971   5.036   1.502   6.965
 7358SOL     OW22972   3.516   1.897   3.683
 7358SOL    HW122973   3.538   1.955   3.761
 7358SOL    HW222974   3.457   1.948   3.620
 7359SOL     OW22975   4.091   3.330   2.535
 7359SOL    HW122976   4.137   3.277   2.606
 7359SOL    HW222977   3.999   3.354   2.566
 7360SOL     OW22978   1.406   2.474   5.274
 7360SOL    HW122979   1.384   2.389   5.323
 7360SOL    HW222980   1.425   2.454   5.178
 7361SOL     OW22981   5.265   6.308   0.987
 7361SOL    HW122982   5.223   6.390   0.948
 7361SOL    HW222983   5.203   6.231   0.978
 7362SOL     OW22984   1.790   6.168   5.075
 7362SOL    HW122985   1.835   6.255   5.095
 7362SOL    HW222986   1.692   6.179   5.086
 7363SOL     OW22987   5.356   2.740   6.976
 7363SOL    HW122988   5.334   2.665   0.019
 7363SOL    HW222989   5.339   2.712   6.882
 7364SOL     OW22990   4.491   6.775   0.986
 7364SOL    HW122991   4.415   6.729   1.031
 7364SOL    HW222992   4.509   6.862   1.033
 7365SOL     OW22993   2.767   0.262   2.579
 7365SOL    HW122994   2.767   0.355   2.542
 7365SOL    HW222995   2.690   0.211   2.543
 7366SOL     OW22996   0.634   5.436   6.631
 7366SOL    HW122997   0.679   5.348   6.642
 7366SOL    HW222998   0.535   5.422   6.620
 7367SOL     OW22999   5.133   3.754   1.376
 7367SOL    HW123000   5.167   3.841   1.341
 7367SOL    HW223001   5.211   3.693   1.392
 7368SOL     OW23002   3.099   3.072   4.405
 7368SOL    HW123003   3.027   3.136   4.378
 7368SOL    HW223004   3.183   3.093   4.354
 7369SOL     OW23005   5.172   4.207   1.028
 7369SOL    HW123006   5.181   4.139   0.955
 7369SOL    HW223007   5.258   4.211   1.080
 7370SOL     OW23008   2.374   6.767   0.551
 7370SOL    HW123009   2.390   6.855   0.507
 7370SOL    HW223010   2.457   6.736   0.597
 7371SOL     OW23011   2.978   5.154   4.126
 7371SOL    HW123012   2.942   5.165   4.219
 7371SOL    HW223013   3.058   5.213   4.114
 7372SOL     OW23014   3.751   0.245   5.621
 7372SOL    HW123015   3.772   0.175   5.689
 7372SOL    HW223016   3.746   0.334   5.666
 7373SOL     OW23017   3.868   0.580   4.195
 7373SOL    HW123018   3.909   0.490   4.210
 7373SOL    HW223019   3.941   0.647   4.180
 7374SOL     OW23020   1.917   3.183   5.833
 7374SOL    HW123021   2.004   3.173   5.881
 7374SOL    HW223022   1.843   3.149   5.890
 7375SOL     OW23023   1.366   1.099   4.712
 7375SOL    HW123024   1.270   1.118   4.728
 7375SOL    HW223025   1.422   1.151   4.777
 7376SOL     OW23026   2.682   3.109   6.870
 7376SOL    HW123027   2.666   3.072   6.779
 7376SOL    HW223028   2.720   3.038   6.929
 7377SOL     OW23029   4.652   4.369   1.807
 7377SOL    HW123030   4.586   4.358   1.881
 7377SOL    HW223031   4.637   4.299   1.738
 7378SOL     OW23032   0.468   1.762   4.986
 7378SOL    HW123033   0.544   1.703   5.011
 7378SOL    HW223034   0.386   1.707   4.970
 7379SOL     OW23035   3.838   1.111   1.895
 7379SOL    HW123036   3.809   1.203   1.921
 7379SOL    HW223037   3.937   1.111   1.879
 7380SOL     OW23038   6.736   2.981   5.555
 7380SOL    HW123039   6.796   3.061   5.554
 7380SOL    HW223040   6.716   2.956   5.650
 7381SOL     OW23041   4.896   2.989   2.292
 7381SOL    HW123042   4.856   2.986   2.200
 7381SOL    HW223043   4.843   3.051   2.350
 7382SOL     OW23044   0.260   4.441   4.702
 7382SOL    HW123045   0.214   4.405   4.620
 7382SOL    HW223046   0.333   4.379   4.729
 7383SOL     OW23047   0.351   6.378   2.343
 7383SOL    HW123048   0.428   6.330   2.385
 7383SOL    HW223049   0.307   6.437   2.411
 7384SOL     OW23050   4.952   6.641   2.255
 7384SOL    HW123051   4.918   6.547   2.266
 7384SOL    HW223052   4.928   6.694   2.337
 7385SOL     OW23053   4.766   6.090   1.800
 7385SOL    HW123054   4.782   6.036   1.883
 7385SOL    HW223055   4.823   6.056   1.726
 7386SOL     OW23056   1.227   2.783   5.928
 7386SOL    HW123057   1.137   2.826   5.928
 7386SOL    HW223058   1.219   2.688   5.957
 7387SOL     OW23059   4.497   5.469   4.166
 7387SOL    HW123060   4.555   5.388   4.152
 7387SOL    HW223061   4.547   5.537   4.219
 7388SOL     OW23062   6.813   5.191   4.043
 7388SOL    HW123063   6.817   5.203   4.142
 7388SOL    HW223064   6.837   5.277   3.998
 7389SOL     OW23065   1.223   3.931   6.795
 7389SOL    HW123066   1.158   3.968   6.862
 7389SOL    HW223067   1.315   3.933   6.834
 7390SOL     OW23068   0.062   1.655   6.761
 7390SOL    HW123069   6.988   1.630   6.788
 7390SOL    HW223070   0.072   1.644   6.662
 7391SOL     OW23071   5.785   3.626   6.146
 7391SOL    HW123072   5.824   3.674   6.068
 7391SOL    HW223073   5.829   3.536   6.156
 7392SOL     OW23074   1.745   5.187   5.088
 7392SOL    HW123075   1.770   5.099   5.130
 7392SOL    HW223076   1.827   5.239   5.066
 7393SOL     OW23077   5.997   5.528   2.233
 7393SOL    HW123078   6.076   5.587   2.216
 7393SOL    HW223079   6.018   5.435   2.202
 7394SOL     OW23080   3.888   3.386   6.526
 7394SOL    HW123081   3.903   3.287   6.535
 7394SOL    HW223082   3.839   3.404   6.441
 7395SOL     OW23083   0.553   0.276   6.185
 7395SOL    HW123084   0.590   0.271   6.278
 7395SOL    HW223085   0.628   0.281   6.119
 7396SOL     OW23086   1.235   0.693   5.886
 7396SOL    HW123087   1.153   0.670   5.939
 7396SOL    HW223088   1.309   0.630   5.908
 7397SOL     OW23089   6.361   4.318   4.545
 7397SOL    HW123090   6.278   4.263   4.546
 7397SOL    HW223091   6.351   4.396   4.607
 7398SOL     OW23092   4.688   5.296   4.049
 7398SOL    HW123093   4.747   5.376   4.047
 7398SOL    HW223094   4.654   5.277   3.957
 7399SOL     OW23095   6.489   3.697   5.863
 7399SOL    HW123096   6.445   3.632   5.925
 7399SOL    HW223097   6.422   3.767   5.836
 7400SOL     OW23098   2.996   4.343   0.011
 7400SOL    HW123099   2.948   4.409   6.971
 7400SOL    HW223100   3.041   4.275   6.972
 7401SOL     OW23101   0.036   1.318   3.986
 7401SOL    HW123102   0.018   1.364   4.073
 7401SOL    HW223103   6.986   1.345   3.918
 7402SOL     OW23104   2.153   0.183   3.854
 7402SOL    HW123105   2.096   0.205   3.933
 7402SOL    HW223106   2.131   0.245   3.779
 7403SOL     OW23107   1.930   3.335   3.730
 7403SOL    HW123108   1.971   3.248   3.703
 7403SOL    HW223109   2.002   3.398   3.759
 7404SOL     OW23110   1.651   0.311   1.112
 7404SOL    HW123111   1.655   0.233   1.049
 7404SOL    HW223112   1.653   0.396   1.059
 7405SOL     OW23113   2.050   5.288   5.132
 7405SOL    HW123114   2.007   5.378   5.134
 7405SOL    HW223115   2.143   5.295   5.168
 7406SOL     OW23116   1.803   3.610   2.438
 7406SOL    HW123117   1.777   3.521   2.402
 7406SOL    HW223118   1.835   3.600   2.533
 7407SOL     OW23119   0.471   6.169   5.107
 7407SOL    HW123120   0.382   6.124   5.098
 7407SOL    HW223121   0.518   6.167   5.019
 7408SOL     OW23122   1.707   3.866   5.737
 7408SOL    HW123123   1.630   3.873   5.674
 7408SOL    HW223124   1.793   3.869   5.685
 7409SOL     OW23125   0.966   0.878   5.024
 7409SOL    HW123126   1.043   0.840   4.972
 7409SOL    HW223127   0.881   0.856   4.977
 7410SOL     OW23128   0.564   4.542   1.035
 7410SOL    HW123129   0.476   4.495   1.048
 7410SOL    HW223130   0.635   4.475   1.015
 7411SOL     OW23131   2.777   6.625   4.488
 7411SOL    HW123132   2.708   6.557   4.464
 7411SOL    HW223133   2.867   6.594   4.460
 7412SOL     OW23134   2.390   0.652   0.683
 7412SOL    HW123135   2.409   0.722   0.751
 7412SOL    HW223136   2.374   0.696   0.594
 7413SOL     OW23137   0.414   3.278   4.404
 7413SOL    HW123138   0.365   3.206   4.355
 7413SOL    HW223139   0.357   3.311   4.480
 7414SOL     OW23140   6.448   0.209   2.399
 7414SOL    HW123141   6.409   0.170   2.316
 7414SOL    HW223142   6.380   0.268   2.444
 7415SOL     OW23143   1.855   3.159   3.049
 7415SOL    HW123144   1.901   3.225   3.108
 7415SOL    HW223145   1.923   3.107   2.997
 7416SOL     OW23146   3.632   1.513   4.491
 7416SOL    HW123147   3.662   1.602   4.456
 7416SOL    HW223148   3.539   1.521   4.528
 7417SOL     OW23149   1.679   0.253   5.798
 7417SOL    HW123150   1.656   0.162   5.763
 7417SOL    HW223151   1.779   0.264   5.798
 7418SOL     OW23152   2.518   4.199   1.371
 7418SOL    HW123153   2.421   4.199   1.345
 7418SOL    HW223154   2.541   4.112   1.414
 7419SOL     OW23155   5.553   1.790   4.970
 7419SOL    HW123156   5.513   1.879   4.951
 7419SOL    HW223157   5.640   1.782   4.921
 7420SOL     OW23158   6.431   6.517   1.871
 7420SOL    HW123159   6.357   6.478   1.816
 7420SOL    HW223160   6.485   6.443   1.912
 7421SOL     OW23161   3.627   3.876   1.663
 7421SOL    HW123162   3.668   3.861   1.753
 7421SOL    HW223163   3.532   3.905   1.674
 7422SOL     OW23164   0.143   3.627   1.134
 7422SOL    HW123165   0.209   3.692   1.097
 7422SOL    HW223166   0.145   3.631   1.234
 7423SOL     OW23167   2.096   4.707   6.264
 7423SOL    HW123168   2.090   4.737   6.359
 7423SOL    HW223169   2.006   4.709   6.222
 7424SOL     OW23170   5.886   1.770   4.625
 7424SOL    HW123171   5.803   1.725   4.591
 7424SOL    HW223172   5.883   1.868   4.603
 7425SOL     OW23173   3.540   4.575   5.856
 7425SOL    HW123174   3.452   4.610   5.889
 7425SOL    HW223175   3.533   4.477   5.838
 7426SOL     OW23176   0.202   2.143   6.875
 7426SOL    HW123177   0.268   2.084   6.830
 7426SOL    HW223178   0.109   2.111   6.856
 7427SOL     OW23179   3.450   6.270   4.718
 7427SOL    HW123180   3.450   6.256   4.619
 7427SOL    HW223181   3.387   6.205   4.760
 7428SOL     OW23182   3.714   2.454   5.567
 7428SOL    HW123183   3.655   2.494   5.496
 7428SOL    HW223184   3.709   2.510   5.650
 7429SOL     OW23185   0.027   0.217   2.839
 7429SOL    HW123186   6.989   0.223   2.756
 7429SOL    HW223187   0.055   0.123   2.853
 7430SOL     OW23188   6.483   4.298   5.167
 7430SOL    HW123189   6.439   4.329   5.083
 7430SOL    HW223190   6.513   4.203   5.155
 7431SOL     OW23191   0.710   3.832   1.652
 7431SOL    HW123192   0.666   3.915   1.617
 7431SOL    HW223193   0.664   3.803   1.736
 7432SOL     OW23194   0.441   6.446   3.625
 7432SOL    HW123195   0.391   6.371   3.581
 7432SOL    HW223196   0.377   6.522   3.641
 7433SOL     OW23197   6.655   5.340   0.997
 7433SOL    HW123198   6.558   5.318   0.994
 7433SOL    HW223199   6.708   5.256   0.992
 7434SOL     OW23200   2.524   1.933   6.847
 7434SOL    HW123201   2.574   2.009   6.889
 7434SOL    HW223202   2.584   1.887   6.782
 7435SOL     OW23203   3.425   6.830   6.232
 7435SOL    HW123204   3.463   6.922   6.223
 7435SOL    HW223205   3.342   6.823   6.176
 7436SOL     OW23206   5.598   3.137   0.084
 7436SOL    HW123207   5.681   3.178   0.121
 7436SOL    HW223208   5.596   3.039   0.105
 7437SOL     OW23209   0.400   4.920   6.392
 7437SOL    HW123210   0.399   5.011   6.351
 7437SOL    HW223211   0.406   4.851   6.319
 7438SOL     OW23212   1.012   4.176   2.105
 7438SOL    HW123213   1.056   4.143   2.189
 7438SOL    HW223214   0.957   4.103   2.065
 7439SOL     OW23215   2.330   0.229   4.221
 7439SOL    HW123216   2.339   0.249   4.318
 7439SOL    HW223217   2.318   0.314   4.170
 7440SOL     OW23218   1.602   3.211   4.710
 7440SOL    HW123219   1.534   3.138   4.699
 7440SOL    HW223220   1.585   3.261   4.795
 7441SOL     OW23221   4.853   1.041   3.988
 7441SOL    HW123222   4.905   1.103   4.046
 7441SOL    HW223223   4.910   1.010   3.912
 7442SOL     OW23224   0.939   1.652   6.629
 7442SOL    HW123225   0.933   1.749   6.605
 7442SOL    HW223226   0.847   1.616   6.641
 7443SOL     OW23227   6.901   1.981   0.230
 7443SOL    HW123228   6.801   1.970   0.230
 7443SOL    HW223229   6.945   1.892   0.229
 7444SOL     OW23230   6.789   3.082   6.467
 7444SOL    HW123231   6.725   3.073   6.543
 7444SOL    HW223232   6.791   2.998   6.414
 7445SOL     OW23233   5.246   1.461   1.609
 7445SOL    HW123234   5.213   1.499   1.523
 7445SOL    HW223235   5.208   1.370   1.622
 7446SOL     OW23236   6.396   3.955   6.956
 7446SOL    HW123237   6.301   3.929   6.970
 7446SOL    HW223238   6.445   3.953   0.024
 7447SOL     OW23239   1.935   4.432   0.576
 7447SOL    HW123240   2.011   4.430   0.511
 7447SOL    HW223241   1.891   4.343   0.577
 7448SOL     OW23242   5.311   0.094   5.753
 7448SOL    HW123243   5.318   0.146   5.668
 7448SOL    HW223244   5.338   0.153   5.830
 7449SOL     OW23245   4.610   2.395   2.037
 7449SOL    HW123246   4.701   2.355   2.026
 7449SOL    HW223247   4.592   2.409   2.135
 7450SOL     OW23248   4.703   2.801   3.071
 7450SOL    HW123249   4.747   2.890   3.068
 7450SOL    HW223250   4.692   2.772   3.166
 7451SOL     OW23251   1.540   1.159   4.904
 7451SOL    HW123252   1.620   1.102   4.883
 7451SOL    HW223253   1.491   1.119   4.981
 7452SOL     OW23254   1.620   0.771   5.331
 7452SOL    HW123255   1.707   0.820   5.341
 7452SOL    HW223256   1.560   0.793   5.409
 7453SOL     OW23257   5.788   6.575   4.926
 7453SOL    HW123258   5.775   6.674   4.927
 7453SOL    HW223259   5.798   6.544   4.831
 7454SOL     OW23260   0.666   3.721   1.214
 7454SOL    HW123261   0.706   3.768   1.136
 7454SOL    HW223262   0.712   3.750   1.298
 7455SOL     OW23263   5.561   2.013   0.814
 7455SOL    HW123264   5.495   2.018   0.739
 7455SOL    HW223265   5.542   1.932   0.869
 7456SOL     OW23266   1.866   3.230   4.674
 7456SOL    HW123267   1.914   3.312   4.704
 7456SOL    HW223268   1.768   3.243   4.683
 7457SOL     OW23269   5.690   1.089   5.694
 7457SOL    HW123270   5.744   1.018   5.648
 7457SOL    HW223271   5.659   1.055   5.783
 7458SOL     OW23272   3.028   6.803   0.183
 7458SOL    HW123273   2.954   6.786   0.248
 7458SOL    HW223274   3.116   6.789   0.229
 7459SOL     OW23275   4.769   0.145   5.729
 7459SOL    HW123276   4.849   0.201   5.752
 7459SOL    HW223277   4.796   0.075   5.663
 7460SOL     OW23278   2.298   4.397   1.169
 7460SOL    HW123279   2.236   4.467   1.134
 7460SOL    HW223280   2.247   4.332   1.225
 7461SOL     OW23281   5.669   1.354   6.412
 7461SOL    HW123282   5.635   1.291   6.342
 7461SOL    HW223283   5.725   1.425   6.368
 7462SOL     OW23284   2.045   2.141   1.729
 7462SOL    HW123285   1.981   2.183   1.794
 7462SOL    HW223286   2.108   2.211   1.696
 7463SOL     OW23287   3.482   3.184   1.474
 7463SOL    HW123288   3.500   3.108   1.411
 7463SOL    HW223289   3.526   3.267   1.440
 7464SOL     OW23290   3.575   6.259   0.615
 7464SOL    HW123291   3.488   6.211   0.602
 7464SOL    HW223292   3.612   6.287   0.526
 7465SOL     OW23293   1.857   0.111   1.216
 7465SOL    HW123294   1.836   0.195   1.167
 7465SOL    HW223295   1.811   0.111   1.304
 7466SOL     OW23296   0.435   0.547   6.613
 7466SOL    HW123297   0.399   0.565   6.705
 7466SOL    HW223298   0.449   0.449   6.602
 7467SOL     OW23299   7.010   2.324   1.094
 7467SOL    HW123300   0.008   2.392   1.165
 7467SOL    HW223301   0.077   2.282   1.066
 7468SOL     OW23302   4.834   2.318   2.293
 7468SOL    HW123303   4.868   2.401   2.250
 7468SOL    HW223304   4.800   2.255   2.222
 7469SOL     OW23305   1.097   6.851   6.133
 7469SOL    HW123306   1.176   6.793   6.112
 7469SOL    HW223307   1.122   6.917   6.204
 7470SOL     OW23308   0.520   2.159   2.726
 7470SOL    HW123309   0.465   2.154   2.810
 7470SOL    HW223310   0.537   2.255   2.704
 7471SOL     OW23311   6.276   6.902   4.798
 7471SOL    HW123312   6.351   6.899   4.733
 7471SOL    HW223313   6.306   6.864   4.886
 7472SOL     OW23314   4.249   0.090   4.741
 7472SOL    HW123315   4.296   0.113   4.827
 7472SOL    HW223316   4.160   0.135   4.739
 7473SOL     OW23317   0.258   3.364   4.609
 7473SOL    HW123318   0.273   3.439   4.674
 7473SOL    HW223319   0.173   3.380   4.559
 7474SOL     OW23320   3.209   0.722   3.890
 7474SOL    HW123321   3.150   0.699   3.968
 7474SOL    HW223322   3.293   0.764   3.923
 7475SOL     OW23323   4.827   0.666   2.317
 7475SOL    HW123324   4.908   0.610   2.300
 7475SOL    HW223325   4.765   0.617   2.378
 7476SOL     OW23326   4.746   6.328   4.685
 7476SOL    HW123327   4.713   6.240   4.719
 7476SOL    HW223328   4.845   6.333   4.697
 7477SOL     OW23329   4.342   0.822   4.289
 7477SOL    HW123330   4.397   0.821   4.373
 7477SOL    HW223331   4.341   0.915   4.252
 7478SOL     OW23332   3.099   3.597   6.106
 7478SOL    HW123333   3.197   3.588   6.127
 7478SOL    HW223334   3.046   3.557   6.180
 7479SOL     OW23335   3.980   1.819   0.455
 7479SOL    HW123336   3.954   1.729   0.491
 7479SOL    HW223337   3.959   1.889   0.523
 7480SOL     OW23338   5.836   5.474   1.571
 7480SOL    HW123339   5.741   5.446   1.586
 7480SOL    HW223340   5.859   5.546   1.637
 7481SOL     OW23341   5.519   5.135   0.707
 7481SOL    HW123342   5.574   5.192   0.646
 7481SOL    HW223343   5.525   5.170   0.800
 7482SOL     OW23344   3.932   0.651   1.453
 7482SOL    HW123345   3.856   0.715   1.449
 7482SOL    HW223346   3.998   0.681   1.521
 7483SOL     OW23347   3.552   1.818   4.140
 7483SOL    HW123348   3.580   1.775   4.054
 7483SOL    HW223349   3.483   1.760   4.184
 7484SOL     OW23350   1.331   6.604   1.527
 7484SOL    HW123351   1.362   6.546   1.602
 7484SOL    HW223352   1.311   6.547   1.447
 7485SOL     OW23353   3.078   6.234   6.021
 7485SOL    HW123354   3.058   6.136   6.023
 7485SOL    HW223355   3.103   6.261   5.928
 7486SOL     OW23356   2.887   0.030   4.989
 7486SOL    HW123357   2.920   6.957   4.968
 7486SOL    HW223358   2.928   0.096   4.926
 7487SOL     OW23359   2.308   6.811   2.816
 7487SOL    HW123360   2.297   6.784   2.720
 7487SOL    HW223361   2.402   6.840   2.832
 7488SOL     OW23362   2.699   0.087   5.599
 7488SOL    HW123363   2.795   0.091   5.572
 7488SOL    HW223364   2.692   0.058   5.694
 7489SOL     OW23365   4.719   2.108   4.495
 7489SOL    HW123366   4.653   2.088   4.423
 7489SOL    HW223367   4.789   2.171   4.461
 7490SOL     OW23368   0.036   0.759   0.838
 7490SOL    HW123369   7.009   0.685   0.788
 7490SOL    HW223370   0.038   0.737   0.936
 7491SOL     OW23371   0.453   5.672   6.267
 7491SOL    HW123372   0.375   5.647   6.324
 7491SOL    HW223373   0.500   5.751   6.307
 7492SOL     OW23374   1.881   2.226   5.538
 7492SOL    HW123375   1.934   2.310   5.549
 7492SOL    HW223376   1.793   2.248   5.495
 7493SOL     OW23377   6.184   4.650   5.994
 7493SOL    HW123378   6.126   4.571   6.013
 7493SOL    HW223379   6.134   4.734   6.010
 7494SOL     OW23380   5.445   0.891   2.217
 7494SOL    HW123381   5.517   0.875   2.284
 7494SOL    HW223382   5.443   0.988   2.192
 7495SOL     OW23383   1.747   1.354   1.162
 7495SOL    HW123384   1.840   1.317   1.163
 7495SOL    HW223385   1.717   1.367   1.068
 7496SOL     OW23386   1.353   4.892   5.972
 7496SOL    HW123387   1.336   4.966   5.907
 7496SOL    HW223388   1.301   4.908   6.055
 7497SOL     OW23389   2.773   5.370   2.111
 7497SOL    HW123390   2.770   5.288   2.054
 7497SOL    HW223391   2.813   5.445   2.059
 7498SOL     OW23392   2.791   0.778   4.426
 7498SOL    HW123393   2.769   0.847   4.495
 7498SOL    HW223394   2.834   0.823   4.347
 7499SOL     OW23395   5.667   6.732   3.653
 7499SOL    HW123396   5.663   6.651   3.711
 7499SOL    HW223397   5.644   6.813   3.707
 7500SOL     OW23398   3.978   5.751   2.512
 7500SOL    HW123399   3.907   5.681   2.516
 7500SOL    HW223400   4.053   5.725   2.573
 7501SOL     OW23401   0.517   3.343   3.982
 7501SOL    HW123402   0.417   3.342   3.970
 7501SOL    HW223403   0.554   3.255   3.952
 7502SOL     OW23404   1.908   1.226   5.641
 7502SOL    HW123405   1.890   1.323   5.623
 7502SOL    HW223406   1.830   1.186   5.689
 7503SOL     OW23407   2.697   0.673   6.233
 7503SOL    HW123408   2.681   0.575   6.234
 7503SOL    HW223409   2.793   0.691   6.209
 7504SOL     OW23410   4.142   6.447   3.973
 7504SOL    HW123411   4.210   6.406   3.912
 7504SOL    HW223412   4.074   6.378   3.998
 7505SOL     OW23413   2.515   1.131   5.047
 7505SOL    HW123414   2.530   1.218   5.093
 7505SOL    HW223415   2.532   1.142   4.949
 7506SOL     OW23416   3.632   0.645   2.613
 7506SOL    HW123417   3.590   0.557   2.636
 7506SOL    HW223418   3.625   0.707   2.692
 7507SOL     OW23419   0.539   6.499   6.405
 7507SOL    HW123420   0.468   6.513   6.336
 7507SOL    HW223421   0.597   6.422   6.380
 7508SOL     OW23422   5.558   6.618   2.518
 7508SOL    HW123423   5.626   6.592   2.586
 7508SOL    HW223424   5.517   6.706   2.543
 7509SOL     OW23425   5.231   4.452   0.637
 7509SOL    HW123426   5.178   4.369   0.649
 7509SOL    HW223427   5.301   4.458   0.709
 7510SOL     OW23428   3.050   3.987   4.487
 7510SOL    HW123429   3.109   4.007   4.566
 7510SOL    HW223430   3.075   4.047   4.411
 7511SOL     OW23431   1.430   0.535   2.383
 7511SOL    HW123432   1.430   0.436   2.371
 7511SOL    HW223433   1.505   0.562   2.444
 7512SOL     OW23434   2.639   3.915   1.489
 7512SOL    HW123435   2.688   3.893   1.404
 7512SOL    HW223436   2.541   3.920   1.471
 7513SOL     OW23437   1.903   2.813   6.499
 7513SOL    HW123438   1.809   2.847   6.500
 7513SOL    HW223439   1.910   2.732   6.558
 7514SOL     OW23440   3.107   6.094   1.813
 7514SOL    HW123441   3.016   6.095   1.854
 7514SOL    HW223442   3.176   6.116   1.883
 7515SOL     OW23443   0.891   0.470   2.656
 7515SOL    HW123444   0.847   0.545   2.705
 7515SOL    HW223445   0.879   0.482   2.558
 7516SOL     OW23446   6.937   6.323   4.383
 7516SOL    HW123447   0.006   6.323   4.431
 7516SOL    HW223448   6.866   6.360   4.443
 7517SOL     OW23449   6.697   3.824   1.610
 7517SOL    HW123450   6.696   3.802   1.707
 7517SOL    HW223451   6.728   3.744   1.558
 7518SOL     OW23452   3.759   5.716   3.447
 7518SOL    HW123453   3.726   5.810   3.450
 7518SOL    HW223454   3.804   5.694   3.534
 7519SOL     OW23455   1.143   6.875   4.113
 7519SOL    HW123456   1.228   6.925   4.125
 7519SOL    HW223457   1.159   6.778   4.128
 7520SOL     OW23458   1.602   0.586   2.557
 7520SOL    HW123459   1.569   0.658   2.618
 7520SOL    HW223460   1.693   0.610   2.524
 7521SOL     OW23461   4.596   4.544   5.395
 7521SOL    HW123462   4.696   4.543   5.391
 7521SOL    HW223463   4.564   4.473   5.458
 7522SOL     OW23464   2.437   1.115   6.938
 7522SOL    HW123465   2.436   1.212   6.915
 7522SOL    HW223466   2.494   1.100   0.001
 7523SOL     OW23467   6.249   0.266   5.389
 7523SOL    HW123468   6.212   0.226   5.473
 7523SOL    HW223469   6.337   0.310   5.410
 7524SOL     OW23470   0.004   2.113   5.898
 7524SOL    HW123471   0.048   2.023   5.903
 7524SOL    HW223472   6.947   2.116   5.963
 7525SOL     OW23473   2.224   6.894   0.181
 7525SOL    HW123474   2.135   6.849   0.185
 7525SOL    HW223475   2.212   6.989   0.151
 7526SOL     OW23476   3.139   3.098   4.055
 7526SOL    HW123477   3.072   3.165   4.089
 7526SOL    HW223478   3.211   3.087   4.124
 7527SOL     OW23479   4.956   4.298   2.166
 7527SOL    HW123480   4.943   4.397   2.157
 7527SOL    HW223481   5.054   4.278   2.171
 7528SOL     OW23482   4.295   2.660   0.409
 7528SOL    HW123483   4.256   2.716   0.482
 7528SOL    HW223484   4.317   2.719   0.330
 7529SOL     OW23485   4.997   1.028   3.593
 7529SOL    HW123486   4.995   1.003   3.496
 7529SOL    HW223487   4.905   1.020   3.631
 7530SOL     OW23488   6.955   3.433   2.237
 7530SOL    HW123489   7.012   3.501   2.192
 7530SOL    HW223490   7.013   3.371   2.291
 7531SOL     OW23491   4.249   1.893   3.802
 7531SOL    HW123492   4.314   1.969   3.809
 7531SOL    HW223493   4.156   1.930   3.793
 7532SOL     OW23494   5.329   5.451   1.878
 7532SOL    HW123495   5.268   5.409   1.811
 7532SOL    HW223496   5.363   5.538   1.843
 7533SOL     OW23497   2.331   1.714   3.259
 7533SOL    HW123498   2.347   1.631   3.312
 7533SOL    HW223499   2.246   1.757   3.289
 7534SOL     OW23500   4.105   6.177   5.095
 7534SOL    HW123501   4.016   6.139   5.068
 7534SOL    HW223502   4.168   6.102   5.115
 7535SOL     OW23503   2.253   1.653   5.429
 7535SOL    HW123504   2.219   1.571   5.475
 7535SOL    HW223505   2.176   1.702   5.388
 7536SOL     OW23506   4.924   5.033   5.188
 7536SOL    HW123507   4.929   5.113   5.249
 7536SOL    HW223508   4.936   4.950   5.242
 7537SOL     OW23509   1.959   4.485   4.661
 7537SOL    HW123510   1.975   4.498   4.759
 7537SOL    HW223511   1.864   4.509   4.639
 7538SOL     OW23512   3.243   3.459   2.589
 7538SOL    HW123513   3.260   3.365   2.619
 7538SOL    HW223514   3.151   3.465   2.551
 7539SOL     OW23515   2.421   2.685   5.029
 7539SOL    HW123516   2.421   2.781   5.000
 7539SOL    HW223517   2.344   2.669   5.090
 7540SOL     OW23518   3.209   0.771   6.895
 7540SOL    HW123519   3.269   0.839   6.937
 7540SOL    HW223520   3.189   0.699   6.961
 7541SOL     OW23521   6.408   3.293   5.461
 7541SOL    HW123522   6.464   3.374   5.441
 7541SOL    HW223523   6.447   3.213   5.416
 7542SOL     OW23524   1.290   6.886   5.753
 7542SOL    HW123525   1.224   6.955   5.784
 7542SOL    HW223526   1.253   6.836   5.675
 7543SOL     OW23527   4.115   2.131   0.628
 7543SOL    HW123528   4.165   2.203   0.676
 7543SOL    HW223529   4.181   2.068   0.586
 7544SOL     OW23530   0.300   2.477   2.813
 7544SOL    HW123531   0.396   2.450   2.815
 7544SOL    HW223532   0.246   2.411   2.865
 7545SOL     OW23533   4.536   6.693   2.806
 7545SOL    HW123534   4.439   6.707   2.827
 7545SOL    HW223535   4.574   6.777   2.766
 7546SOL     OW23536   4.766   0.839   6.831
 7546SOL    HW123537   4.770   0.929   6.875
 7546SOL    HW223538   4.689   0.788   6.867
 7547SOL     OW23539   4.092   0.126   0.527
 7547SOL    HW123540   4.095   0.036   0.482
 7547SOL    HW223541   3.996   0.150   0.545
 7548SOL     OW23542   1.846   1.705   0.903
 7548SOL    HW123543   1.922   1.667   0.955
 7548SOL    HW223544   1.832   1.652   0.820
 7549SOL     OW23545   5.744   1.653   2.254
 7549SOL    HW123546   5.730   1.594   2.333
 7549SOL    HW223547   5.659   1.661   2.202
 7550SOL     OW23548   2.129   5.856   2.449
 7550SOL    HW123549   2.128   5.799   2.531
 7550SOL    HW223550   2.063   5.819   2.383
 7551SOL     OW23551   4.489   3.679   0.035
 7551SOL    HW123552   4.547   3.758   0.056
 7551SOL    HW223553   4.511   3.604   0.097
 7552SOL     OW23554   2.980   5.967   3.860
 7552SOL    HW123555   3.080   5.971   3.863
 7552SOL    HW223556   2.952   5.887   3.807
 7553SOL     OW23557   3.969   4.649   5.741
 7553SOL    HW123558   3.900   4.578   5.727
 7553SOL    HW223559   3.924   4.737   5.760
 7554SOL     OW23560   4.811   2.324   0.646
 7554SOL    HW123561   4.790   2.346   0.741
 7554SOL    HW223562   4.860   2.237   0.642
 7555SOL     OW23563   0.790   5.784   5.187
 7555SOL    HW123564   0.705   5.819   5.147
 7555SOL    HW223565   0.770   5.704   5.243
 7556SOL     OW23566   0.838   3.190   5.400
 7556SOL    HW123567   0.915   3.127   5.402
 7556SOL    HW223568   0.872   3.284   5.390
 7557SOL     OW23569   5.429   3.984   6.171
 7557SOL    HW123570   5.419   3.888   6.145
 7557SOL    HW223571   5.340   4.030   6.164
 7558SOL     OW23572   2.378   2.325   4.045
 7558SOL    HW123573   2.442   2.402   4.053
 7558SOL    HW223574   2.403   2.269   3.967
 7559SOL     OW23575   6.384   5.301   1.065
 7559SOL    HW123576   6.351   5.249   1.144
 7559SOL    HW223577   6.377   5.244   0.983
 7560SOL     OW23578   4.828   6.795   7.018
 7560SOL    HW123579   4.874   6.801   6.930
 7560SOL    HW223580   4.812   6.699   0.022
 7561SOL     OW23581   0.756   3.867   0.942
 7561SOL    HW123582   0.790   3.888   0.850
 7561SOL    HW223583   0.804   3.924   1.008
 7562SOL     OW23584   5.935   5.955   4.548
 7562SOL    HW123585   5.902   5.981   4.458
 7562SOL    HW223586   5.908   6.024   4.615
 7563SOL     OW23587   2.872   0.377   1.678
 7563SOL    HW123588   2.828   0.425   1.602
 7563SOL    HW223589   2.866   0.279   1.662
 7564SOL     OW23590   5.215   0.457   2.909
 7564SOL    HW123591   5.289   0.508   2.953
 7564SOL    HW223592   5.156   0.520   2.859
 7565SOL     OW23593   4.583   4.639   6.574
 7565SOL    HW123594   4.635   4.628   6.489
 7565SOL    HW223595   4.536   4.554   6.596
 7566SOL     OW23596   0.794   4.978   3.738
 7566SOL    HW123597   0.884   4.938   3.752
 7566SOL    HW223598   0.795   5.034   3.656
 7567SOL     OW23599   2.355   3.952   5.992
 7567SOL    HW123600   2.306   4.035   6.019
 7567SOL    HW223601   2.423   3.930   6.062
 7568SOL     OW23602   5.748   5.572   4.250
 7568SOL    HW123603   5.845   5.581   4.226
 7568SOL    HW223604   5.692   5.596   4.170
 7569SOL     OW23605   4.111   6.184   6.547
 7569SOL    HW123606   4.109   6.273   6.501
 7569SOL    HW223607   4.168   6.121   6.495
 7570SOL     OW23608   5.492   4.244   4.822
 7570SOL    HW123609   5.467   4.329   4.869
 7570SOL    HW223610   5.533   4.266   4.733
 7571SOL     OW23611   5.061   3.940   2.067
 7571SOL    HW123612   5.033   3.847   2.044
 7571SOL    HW223613   4.981   3.992   2.098
 7572SOL     OW23614   4.811   0.459   4.057
 7572SOL    HW123615   4.804   0.557   4.072
 7572SOL    HW223616   4.877   0.420   4.122
 7573SOL     OW23617   6.466   5.899   4.184
 7573SOL    HW123618   6.384   5.859   4.142
 7573SOL    HW223619   6.524   5.826   4.220
 7574SOL     OW23620   5.745   1.499   3.882
 7574SOL    HW123621   5.778   1.558   3.955
 7574SOL    HW223622   5.801   1.513   3.800
 7575SOL     OW23623   4.330   0.863   5.987
 7575SOL    HW123624   4.295   0.858   5.894
 7575SOL    HW223625   4.254   0.872   6.051
 7576SOL     OW23626   5.733   5.360   0.303
 7576SOL    HW123627   5.818   5.308   0.301
 7576SOL    HW223628   5.684   5.348   0.216
 7577SOL     OW23629   6.536   0.175   4.686
 7577SOL    HW123630   6.581   0.251   4.641
 7577SOL    HW223631   6.490   0.118   4.619
 7578SOL     OW23632   2.054   6.516   3.892
 7578SOL    HW123633   2.142   6.562   3.903
 7578SOL    HW223634   1.995   6.570   3.831
 7579SOL     OW23635   4.388   2.144   2.079
 7579SOL    HW123636   4.290   2.157   2.092
 7579SOL    HW223637   4.438   2.224   2.111
 7580SOL     OW23638   1.265   3.768   3.129
 7580SOL    HW123639   1.170   3.736   3.124
 7580SOL    HW223640   1.292   3.778   3.224
 7581SOL     OW23641   4.767   1.798   0.570
 7581SOL    HW123642   4.807   1.890   0.563
 7581SOL    HW223643   4.836   1.734   0.605
 7582SOL     OW23644   3.658   1.717   0.624
 7582SOL    HW123645   3.599   1.641   0.595
 7582SOL    HW223646   3.752   1.684   0.635
 7583SOL     OW23647   5.871   3.986   2.135
 7583SOL    HW123648   5.927   4.035   2.068
 7583SOL    HW223649   5.783   4.032   2.145
 7584SOL     OW23650   2.587   6.543   1.087
 7584SOL    HW123651   2.534   6.469   1.046
 7584SOL    HW223652   2.684   6.524   1.075
 7585SOL     OW23653   0.997   4.064   5.832
 7585SOL    HW123654   1.010   3.968   5.807
 7585SOL    HW223655   0.903   4.077   5.865
 7586SOL     OW23656   2.399   0.456   2.456
 7586SOL    HW123657   2.362   0.409   2.376
 7586SOL    HW223658   2.478   0.406   2.491
 7587SOL     OW23659   2.139   1.561   0.022
 7587SOL    HW123660   2.225   1.513   0.038
 7587SOL    HW223661   2.113   1.551   6.945
 7588SOL     OW23662   0.526   4.653   2.042
 7588SOL    HW123663   0.456   4.603   2.092
 7588SOL    HW223664   0.596   4.685   2.105
 7589SOL     OW23665   6.124   5.876   0.561
 7589SOL    HW123666   6.168   5.833   0.482
 7589SOL    HW223667   6.036   5.914   0.534
 7590SOL     OW23668   2.758   1.419   5.533
 7590SOL    HW123669   2.809   1.334   5.520
 7590SOL    HW223670   2.742   1.433   5.631
 7591SOL     OW23671   0.380   5.175   0.128
 7591SOL    HW123672   0.388   5.154   0.031
 7591SOL    HW223673   0.284   5.174   0.156
 7592SOL     OW23674   0.084   4.929   6.979
 7592SOL    HW123675   0.131   5.014   6.955
 7592SOL    HW223676   0.128   4.852   6.933
 7593SOL     OW23677   5.834   2.488   6.962
 7593SOL    HW123678   5.793   2.486   6.871
 7593SOL    HW223679   5.924   2.444   6.959
 7594SOL     OW23680   0.868   4.902   2.499
 7594SOL    HW123681   0.770   4.916   2.516
 7594SOL    HW223682   0.900   4.825   2.554
 7595SOL     OW23683   0.106   2.861   6.396
 7595SOL    HW123684   0.167   2.785   6.375
 7595SOL    HW223685   0.142   2.945   6.357
 7596SOL     OW23686   5.097   5.058   2.636
 7596SOL    HW123687   5.158   5.099   2.568
 7596SOL    HW223688   5.021   5.120   2.655
 7597SOL     OW23689   3.368   5.828   1.902
 7597SOL    HW123690   3.345   5.914   1.948
 7597SOL    HW223691   3.466   5.824   1.885
 7598SOL     OW23692   6.103   0.831   3.065
 7598SOL    HW123693   6.009   0.837   3.032
 7598SOL    HW223694   6.106   0.775   3.148
 7599SOL     OW23695   5.244   1.483   3.370
 7599SOL    HW123696   5.229   1.580   3.388
 7599SOL    HW223697   5.274   1.438   3.454
 7600SOL     OW23698   1.217   1.118   2.131
 7600SOL    HW123699   1.291   1.185   2.124
 7600SOL    HW223700   1.251   1.028   2.104
 7601SOL     OW23701   1.696   5.544   3.702
 7601SOL    HW123702   1.759   5.589   3.638
 7601SOL    HW223703   1.746   5.479   3.759
 7602SOL     OW23704   2.174   4.288   4.713
 7602SOL    HW123705   2.107   4.347   4.668
 7602SOL    HW223706   2.234   4.248   4.643
 7603SOL     OW23707   1.400   6.574   6.315
 7603SOL    HW123708   1.430   6.484   6.284
 7603SOL    HW223709   1.312   6.566   6.363
 7604SOL     OW23710   3.297   6.146   3.795
 7604SOL    HW123711   3.205   6.180   3.778
 7604SOL    HW223712   3.361   6.223   3.796
 7605SOL     OW23713   1.341   5.793   0.047
 7605SOL    HW123714   1.284   5.741   0.111
 7605SOL    HW223715   1.301   5.884   0.034
 7606SOL     OW23716   0.216   2.915   2.085
 7606SOL    HW123717   0.311   2.939   2.105
 7606SOL    HW223718   0.178   2.863   2.161
 7607SOL     OW23719   4.170   0.121   6.937
 7607SOL    HW123720   4.259   0.113   6.893
 7607SOL    HW223721   4.182   0.125   0.018
 7608SOL     OW23722   3.557   4.191   3.743
 7608SOL    HW123723   3.606   4.156   3.663
 7608SOL    HW223724   3.621   4.204   3.818
 7609SOL     OW23725   6.714   3.478   3.531
 7609SOL    HW123726   6.787   3.420   3.566
 7609SOL    HW223727   6.738   3.574   3.544
 7610SOL     OW23728   6.243   0.640   1.022
 7610SOL    HW123729   6.260   0.645   0.923
 7610SOL    HW223730   6.233   0.732   1.059
 7611SOL     OW23731   0.956   1.990   0.382
 7611SOL    HW123732   1.019   1.963   0.309
 7611SOL    HW223733   0.889   2.054   0.346
 7612SOL     OW23734   3.792   1.923   4.179
 7612SOL    HW123735   3.701   1.896   4.149
 7612SOL    HW223736   3.859   1.898   4.110
 7613SOL     OW23737   4.821   2.083   1.569
 7613SOL    HW123738   4.735   2.091   1.520
 7613SOL    HW223739   4.811   2.121   1.661
 7614SOL     OW23740   4.006   2.450   1.696
 7614SOL    HW123741   4.101   2.422   1.691
 7614SOL    HW223742   3.956   2.389   1.758
 7615SOL     OW23743   5.128   4.657   6.723
 7615SOL    HW123744   5.052   4.624   6.779
 7615SOL    HW223745   5.169   4.580   6.674
 7616SOL     OW23746   0.877   4.251   4.322
 7616SOL    HW123747   0.807   4.181   4.320
 7616SOL    HW223748   0.965   4.210   4.347
 7617SOL     OW23749   2.920   5.689   3.791
 7617SOL    HW123750   3.003   5.664   3.741
 7617SOL    HW223751   2.932   5.669   3.888
 7618SOL     OW23752   1.117   2.307   6.498
 7618SOL    HW123753   1.196   2.248   6.482
 7618SOL    HW223754   1.105   2.321   6.597
 7619SOL     OW23755   5.789   3.199   5.558
 7619SOL    HW123756   5.704   3.245   5.531
 7619SOL    HW223757   5.853   3.267   5.594
 7620SOL     OW23758   3.792   6.666   1.175
 7620SOL    HW123759   3.843   6.580   1.169
 7620SOL    HW223760   3.694   6.648   1.171
 7621SOL     OW23761   0.911   1.014   0.627
 7621SOL    HW123762   0.904   1.047   0.721
 7621SOL    HW223763   0.843   0.942   0.612
 7622SOL     OW23764   5.607   2.963   1.952
 7622SOL    HW123765   5.567   3.055   1.954
 7622SOL    HW223766   5.703   2.968   1.981
 7623SOL     OW23767   4.857   5.083   6.437
 7623SOL    HW123768   4.773   5.114   6.482
 7623SOL    HW223769   4.856   4.983   6.429
 7624SOL     OW23770   0.596   2.242   4.111
 7624SOL    HW123771   0.508   2.246   4.159
 7624SOL    HW223772   0.670   2.241   4.178
 7625SOL     OW23773   5.187   0.850   0.675
 7625SOL    HW123774   5.259   0.789   0.642
 7625SOL    HW223775   5.149   0.902   0.598
 7626SOL     OW23776   0.316   6.515   5.082
 7626SOL    HW123777   0.267   6.602   5.094
 7626SOL    HW223778   0.400   6.532   5.030
 7627SOL     OW23779   6.110   3.265   0.423
 7627SOL    HW123780   6.108   3.236   0.519
 7627SOL    HW223781   6.019   3.296   0.396
 7628SOL     OW23782   3.050   1.034   1.183
 7628SOL    HW123783   3.068   1.073   1.273
 7628SOL    HW223784   3.047   1.106   1.114
 7629SOL     OW23785   6.200   6.489   2.569
 7629SOL    HW123786   6.287   6.519   2.609
 7629SOL    HW223787   6.134   6.564   2.573
 7630SOL     OW23788   5.849   6.576   2.422
 7630SOL    HW123789   5.782   6.648   2.439
 7630SOL    HW223790   5.814   6.490   2.458
 7631SOL     OW23791   1.326   2.078   5.581
 7631SOL    HW123792   1.367   1.987   5.589
 7631SOL    HW223793   1.230   2.074   5.607
 7632SOL     OW23794   3.880   2.190   1.017
 7632SOL    HW123795   3.791   2.154   0.989
 7632SOL    HW223796   3.952   2.132   0.979
 7633SOL     OW23797   5.427   2.652   0.252
 7633SOL    HW123798   5.501   2.604   0.206
 7633SOL    HW223799   5.400   2.600   0.334
 7634SOL     OW23800   0.786   1.621   2.236
 7634SOL    HW123801   0.869   1.567   2.245
 7634SOL    HW223802   0.765   1.665   2.324
 7635SOL     OW23803   2.333   5.319   5.171
 7635SOL    HW123804   2.393   5.343   5.095
 7635SOL    HW223805   2.386   5.271   5.241
 7636SOL     OW23806   1.280   1.386   3.810
 7636SOL    HW123807   1.214   1.417   3.741
 7636SOL    HW223808   1.231   1.348   3.888
 7637SOL     OW23809   2.005   6.535   3.202
 7637SOL    HW123810   2.009   6.630   3.232
 7637SOL    HW223811   1.925   6.522   3.142
 7638SOL     OW23812   5.572   5.400   1.652
 7638SOL    HW123813   5.579   5.301   1.658
 7638SOL    HW223814   5.528   5.436   1.734
 7639SOL     OW23815   1.325   2.111   6.879
 7639SOL    HW123816   1.309   2.021   6.838
 7639SOL    HW223817   1.378   2.167   6.815
 7640SOL     OW23818   2.390   1.958   0.066
 7640SOL    HW123819   2.428   1.948   6.993
 7640SOL    HW223820   2.331   2.039   0.069
 7641SOL     OW23821   0.801   4.550   1.707
 7641SOL    HW123822   0.879   4.531   1.766
 7641SOL    HW223823   0.822   4.521   1.613
 7642SOL     OW23824   2.449   1.961   2.879
 7642SOL    HW123825   2.524   2.000   2.933
 7642SOL    HW223826   2.427   1.870   2.915
 7643SOL     OW23827   5.001   2.413   3.556
 7643SOL    HW123828   4.918   2.384   3.509
 7643SOL    HW223829   5.011   2.512   3.547
 7644SOL     OW23830   6.490   2.383   2.588
 7644SOL    HW123831   6.544   2.447   2.643
 7644SOL    HW223832   6.396   2.416   2.582
 7645SOL     OW23833   5.196   5.186   5.981
 7645SOL    HW123834   5.158   5.183   6.073
 7645SOL    HW223835   5.258   5.108   5.968
 7646SOL     OW23836   1.888   2.107   2.267
 7646SOL    HW123837   1.935   2.087   2.353
 7646SOL    HW223838   1.925   2.048   2.195
 7647SOL     OW23839   0.942   3.368   1.261
 7647SOL    HW123840   0.878   3.298   1.230
 7647SOL    HW223841   0.950   3.439   1.191
 7648SOL     OW23842   4.286   2.266   3.596
 7648SOL    HW123843   4.208   2.224   3.644
 7648SOL    HW223844   4.252   2.329   3.526
 7649SOL     OW23845   0.679   0.507   2.320
 7649SOL    HW123846   0.673   0.432   2.386
 7649SOL    HW223847   0.683   0.471   2.228
 7650SOL     OW23848   6.066   3.350   2.025
 7650SOL    HW123849   6.031   3.261   1.996
 7650SOL    HW223850   6.016   3.422   1.978
 7651SOL     OW23851   2.167   6.864   6.320
 7651SOL    HW123852   2.087   6.813   6.350
 7651SOL    HW223853   2.199   6.829   6.233
 7652SOL     OW23854   6.849   3.691   4.105
 7652SOL    HW123855   6.907   3.682   4.186
 7652SOL    HW223856   6.846   3.787   4.077
 7653SOL     OW23857   1.913   0.982   1.068
 7653SOL    HW123858   1.846   0.974   1.142
 7653SOL    HW223859   1.865   0.980   0.980
 7654SOL     OW23860   4.932   2.666   2.971
 7654SOL    HW123861   4.840   2.703   2.983
 7654SOL    HW223862   4.999   2.740   2.974
 7655SOL     OW23863   3.645   0.278   3.830
 7655SOL    HW123864   3.680   0.371   3.820
 7655SOL    HW223865   3.598   0.251   3.745
 7656SOL     OW23866   1.114   6.080   5.959
 7656SOL    HW123867   1.126   5.996   6.012
 7656SOL    HW223868   1.053   6.061   5.882
 7657SOL     OW23869   2.965   2.242   2.831
 7657SOL    HW123870   2.892   2.192   2.783
 7657SOL    HW223871   3.044   2.252   2.771
 7658SOL     OW23872   4.453   6.911   5.879
 7658SOL    HW123873   4.440   7.009   5.887
 7658SOL    HW223874   4.544   6.887   5.914
 7659SOL     OW23875   5.570   6.641   6.964
 7659SOL    HW123876   5.480   6.603   6.982
 7659SOL    HW223877   5.594   6.629   6.868
 7660SOL     OW23878   6.027   5.698   4.536
 7660SOL    HW123879   6.001   5.792   4.557
 7660SOL    HW223880   6.024   5.643   4.620
 7661SOL     OW23881   5.873   1.931   4.339
 7661SOL    HW123882   5.904   2.009   4.285
 7661SOL    HW223883   5.784   1.901   4.307
 7662SOL     OW23884   1.567   2.591   2.092
 7662SOL    HW123885   1.550   2.507   2.041
 7662SOL    HW223886   1.634   2.574   2.164
 7663SOL     OW23887   6.590   5.998   6.472
 7663SOL    HW123888   6.593   6.040   6.562
 7663SOL    HW223889   6.641   6.055   6.407
 7664SOL     OW23890   2.926   6.841   2.646
 7664SOL    HW123891   2.982   6.814   2.724
 7664SOL    HW223892   2.965   6.921   2.602
 7665SOL     OW23893   3.537   0.295   3.229
 7665SOL    HW123894   3.623   0.264   3.270
 7665SOL    HW223895   3.479   0.336   3.300
 7666SOL     OW23896   6.929   6.845   1.483
 7666SOL    HW123897   6.858   6.901   1.441
 7666SOL    HW223898   0.001   6.878   1.453
 7667SOL     OW23899   5.497   5.972   0.586
 7667SOL    HW123900   5.407   5.939   0.555
 7667SOL    HW223901   5.557   5.986   0.507
 7668SOL     OW23902   3.016   3.961   1.379
 7668SOL    HW123903   2.931   3.912   1.361
 7668SOL    HW223904   3.062   3.982   1.293
 7669SOL     OW23905   5.379   1.576   4.721
 7669SOL    HW123906   5.349   1.662   4.679
 7669SOL    HW223907   5.425   1.595   4.807
 7670SOL     OW23908   1.592   5.894   6.519
 7670SOL    HW123909   1.544   5.880   6.605
 7670SOL    HW223910   1.690   5.899   6.537
 7671SOL     OW23911   4.299   1.307   4.372
 7671SOL    HW123912   4.299   1.403   4.344
 7671SOL    HW223913   4.371   1.258   4.323
 7672SOL     OW23914   5.649   6.799   3.391
 7672SOL    HW123915   5.716   6.747   3.338
 7672SOL    HW223916   5.652   6.769   3.487
 7673SOL     OW23917   2.232   4.865   0.501
 7673SOL    HW123918   2.249   4.907   0.412
 7673SOL    HW223919   2.310   4.809   0.528
 7674SOL     OW23920   6.806   2.009   4.168
 7674SOL    HW123921   6.720   2.053   4.144
 7674SOL    HW223922   6.797   1.910   4.155
 7675SOL     OW23923   5.127   0.585   2.235
 7675SOL    HW123924   5.214   0.537   2.247
 7675SOL    HW223925   5.141   0.682   2.253
 7676SOL     OW23926   0.633   1.777   0.345
 7676SOL    HW123927   0.653   1.808   0.438
 7676SOL    HW223928   0.584   1.849   0.296
 7677SOL     OW23929   1.441   3.095   2.126
 7677SOL    HW123930   1.395   3.079   2.038
 7677SOL    HW223931   1.512   3.026   2.139
 7678SOL     OW23932   1.317   1.295   6.344
 7678SOL    HW123933   1.306   1.229   6.270
 7678SOL    HW223934   1.384   1.364   6.317
 7679SOL     OW23935   1.354   6.051   4.800
 7679SOL    HW123936   1.403   6.138   4.802
 7679SOL    HW223937   1.273   6.057   4.858
 7680SOL     OW23938   2.150   3.089   7.012
 7680SOL    HW123939   2.140   3.096   0.093
 7680SOL    HW223940   2.247   3.075   6.990
 7681SOL     OW23941   3.294   0.351   0.266
 7681SOL    HW123942   3.374   0.410   0.270
 7681SOL    HW223943   3.247   0.352   0.355
 7682SOL     OW23944   2.399   0.218   1.527
 7682SOL    HW123945   2.357   0.174   1.447
 7682SOL    HW223946   2.372   0.314   1.529
 7683SOL     OW23947   6.561   2.322   3.706
 7683SOL    HW123948   6.596   2.247   3.651
 7683SOL    HW223949   6.597   2.409   3.672
 7684SOL     OW23950   5.813   2.158   6.953
 7684SOL    HW123951   5.720   2.125   6.933
 7684SOL    HW223952   5.811   2.257   6.968
 7685SOL     OW23953   3.669   2.563   6.841
 7685SOL    HW123954   3.757   2.532   6.878
 7685SOL    HW223955   3.669   2.662   6.834
 7686SOL     OW23956   4.258   0.333   3.017
 7686SOL    HW123957   4.243   0.395   2.940
 7686SOL    HW223958   4.236   0.380   3.103
 7687SOL     OW23959   5.300   5.718   5.735
 7687SOL    HW123960   5.281   5.752   5.827
 7687SOL    HW223961   5.377   5.655   5.738
 7688SOL     OW23962   6.911   6.987   6.508
 7688SOL    HW123963   6.872   0.001   6.594
 7688SOL    HW223964   6.942   0.046   6.453
 7689SOL     OW23965   4.958   6.096   3.788
 7689SOL    HW123966   5.033   6.071   3.849
 7689SOL    HW223967   4.963   6.040   3.705
 7690SOL     OW23968   5.731   5.534   2.342
 7690SOL    HW123969   5.828   5.538   2.319
 7690SOL    HW223970   5.691   5.626   2.335
 7691SOL     OW23971   4.667   2.775   4.347
 7691SOL    HW123972   4.624   2.695   4.304
 7691SOL    HW223973   4.735   2.813   4.284
 7692SOL     OW23974   0.688   6.791   1.410
 7692SOL    HW123975   0.717   6.885   1.431
 7692SOL    HW223976   0.750   6.727   1.454
 7693SOL     OW23977   4.363   1.041   0.135
 7693SOL    HW123978   4.364   0.942   0.150
 7693SOL    HW223979   4.298   1.083   0.198
 7694SOL     OW23980   1.056   4.483   4.130
 7694SOL    HW123981   1.029   4.497   4.226
 7694SOL    HW223982   1.144   4.436   4.127
 7695SOL     OW23983   4.037   0.201   1.025
 7695SOL    HW123984   4.063   0.132   1.093
 7695SOL    HW223985   4.120   0.239   0.983
 7696SOL     OW23986   6.728   1.879   4.450
 7696SOL    HW123987   6.789   1.882   4.371
 7696SOL    HW223988   6.780   1.849   4.530
 7697SOL     OW23989   2.453   1.053   3.084
 7697SOL    HW123990   2.546   1.023   3.060
 7697SOL    HW223991   2.398   1.060   3.001
 7698SOL     OW23992   0.202   2.884   4.551
 7698SOL    HW123993   0.235   2.935   4.472
 7698SOL    HW223994   0.275   2.876   4.619
 7699SOL     OW23995   2.600   5.770   0.088
 7699SOL    HW123996   2.634   5.843   0.147
 7699SOL    HW223997   2.558   5.810   0.006
 7700SOL     OW23998   5.107   6.889   5.340
 7700SOL    HW123999   5.124   6.920   5.434
 7700SOL    HW224000   5.192   6.896   5.287
 7701SOL     OW24001   6.260   1.472   6.798
 7701SOL    HW124002   6.216   1.532   6.731
 7701SOL    HW224003   6.356   1.497   6.806
 7702SOL     OW24004   3.771   6.071   5.877
 7702SOL    HW124005   3.816   5.982   5.868
 7702SOL    HW224006   3.751   6.108   5.787
 7703SOL     OW24007   6.371   1.556   4.993
 7703SOL    HW124008   6.311   1.636   4.991
 7703SOL    HW224009   6.370   1.511   4.904
 7704SOL     OW24010   4.192   4.958   5.821
 7704SOL    HW124011   4.161   4.929   5.731
 7704SOL    HW224012   4.143   4.908   5.892
 7705SOL     OW24013   3.245   4.849   5.447
 7705SOL    HW124014   3.201   4.820   5.362
 7705SOL    HW224015   3.232   4.778   5.516
 7706SOL     OW24016   5.425   1.063   5.931
 7706SOL    HW124017   5.514   1.091   5.966
 7706SOL    HW224018   5.431   0.971   5.893
 7707SOL     OW24019   0.245   5.758   6.661
 7707SOL    HW124020   0.302   5.806   6.595
 7707SOL    HW224021   0.219   5.668   6.624
 7708SOL     OW24022   5.298   5.802   4.850
 7708SOL    HW124023   5.281   5.900   4.837
 7708SOL    HW224024   5.220   5.750   4.816
 7709SOL     OW24025   5.677   3.247   2.206
 7709SOL    HW124026   5.740   3.180   2.244
 7709SOL    HW224027   5.589   3.241   2.254
 7710SOL     OW24028   2.191   0.595   1.254
 7710SOL    HW124029   2.261   0.610   1.184
 7710SOL    HW224030   2.150   0.683   1.280
 7711SOL     OW24031   6.372   6.514   4.993
 7711SOL    HW124032   6.349   6.418   4.974
 7711SOL    HW224033   6.469   6.522   5.014
 7712SOL     OW24034   6.963   5.241   1.372
 7712SOL    HW124035   0.029   5.190   1.387
 7712SOL    HW224036   6.972   5.297   1.289
 7713SOL     OW24037   2.241   3.813   0.786
 7713SOL    HW124038   2.316   3.796   0.723
 7713SOL    HW224039   2.277   3.850   0.872
 7714SOL     OW24040   6.377   5.175   4.838
 7714SOL    HW124041   6.454   5.128   4.882
 7714SOL    HW224042   6.395   5.274   4.835
 7715SOL     OW24043   4.961   0.973   1.379
 7715SOL    HW124044   5.055   1.008   1.385
 7715SOL    HW224045   4.957   0.901   1.309
 7716SOL     OW24046   4.847   3.056   3.369
 7716SOL    HW124047   4.836   3.156   3.370
 7716SOL    HW224048   4.798   3.016   3.446
 7717SOL     OW24049   2.712   1.545   4.930
 7717SOL    HW124050   2.706   1.556   5.029
 7717SOL    HW224051   2.636   1.592   4.886
 7718SOL     OW24052   1.501   1.945   3.589
 7718SOL    HW124053   1.486   1.930   3.687
 7718SOL    HW224054   1.592   1.984   3.575
 7719SOL     OW24055   6.852   3.259   3.810
 7719SOL    HW124056   6.866   3.160   3.806
 7719SOL    HW224057   6.788   3.281   3.883
 7720SOL     OW24058   0.111   6.478   1.090
 7720SOL    HW124059   0.124   6.487   1.189
 7720SOL    HW224060   0.181   6.532   1.043
 7721SOL     OW24061   2.212   4.165   2.836
 7721SOL    HW124062   2.211   4.159   2.736
 7721SOL    HW224063   2.119   4.170   2.871
 7722SOL     OW24064   0.222   5.275   2.295
 7722SOL    HW124065   0.309   5.294   2.341
 7722SOL    HW224066   0.240   5.225   2.210
 7723SOL     OW24067   6.742   4.004   0.833
 7723SOL    HW124068   6.686   3.927   0.803
 7723SOL    HW224069   6.782   4.050   0.754
 7724SOL     OW24070   2.238   4.653   2.125
 7724SOL    HW124071   2.210   4.709   2.203
 7724SOL    HW224072   2.338   4.654   2.118
 7725SOL     OW24073   4.989   2.429   3.123
 7725SOL    HW124074   5.010   2.365   3.049
 7725SOL    HW224075   4.961   2.517   3.083
 7726SOL     OW24076   0.417   4.642   3.834
 7726SOL    HW124077   0.334   4.668   3.784
 7726SOL    HW224078   0.494   4.697   3.803
 7727SOL     OW24079   5.747   1.849   3.719
 7727SOL    HW124080   5.807   1.924   3.746
 7727SOL    HW224081   5.730   1.853   3.620
 7728SOL     OW24082   1.501   3.510   3.131
 7728SOL    HW124083   1.404   3.490   3.122
 7728SOL    HW224084   1.551   3.427   3.157
 7729SOL     OW24085   6.057   2.621   1.328
 7729SOL    HW124086   6.007   2.689   1.380
 7729SOL    HW224087   6.083   2.545   1.388
 7730SOL     OW24088   5.938   6.022   1.937
 7730SOL    HW124089   6.003   5.967   1.884
 7730SOL    HW224090   5.849   6.023   1.891
 7731SOL     OW24091   5.781   1.045   0.964
 7731SOL    HW124092   5.728   1.092   0.893
 7731SOL    HW224093   5.825   1.112   1.023
 7732SOL     OW24094   4.413   6.085   0.646
 7732SOL    HW124095   4.396   5.988   0.628
 7732SOL    HW224096   4.384   6.107   0.739
 7733SOL     OW24097   4.433   6.468   1.524
 7733SOL    HW124098   4.423   6.410   1.443
 7733SOL    HW224099   4.497   6.425   1.588
 7734SOL     OW24100   1.622   3.727   3.288
 7734SOL    HW124101   1.555   3.688   3.224
 7734SOL    HW224102   1.678   3.795   3.240
 7735SOL     OW24103   4.445   4.520   6.851
 7735SOL    HW124104   4.406   4.512   6.760
 7735SOL    HW224105   4.409   4.446   6.909
 7736SOL     OW24106   5.640   4.593   0.446
 7736SOL    HW124107   5.637   4.495   0.465
 7736SOL    HW224108   5.673   4.642   0.527
 7737SOL     OW24109   4.626   1.278   0.719
 7737SOL    HW124110   4.538   1.322   0.733
 7737SOL    HW224111   4.616   1.205   0.651
 7738SOL     OW24112   2.257   6.229   0.327
 7738SOL    HW124113   2.281   6.133   0.343
 7738SOL    HW224114   2.340   6.284   0.321
 7739SOL     OW24115   0.281   1.993   1.116
 7739SOL    HW124116   0.266   1.894   1.116
 7739SOL    HW224117   0.193   2.040   1.121
 7740SOL     OW24118   0.216   0.430   2.855
 7740SOL    HW124119   0.155   0.355   2.828
 7740SOL    HW224120   0.260   0.407   2.942
 7741SOL     OW24121   1.531   5.840   4.830
 7741SOL    HW124122   1.616   5.890   4.848
 7741SOL    HW224123   1.461   5.902   4.795
 7742SOL     OW24124   6.124   1.895   3.402
 7742SOL    HW124125   6.040   1.948   3.415
 7742SOL    HW224126   6.103   1.797   3.411
 7743SOL     OW24127   4.790   3.223   6.036
 7743SOL    HW124128   4.864   3.161   6.062
 7743SOL    HW224129   4.820   3.318   6.051
 7744SOL     OW24130   0.166   6.462   4.140
 7744SOL    HW124131   0.068   6.446   4.127
 7744SOL    HW224132   0.213   6.455   4.051
 7745SOL     OW24133   3.786   2.188   5.991
 7745SOL    HW124134   3.806   2.207   6.087
 7745SOL    HW224135   3.813   2.267   5.935
 7746SOL     OW24136   2.318   0.159   0.037
 7746SOL    HW124137   2.391   0.215   0.077
 7746SOL    HW224138   2.232   0.178   0.085
 7747SOL     OW24139   4.912   6.463   0.714
 7747SOL    HW124140   4.814   6.476   0.698
 7747SOL    HW224141   4.938   6.371   0.686
 7748SOL     OW24142   3.387   4.032   5.411
 7748SOL    HW124143   3.373   3.960   5.343
 7748SOL    HW224144   3.426   3.991   5.494
 7749SOL     OW24145   4.412   2.910   5.948
 7749SOL    HW124146   4.342   2.934   5.880
 7749SOL    HW224147   4.482   2.981   5.951
 7750SOL     OW24148   0.635   6.193   1.291
 7750SOL    HW124149   0.703   6.219   1.223
 7750SOL    HW224150   0.651   6.245   1.375
 7751SOL     OW24151   1.642   1.861   2.359
 7751SOL    HW124152   1.691   1.886   2.442
 7751SOL    HW224153   1.550   1.900   2.361
 7752SOL     OW24154   4.696   0.673   4.509
 7752SOL    HW124155   4.794   0.653   4.511
 7752SOL    HW224156   4.661   0.663   4.416
 7753SOL     OW24157   1.932   1.354   4.420
 7753SOL    HW124158   1.948   1.453   4.418
 7753SOL    HW224159   2.020   1.306   4.414
 7754SOL     OW24160   3.817   6.293   1.855
 7754SOL    HW124161   3.885   6.262   1.788
 7754SOL    HW224162   3.749   6.350   1.809
 7755SOL     OW24163   1.230   4.214   6.414
 7755SOL    HW124164   1.315   4.165   6.391
 7755SOL    HW224165   1.251   4.310   6.432
 7756SOL     OW24166   2.254   6.152   1.329
 7756SOL    HW124167   2.314   6.153   1.250
 7756SOL    HW224168   2.225   6.057   1.347
 7757SOL     OW24169   6.969   4.767   1.508
 7757SOL    HW124170   0.039   4.722   1.493
 7757SOL    HW224171   6.983   4.852   1.559
 7758SOL     OW24172   1.625   0.969   6.354
 7758SOL    HW124173   1.592   0.938   6.265
 7758SOL    HW224174   1.556   1.028   6.396
 7759SOL     OW24175   2.592   2.318   5.931
 7759SOL    HW124176   2.691   2.308   5.916
 7759SOL    HW224177   2.568   2.415   5.933
 7760SOL     OW24178   4.296   1.929   1.889
 7760SOL    HW124179   4.363   1.969   1.951
 7760SOL    HW224180   4.337   1.854   1.837
 7761SOL     OW24181   5.392   5.604   4.221
 7761SOL    HW124182   5.428   5.519   4.183
 7761SOL    HW224183   5.294   5.611   4.199
 7762SOL     OW24184   0.274   0.200   3.851
 7762SOL    HW124185   0.234   0.113   3.881
 7762SOL    HW224186   0.292   0.258   3.930
 7763SOL     OW24187   2.461   0.550   5.151
 7763SOL    HW124188   2.396   0.585   5.084
 7763SOL    HW224189   2.412   0.507   5.227
 7764SOL     OW24190   3.291   3.794   5.203
 7764SOL    HW124191   3.263   3.862   5.136
 7764SOL    HW224192   3.218   3.780   5.269
 7765SOL     OW24193   6.993   3.107   4.237
 7765SOL    HW124194   7.015   3.030   4.177
 7765SOL    HW224195   6.900   3.139   4.217
 7766SOL     OW24196   0.652   4.524   0.200
 7766SOL    HW124197   0.589   4.502   0.274
 7766SOL    HW224198   0.736   4.563   0.238
 7767SOL     OW24199   3.922   0.704   2.300
 7767SOL    HW124200   3.972   0.675   2.381
 7767SOL    HW224201   3.978   0.691   2.218
 7768SOL     OW24202   4.439   4.573   2.886
 7768SOL    HW124203   4.460   4.514   2.808
 7768SOL    HW224204   4.400   4.659   2.853
 7769SOL     OW24205   3.738   2.219   5.228
 7769SOL    HW124206   3.687   2.177   5.154
 7769SOL    HW224207   3.808   2.155   5.261
 7770SOL     OW24208   1.141   2.995   4.712
 7770SOL    HW124209   1.169   3.090   4.727
 7770SOL    HW224210   1.111   2.956   4.799
 7771SOL     OW24211   3.131   2.507   5.915
 7771SOL    HW124212   3.167   2.428   5.866
 7771SOL    HW224213   3.083   2.477   5.997
 7772SOL     OW24214   5.289   0.814   1.178
 7772SOL    HW124215   5.385   0.787   1.174
 7772SOL    HW224216   5.233   0.734   1.200
 7773SOL     OW24217   3.295   5.895   0.228
 7773SOL    HW124218   3.361   5.967   0.249
 7773SOL    HW224219   3.343   5.809   0.213
 7774SOL     OW24220   5.031   2.276   2.901
 7774SOL    HW124221   5.119   2.261   2.855
 7774SOL    HW224222   4.957   2.265   2.834
 7775SOL     OW24223   3.760   0.771   6.918
 7775SOL    HW124224   3.771   0.673   6.937
 7775SOL    HW224225   3.850   0.813   6.906
 7776SOL     OW24226   0.822   6.717   5.308
 7776SOL    HW124227   0.738   6.665   5.292
 7776SOL    HW224228   0.799   6.810   5.336
 7777SOL     OW24229   5.740   5.036   3.957
 7777SOL    HW124230   5.832   4.997   3.957
 7777SOL    HW224231   5.681   4.981   4.016
 7778SOL     OW24232   6.279   4.166   2.728
 7778SOL    HW124233   6.222   4.248   2.720
 7778SOL    HW224234   6.307   4.137   2.636
 7779SOL     OW24235   2.973   6.102   2.203
 7779SOL    HW124236   3.011   6.180   2.253
 7779SOL    HW224237   3.021   6.018   2.229
 7780SOL     OW24238   6.513   5.475   5.526
 7780SOL    HW124239   6.498   5.460   5.624
 7780SOL    HW224240   6.539   5.388   5.483
 7781SOL     OW24241   1.946   2.529   0.590
 7781SOL    HW124242   1.857   2.484   0.582
 7781SOL    HW224243   1.961   2.588   0.511
 7782SOL     OW24244   6.512   4.577   3.390
 7782SOL    HW124245   6.505   4.477   3.380
 7782SOL    HW224246   6.586   4.610   3.331
 7783SOL     OW24247   1.048   7.007   5.329
 7783SOL    HW124248   1.053   0.085   5.307
 7783SOL    HW224249   0.954   6.983   5.354
 7784SOL     OW24250   2.605   2.366   2.251
 7784SOL    HW124251   2.627   2.386   2.346
 7784SOL    HW224252   2.666   2.294   2.217
 7785SOL     OW24253   1.930   6.110   2.525
 7785SOL    HW124254   1.987   6.192   2.515
 7785SOL    HW224255   1.986   6.034   2.556
 7786SOL     OW24256   4.299   0.668   6.804
 7786SOL    HW124257   4.222   0.648   6.865
 7786SOL    HW224258   4.317   0.588   6.747
 7787SOL     OW24259   2.699   3.369   0.916
 7787SOL    HW124260   2.676   3.344   1.010
 7787SOL    HW224261   2.639   3.320   0.853
 7788SOL     OW24262   1.584   4.682   1.528
 7788SOL    HW124263   1.509   4.625   1.562
 7788SOL    HW224264   1.548   4.752   1.466
 7789SOL     OW24265   3.651   0.391   6.682
 7789SOL    HW124266   3.604   0.370   6.597
 7789SOL    HW224267   3.586   0.387   6.758
 7790SOL     OW24268   5.909   5.072   2.513
 7790SOL    HW124269   5.864   5.015   2.582
 7790SOL    HW224270   5.916   5.021   2.428
 7791SOL     OW24271   2.121   5.553   1.880
 7791SOL    HW124272   2.146   5.560   1.784
 7791SOL    HW224273   2.202   5.567   1.938
 7792SOL     OW24274   0.502   1.545   2.799
 7792SOL    HW124275   0.515   1.478   2.727
 7792SOL    HW224276   0.592   1.576   2.832
 7793SOL     OW24277   4.188   1.829   0.248
 7793SOL    HW124278   4.286   1.835   0.265
 7793SOL    HW224279   4.138   1.840   0.334
 7794SOL     OW24280   0.912   5.538   2.858
 7794SOL    HW124281   0.947   5.496   2.942
 7794SOL    HW224282   0.984   5.541   2.789
 7795SOL     OW24283   2.994   5.669   5.814
 7795SOL    HW124284   3.074   5.615   5.789
 7795SOL    HW224285   2.976   5.658   5.912
 7796SOL     OW24286   3.473   3.093   5.783
 7796SOL    HW124287   3.377   3.067   5.776
 7796SOL    HW224288   3.515   3.045   5.861
 7797SOL     OW24289   0.786   5.200   3.198
 7797SOL    HW124290   0.697   5.226   3.234
 7797SOL    HW224291   0.778   5.112   3.149
 7798SOL     OW24292   0.468   1.839   1.825
 7798SOL    HW124293   0.448   1.933   1.798
 7798SOL    HW224294   0.516   1.839   1.913
 7799SOL     OW24295   2.703   6.370   2.698
 7799SOL    HW124296   2.715   6.301   2.627
 7799SOL    HW224297   2.733   6.333   2.786
 7800SOL     OW24298   0.802   5.890   0.867
 7800SOL    HW124299   0.888   5.864   0.823
 7800SOL    HW224300   0.779   5.822   0.936
 7801SOL     OW24301   1.266   2.630   2.448
 7801SOL    HW124302   1.289   2.727   2.440
 7801SOL    HW224303   1.168   2.617   2.435
 7802SOL     OW24304   6.453   4.133   5.825
 7802SOL    HW124305   6.421   4.208   5.883
 7802SOL    HW224306   6.376   4.073   5.802
 7803SOL     OW24307   4.983   2.410   5.554
 7803SOL    HW124308   4.978   2.360   5.641
 7803SOL    HW224309   4.992   2.346   5.478
 7804SOL     OW24310   2.466   2.023   4.659
 7804SOL    HW124311   2.369   2.021   4.638
 7804SOL    HW224312   2.480   2.060   4.751
 7805SOL     OW24313   5.293   2.460   1.677
 7805SOL    HW124314   5.243   2.542   1.650
 7805SOL    HW224315   5.389   2.483   1.694
 7806SOL     OW24316   6.351   2.431   5.196
 7806SOL    HW124317   6.372   2.349   5.249
 7806SOL    HW224318   6.334   2.406   5.101
 7807SOL     OW24319   2.340   4.823   6.202
 7807SOL    HW124320   2.410   4.765   6.158
 7807SOL    HW224321   2.265   4.765   6.234
 7808SOL     OW24322   5.077   4.157   2.815
 7808SOL    HW124323   5.166   4.124   2.846
 7808SOL    HW224324   5.091   4.224   2.742
 7809SOL     OW24325   5.189   4.930   3.596
 7809SOL    HW124326   5.170   4.882   3.509
 7809SOL    HW224327   5.117   4.997   3.613
 7810SOL     OW24328   4.335   6.276   4.752
 7810SOL    HW124329   4.326   6.184   4.790
 7810SOL    HW224330   4.265   6.290   4.682
 7811SOL     OW24331   1.233   5.753   2.442
 7811SOL    HW124332   1.273   5.681   2.386
 7811SOL    HW224333   1.190   5.821   2.383
 7812SOL     OW24334   2.624   2.646   5.843
 7812SOL    HW124335   2.705   2.671   5.789
 7812SOL    HW224336   2.566   2.585   5.789
 7813SOL     OW24337   5.739   2.700   1.282
 7813SOL    HW124338   5.727   2.733   1.188
 7813SOL    HW224339   5.656   2.654   1.312
 7814SOL     OW24340   6.497   2.969   2.299
 7814SOL    HW124341   6.536   2.955   2.208
 7814SOL    HW224342   6.419   2.908   2.312
 7815SOL     OW24343   5.992   2.798   5.725
 7815SOL    HW124344   5.928   2.815   5.800
 7815SOL    HW224345   5.960   2.720   5.671
 7816SOL     OW24346   0.624   1.661   5.695
 7816SOL    HW124347   0.645   1.668   5.793
 7816SOL    HW224348   0.580   1.745   5.665
 7817SOL     OW24349   2.943   3.471   5.882
 7817SOL    HW124350   2.890   3.388   5.897
 7817SOL    HW224351   2.996   3.491   5.965
 7818SOL     OW24352   5.043   1.050   2.312
 7818SOL    HW124353   5.091   1.125   2.266
 7818SOL    HW224354   4.987   1.088   2.386
 7819SOL     OW24355   0.592   3.606   4.076
 7819SOL    HW124356   0.566   3.510   4.078
 7819SOL    HW224357   0.638   3.627   3.989
 7820SOL     OW24358   1.515   0.861   5.579
 7820SOL    HW124359   1.536   0.824   5.669
 7820SOL    HW224360   1.430   0.913   5.583
 7821SOL     OW24361   6.312   5.602   0.166
 7821SOL    HW124362   6.351   5.517   0.203
 7821SOL    HW224363   6.285   5.587   0.071
 7822SOL     OW24364   1.107   1.139   4.761
 7822SOL    HW124365   1.119   1.125   4.859
 7822SOL    HW224366   1.040   1.073   4.726
 7823SOL     OW24367   1.042   4.148   6.592
 7823SOL    HW124368   1.081   4.143   6.684
 7823SOL    HW224369   1.114   4.174   6.527
 7824SOL     OW24370   5.564   1.973   2.557
 7824SOL    HW124371   5.574   1.916   2.476
 7824SOL    HW224372   5.522   2.060   2.531
 7825SOL     OW24373   2.646   2.732   1.484
 7825SOL    HW124374   2.594   2.815   1.460
 7825SOL    HW224375   2.743   2.748   1.471
 7826SOL     OW24376   5.747   1.139   0.313
 7826SOL    HW124377   5.765   1.238   0.316
 7826SOL    HW224378   5.775   1.097   0.399
 7827SOL     OW24379   4.766   5.144   1.775
 7827SOL    HW124380   4.669   5.158   1.795
 7827SOL    HW224381   4.795   5.056   1.812
 7828SOL     OW24382   1.106   6.320   0.680
 7828SOL    HW124383   1.105   6.413   0.644
 7828SOL    HW224384   1.198   6.299   0.714
 7829SOL     OW24385   2.851   2.946   1.758
 7829SOL    HW124386   2.905   3.011   1.705
 7829SOL    HW224387   2.892   2.855   1.751
 7830SOL     OW24388   6.187   3.459   6.709
 7830SOL    HW124389   6.196   3.361   6.694
 7830SOL    HW224390   6.092   3.487   6.692
 7831SOL     OW24391   1.322   3.507   0.568
 7831SOL    HW124392   1.314   3.432   0.634
 7831SOL    HW224393   1.231   3.530   0.533
 7832SOL     OW24394   2.884   1.835   5.289
 7832SOL    HW124395   2.811   1.774   5.256
 7832SOL    HW224396   2.866   1.928   5.256
 7833SOL     OW24397   0.643   6.532   0.475
 7833SOL    HW124398   0.661   6.489   0.564
 7833SOL    HW224399   0.545   6.549   0.466
 7834SOL     OW24400   0.381   0.649   2.130
 7834SOL    HW124401   0.375   0.748   2.145
 7834SOL    HW224402   0.411   0.632   2.036
 7835SOL     OW24403   2.266   2.919   4.810
 7835SOL    HW124404   2.254   3.007   4.763
 7835SOL    HW224405   2.326   2.930   4.889
 7836SOL     OW24406   3.120   6.949   6.546
 7836SOL    HW124407   3.112   6.893   6.464
 7836SOL    HW224408   3.170   0.015   6.524
 7837SOL     OW24409   5.726   6.598   2.738
 7837SOL    HW124410   5.739   6.686   2.783
 7837SOL    HW224411   5.814   6.551   2.728
 7838SOL     OW24412   4.349   0.099   4.474
 7838SOL    HW124413   4.319   0.118   4.567
 7838SOL    HW224414   4.292   0.027   4.435
 7839SOL     OW24415   5.801   4.467   4.509
 7839SOL    HW124416   5.761   4.450   4.418
 7839SOL    HW224417   5.893   4.428   4.512
 7840SOL     OW24418   4.829   2.910   4.146
 7840SOL    HW124419   4.902   2.911   4.077
 7840SOL    HW224420   4.815   3.003   4.180
 7841SOL     OW24421   6.537   2.050   0.046
 7841SOL    HW124422   6.472   2.085   0.114
 7841SOL    HW224423   6.625   2.034   0.090
 7842SOL     OW24424   2.233   1.367   3.123
 7842SOL    HW124425   2.154   1.414   3.161
 7842SOL    HW224426   2.317   1.407   3.160
 7843SOL     OW24427   5.708   4.017   1.136
 7843SOL    HW124428   5.647   3.944   1.105
 7843SOL    HW224429   5.753   4.060   1.058
 7844SOL     OW24430   4.411   0.696   3.219
 7844SOL    HW124431   4.464   0.762   3.167
 7844SOL    HW224432   4.315   0.699   3.189
 7845SOL     OW24433   6.876   0.747   4.142
 7845SOL    HW124434   6.896   0.835   4.185
 7845SOL    HW224435   6.960   0.707   4.106
 7846SOL     OW24436   2.083   0.645   1.588
 7846SOL    HW124437   2.106   0.657   1.685
 7846SOL    HW224438   2.038   0.728   1.554
 7847SOL     OW24439   0.458   0.591   0.582
 7847SOL    HW124440   0.365   0.555   0.571
 7847SOL    HW224441   0.520   0.516   0.602
 7848SOL     OW24442   4.044   4.097   1.412
 7848SOL    HW124443   3.965   4.037   1.400
 7848SOL    HW224444   4.021   4.168   1.479
 7849SOL     OW24445   4.948   2.945   4.515
 7849SOL    HW124446   4.884   2.967   4.441
 7849SOL    HW224447   4.900   2.950   4.603
 7850SOL     OW24448   6.856   0.986   4.983
 7850SOL    HW124449   6.778   1.033   5.026
 7850SOL    HW224450   6.823   0.930   4.907
 7851SOL     OW24451   5.899   6.930   0.514
 7851SOL    HW124452   5.953   6.959   0.593
 7851SOL    HW224453   5.899   7.003   0.445
 7852SOL     OW24454   3.275   6.462   6.901
 7852SOL    HW124455   3.221   6.476   6.818
 7852SOL    HW224456   3.229   6.507   6.978
 7853SOL     OW24457   2.853   1.751   0.412
 7853SOL    HW124458   2.850   1.836   0.359
 7853SOL    HW224459   2.877   1.675   0.351
 7854SOL     OW24460   3.073   4.012   2.712
 7854SOL    HW124461   3.030   3.928   2.680
 7854SOL    HW224462   3.143   4.042   2.646
 7855SOL     OW24463   4.069   5.210   6.084
 7855SOL    HW124464   4.169   5.214   6.094
 7855SOL    HW224465   4.043   5.116   6.060
 7856SOL     OW24466   5.700   3.803   4.885
 7856SOL    HW124467   5.786   3.803   4.936
 7856SOL    HW224468   5.655   3.715   4.896
 7857SOL     OW24469   5.964   2.211   5.942
 7857SOL    HW124470   5.901   2.188   5.868
 7857SOL    HW224471   5.913   2.221   6.027
 7858SOL     OW24472   6.461   4.345   3.607
 7858SOL    HW124473   6.395   4.407   3.650
 7858SOL    HW224474   6.415   4.290   3.537
 7859SOL     OW24475   0.861   4.769   6.125
 7859SOL    HW124476   0.787   4.764   6.191
 7859SOL    HW224477   0.825   4.756   6.033
 7860SOL     OW24478   3.960   6.996   1.900
 7860SOL    HW124479   3.947   0.068   1.861
 7860SOL    HW224480   4.037   6.998   1.963
 7861SOL     OW24481   4.298   5.078   1.277
 7861SOL    HW124482   4.375   5.078   1.341
 7861SOL    HW224483   4.220   5.033   1.320
 7862SOL     OW24484   2.939   4.278   1.702
 7862SOL    HW124485   2.866   4.211   1.713
 7862SOL    HW224486   2.912   4.364   1.745
 7863SOL     OW24487   6.571   6.021   2.572
 7863SOL    HW124488   6.576   6.119   2.591
 7863SOL    HW224489   6.476   5.993   2.562
 7864SOL     OW24490   0.516   6.252   5.705
 7864SOL    HW124491   0.475   6.254   5.614
 7864SOL    HW224492   0.471   6.320   5.763
 7865SOL     OW24493   3.632   6.336   3.250
 7865SOL    HW124494   3.668   6.273   3.180
 7865SOL    HW224495   3.708   6.367   3.308
 7866SOL     OW24496   2.619   2.080   3.276
 7866SOL    HW124497   2.714   2.106   3.296
 7866SOL    HW224498   2.559   2.158   3.292
 7867SOL     OW24499   6.267   6.083   2.151
 7867SOL    HW124500   6.353   6.032   2.158
 7867SOL    HW224501   6.287   6.178   2.126
 7868SOL     OW24502   5.410   6.064   1.044
 7868SOL    HW124503   5.335   6.121   1.013
 7868SOL    HW224504   5.497   6.105   1.015
 7869SOL     OW24505   6.793   3.166   1.299
 7869SOL    HW124506   6.728   3.101   1.340
 7869SOL    HW224507   6.863   3.190   1.367
 7870SOL     OW24508   6.869   5.411   3.892
 7870SOL    HW124509   6.855   5.497   3.844
 7870SOL    HW224510   6.871   5.336   3.826
 7871SOL     OW24511   5.991   2.862   3.018
 7871SOL    HW124512   6.067   2.925   3.033
 7871SOL    HW224513   5.951   2.836   3.106
 7872SOL     OW24514   0.190   3.933   3.158
 7872SOL    HW124515   0.270   3.872   3.150
 7872SOL    HW224516   0.216   4.015   3.209
 7873SOL     OW24517   6.803   6.794   6.177
 7873SOL    HW124518   6.738   6.851   6.226
 7873SOL    HW224519   6.886   6.846   6.158
 7874SOL     OW24520   6.386   1.452   0.058
 7874SOL    HW124521   6.347   1.423   0.145
 7874SOL    HW224522   6.383   1.376   7.012
 7875SOL     OW24523   5.428   3.940   6.621
 7875SOL    HW124524   5.369   3.943   6.702
 7875SOL    HW224525   5.519   3.907   6.647
 7876SOL     OW24526   6.490   0.419   4.436
 7876SOL    HW124527   6.583   0.409   4.472
 7876SOL    HW224528   6.493   0.475   4.353
 7877SOL     OW24529   6.907   2.552   3.324
 7877SOL    HW124530   6.997   2.548   3.281
 7877SOL    HW224531   6.882   2.647   3.342
 7878SOL     OW24532   4.516   4.434   2.644
 7878SOL    HW124533   4.522   4.500   2.569
 7878SOL    HW224534   4.432   4.380   2.634
 7879SOL     OW24535   5.101   6.140   3.416
 7879SOL    HW124536   5.192   6.180   3.422
 7879SOL    HW224537   5.108   6.046   3.381
 7880SOL     OW24538   0.583   6.326   6.761
 7880SOL    HW124539   0.586   6.313   6.860
 7880SOL    HW224540   0.587   6.423   6.740
 7881SOL     OW24541   6.994   4.077   5.214
 7881SOL    HW124542   6.934   4.105   5.288
 7881SOL    HW224543   6.952   4.002   5.163
 7882SOL     OW24544   0.861   2.807   2.650
 7882SOL    HW124545   0.840   2.904   2.657
 7882SOL    HW224546   0.864   2.780   2.553
 7883SOL     OW24547   3.036   1.328   2.831
 7883SOL    HW124548   2.939   1.349   2.838
 7883SOL    HW224549   3.054   1.284   2.743
 7884SOL     OW24550   1.693   4.822   4.004
 7884SOL    HW124551   1.678   4.919   4.021
 7884SOL    HW224552   1.605   4.777   3.988
 7885SOL     OW24553   5.912   5.589   2.596
 7885SOL    HW124554   5.988   5.579   2.660
 7885SOL    HW224555   5.878   5.499   2.569
 7886SOL     OW24556   5.060   3.250   1.795
 7886SOL    HW124557   5.092   3.340   1.767
 7886SOL    HW224558   4.965   3.238   1.766
 7887SOL     OW24559   3.770   3.458   6.238
 7887SOL    HW124560   3.842   3.526   6.252
 7887SOL    HW224561   3.712   3.486   6.162
 7888SOL     OW24562   5.851   1.599   4.104
 7888SOL    HW124563   5.898   1.687   4.107
 7888SOL    HW224564   5.780   1.596   4.174
 7889SOL     OW24565   6.194   5.256   0.467
 7889SOL    HW124566   6.228   5.258   0.373
 7889SOL    HW224567   6.205   5.346   0.509
 7890SOL     OW24568   1.425   3.029   4.606
 7890SOL    HW124569   1.430   3.060   4.511
 7890SOL    HW224570   1.335   2.988   4.622
 7891SOL     OW24571   0.397   2.414   3.972
 7891SOL    HW124572   0.460   2.339   3.990
 7891SOL    HW224573   0.399   2.437   3.875
 7892SOL     OW24574   1.853   2.610   4.748
 7892SOL    HW124575   1.778   2.664   4.710
 7892SOL    HW224576   1.925   2.672   4.781
 7893SOL     OW24577   6.640   0.619   2.225
 7893SOL    HW124578   6.643   0.677   2.144
 7893SOL    HW224579   6.712   0.550   2.219
 7894SOL     OW24580   2.237   1.598   6.401
 7894SOL    HW124581   2.169   1.526   6.417
 7894SOL    HW224582   2.327   1.566   6.431
 7895SOL     OW24583   3.359   5.884   3.793
 7895SOL    HW124584   3.350   5.982   3.806
 7895SOL    HW224585   3.412   5.845   3.868
 7896SOL     OW24586   4.313   2.432   1.652
 7896SOL    HW124587   4.283   2.514   1.605
 7896SOL    HW224588   4.379   2.456   1.723
 7897SOL     OW24589   3.659   4.048   6.109
 7897SOL    HW124590   3.664   4.039   6.009
 7897SOL    HW224591   3.674   3.959   6.151
 7898SOL     OW24592   4.843   6.935   4.467
 7898SOL    HW124593   4.752   6.969   4.490
 7898SOL    HW224594   4.889   6.903   4.550
 7899SOL     OW24595   5.257   5.334   1.377
 7899SOL    HW124596   5.244   5.247   1.328
 7899SOL    HW224597   5.223   5.325   1.470
 7900SOL     OW24598   0.433   4.256   0.551
 7900SOL    HW124599   0.350   4.242   0.605
 7900SOL    HW224600   0.425   4.340   0.498
 7901SOL     OW24601   5.363   0.890   6.292
 7901SOL    HW124602   5.311   0.862   6.211
 7901SOL    HW224603   5.461   0.882   6.274
 7902SOL     OW24604   6.889   6.016   2.938
 7902SOL    HW124605   6.942   5.935   2.962
 7902SOL    HW224606   6.871   6.015   2.839
 7903SOL     OW24607   2.966   1.791   4.086
 7903SOL    HW124608   3.031   1.862   4.058
 7903SOL    HW224609   2.923   1.751   4.005
 7904SOL     OW24610   5.872   0.750   2.287
 7904SOL    HW124611   5.825   0.764   2.374
 7904SOL    HW224612   5.896   0.653   2.278
 7905SOL     OW24613   5.567   0.814   0.698
 7905SOL    HW124614   5.547   0.903   0.658
 7905SOL    HW224615   5.665   0.802   0.708
 7906SOL     OW24616   1.662   4.938   1.148
 7906SOL    HW124617   1.745   4.919   1.201
 7906SOL    HW224618   1.686   4.989   1.066
 7907SOL     OW24619   6.190   0.644   2.868
 7907SOL    HW124620   6.177   0.695   2.953
 7907SOL    HW224621   6.126   0.676   2.799
 7908SOL     OW24622   0.403   1.261   6.743
 7908SOL    HW124623   0.323   1.285   6.689
 7908SOL    HW224624   0.401   1.310   6.830
 7909SOL     OW24625   5.438   4.652   2.840
 7909SOL    HW124626   5.485   4.613   2.761
 7909SOL    HW224627   5.482   4.621   2.924
 7910SOL     OW24628   1.811   3.403   0.810
 7910SOL    HW124629   1.884   3.468   0.832
 7910SOL    HW224630   1.803   3.335   0.884
 7911SOL     OW24631   0.871   3.916   1.205
 7911SOL    HW124632   0.797   3.976   1.236
 7911SOL    HW224633   0.951   3.929   1.262
 7912SOL     OW24634   4.948   5.568   0.225
 7912SOL    HW124635   4.993   5.496   0.172
 7912SOL    HW224636   4.975   5.561   0.321
 7913SOL     OW24637   1.163   4.049   0.715
 7913SOL    HW124638   1.249   4.071   0.761
 7913SOL    HW224639   1.128   3.962   0.750
 7914SOL     OW24640   6.559   5.226   5.446
 7914SOL    HW124641   6.566   5.184   5.537
 7914SOL    HW224642   6.471   5.204   5.405
 7915SOL     OW24643   3.715   0.364   3.020
 7915SOL    HW124644   3.638   0.353   3.082
 7915SOL    HW224645   3.692   0.323   2.932
 7916SOL     OW24646   0.783   6.875   4.663
 7916SOL    HW124647   0.859   6.851   4.724
 7916SOL    HW224648   0.819   6.897   4.572
 7917SOL     OW24649   3.986   2.542   6.672
 7917SOL    HW124650   3.929   2.625   6.673
 7917SOL    HW224651   3.962   2.484   6.750
 7918SOL     OW24652   1.908   1.038   5.009
 7918SOL    HW124653   1.862   0.955   5.042
 7918SOL    HW224654   1.935   1.094   5.086
 7919SOL     OW24655   1.265   4.763   3.375
 7919SOL    HW124656   1.310   4.724   3.455
 7919SOL    HW224657   1.168   4.776   3.394
 7920SOL     OW24658   5.109   0.618   1.307
 7920SOL    HW124659   5.092   0.673   1.388
 7920SOL    HW224660   5.026   0.566   1.284
 7921SOL     OW24661   5.013   1.880   1.666
 7921SOL    HW124662   4.936   1.902   1.607
 7921SOL    HW224663   5.013   1.782   1.686
 7922SOL     OW24664   1.228   6.723   6.598
 7922SOL    HW124665   1.270   6.639   6.632
 7922SOL    HW224666   1.135   6.704   6.567
 7923SOL     OW24667   3.817   2.218   6.264
 7923SOL    HW124668   3.858   2.289   6.321
 7923SOL    HW224669   3.835   2.128   6.303
 7924SOL     OW24670   6.073   6.844   1.422
 7924SOL    HW124671   5.987   6.891   1.399
 7924SOL    HW224672   6.059   6.789   1.504
 7925SOL     OW24673   2.847   6.354   0.395
 7925SOL    HW124674   2.888   6.265   0.418
 7925SOL    HW224675   2.814   6.352   0.301
 7926SOL     OW24676   5.876   0.582   6.575
 7926SOL    HW124677   5.840   0.507   6.518
 7926SOL    HW224678   5.877   0.666   6.521
 7927SOL     OW24679   4.965   0.058   1.919
 7927SOL    HW124680   5.041   0.113   1.954
 7927SOL    HW224681   4.958   6.992   1.972
 7928SOL     OW24682   6.966   0.642   3.388
 7928SOL    HW124683   0.031   0.620   3.438
 7928SOL    HW224684   6.953   0.741   3.387
 7929SOL     OW24685   4.723   3.496   6.696
 7929SOL    HW124686   4.680   3.552   6.626
 7929SOL    HW224687   4.818   3.524   6.709
 7930SOL     OW24688   3.856   5.577   5.844
 7930SOL    HW124689   3.815   5.494   5.882
 7930SOL    HW224690   3.951   5.559   5.819
 7931SOL     OW24691   2.842   2.350   0.326
 7931SOL    HW124692   2.824   2.321   0.232
 7931SOL    HW224693   2.760   2.334   0.381
 7932SOL     OW24694   7.015   5.538   0.745
 7932SOL    HW124695   0.051   5.493   0.674
 7932SOL    HW224696   7.018   5.637   0.731
 7933SOL     OW24697   6.351   1.042   5.275
 7933SOL    HW124698   6.363   1.082   5.184
 7933SOL    HW224699   6.266   1.076   5.316
 7934SOL     OW24700   1.778   4.341   1.015
 7934SOL    HW124701   1.738   4.250   1.004
 7934SOL    HW224702   1.795   4.381   0.925
 7935SOL     OW24703   5.522   3.921   2.775
 7935SOL    HW124704   5.563   3.833   2.748
 7935SOL    HW224705   5.435   3.904   2.821
 7936SOL     OW24706   3.488   6.359   3.866
 7936SOL    HW124707   3.490   6.447   3.818
 7936SOL    HW224708   3.541   6.367   3.951
 7937SOL     OW24709   2.240   6.282   5.222
 7937SOL    HW124710   2.141   6.288   5.220
 7937SOL    HW224711   2.271   6.263   5.315
 7938SOL     OW24712   5.274   0.446   4.983
 7938SOL    HW124713   5.248   0.406   4.896
 7938SOL    HW224714   5.362   0.408   5.012
 7939SOL     OW24715   1.127   1.588   5.242
 7939SOL    HW124716   1.163   1.669   5.287
 7939SOL    HW224717   1.174   1.506   5.275
 7940SOL     OW24718   4.414   2.026   2.616
 7940SOL    HW124719   4.364   1.951   2.658
 7940SOL    HW224720   4.423   2.010   2.518
 7941SOL     OW24721   4.302   6.486   2.994
 7941SOL    HW124722   4.334   6.494   2.900
 7941SOL    HW224723   4.296   6.389   3.019
 7942SOL     OW24724   0.992   2.717   1.914
 7942SOL    HW124725   1.021   2.657   1.839
 7942SOL    HW224726   1.004   2.670   2.001
 7943SOL     OW24727   2.083   4.764   5.866
 7943SOL    HW124728   2.077   4.791   5.770
 7943SOL    HW224729   2.095   4.845   5.923
 7944SOL     OW24730   1.091   3.005   1.048
 7944SOL    HW124731   1.099   2.986   1.146
 7944SOL    HW224732   1.093   2.919   0.997
 7945SOL     OW24733   6.246   5.365   3.074
 7945SOL    HW124734   6.167   5.402   3.124
 7945SOL    HW224735   6.270   5.427   2.999
 7946SOL     OW24736   3.805   7.011   5.777
 7946SOL    HW124737   3.847   6.974   5.859
 7946SOL    HW224738   3.784   6.937   5.713
 7947SOL     OW24739   2.042   2.740   5.166
 7947SOL    HW124740   2.071   2.816   5.224
 7947SOL    HW224741   2.105   2.663   5.177
 7948SOL     OW24742   1.167   4.693   2.353
 7948SOL    HW124743   1.239   4.693   2.423
 7948SOL    HW224744   1.098   4.624   2.376
 7949SOL     OW24745   4.840   4.586   6.129
 7949SOL    HW124746   4.936   4.611   6.129
 7949SOL    HW224747   4.797   4.615   6.043
 7950SOL     OW24748   5.302   5.624   5.477
 7950SOL    HW124749   5.313   5.699   5.412
 7950SOL    HW224750   5.323   5.656   5.569
 7951SOL     OW24751   2.961   5.710   2.186
 7951SOL    HW124752   3.028   5.782   2.170
 7951SOL    HW224753   3.008   5.628   2.218
 7952SOL     OW24754   6.115   3.895   6.976
 7952SOL    HW124755   6.101   3.817   0.018
 7952SOL    HW224756   6.032   3.951   6.974
 7953SOL     OW24757   4.196   1.576   0.811
 7953SOL    HW124758   4.203   1.669   0.775
 7953SOL    HW224759   4.258   1.566   0.889
 7954SOL     OW24760   4.024   3.618   6.626
 7954SOL    HW124761   4.098   3.580   6.681
 7954SOL    HW224762   3.975   3.543   6.581
 7955SOL     OW24763   1.783   1.560   6.535
 7955SOL    HW124764   1.709   1.602   6.588
 7955SOL    HW224765   1.785   1.601   6.444
 7956SOL     OW24766   5.975   1.550   1.712
 7956SOL    HW124767   6.070   1.580   1.722
 7956SOL    HW224768   5.916   1.606   1.771
 7957SOL     OW24769   4.299   0.668   5.603
 7957SOL    HW124770   4.220   0.653   5.662
 7957SOL    HW224771   4.337   0.759   5.620
 7958SOL     OW24772   5.780   3.498   6.518
 7958SOL    HW124773   5.713   3.428   6.544
 7958SOL    HW224774   5.732   3.581   6.491
 7959SOL     OW24775   5.246   0.832   6.051
 7959SOL    HW124776   5.167   0.802   5.997
 7959SOL    HW224777   5.330   0.803   6.005
 7960SOL     OW24778   6.841   0.666   6.348
 7960SOL    HW124779   6.913   0.735   6.358
 7960SOL    HW224780   6.793   0.655   6.435
 7961SOL     OW24781   7.014   6.312   0.314
 7961SOL    HW124782   6.927   6.277   0.280
 7961SOL    HW224783   7.006   6.333   0.411
 7962SOL     OW24784   6.671   6.960   6.376
 7962SOL    HW124785   6.766   6.956   6.409
 7962SOL    HW224786   6.609   6.934   6.450
 7963SOL     OW24787   6.311   4.059   4.182
 7963SOL    HW124788   6.249   3.983   4.163
 7963SOL    HW224789   6.380   4.030   4.248
 7964SOL     OW24790   6.845   3.001   1.699
 7964SOL    HW124791   6.908   2.984   1.774
 7964SOL    HW224792   6.895   2.998   1.612
 7965SOL     OW24793   4.694   2.269   0.143
 7965SOL    HW124794   4.723   2.365   0.150
 7965SOL    HW224795   4.600   2.266   0.109
 7966SOL     OW24796   4.087   4.148   5.413
 7966SOL    HW124797   4.054   4.144   5.507
 7966SOL    HW224798   4.011   4.171   5.352
 7967SOL     OW24799   1.703   4.960   2.383
 7967SOL    HW124800   1.795   4.925   2.398
 7967SOL    HW224801   1.650   4.893   2.331
 7968SOL     OW24802   6.379   1.644   4.679
 7968SOL    HW124803   6.297   1.680   4.634
 7968SOL    HW224804   6.452   1.636   4.611
 7969SOL     OW24805   4.671   5.972   6.988
 7969SOL    HW124806   4.701   6.030   6.912
 7969SOL    HW224807   4.733   5.894   6.997
 7970SOL     OW24808   6.242   3.052   2.702
 7970SOL    HW124809   6.145   3.078   2.702
 7970SOL    HW224810   6.294   3.120   2.651
 7971SOL     OW24811   3.120   1.516   1.103
 7971SOL    HW124812   3.188   1.580   1.069
 7971SOL    HW224813   3.057   1.564   1.164
 7972SOL     OW24814   4.278   3.292   1.852
 7972SOL    HW124815   4.239   3.318   1.941
 7972SOL    HW224816   4.356   3.231   1.866
 7973SOL     OW24817   6.126   3.792   3.536
 7973SOL    HW124818   6.055   3.789   3.607
 7973SOL    HW224819   6.113   3.872   3.479
 7974SOL     OW24820   6.378   1.700   5.263
 7974SOL    HW124821   6.283   1.695   5.296
 7974SOL    HW224822   6.407   1.609   5.232
 7975SOL     OW24823   4.255   1.496   0.241
 7975SOL    HW124824   4.172   1.444   0.220
 7975SOL    HW224825   4.269   1.565   0.170
 7976SOL     OW24826   1.559   0.255   6.326
 7976SOL    HW124827   1.565   0.165   6.368
 7976SOL    HW224828   1.572   0.248   6.227
 7977SOL     OW24829   5.366   6.024   2.646
 7977SOL    HW124830   5.389   6.116   2.615
 7977SOL    HW224831   5.436   5.960   2.615
 7978SOL     OW24832   0.465   4.230   0.894
 7978SOL    HW124833   0.406   4.263   0.821
 7978SOL    HW224834   0.446   4.279   0.979
 7979SOL     OW24835   2.105   3.749   4.527
 7979SOL    HW124836   2.112   3.787   4.435
 7979SOL    HW224837   2.160   3.804   4.590
 7980SOL     OW24838   3.737   4.520   5.682
 7980SOL    HW124839   3.696   4.524   5.591
 7980SOL    HW224840   3.665   4.532   5.751
 7981SOL     OW24841   2.044   5.199   3.705
 7981SOL    HW124842   2.133   5.173   3.743
 7981SOL    HW224843   2.043   5.182   3.607
 7982SOL     OW24844   0.918   1.693   6.031
 7982SOL    HW124845   0.986   1.667   6.099
 7982SOL    HW224846   0.952   1.672   5.939
 7983SOL     OW24847   5.224   1.028   1.359
 7983SOL    HW124848   5.259   1.040   1.452
 7983SOL    HW224849   5.247   0.936   1.327
 7984SOL     OW24850   0.487   2.077   1.683
 7984SOL    HW124851   0.466   2.031   1.597
 7984SOL    HW224852   0.408   2.131   1.712
 7985SOL     OW24853   2.258   2.241   5.233
 7985SOL    HW124854   2.223   2.191   5.312
 7985SOL    HW224855   2.252   2.182   5.152
 7986SOL     OW24856   3.567   1.817   4.550
 7986SOL    HW124857   3.492   1.771   4.503
 7986SOL    HW224858   3.652   1.804   4.499
 7987SOL     OW24859   1.506   3.688   0.899
 7987SOL    HW124860   1.558   3.629   0.836
 7987SOL    HW224861   1.438   3.740   0.848
 7988SOL     OW24862   6.962   1.039   1.698
 7988SOL    HW124863   6.920   1.038   1.607
 7988SOL    HW224864   6.927   1.116   1.750
 7989SOL     OW24865   1.891   4.169   0.570
 7989SOL    HW124866   1.808   4.112   0.564
 7989SOL    HW224867   1.965   4.115   0.609
 7990SOL     OW24868   2.756   6.492   4.783
 7990SOL    HW124869   2.673   6.531   4.824
 7990SOL    HW224870   2.780   6.546   4.702
 7991SOL     OW24871   5.357   1.856   4.630
 7991SOL    HW124872   5.395   1.926   4.569
 7991SOL    HW224873   5.280   1.895   4.680
 7992SOL     OW24874   2.617   0.480   0.634
 7992SOL    HW124875   2.522   0.508   0.653
 7992SOL    HW224876   2.619   0.383   0.609
 7993SOL     OW24877   0.238   0.203   1.872
 7993SOL    HW124878   0.140   0.224   1.868
 7993SOL    HW224879   0.251   0.105   1.860
 7994SOL     OW24880   4.717   0.807   3.400
 7994SOL    HW124881   4.674   0.877   3.343
 7994SOL    HW224882   4.782   0.754   3.344
 7995SOL     OW24883   6.431   4.556   2.522
 7995SOL    HW124884   6.333   4.535   2.516
 7995SOL    HW224885   6.479   4.510   2.447
 7996SOL     OW24886   3.997   0.215   3.570
 7996SOL    HW124887   4.049   0.129   3.570
 7996SOL    HW224888   4.060   0.292   3.582
 7997SOL     OW24889   0.758   2.159   0.261
 7997SOL    HW124890   0.784   2.234   0.201
 7997SOL    HW224891   0.695   2.098   0.212
 7998SOL     OW24892   2.930   0.452   6.990
 7998SOL    HW124893   2.961   0.371   0.022
 7998SOL    HW224894   2.830   0.455   6.990
 7999SOL     OW24895   1.232   2.321   6.074
 7999SOL    HW124896   1.155   2.295   6.133
 7999SOL    HW224897   1.239   2.257   5.997
 8000SOL     OW24898   6.088   6.528   6.250
 8000SOL    HW124899   6.036   6.465   6.308
 8000SOL    HW224900   6.162   6.478   6.205
 8001SOL     OW24901   4.862   0.090   0.914
 8001SOL    HW124902   4.815   0.107   0.827
 8001SOL    HW224903   4.959   0.077   0.897
 8002SOL     OW24904   0.691   0.968   5.645
 8002SOL    HW124905   0.603   1.017   5.647
 8002SOL    HW224906   0.705   0.921   5.732
 8003SOL     OW24907   2.019   6.737   2.154
 8003SOL    HW124908   1.946   6.668   2.159
 8003SOL    HW224909   2.007   6.792   2.072
 8004SOL     OW24910   1.710   2.735   3.438
 8004SOL    HW124911   1.752   2.812   3.487
 8004SOL    HW224912   1.778   2.693   3.377
 8005SOL     OW24913   2.806   0.370   4.243
 8005SOL    HW124914   2.904   0.355   4.234
 8005SOL    HW224915   2.758   0.334   4.163
 8006SOL     OW24916   3.515   5.228   4.859
 8006SOL    HW124917   3.462   5.167   4.800
 8006SOL    HW224918   3.530   5.315   4.811
 8007SOL     OW24919   6.000   1.810   6.451
 8007SOL    HW124920   6.028   1.747   6.379
 8007SOL    HW224921   5.950   1.886   6.410
 8008SOL     OW24922   3.821   6.618   0.191
 8008SOL    HW124923   3.723   6.602   0.209
 8008SOL    HW224924   3.841   6.596   0.096
 8009SOL     OW24925   5.023   1.598   1.057
 8009SOL    HW124926   4.930   1.563   1.049
 8009SOL    HW224927   5.023   1.678   1.117
 8010SOL     OW24928   2.792   2.427   5.643
 8010SOL    HW124929   2.810   2.524   5.626
 8010SOL    HW224930   2.696   2.407   5.626
 8011SOL     OW24931   3.551   1.992   1.719
 8011SOL    HW124932   3.604   2.070   1.753
 8011SOL    HW224933   3.590   1.960   1.633
 8012SOL     OW24934   0.632   3.285   5.806
 8012SOL    HW124935   0.565   3.357   5.791
 8012SOL    HW224936   0.722   3.315   5.774
 8013SOL     OW24937   0.901   2.569   3.123
 8013SOL    HW124938   0.873   2.481   3.161
 8013SOL    HW224939   0.970   2.554   3.052
 8014SOL     OW24940   1.763   0.066   3.603
 8014SOL    HW124941   1.710   0.032   3.525
 8014SOL    HW224942   1.714   0.141   3.646
 8015SOL     OW24943   1.444   0.557   6.073
 8015SOL    HW124944   1.517   0.492   6.052
 8015SOL    HW224945   1.453   0.586   6.169
 8016SOL     OW24946   3.542   1.404   4.914
 8016SOL    HW124947   3.467   1.351   4.953
 8016SOL    HW224948   3.611   1.342   4.877
 8017SOL     OW24949   6.576   0.048   0.393
 8017SOL    HW124950   6.520   0.001   0.461
 8017SOL    HW224951   6.649   0.099   0.440
 8018SOL     OW24952   3.745   1.987   6.729
 8018SOL    HW124953   3.760   1.977   6.827
 8018SOL    HW224954   3.813   1.933   6.679
 8019SOL     OW24955   2.825   3.349   0.638
 8019SOL    HW124956   2.916   3.343   0.678
 8019SOL    HW224957   2.756   3.353   0.710
 8020SOL     OW24958   5.860   0.147   5.511
 8020SOL    HW124959   5.842   0.144   5.413
 8020SOL    HW224960   5.788   0.199   5.556
 8021SOL     OW24961   2.302   2.183   2.158
 8021SOL    HW124962   2.240   2.259   2.139
 8021SOL    HW224963   2.387   2.195   2.106
 8022SOL     OW24964   6.250   0.719   1.359
 8022SOL    HW124965   6.189   0.798   1.370
 8022SOL    HW224966   6.196   0.635   1.365
 8023SOL     OW24967   5.777   5.715   3.210
 8023SOL    HW124968   5.843   5.790   3.213
 8023SOL    HW224969   5.729   5.716   3.122
 8024SOL     OW24970   1.748   5.828   6.293
 8024SOL    HW124971   1.682   5.858   6.363
 8024SOL    HW224972   1.773   5.906   6.235
 8025SOL     OW24973   1.771   4.581   1.763
 8025SOL    HW124974   1.694   4.601   1.702
 8025SOL    HW224975   1.853   4.626   1.727
 8026SOL     OW24976   0.309   4.790   0.927
 8026SOL    HW124977   0.304   4.702   0.881
 8026SOL    HW224978   0.262   4.860   0.873
 8027SOL     OW24979   4.165   6.590   5.268
 8027SOL    HW124980   4.156   6.675   5.320
 8027SOL    HW224981   4.092   6.527   5.293
 8028SOL     OW24982   3.217   6.002   4.667
 8028SOL    HW124983   3.229   6.059   4.585
 8028SOL    HW224984   3.156   5.925   4.645
 8029SOL     OW24985   5.063   2.029   2.028
 8029SOL    HW124986   5.124   2.073   1.962
 8029SOL    HW224987   5.103   1.941   2.056
 8030SOL     OW24988   5.938   5.090   1.142
 8030SOL    HW124989   5.889   5.164   1.097
 8030SOL    HW224990   6.021   5.125   1.185
 8031SOL     OW24991   5.577   0.470   3.670
 8031SOL    HW124992   5.645   0.541   3.686
 8031SOL    HW224993   5.617   0.399   3.611
 8032SOL     OW24994   5.334   3.372   1.837
 8032SOL    HW124995   5.263   3.426   1.792
 8032SOL    HW224996   5.294   3.318   1.911
 8033SOL     OW24997   3.910   3.623   0.271
 8033SOL    HW124998   3.839   3.682   0.310
 8033SOL    HW224999   3.866   3.553   0.214
 8034SOL     OW25000   5.686   0.684   5.523
 8034SOL    HW125001   5.748   0.762   5.533
 8034SOL    HW225002   5.611   0.710   5.463
 8035SOL     OW25003   4.386   0.910   2.386
 8035SOL    HW125004   4.318   0.922   2.459
 8035SOL    HW225005   4.395   0.813   2.366
 8036SOL     OW25006   6.601   2.783   3.858
 8036SOL    HW125007   6.598   2.835   3.943
 8036SOL    HW225008   6.678   2.720   3.860
 8037SOL     OW25009   1.294   2.807   0.211
 8037SOL    HW125010   1.311   2.714   0.244
 8037SOL    HW225011   1.290   2.807   0.111
 8038SOL     OW25012   5.621   6.466   1.898
 8038SOL    HW125013   5.677   6.385   1.880
 8038SOL    HW225014   5.639   6.499   1.991
 8039SOL     OW25015   0.524   2.369   5.235
 8039SOL    HW125016   0.542   2.360   5.137
 8039SOL    HW225017   0.608   2.351   5.286
 8040SOL     OW25018   1.963   5.837   5.950
 8040SOL    HW125019   2.055   5.803   5.971
 8040SOL    HW225020   1.951   5.838   5.850
 8041SOL     OW25021   3.140   1.548   3.132
 8041SOL    HW125022   3.187   1.591   3.209
 8041SOL    HW225023   3.062   1.604   3.105
 8042SOL     OW25024   4.293   4.329   5.999
 8042SOL    HW125025   4.260   4.415   5.960
 8042SOL    HW225026   4.292   4.334   6.098
 8043SOL     OW25027   4.520   4.919   1.393
 8043SOL    HW125028   4.618   4.910   1.375
 8043SOL    HW225029   4.494   4.860   1.469
 8044SOL     OW25030   4.039   3.938   1.035
 8044SOL    HW125031   4.016   3.841   1.043
 8044SOL    HW225032   3.960   3.988   0.999
 8045SOL     OW25033   0.003   1.458   2.847
 8045SOL    HW125034   7.012   1.391   2.773
 8045SOL    HW225035   0.011   1.411   2.934
 8046SOL     OW25036   0.237   4.962   1.942
 8046SOL    HW125037   0.334   4.946   1.922
 8046SOL    HW225038   0.225   5.056   1.973
 8047SOL     OW25039   3.768   6.795   6.158
 8047SOL    HW125040   3.824   6.775   6.238
 8047SOL    HW225041   3.778   6.722   6.091
 8048SOL     OW25042   3.504   2.978   0.391
 8048SOL    HW125043   3.591   2.929   0.392
 8048SOL    HW225044   3.471   2.990   0.484
 8049SOL     OW25045   1.133   6.737   0.252
 8049SOL    HW125046   1.036   6.719   0.268
 8049SOL    HW225047   1.170   6.794   0.325
 8050SOL     OW25048   1.642   4.119   4.363
 8050SOL    HW125049   1.721   4.146   4.419
 8050SOL    HW225050   1.586   4.053   4.413
 8051SOL     OW25051   4.952   6.031   4.248
 8051SOL    HW125052   5.043   6.003   4.215
 8051SOL    HW225053   4.930   5.981   4.331
 8052SOL     OW25054   2.435   1.271   2.163
 8052SOL    HW125055   2.510   1.337   2.152
 8052SOL    HW225056   2.395   1.252   2.073
 8053SOL     OW25057   2.990   3.165   5.531
 8053SOL    HW125058   3.024   3.232   5.464
 8053SOL    HW225059   3.020   3.074   5.505
 8054SOL     OW25060   5.904   4.222   4.973
 8054SOL    HW125061   5.912   4.252   5.068
 8054SOL    HW225062   5.832   4.152   4.966
 8055SOL     OW25063   0.056   0.457   5.061
 8055SOL    HW125064   0.053   0.556   5.047
 8055SOL    HW225065   0.145   0.432   5.099
 8056SOL     OW25066   2.672   6.799   3.761
 8056SOL    HW125067   2.738   6.795   3.686
 8056SOL    HW225068   2.691   6.726   3.826
 8057SOL     OW25069   2.482   2.204   1.960
 8057SOL    HW125070   2.542   2.259   1.902
 8057SOL    HW225071   2.412   2.160   1.904
 8058SOL     OW25072   3.176   6.591   3.314
 8058SOL    HW125073   3.233   6.511   3.292
 8058SOL    HW225074   3.107   6.603   3.243
 8059SOL     OW25075   3.107   1.663   5.484
 8059SOL    HW125076   3.018   1.684   5.443
 8059SOL    HW225077   3.096   1.595   5.556
 8060SOL     OW25078   6.804   0.593   6.106
 8060SOL    HW125079   6.805   0.623   6.201
 8060SOL    HW225080   6.723   0.630   6.060
 8061SOL     OW25081   0.317   0.912   2.271
 8061SOL    HW125082   0.227   0.940   2.238
 8061SOL    HW225083   0.332   0.949   2.363
 8062SOL     OW25084   4.002   5.431   4.761
 8062SOL    HW125085   4.009   5.353   4.824
 8062SOL    HW225086   4.087   5.441   4.710
 8063SOL     OW25087   3.185   0.622   3.011
 8063SOL    HW125088   3.216   0.632   3.106
 8063SOL    HW225089   3.242   0.554   2.965
 8064SOL     OW25090   6.418   2.943   0.525
 8064SOL    HW125091   6.512   2.961   0.495
 8064SOL    HW225092   6.414   2.951   0.625
 8065SOL     OW25093   3.727   0.200   4.676
 8065SOL    HW125094   3.806   0.173   4.732
 8065SOL    HW225095   3.643   0.186   4.728
 8066SOL     OW25096   6.584   1.267   4.776
 8066SOL    HW125097   6.669   1.311   4.802
 8066SOL    HW225098   6.560   1.292   4.682
 8067SOL     OW25099   5.061   3.141   3.558
 8067SOL    HW125100   4.963   3.162   3.556
 8067SOL    HW225101   5.103   3.183   3.639
 8068SOL     OW25102   0.538   5.112   1.301
 8068SOL    HW125103   0.498   5.029   1.261
 8068SOL    HW225104   0.534   5.186   1.234
 8069SOL     OW25105   3.080   5.465   2.207
 8069SOL    HW125106   3.055   5.407   2.285
 8069SOL    HW225107   3.078   5.411   2.123
 8070SOL     OW25108   4.174   4.060   0.688
 8070SOL    HW125109   4.253   4.116   0.665
 8070SOL    HW225110   4.138   4.087   0.777
 8071SOL     OW25111   4.223   6.766   5.064
 8071SOL    HW125112   4.200   6.690   5.125
 8071SOL    HW225113   4.288   6.827   5.109
 8072SOL     OW25114   2.900   2.622   0.217
 8072SOL    HW125115   2.998   2.603   0.224
 8072SOL    HW225116   2.849   2.550   0.264
 8073SOL     OW25117   3.202   0.191   6.025
 8073SOL    HW125118   3.194   0.274   6.081
 8073SOL    HW225119   3.116   0.141   6.026
 8074SOL     OW25120   1.776   1.002   0.829
 8074SOL    HW125121   1.701   0.955   0.782
 8074SOL    HW225122   1.817   1.069   0.768
 8075SOL     OW25123   0.831   6.684   0.004
 8075SOL    HW125124   0.894   6.761   0.007
 8075SOL    HW225125   0.758   6.698   0.071
 8076SOL     OW25126   0.237   6.952   6.535
 8076SOL    HW125127   0.152   6.979   6.579
 8076SOL    HW225128   0.314   6.969   6.597
 8077SOL     OW25129   4.091   6.031   1.976
 8077SOL    HW125130   4.064   6.001   1.884
 8077SOL    HW225131   4.037   6.111   2.001
 8078SOL     OW25132   0.729   1.331   0.773
 8078SOL    HW125133   0.650   1.270   0.774
 8078SOL    HW225134   0.812   1.279   0.794
 8079SOL     OW25135   0.195   1.521   4.659
 8079SOL    HW125136   0.131   1.447   4.678
 8079SOL    HW225137   0.283   1.482   4.630
 8080SOL     OW25138   1.123   2.843   2.277
 8080SOL    HW125139   1.081   2.763   2.319
 8080SOL    HW225140   1.071   2.925   2.301
 8081SOL     OW25141   6.144   4.439   5.625
 8081SOL    HW125142   6.230   4.437   5.676
 8081SOL    HW225143   6.150   4.505   5.550
 8082SOL     OW25144   2.706   0.731   1.948
 8082SOL    HW125145   2.717   0.636   1.978
 8082SOL    HW225146   2.778   0.754   1.883
 8083SOL     OW25147   5.709   3.015   3.755
 8083SOL    HW125148   5.699   3.025   3.656
 8083SOL    HW225149   5.652   2.939   3.786
 8084SOL     OW25150   2.267   0.479   5.696
 8084SOL    HW125151   2.272   0.535   5.613
 8084SOL    HW225152   2.355   0.481   5.744
 8085SOL     OW25153   6.556   6.190   2.880
 8085SOL    HW125154   6.593   6.239   2.801
 8085SOL    HW225155   6.538   6.255   2.954
 8086SOL     OW25156   6.862   1.017   1.435
 8086SOL    HW125157   6.832   0.924   1.416
 8086SOL    HW225158   6.787   1.081   1.418
 8087SOL     OW25159   1.281   1.045   6.237
 8087SOL    HW125160   1.309   1.028   6.142
 8087SOL    HW225161   1.222   0.971   6.268
 8088SOL     OW25162   6.092   6.773   6.818
 8088SOL    HW125163   6.031   6.769   6.739
 8088SOL    HW225164   6.092   6.685   6.865
 8089SOL     OW25165   5.792   2.679   6.491
 8089SOL    HW125166   5.806   2.710   6.396
 8089SOL    HW225167   5.872   2.706   6.546
 8090SOL     OW25168   3.816   1.366   6.250
 8090SOL    HW125169   3.818   1.404   6.158
 8090SOL    HW225170   3.731   1.393   6.295
 8091SOL     OW25171   1.268   4.547   4.340
 8091SOL    HW125172   1.327   4.470   4.364
 8091SOL    HW225173   1.309   4.598   4.264
 8092SOL     OW25174   4.649   2.012   5.131
 8092SOL    HW125175   4.605   1.943   5.189
 8092SOL    HW225176   4.607   2.010   5.040
 8093SOL     OW25177   3.396   5.828   2.913
 8093SOL    HW125178   3.450   5.792   2.989
 8093SOL    HW225179   3.316   5.876   2.948
 8094SOL     OW25180   0.529   3.844   5.346
 8094SOL    HW125181   0.534   3.873   5.442
 8094SOL    HW225182   0.441   3.800   5.329
 8095SOL     OW25183   1.012   4.938   4.962
 8095SOL    HW125184   1.100   4.924   4.917
 8095SOL    HW225185   0.980   4.851   5.000
 8096SOL     OW25186   0.950   0.283   2.353
 8096SOL    HW125187   1.015   0.208   2.341
 8096SOL    HW225188   0.943   0.335   2.267
 8097SOL     OW25189   4.071   0.422   4.949
 8097SOL    HW125190   4.116   0.409   4.861
 8097SOL    HW225191   4.034   0.515   4.955
 8098SOL     OW25192   1.604   6.518   3.991
 8098SOL    HW125193   1.622   6.569   3.907
 8098SOL    HW225194   1.639   6.425   3.982
 8099SOL     OW25195   4.478   5.996   4.519
 8099SOL    HW125196   4.435   6.054   4.450
 8099SOL    HW225197   4.539   6.052   4.576
 8100SOL     OW25198   6.427   1.518   6.288
 8100SOL    HW125199   6.346   1.503   6.230
 8100SOL    HW225200   6.493   1.445   6.272
 8101SOL     OW25201   2.311   5.090   0.724
 8101SOL    HW125202   2.332   5.070   0.628
 8101SOL    HW225203   2.357   5.023   0.783
 8102SOL     OW25204   0.789   3.734   4.268
 8102SOL    HW125205   0.879   3.691   4.261
 8102SOL    HW225206   0.721   3.676   4.222
 8103SOL     OW25207   3.242   0.553   2.035
 8103SOL    HW125208   3.185   0.633   2.018
 8103SOL    HW225209   3.305   0.572   2.111
 8104SOL     OW25210   1.865   6.887   5.369
 8104SOL    HW125211   1.890   6.880   5.466
 8104SOL    HW225212   1.782   6.942   5.360
 8105SOL     OW25213   0.367   2.491   2.541
 8105SOL    HW125214   0.343   2.517   2.635
 8105SOL    HW225215   0.302   2.424   2.507
 8106SOL     OW25216   2.665   6.289   3.383
 8106SOL    HW125217   2.679   6.190   3.382
 8106SOL    HW225218   2.692   6.325   3.472
 8107SOL     OW25219   1.089   5.989   4.383
 8107SOL    HW125220   1.067   5.892   4.391
 8107SOL    HW225221   1.054   6.023   4.296
 8108SOL     OW25222   6.709   1.446   6.731
 8108SOL    HW125223   6.693   1.379   6.658
 8108SOL    HW225224   6.621   1.481   6.765
 8109SOL     OW25225   0.112   4.534   6.106
 8109SOL    HW125226   0.192   4.482   6.134
 8109SOL    HW225227   0.029   4.479   6.121
 8110SOL     OW25228   4.101   4.618   1.718
 8110SOL    HW125229   4.199   4.599   1.711
 8110SOL    HW225230   4.054   4.581   1.638
 8111SOL     OW25231   5.457   0.861   4.092
 8111SOL    HW125232   5.379   0.923   4.095
 8111SOL    HW225233   5.425   0.769   4.070
 8112SOL     OW25234   1.188   3.547   4.528
 8112SOL    HW125235   1.172   3.563   4.626
 8112SOL    HW225236   1.159   3.454   4.505
 8113SOL     OW25237   6.039   3.585   0.914
 8113SOL    HW125238   6.084   3.568   0.826
 8113SOL    HW225239   5.988   3.503   0.941
 8114SOL     OW25240   0.982   3.684   2.154
 8114SOL    HW125241   1.003   3.703   2.250
 8114SOL    HW225242   1.057   3.717   2.096
 8115SOL     OW25243   3.046   6.298   5.735
 8115SOL    HW125244   3.082   6.337   5.650
 8115SOL    HW225245   2.989   6.218   5.715
 8116SOL     OW25246   4.281   5.185   0.401
 8116SOL    HW125247   4.373   5.205   0.434
 8116SOL    HW225248   4.286   5.142   0.311
 8117SOL     OW25249   2.049   0.101   3.047
 8117SOL    HW125250   1.982   0.065   2.982
 8117SOL    HW225251   2.130   0.042   3.046
 8118SOL     OW25252   6.336   3.855   6.661
 8118SOL    HW125253   6.376   3.826   6.748
 8118SOL    HW225254   6.406   3.903   6.607
 8119SOL     OW25255   5.073   6.455   6.450
 8119SOL    HW125256   5.063   6.371   6.504
 8119SOL    HW225257   5.096   6.431   6.356
 8120SOL     OW25258   2.834   4.737   0.358
 8120SOL    HW125259   2.906   4.724   0.427
 8120SOL    HW225260   2.865   4.804   0.290
 8121SOL     OW25261   0.783   4.655   2.170
 8121SOL    HW125262   0.824   4.681   2.083
 8121SOL    HW225263   0.800   4.558   2.188
 8122SOL     OW25264   0.879   4.750   3.057
 8122SOL    HW125265   0.961   4.793   3.019
 8122SOL    HW225266   0.892   4.733   3.154
 8123SOL     OW25267   7.014   1.093   0.090
 8123SOL    HW125268   6.929   1.143   0.108
 8123SOL    HW225269   6.998   0.995   0.102
 8124SOL     OW25270   5.611   6.287   3.440
 8124SOL    HW125271   5.682   6.337   3.390
 8124SOL    HW225272   5.609   6.192   3.409
 8125SOL     OW25273   0.653   0.881   2.639
 8125SOL    HW125274   0.642   0.875   2.540
 8125SOL    HW225275   0.743   0.844   2.664
 8126SOL     OW25276   4.960   5.113   3.650
 8126SOL    HW125277   4.892   5.067   3.592
 8126SOL    HW225278   4.960   5.211   3.630
 8127SOL     OW25279   2.692   3.008   6.365
 8127SOL    HW125280   2.774   3.060   6.386
 8127SOL    HW225281   2.621   3.069   6.330
 8128SOL     OW25282   2.975   2.087   1.848
 8128SOL    HW125283   2.945   2.156   1.914
 8128SOL    HW225284   3.052   2.036   1.885
 8129SOL     OW25285   2.137   2.175   6.765
 8129SOL    HW125286   2.221   2.226   6.786
 8129SOL    HW225287   2.132   2.094   6.823
 8130SOL     OW25288   1.768   6.388   0.022
 8130SOL    HW125289   1.793   6.313   6.980
 8130SOL    HW225290   1.750   6.353   0.114
 8131SOL     OW25291   2.384   2.202   1.542
 8131SOL    HW125292   2.374   2.195   1.443
 8131SOL    HW225293   2.304   2.249   1.580
 8132SOL     OW25294   6.005   6.391   4.780
 8132SOL    HW125295   6.073   6.464   4.772
 8132SOL    HW225296   5.920   6.420   4.735
 8133SOL     OW25297   3.736   5.615   2.130
 8133SOL    HW125298   3.816   5.632   2.188
 8133SOL    HW225299   3.652   5.632   2.182
 8134SOL     OW25300   6.778   1.012   6.481
 8134SOL    HW125301   6.845   0.940   6.499
 8134SOL    HW225302   6.719   0.985   6.405
 8135SOL     OW25303   1.561   0.827   1.458
 8135SOL    HW125304   1.553   0.736   1.499
 8135SOL    HW225305   1.518   0.894   1.518
 8136SOL     OW25306   5.407   5.432   2.453
 8136SOL    HW125307   5.392   5.529   2.474
 8136SOL    HW225308   5.498   5.420   2.414
 8137SOL     OW25309   2.903   0.998   4.827
 8137SOL    HW125310   2.936   0.961   4.913
 8137SOL    HW225311   2.980   1.009   4.764
 8138SOL     OW25312   5.334   1.057   1.610
 8138SOL    HW125313   5.393   1.005   1.672
 8138SOL    HW225314   5.281   1.123   1.663
 8139SOL     OW25315   0.570   1.211   2.215
 8139SOL    HW125316   0.661   1.252   2.227
 8139SOL    HW225317   0.503   1.266   2.264
 8140SOL     OW25318   5.054   1.082   4.706
 8140SOL    HW125319   4.961   1.115   4.693
 8140SOL    HW225320   5.117   1.160   4.706
 8141SOL     OW25321   4.201   5.485   5.900
 8141SOL    HW125322   4.191   5.404   5.842
 8141SOL    HW225323   4.259   5.463   5.978
 8142SOL     OW25324   6.273   5.042   6.908
 8142SOL    HW125325   6.340   4.984   6.953
 8142SOL    HW225326   6.188   4.991   6.894
 8143SOL     OW25327   6.205   4.579   6.782
 8143SOL    HW125328   6.244   4.549   6.695
 8143SOL    HW225329   6.171   4.673   6.774
 8144SOL     OW25330   5.389   0.034   6.971
 8144SOL    HW125331   5.472   6.999   6.985
 8144SOL    HW225332   5.309   6.992   6.974
 8145SOL     OW25333   5.649   5.847   2.662
 8145SOL    HW125334   5.717   5.852   2.735
 8145SOL    HW225335   5.696   5.834   2.574
 8146SOL     OW25336   3.588   1.591   5.675
 8146SOL    HW125337   3.642   1.659   5.625
 8146SOL    HW225338   3.518   1.553   5.615
 8147SOL     OW25339   5.530   2.120   3.352
 8147SOL    HW125340   5.522   2.103   3.254
 8147SOL    HW225341   5.466   2.061   3.401
 8148SOL     OW25342   5.678   3.685   2.727
 8148SOL    HW125343   5.753   3.694   2.661
 8148SOL    HW225344   5.677   3.592   2.765
 8149SOL     OW25345   2.521   5.939   2.677
 8149SOL    HW125346   2.451   5.959   2.608
 8149SOL    HW225347   2.490   5.863   2.734
 8150SOL     OW25348   6.958   4.772   0.336
 8150SOL    HW125349   6.882   4.825   0.374
 8150SOL    HW225350   0.025   4.820   0.353
 8151SOL     OW25351   0.410   2.251   3.283
 8151SOL    HW125352   0.425   2.165   3.234
 8151SOL    HW225353   0.358   2.314   3.226
 8152SOL     OW25354   1.377   1.809   3.014
 8152SOL    HW125355   1.396   1.894   3.062
 8152SOL    HW225356   1.368   1.735   3.080
 8153SOL     OW25357   3.195   6.902   2.735
 8153SOL    HW125358   3.164   6.961   2.660
 8153SOL    HW225359   3.258   6.833   2.699
 8154SOL     OW25360   2.294   6.074   4.479
 8154SOL    HW125361   2.331   5.983   4.458
 8154SOL    HW225362   2.247   6.072   4.567
 8155SOL     OW25363   2.941   3.303   2.192
 8155SOL    HW125364   2.871   3.374   2.183
 8155SOL    HW225365   2.941   3.245   2.110
 8156SOL     OW25366   5.937   0.532   5.572
 8156SOL    HW125367   6.022   0.549   5.522
 8156SOL    HW225368   5.859   0.563   5.517
 8157SOL     OW25369   5.517   5.707   6.392
 8157SOL    HW125370   5.424   5.701   6.357
 8157SOL    HW225371   5.538   5.625   6.445
 8158SOL     OW25372   1.543   5.939   0.823
 8158SOL    HW125373   1.460   5.906   0.777
 8158SOL    HW225374   1.623   5.904   0.775
 8159SOL     OW25375   2.312   5.611   2.345
 8159SOL    HW125376   2.286   5.704   2.369
 8159SOL    HW225377   2.386   5.614   2.278
 8160SOL     OW25378   4.724   1.476   0.927
 8160SOL    HW125379   4.687   1.387   0.902
 8160SOL    HW225380   4.705   1.542   0.855
 8161SOL     OW25381   4.817   0.964   0.947
 8161SOL    HW125382   4.875   1.044   0.932
 8161SOL    HW225383   4.827   0.932   1.041
 8162SOL     OW25384   6.326   6.599   0.096
 8162SOL    HW125385   6.417   6.559   0.086
 8162SOL    HW225386   6.297   6.592   0.191
 8163SOL     OW25387   2.734   4.135   5.418
 8163SOL    HW125388   2.819   4.154   5.468
 8163SOL    HW225389   2.741   4.047   5.372
 8164SOL     OW25390   5.929   3.140   1.419
 8164SOL    HW125391   6.009   3.088   1.448
 8164SOL    HW225392   5.848   3.080   1.422
 8165SOL     OW25393   2.019   4.706   1.463
 8165SOL    HW125394   1.925   4.689   1.435
 8165SOL    HW225395   2.020   4.737   1.558
 8166SOL     OW25396   2.116   1.002   1.841
 8166SOL    HW125397   2.071   1.091   1.833
 8166SOL    HW225398   2.203   1.012   1.889
 8167SOL     OW25399   5.716   2.575   3.738
 8167SOL    HW125400   5.774   2.586   3.657
 8167SOL    HW225401   5.622   2.557   3.710
 8168SOL     OW25402   3.656   1.661   2.527
 8168SOL    HW125403   3.697   1.720   2.596
 8168SOL    HW225404   3.667   1.565   2.554
 8169SOL     OW25405   4.381   3.700   0.937
 8169SOL    HW125406   4.406   3.762   0.862
 8169SOL    HW225407   4.322   3.627   0.901
 8170SOL     OW25408   1.382   5.876   3.582
 8170SOL    HW125409   1.433   5.878   3.667
 8170SOL    HW225410   1.444   5.859   3.505
 8171SOL     OW25411   0.549   2.276   6.789
 8171SOL    HW125412   0.469   2.335   6.795
 8171SOL    HW225413   0.556   2.220   6.871
 8172SOL     OW25414   0.200   0.312   0.964
 8172SOL    HW125415   0.272   0.366   1.007
 8172SOL    HW225416   0.112   0.331   1.007
 8173SOL     OW25417   3.317   2.620   6.823
 8173SOL    HW125418   3.277   2.665   6.742
 8173SOL    HW225419   3.342   2.690   6.890
 8174SOL     OW25420   5.562   1.790   0.970
 8174SOL    HW125421   5.463   1.778   0.966
 8174SOL    HW225422   5.607   1.700   0.966
 8175SOL     OW25423   6.585   2.532   6.664
 8175SOL    HW125424   6.499   2.480   6.667
 8175SOL    HW225425   6.601   2.574   6.754
 8176SOL     OW25426   2.695   5.824   2.199
 8176SOL    HW125427   2.672   5.810   2.295
 8176SOL    HW225428   2.790   5.797   2.184
 8177SOL     OW25429   1.649   6.257   3.864
 8177SOL    HW125430   1.614   6.216   3.948
 8177SOL    HW225431   1.737   6.215   3.841
 8178SOL     OW25432   2.372   7.005   6.086
 8178SOL    HW125433   2.414   6.941   6.150
 8178SOL    HW225434   2.372   0.078   6.127
 8179SOL     OW25435   3.166   3.022   0.136
 8179SOL    HW125436   3.104   2.962   0.087
 8179SOL    HW225437   3.249   2.972   0.161
 8180SOL     OW25438   6.757   0.118   4.100
 8180SOL    HW125439   6.751   0.045   4.033
 8180SOL    HW225440   6.701   0.095   4.180
 8181SOL     OW25441   2.545   2.491   3.078
 8181SOL    HW125442   2.467   2.435   3.051
 8181SOL    HW225443   2.629   2.451   3.040
 8182SOL     OW25444   3.173   1.914   5.760
 8182SOL    HW125445   3.226   1.905   5.675
 8182SOL    HW225446   3.077   1.896   5.740
 8183SOL     OW25447   1.117   3.224   5.072
 8183SOL    HW125448   1.211   3.211   5.105
 8183SOL    HW225449   1.078   3.136   5.047
 8184SOL     OW25450   6.588   0.817   5.679
 8184SOL    HW125451   6.504   0.869   5.666
 8184SOL    HW225452   6.656   0.847   5.613
 8185SOL     OW25453   2.921   0.853   0.678
 8185SOL    HW125454   2.995   0.787   0.661
 8185SOL    HW225455   2.833   0.810   0.659
 8186SOL     OW25456   3.169   5.910   5.653
 8186SOL    HW125457   3.221   5.960   5.584
 8186SOL    HW225458   3.100   5.853   5.608
 8187SOL     OW25459   1.247   1.540   5.629
 8187SOL    HW125460   1.210   1.448   5.644
 8187SOL    HW225461   1.304   1.540   5.547
 8188SOL     OW25462   5.156   1.467   2.427
 8188SOL    HW125463   5.116   1.553   2.459
 8188SOL    HW225464   5.083   1.401   2.407
 8189SOL     OW25465   5.426   4.592   2.465
 8189SOL    HW125466   5.495   4.583   2.538
 8189SOL    HW225467   5.371   4.508   2.461
 8190SOL     OW25468   5.331   4.243   4.273
 8190SOL    HW125469   5.267   4.167   4.261
 8190SOL    HW225470   5.286   4.329   4.249
 8191SOL     OW25471   0.726   5.617   3.706
 8191SOL    HW125472   0.650   5.571   3.751
 8191SOL    HW225473   0.755   5.695   3.761
 8192SOL     OW25474   2.926   5.402   1.278
 8192SOL    HW125475   2.930   5.388   1.377
 8192SOL    HW225476   2.831   5.413   1.249
 8193SOL     OW25477   5.620   6.216   5.253
 8193SOL    HW125478   5.697   6.272   5.222
 8193SOL    HW225479   5.571   6.180   5.174
 8194SOL     OW25480   6.142   1.842   6.971
 8194SOL    HW125481   6.134   1.841   6.872
 8194SOL    HW225482   6.148   1.748   7.005
 8195SOL     OW25483   0.059   0.199   0.471
 8195SOL    HW125484   0.107   0.234   0.552
 8195SOL    HW225485   0.071   0.263   0.395
 8196SOL     OW25486   3.548   6.317   5.699
 8196SOL    HW125487   3.536   6.320   5.799
 8196SOL    HW225488   3.549   6.222   5.668
 8197SOL     OW25489   6.695   0.930   6.053
 8197SOL    HW125490   6.667   0.953   6.146
 8197SOL    HW225491   6.638   0.855   6.018
 8198SOL     OW25492   2.560   6.875   2.840
 8198SOL    HW125493   2.616   6.917   2.910
 8198SOL    HW225494   2.600   6.787   2.813
 8199SOL     OW25495   0.806   3.939   0.667
 8199SOL    HW125496   0.723   3.911   0.619
 8199SOL    HW225497   0.847   4.018   0.621
 8200SOL     OW25498   4.593   4.094   1.652
 8200SOL    HW125499   4.521   4.112   1.719
 8200SOL    HW225500   4.570   4.012   1.600
 8201SOL     OW25501   5.404   0.573   4.602
 8201SOL    HW125502   5.474   0.642   4.584
 8201SOL    HW225503   5.445   0.482   4.597
 8202SOL     OW25504   1.832   5.057   3.799
 8202SOL    HW125505   1.903   5.116   3.760
 8202SOL    HW225506   1.866   4.963   3.806
 8203SOL     OW25507   4.907   3.682   1.266
 8203SOL    HW125508   5.003   3.691   1.291
 8203SOL    HW225509   4.897   3.613   1.194
 8204SOL     OW25510   3.394   6.817   1.970
 8204SOL    HW125511   3.310   6.768   1.992
 8204SOL    HW225512   3.431   6.858   2.054
 8205SOL     OW25513   5.407   5.699   1.835
 8205SOL    HW125514   5.327   5.759   1.837
 8205SOL    HW225515   5.481   5.745   1.785
 8206SOL     OW25516   3.821   2.194   5.606
 8206SOL    HW125517   3.797   2.290   5.598
 8206SOL    HW225518   3.767   2.141   5.540
 8207SOL     OW25519   3.231   4.672   5.699
 8207SOL    HW125520   3.138   4.649   5.668
 8207SOL    HW225521   3.247   4.629   5.788
 8208SOL     OW25522   1.891   5.417   1.967
 8208SOL    HW125523   1.900   5.359   1.886
 8208SOL    HW225524   1.961   5.488   1.966
 8209SOL     OW25525   1.602   1.058   5.357
 8209SOL    HW125526   1.567   0.987   5.417
 8209SOL    HW225527   1.701   1.069   5.372
 8210SOL     OW25528   1.769   1.002   0.463
 8210SOL    HW125529   1.826   0.955   0.395
 8210SOL    HW225530   1.677   0.964   0.461
 8211SOL     OW25531   2.906   3.731   3.912
 8211SOL    HW125532   2.893   3.634   3.894
 8211SOL    HW225533   3.004   3.752   3.915
 8212SOL     OW25534   2.108   0.170   1.452
 8212SOL    HW125535   2.106   0.244   1.384
 8212SOL    HW225536   2.106   0.082   1.405
 8213SOL     OW25537   4.403   4.583   2.022
 8213SOL    HW125538   4.469   4.658   2.026
 8213SOL    HW225539   4.451   4.496   2.010
 8214SOL     OW25540   3.079   5.694   4.272
 8214SOL    HW125541   3.127   5.730   4.192
 8214SOL    HW225542   3.066   5.768   4.339
 8215SOL     OW25543   3.620   6.265   6.777
 8215SOL    HW125544   3.539   6.216   6.811
 8215SOL    HW225545   3.599   6.363   6.771
 8216SOL     OW25546   4.548   6.306   2.712
 8216SOL    HW125547   4.548   6.403   2.689
 8216SOL    HW225548   4.469   6.261   2.670
 8217SOL     OW25549   2.490   4.722   3.133
 8217SOL    HW125550   2.575   4.699   3.180
 8217SOL    HW225551   2.511   4.766   3.045
 8218SOL     OW25552   1.456   0.273   4.539
 8218SOL    HW125553   1.518   0.325   4.598
 8218SOL    HW225554   1.451   0.318   4.449
 8219SOL     OW25555   3.908   3.610   1.375
 8219SOL    HW125556   3.959   3.535   1.417
 8219SOL    HW225557   3.810   3.593   1.383
 8220SOL     OW25558   3.418   4.154   4.878
 8220SOL    HW125559   3.346   4.130   4.813
 8220SOL    HW225560   3.501   4.179   4.829
 8221SOL     OW25561   6.036   3.209   3.305
 8221SOL    HW125562   6.031   3.170   3.213
 8221SOL    HW225563   5.945   3.238   3.335
 8222SOL     OW25564   5.815   2.477   1.634
 8222SOL    HW125565   5.858   2.488   1.724
 8222SOL    HW225566   5.868   2.413   1.579
 8223SOL     OW25567   6.783   5.598   5.458
 8223SOL    HW125568   6.696   5.550   5.448
 8223SOL    HW225569   6.830   5.601   5.370
 8224SOL     OW25570   4.870   2.066   0.508
 8224SOL    HW125571   4.952   2.101   0.462
 8224SOL    HW225572   4.790   2.083   0.450
 8225SOL     OW25573   4.398   1.445   6.984
 8225SOL    HW125574   4.462   1.393   6.926
 8225SOL    HW225575   4.363   1.385   0.037
 8226SOL     OW25576   3.309   0.758   0.200
 8226SOL    HW125577   3.325   0.838   0.143
 8226SOL    HW225578   3.229   0.708   0.167
 8227SOL     OW25579   5.990   1.595   2.639
 8227SOL    HW125580   5.947   1.661   2.577
 8227SOL    HW225581   6.069   1.636   2.683
 8228SOL     OW25582   0.901   0.880   5.502
 8228SOL    HW125583   0.927   0.940   5.427
 8228SOL    HW225584   0.837   0.928   5.562
 8229SOL     OW25585   3.988   4.664   1.281
 8229SOL    HW125586   3.914   4.638   1.220
 8229SOL    HW225587   4.060   4.594   1.278
 8230SOL     OW25588   4.092   0.512   6.091
 8230SOL    HW125589   4.101   0.568   6.009
 8230SOL    HW225590   3.997   0.480   6.099
 8231SOL     OW25591   3.202   1.087   1.641
 8231SOL    HW125592   3.267   1.155   1.606
 8231SOL    HW225593   3.245   0.996   1.638
 8232SOL     OW25594   4.120   0.487   2.410
 8232SOL    HW125595   4.187   0.550   2.370
 8232SOL    HW225596   4.138   0.394   2.379
 8233SOL     OW25597   0.606   0.879   5.319
 8233SOL    HW125598   0.633   0.964   5.275
 8233SOL    HW225599   0.668   0.859   5.395
 8234SOL     OW25600   2.417   3.009   6.953
 8234SOL    HW125601   2.449   2.945   0.005
 8234SOL    HW225602   2.490   3.075   6.933
 8235SOL     OW25603   6.884   5.194   6.997
 8235SOL    HW125604   6.845   5.260   0.043
 8235SOL    HW225605   6.983   5.206   6.993
 8236SOL     OW25606   1.128   6.586   5.776
 8236SOL    HW125607   1.080   6.500   5.761
 8236SOL    HW225608   1.076   6.642   5.840
 8237SOL     OW25609   4.572   5.253   6.266
 8237SOL    HW125610   4.571   5.245   6.365
 8237SOL    HW225611   4.582   5.349   6.240
 8238SOL     OW25612   2.371   4.659   0.895
 8238SOL    HW125613   2.446   4.695   0.949
 8238SOL    HW225614   2.291   4.646   0.953
 8239SOL     OW25615   0.846   1.948   5.615
 8239SOL    HW125616   0.775   2.005   5.573
 8239SOL    HW225617   0.804   1.866   5.653
 8240SOL     OW25618   3.742   3.692   4.575
 8240SOL    HW125619   3.749   3.712   4.478
 8240SOL    HW225620   3.803   3.616   4.598
 8241SOL     OW25621   1.174   3.630   6.891
 8241SOL    HW125622   1.232   3.656   6.814
 8241SOL    HW225623   1.106   3.701   6.907
 8242SOL     OW25624   1.134   4.193   4.546
 8242SOL    HW125625   1.101   4.134   4.620
 8242SOL    HW225626   1.139   4.140   4.461
 8243SOL     OW25627   0.846   4.718   5.021
 8243SOL    HW125628   0.888   4.627   5.020
 8243SOL    HW225629   0.767   4.718   4.958
 8244SOL     OW25630   1.680   0.338   3.685
 8244SOL    HW125631   1.667   0.300   3.776
 8244SOL    HW225632   1.632   0.425   3.678
 8245SOL     OW25633   5.148   1.190   3.954
 8245SOL    HW125634   5.171   1.101   3.994
 8245SOL    HW225635   5.226   1.225   3.902
 8246SOL     OW25636   1.105   4.420   6.697
 8246SOL    HW125637   1.006   4.406   6.701
 8246SOL    HW225638   1.141   4.431   6.790
 8247SOL     OW25639   2.979   5.244   3.572
 8247SOL    HW125640   2.937   5.256   3.662
 8247SOL    HW225641   2.916   5.193   3.513
 8248SOL     OW25642   0.460   5.346   2.979
 8248SOL    HW125643   0.511   5.384   3.056
 8248SOL    HW225644   0.523   5.309   2.912
 8249SOL     OW25645   2.103   2.146   6.182
 8249SOL    HW125646   2.154   2.149   6.096
 8249SOL    HW225647   2.007   2.167   6.166
 8250SOL     OW25648   1.528   2.006   6.587
 8250SOL    HW125649   1.579   1.921   6.596
 8250SOL    HW225650   1.574   2.079   6.639
 8251SOL     OW25651   6.797   2.504   4.891
 8251SOL    HW125652   6.702   2.477   4.905
 8251SOL    HW225653   6.853   2.422   4.881
 8252SOL     OW25654   1.902   2.532   6.621
 8252SOL    HW125655   1.889   2.452   6.679
 8252SOL    HW225656   1.995   2.565   6.629
 8253SOL     OW25657   3.608   5.889   0.179
 8253SOL    HW125658   3.664   5.921   0.103
 8253SOL    HW225659   3.629   5.793   0.198
 8254SOL     OW25660   5.682   5.276   0.563
 8254SOL    HW125661   5.690   5.269   0.464
 8254SOL    HW225662   5.758   5.330   0.599
 8255SOL     OW25663   0.176   7.013   5.528
 8255SOL    HW125664   0.222   0.083   5.526
 8255SOL    HW225665   0.157   6.987   5.622
 8256SOL     OW25666   1.993   5.970   2.774
 8256SOL    HW125667   2.007   5.872   2.758
 8256SOL    HW225668   2.045   5.998   2.855
 8257SOL     OW25669   4.838   3.941   4.019
 8257SOL    HW125670   4.784   4.011   4.067
 8257SOL    HW225671   4.924   3.982   3.987
 8258SOL     OW25672   6.439   3.616   1.924
 8258SOL    HW125673   6.477   3.540   1.871
 8258SOL    HW225674   6.384   3.675   1.864
 8259SOL     OW25675   4.807   2.219   4.042
 8259SOL    HW125676   4.880   2.168   4.087
 8259SOL    HW225677   4.778   2.295   4.101
 8260SOL     OW25678   3.013   0.182   0.804
 8260SOL    HW125679   2.973   0.163   0.893
 8260SOL    HW225680   2.980   0.270   0.771
 8261SOL     OW25681   5.072   0.337   3.443
 8261SOL    HW125682   5.134   0.314   3.518
 8261SOL    HW225683   5.026   0.254   3.411
 8262SOL     OW25684   0.072   3.858   1.564
 8262SOL    HW125685   0.085   3.767   1.603
 8262SOL    HW225686   0.033   3.850   1.472
 8263SOL     OW25687   6.816   2.496   0.073
 8263SOL    HW125688   6.826   2.403   0.107
 8263SOL    HW225689   6.775   2.553   0.144
 8264SOL     OW25690   1.809   6.506   3.029
 8264SOL    HW125691   1.830   6.410   3.015
 8264SOL    HW225692   1.851   6.560   2.956
 8265SOL     OW25693   5.262   0.683   0.910
 8265SOL    HW125694   5.228   0.765   0.863
 8265SOL    HW225695   5.208   0.604   0.881
 8266SOL     OW25696   2.416   6.959   3.812
 8266SOL    HW125697   2.497   6.904   3.790
 8266SOL    HW225698   2.410   6.971   3.911
 8267SOL     OW25699   1.479   3.912   3.039
 8267SOL    HW125700   1.492   3.985   3.105
 8267SOL    HW225701   1.387   3.874   3.049
 8268SOL     OW25702   3.167   4.397   6.608
 8268SOL    HW125703   3.237   4.427   6.543
 8268SOL    HW225704   3.209   4.377   6.697
 8269SOL     OW25705   4.346   2.327   3.050
 8269SOL    HW125706   4.411   2.403   3.060
 8269SOL    HW225707   4.395   2.240   3.052
 8270SOL     OW25708   3.966   6.917   5.991
 8270SOL    HW125709   4.037   6.859   5.951
 8270SOL    HW225710   3.947   6.888   6.085
 8271SOL     OW25711   4.837   5.960   4.945
 8271SOL    HW125712   4.903   6.027   4.979
 8271SOL    HW225713   4.869   5.921   4.859
 8272SOL     OW25714   0.564   6.740   1.843
 8272SOL    HW125715   0.657   6.776   1.853
 8272SOL    HW225716   0.515   6.751   1.929
 8273SOL     OW25717   3.098   6.544   0.066
 8273SOL    HW125718   3.031   6.493   0.012
 8273SOL    HW225719   3.056   6.629   0.098
 8274SOL     OW25720   4.573   6.123   6.393
 8274SOL    HW125721   4.582   6.217   6.359
 8274SOL    HW225722   4.480   6.091   6.378
 8275SOL     OW25723   6.158   0.807   4.641
 8275SOL    HW125724   6.233   0.872   4.628
 8275SOL    HW225725   6.184   0.718   4.603
 8276SOL     OW25726   6.471   3.233   6.473
 8276SOL    HW125727   6.522   3.267   6.393
 8276SOL    HW225728   6.526   3.164   6.520
 8277SOL     OW25729   0.852   5.440   5.498
 8277SOL    HW125730   0.842   5.341   5.497
 8277SOL    HW225731   0.773   5.482   5.453
 8278SOL     OW25732   3.608   1.493   6.986
 8278SOL    HW125733   3.702   1.512   6.957
 8278SOL    HW225734   3.581   1.402   6.954
 8279SOL     OW25735   4.277   6.159   6.288
 8279SOL    HW125736   4.332   6.216   6.227
 8279SOL    HW225737   4.183   6.155   6.254
 8280SOL     OW25738   5.000   2.595   0.629
 8280SOL    HW125739   4.991   2.495   0.639
 8280SOL    HW225740   4.937   2.640   0.691
 8281SOL     OW25741   1.852   4.655   0.027
 8281SOL    HW125742   1.896   4.676   0.114
 8281SOL    HW225743   1.759   4.620   0.043
 8282SOL     OW25744   3.242   2.869   1.236
 8282SOL    HW125745   3.188   2.953   1.237
 8282SOL    HW225746   3.230   2.823   1.148
 8283SOL     OW25747   0.399   4.729   3.303
 8283SOL    HW125748   0.316   4.710   3.251
 8283SOL    HW225749   0.478   4.727   3.242
 8284SOL     OW25750   1.923   1.871   1.676
 8284SOL    HW125751   1.962   1.801   1.735
 8284SOL    HW225752   1.940   1.961   1.715
 8285SOL     OW25753   3.223   4.323   5.701
 8285SOL    HW125754   3.173   4.409   5.711
 8285SOL    HW225755   3.235   4.303   5.604
 8286SOL     OW25756   5.521   1.174   4.481
 8286SOL    HW125757   5.576   1.111   4.535
 8286SOL    HW225758   5.470   1.235   4.541
 8287SOL     OW25759   1.530   0.597   3.571
 8287SOL    HW125760   1.454   0.661   3.583
 8287SOL    HW225761   1.616   0.648   3.565
 8288SOL     OW25762   1.581   1.459   2.442
 8288SOL    HW125763   1.646   1.512   2.388
 8288SOL    HW225764   1.614   1.453   2.536
 8289SOL     OW25765   6.532   1.899   5.638
 8289SOL    HW125766   6.477   1.819   5.662
 8289SOL    HW225767   6.600   1.915   5.709
 8290SOL     OW25768   3.642   2.540   1.725
 8290SOL    HW125769   3.626   2.478   1.802
 8290SOL    HW225770   3.693   2.492   1.654
 8291SOL     OW25771   5.768   6.496   6.103
 8291SOL    HW125772   5.783   6.400   6.128
 8291SOL    HW225773   5.734   6.546   6.183
 8292SOL     OW25774   1.333   3.837   4.756
 8292SOL    HW125775   1.269   3.809   4.685
 8292SOL    HW225776   1.421   3.791   4.741
 8293SOL     OW25777   2.708   5.239   2.772
 8293SOL    HW125778   2.658   5.325   2.773
 8293SOL    HW225779   2.645   5.164   2.795
 8294SOL     OW25780   6.748   3.658   6.307
 8294SOL    HW125781   6.793   3.612   6.383
 8294SOL    HW225782   6.653   3.627   6.300
 8295SOL     OW25783   4.681   4.183   2.375
 8295SOL    HW125784   4.688   4.129   2.458
 8295SOL    HW225785   4.715   4.130   2.297
 8296SOL     OW25786   3.554   6.627   1.075
 8296SOL    HW125787   3.509   6.650   0.988
 8296SOL    HW225788   3.597   6.537   1.067
 8297SOL     OW25789   6.646   4.531   3.026
 8297SOL    HW125790   6.694   4.547   2.939
 8297SOL    HW225791   6.550   4.558   3.017
 8298SOL     OW25792   6.866   0.114   6.733
 8298SOL    HW125793   6.960   0.140   6.756
 8298SOL    HW225794   6.816   0.195   6.702
 8299SOL     OW25795   0.636   4.021   1.277
 8299SOL    HW125796   0.593   3.999   1.365
 8299SOL    HW225797   0.565   4.032   1.207
 8300SOL     OW25798   6.141   5.094   3.307
 8300SOL    HW125799   6.140   5.104   3.208
 8300SOL    HW225800   6.109   5.002   3.332
 8301SOL     OW25801   4.337   6.430   0.865
 8301SOL    HW125802   4.268   6.502   0.864
 8301SOL    HW225803   4.378   6.422   0.774
 8302SOL     OW25804   3.653   6.628   4.677
 8302SOL    HW125805   3.634   6.664   4.585
 8302SOL    HW225806   3.741   6.581   4.677
 8303SOL     OW25807   6.652   0.110   2.831
 8303SOL    HW125808   6.722   0.042   2.852
 8303SOL    HW225809   6.563   0.077   2.865
 8304SOL     OW25810   6.280   3.872   3.861
 8304SOL    HW125811   6.214   3.831   3.798
 8304SOL    HW225812   6.293   3.968   3.838
 8305SOL     OW25813   4.954   5.824   4.437
 8305SOL    HW125814   4.872   5.826   4.494
 8305SOL    HW225815   4.956   5.740   4.383
 8306SOL     OW25816   6.007   1.020   2.445
 8306SOL    HW125817   5.960   0.935   2.469
 8306SOL    HW225818   5.939   1.089   2.418
 8307SOL     OW25819   1.878   4.806   2.264
 8307SOL    HW125820   1.968   4.834   2.233
 8307SOL    HW225821   1.886   4.743   2.341
 8308SOL     OW25822   1.202   4.975   0.067
 8308SOL    HW125823   1.282   5.014   0.112
 8308SOL    HW225824   1.185   5.024   7.000
 8309SOL     OW25825   6.630   4.052   4.037
 8309SOL    HW125826   6.627   4.049   4.137
 8309SOL    HW225827   6.537   4.045   4.000
 8310SOL     OW25828   0.870   6.721   0.324
 8310SOL    HW125829   0.821   6.805   0.302
 8310SOL    HW225830   0.809   6.659   0.375
 8311SOL     OW25831   5.278   6.900   4.384
 8311SOL    HW125832   5.192   6.948   4.367
 8311SOL    HW225833   5.348   6.935   4.322
 8312SOL     OW25834   5.309   0.808   0.064
 8312SOL    HW125835   5.375   0.882   0.075
 8312SOL    HW225836   5.355   0.720   0.076
 8313SOL     OW25837   4.762   1.460   4.582
 8313SOL    HW125838   4.727   1.535   4.638
 8313SOL    HW225839   4.848   1.488   4.539
 8314SOL     OW25840   4.803   6.339   5.839
 8314SOL    HW125841   4.789   6.242   5.819
 8314SOL    HW225842   4.773   6.394   5.760
 8315SOL     OW25843   3.840   2.986   4.342
 8315SOL    HW125844   3.869   3.016   4.251
 8315SOL    HW225845   3.916   2.997   4.406
 8316SOL     OW25846   1.238   2.679   6.929
 8316SOL    HW125847   1.152   2.710   6.886
 8316SOL    HW225848   1.217   2.630   7.013
 8317SOL     OW25849   1.599   1.752   3.845
 8317SOL    HW125850   1.515   1.708   3.879
 8317SOL    HW225851   1.645   1.690   3.782
 8318SOL     OW25852   3.814   6.921   6.508
 8318SOL    HW125853   3.739   6.876   6.460
 8318SOL    HW225854   3.892   6.860   6.512
 8319SOL     OW25855   2.139   0.336   6.281
 8319SOL    HW125856   2.154   0.435   6.276
 8319SOL    HW225857   2.194   0.290   6.212
 8320SOL     OW25858   3.107   3.472   4.608
 8320SOL    HW125859   3.039   3.543   4.627
 8320SOL    HW225860   3.181   3.510   4.553
 8321SOL     OW25861   6.822   6.726   0.295
 8321SOL    HW125862   6.825   6.819   0.259
 8321SOL    HW225863   6.912   6.684   0.287
 8322SOL     OW25864   6.902   0.847   0.115
 8322SOL    HW125865   6.810   0.816   0.092
 8322SOL    HW225866   6.969   0.782   0.079
 8323SOL     OW25867   4.565   4.540   1.179
 8323SOL    HW125868   4.580   4.443   1.197
 8323SOL    HW225869   4.490   4.550   1.113
 8324SOL     OW25870   5.992   6.317   6.390
 8324SOL    HW125871   6.036   6.269   6.465
 8324SOL    HW225872   5.913   6.264   6.358
 8325SOL     OW25873   1.525   5.061   5.591
 8325SOL    HW125874   1.444   5.120   5.598
 8325SOL    HW225875   1.575   5.084   5.507
 8326SOL     OW25876   1.666   3.380   1.735
 8326SOL    HW125877   1.654   3.419   1.826
 8326SOL    HW225878   1.757   3.339   1.729
 8327SOL     OW25879   1.134   0.115   4.621
 8327SOL    HW125880   1.131   0.214   4.634
 8327SOL    HW225881   1.062   0.087   4.557
 8328SOL     OW25882   1.395   0.209   6.006
 8328SOL    HW125883   1.494   0.225   6.005
 8328SOL    HW225884   1.376   0.121   6.050
 8329SOL     OW25885   1.334   2.821   5.417
 8329SOL    HW125886   1.433   2.814   5.425
 8329SOL    HW225887   1.311   2.879   5.339
 8330SOL     OW25888   3.526   0.472   6.263
 8330SOL    HW125889   3.473   0.521   6.332
 8330SOL    HW225890   3.585   0.404   6.308
 8331SOL     OW25891   1.734   2.064   0.252
 8331SOL    HW125892   1.648   2.103   0.285
 8331SOL    HW225893   1.719   2.021   0.163
 8332SOL     OW25894   5.639   4.654   2.242
 8332SOL    HW125895   5.711   4.585   2.244
 8332SOL    HW225896   5.583   4.647   2.325
 8333SOL     OW25897   3.283   4.761   1.275
 8333SOL    HW125898   3.211   4.752   1.205
 8333SOL    HW225899   3.247   4.813   1.352
 8334SOL     OW25900   3.344   2.256   6.352
 8334SOL    HW125901   3.407   2.241   6.276
 8334SOL    HW225902   3.360   2.186   6.422
 8335SOL     OW25903   5.250   3.278   6.039
 8335SOL    HW125904   5.205   3.367   6.041
 8335SOL    HW225905   5.300   3.268   5.953
 8336SOL     OW25906   1.014   3.579   3.086
 8336SOL    HW125907   0.971   3.578   3.176
 8336SOL    HW225908   0.974   3.508   3.029
 8337SOL     OW25909   0.346   0.867   4.426
 8337SOL    HW125910   0.430   0.886   4.477
 8337SOL    HW225911   0.334   0.937   4.355
 8338SOL     OW25912   3.761   5.208   2.588
 8338SOL    HW125913   3.840   5.163   2.630
 8338SOL    HW225914   3.756   5.183   2.492
 8339SOL     OW25915   6.482   0.688   0.504
 8339SOL    HW125916   6.564   0.631   0.509
 8339SOL    HW225917   6.404   0.631   0.477
 8340SOL     OW25918   5.460   2.461   0.451
 8340SOL    HW125919   5.542   2.410   0.424
 8340SOL    HW225920   5.475   2.503   0.540
 8341SOL     OW25921   3.385   0.628   6.439
 8341SOL    HW125922   3.320   0.668   6.374
 8341SOL    HW225923   3.408   0.695   6.509
 8342SOL     OW25924   4.613   6.986   0.002
 8342SOL    HW125925   4.658   0.001   0.084
 8342SOL    HW225926   4.669   6.915   6.978
 8343SOL     OW25927   6.710   3.985   3.711
 8343SOL    HW125928   6.667   3.977   3.620
 8343SOL    HW225929   6.772   4.063   3.712
 8344SOL     OW25930   0.873   5.535   4.894
 8344SOL    HW125931   0.958   5.481   4.889
 8344SOL    HW225932   0.896   5.633   4.892
 8345SOL     OW25933   4.492   0.844   2.096
 8345SOL    HW125934   4.419   0.856   2.163
 8345SOL    HW225935   4.544   0.929   2.088
 8346SOL     OW25936   4.575   3.117   5.647
 8346SOL    HW125937   4.517   3.171   5.585
 8346SOL    HW225938   4.571   3.021   5.620
 8347SOL     OW25939   2.372   0.264   6.099
 8347SOL    HW125940   2.317   0.251   6.017
 8347SOL    HW225941   2.444   0.331   6.081
 8348SOL     OW25942   3.833   6.537   2.013
 8348SOL    HW125943   3.904   6.533   1.943
 8348SOL    HW225944   3.750   6.577   1.973
 8349SOL     OW25945   1.347   6.409   2.159
 8349SOL    HW125946   1.388   6.338   2.216
 8349SOL    HW225947   1.345   6.377   2.064
 8350SOL     OW25948   2.525   0.163   6.334
 8350SOL    HW125949   2.433   0.136   6.361
 8350SOL    HW225950   2.523   0.206   6.243
 8351SOL     OW25951   0.483   4.391   3.909
 8351SOL    HW125952   0.436   4.478   3.896
 8351SOL    HW225953   0.512   4.383   4.004
 8352SOL     OW25954   2.942   5.376   1.544
 8352SOL    HW125955   2.954   5.416   1.635
 8352SOL    HW225956   2.959   5.277   1.548
 8353SOL     OW25957   1.304   3.819   2.453
 8353SOL    HW125958   1.316   3.918   2.458
 8353SOL    HW225959   1.388   3.776   2.420
 8354SOL     OW25960   3.272   0.026   3.677
 8354SOL    HW125961   3.360   0.006   3.720
 8354SOL    HW225962   3.239   0.115   3.710
 8355SOL     OW25963   2.176   6.133   5.756
 8355SOL    HW125964   2.163   6.036   5.736
 8355SOL    HW225965   2.087   6.179   5.755
 8356SOL     OW25966   1.492   5.508   1.308
 8356SOL    HW125967   1.579   5.519   1.356
 8356SOL    HW225968   1.444   5.428   1.343
 8357SOL     OW25969   4.186   5.755   5.861
 8357SOL    HW125970   4.181   5.655   5.868
 8357SOL    HW225971   4.225   5.781   5.773
 8358SOL     OW25972   1.304   2.665   5.058
 8358SOL    HW125973   1.390   2.620   5.081
 8358SOL    HW225974   1.298   2.679   4.959
 8359SOL     OW25975   3.337   1.750   5.158
 8359SOL    HW125976   3.352   1.725   5.062
 8359SOL    HW225977   3.407   1.707   5.215
 8360SOL     OW25978   5.402   6.574   0.270
 8360SOL    HW125979   5.460   6.622   0.204
 8360SOL    HW225980   5.350   6.503   0.223
 8361SOL     OW25981   3.202   0.050   0.360
 8361SOL    HW125982   3.221   6.976   0.391
 8361SOL    HW225983   3.278   0.083   0.304
 8362SOL     OW25984   6.379   3.585   0.775
 8362SOL    HW125985   6.460   3.553   0.825
 8362SOL    HW225986   6.347   3.671   0.816
 8363SOL     OW25987   3.114   2.218   6.834
 8363SOL    HW125988   3.204   2.174   6.828
 8363SOL    HW225989   3.043   2.150   6.817
 8364SOL     OW25990   0.848   2.793   4.155
 8364SOL    HW125991   0.861   2.807   4.057
 8364SOL    HW225992   0.925   2.741   4.192
 8365SOL     OW25993   2.226   2.375   2.712
 8365SOL    HW125994   2.207   2.283   2.748
 8365SOL    HW225995   2.243   2.368   2.613
 8366SOL     OW25996   4.817   5.759   0.692
 8366SOL    HW125997   4.733   5.808   0.715
 8366SOL    HW225998   4.889   5.785   0.756
 8367SOL     OW25999   4.720   5.191   4.828
 8367SOL    HW126000   4.798   5.237   4.872
 8367SOL    HW226001   4.680   5.253   4.761
 8368SOL     OW26002   1.118   6.171   0.028
 8368SOL    HW126003   1.024   6.147   0.053
 8368SOL    HW226004   1.135   6.267   0.050
 8369SOL     OW26005   1.357   1.444   0.190
 8369SOL    HW126006   1.300   1.457   0.271
 8369SOL    HW226007   1.300   1.414   0.113
 8370SOL     OW26008   3.052   2.131   0.174
 8370SOL    HW126009   3.034   2.209   0.113
 8370SOL    HW226010   3.121   2.157   0.242
 8371SOL     OW26011   1.839   4.256   5.771
 8371SOL    HW126012   1.928   4.276   5.729
 8371SOL    HW226013   1.773   4.231   5.699
 8372SOL     OW26014   1.724   6.063   2.327
 8372SOL    HW126015   1.784   6.143   2.321
 8372SOL    HW226016   1.773   5.988   2.371
 8373SOL     OW26017   0.052   0.908   4.260
 8373SOL    HW126018   0.052   0.835   4.329
 8373SOL    HW226019   0.001   0.986   4.295
 8374SOL     OW26020   1.733   0.609   4.652
 8374SOL    HW126021   1.704   0.642   4.563
 8374SOL    HW226022   1.768   0.686   4.706
 8375SOL     OW26023   4.415   1.339   5.199
 8375SOL    HW126024   4.411   1.282   5.117
 8375SOL    HW226025   4.347   1.308   5.265
 8376SOL     OW26026   1.800   0.945   3.279
 8376SOL    HW126027   1.831   0.878   3.211
 8376SOL    HW226028   1.700   0.949   3.280
 8377SOL     OW26029   5.282   5.630   6.905
 8377SOL    HW126030   5.282   5.691   6.826
 8377SOL    HW226031   5.370   5.582   6.910
 8378SOL     OW26032   6.078   5.680   3.434
 8378SOL    HW126033   6.007   5.685   3.504
 8378SOL    HW226034   6.145   5.752   3.449
 8379SOL     OW26035   5.564   1.381   2.293
 8379SOL    HW126036   5.505   1.408   2.368
 8379SOL    HW226037   5.514   1.386   2.207
 8380SOL     OW26038   6.562   5.318   0.096
 8380SOL    HW126039   6.542   5.391   0.030
 8380SOL    HW226040   6.601   5.358   0.179
 8381SOL     OW26041   0.114   1.905   2.734
 8381SOL    HW126042   0.203   1.865   2.712
 8381SOL    HW226043   0.100   1.986   2.678
 8382SOL     OW26044   2.775   0.124   0.166
 8382SOL    HW126045   2.736   0.037   0.196
 8382SOL    HW226046   2.804   0.117   0.071
 8383SOL     OW26047   3.211   6.858   4.668
 8383SOL    HW126048   3.142   6.849   4.740
 8383SOL    HW226049   3.186   6.799   4.591
 8384SOL     OW26050   0.071   2.414   0.788
 8384SOL    HW126051   0.006   2.339   0.797
 8384SOL    HW226052   0.085   2.435   0.692
 8385SOL     OW26053   4.441   3.477   0.689
 8385SOL    HW126054   4.457   3.388   0.646
 8385SOL    HW226055   4.513   3.497   0.754
 8386SOL     OW26056   1.846   5.659   1.796
 8386SOL    HW126057   1.868   5.563   1.779
 8386SOL    HW226058   1.926   5.715   1.777
 8387SOL     OW26059   2.397   1.561   1.402
 8387SOL    HW126060   2.410   1.655   1.433
 8387SOL    HW226061   2.313   1.555   1.348
 8388SOL     OW26062   3.291   6.477   0.256
 8388SOL    HW126063   3.229   6.435   0.322
 8388SOL    HW226064   3.241   6.500   0.172
 8389SOL     OW26065   1.236   2.714   4.810
 8389SOL    HW126066   1.138   2.699   4.822
 8389SOL    HW226067   1.260   2.706   4.713
 8390SOL     OW26068   2.220   0.664   6.032
 8390SOL    HW126069   2.166   0.690   5.952
 8390SOL    HW226070   2.317   0.683   6.014
 8391SOL     OW26071   5.128   5.798   1.810
 8391SOL    HW126072   5.083   5.737   1.875
 8391SOL    HW226073   5.117   5.893   1.841
 8392SOL     OW26074   5.616   5.876   5.474
 8392SOL    HW126075   5.558   5.952   5.502
 8392SOL    HW226076   5.696   5.870   5.534
 8393SOL     OW26077   6.789   6.216   3.101
 8393SOL    HW126078   6.821   6.146   3.037
 8393SOL    HW226079   6.858   6.229   3.173
 8394SOL     OW26080   0.592   1.920   3.072
 8394SOL    HW126081   0.686   1.900   3.044
 8394SOL    HW226082   0.533   1.919   2.991
 8395SOL     OW26083   0.210   6.570   4.695
 8395SOL    HW126084   0.152   6.625   4.636
 8395SOL    HW226085   0.255   6.498   4.641
 8396SOL     OW26086   4.763   4.347   2.739
 8396SOL    HW126087   4.689   4.381   2.681
 8396SOL    HW226088   4.752   4.248   2.752
 8397SOL     OW26089   2.153   6.423   2.677
 8397SOL    HW126090   2.221   6.374   2.732
 8397SOL    HW226091   2.186   6.516   2.659
 8398SOL     OW26092   4.214   1.594   6.869
 8398SOL    HW126093   4.287   1.538   6.908
 8398SOL    HW226094   4.171   1.648   6.941
 8399SOL     OW26095   5.856   6.020   0.147
 8399SOL    HW126096   5.807   6.007   0.061
 8399SOL    HW226097   5.795   5.999   0.224
 8400SOL     OW26098   0.194   0.435   3.175
 8400SOL    HW126099   0.283   0.389   3.169
 8400SOL    HW226100   0.208   0.534   3.181
 8401SOL     OW26101   3.631   3.756   6.449
 8401SOL    HW126102   3.684   3.753   6.364
 8401SOL    HW226103   3.675   3.819   6.513
 8402SOL     OW26104   3.749   1.555   6.582
 8402SOL    HW126105   3.713   1.618   6.513
 8402SOL    HW226106   3.847   1.541   6.566
 8403SOL     OW26107   1.459   1.214   4.203
 8403SOL    HW126108   1.474   1.216   4.302
 8403SOL    HW226109   1.459   1.308   4.168
 8404SOL     OW26110   4.773   6.535   5.575
 8404SOL    HW126111   4.765   6.621   5.625
 8404SOL    HW226112   4.867   6.526   5.540
 8405SOL     OW26113   0.584   2.671   6.762
 8405SOL    HW126114   0.549   2.736   6.694
 8405SOL    HW226115   0.615   2.588   6.715
 8406SOL     OW26116   4.601   1.638   1.122
 8406SOL    HW126117   4.671   1.568   1.107
 8406SOL    HW226118   4.641   1.729   1.114
 8407SOL     OW26119   5.680   4.445   3.986
 8407SOL    HW126120   5.712   4.521   3.929
 8407SOL    HW226121   5.697   4.359   3.939
 8408SOL     OW26122   5.286   0.795   3.800
 8408SOL    HW126123   5.323   0.743   3.876
 8408SOL    HW226124   5.305   0.892   3.813
 8409SOL     OW26125   1.146   1.742   4.012
 8409SOL    HW126126   1.049   1.740   4.037
 8409SOL    HW226127   1.200   1.775   4.089
 8410SOL     OW26128   5.120   6.836   1.718
 8410SOL    HW126129   5.104   6.741   1.691
 8410SOL    HW226130   5.040   6.870   1.768
 8411SOL     OW26131   1.487   4.678   4.094
 8411SOL    HW126132   1.404   4.732   4.086
 8411SOL    HW226133   1.468   4.582   4.070
 8412SOL     OW26134   4.594   2.397   1.490
 8412SOL    HW126135   4.512   2.363   1.444
 8412SOL    HW226136   4.581   2.394   1.589
 8413SOL     OW26137   3.773   5.012   0.480
 8413SOL    HW126138   3.774   5.105   0.443
 8413SOL    HW226139   3.835   4.954   0.426
 8414SOL     OW26140   3.730   6.478   2.902
 8414SOL    HW126141   3.666   6.469   2.825
 8414SOL    HW226142   3.682   6.518   2.980
 8415SOL     OW26143   0.229   4.484   3.514
 8415SOL    HW126144   0.174   4.427   3.452
 8415SOL    HW226145   0.299   4.428   3.558
 8416SOL     OW26146   5.279   4.011   2.523
 8416SOL    HW126147   5.195   4.006   2.577
 8416SOL    HW226148   5.333   4.090   2.552
 8417SOL     OW26149   2.345   6.317   5.881
 8417SOL    HW126150   2.425   6.299   5.824
 8417SOL    HW226151   2.274   6.249   5.861
 8418SOL     OW26152   6.099   6.146   2.618
 8418SOL    HW126153   6.028   6.132   2.550
 8418SOL    HW226154   6.148   6.232   2.599
 8419SOL     OW26155   4.781   0.295   2.358
 8419SOL    HW126156   4.783   0.287   2.258
 8419SOL    HW226157   4.874   0.306   2.393
 8420SOL     OW26158   4.142   0.492   6.957
 8420SOL    HW126159   4.118   0.526   0.029
 8420SOL    HW226160   4.092   0.407   6.939
 8421SOL     OW26161   1.826   0.256   2.080
 8421SOL    HW126162   1.891   0.197   2.032
 8421SOL    HW226163   1.812   0.340   2.027
 8422SOL     OW26164   5.433   6.308   0.116
 8422SOL    HW126165   5.364   6.251   0.072
 8422SOL    HW226166   5.478   6.364   0.047
 8423SOL     OW26167   3.710   4.882   6.935
 8423SOL    HW126168   3.715   4.792   6.978
 8423SOL    HW226169   3.680   4.871   6.840
 8424SOL     OW26170   3.479   1.824   2.436
 8424SOL    HW126171   3.526   1.738   2.458
 8424SOL    HW226172   3.392   1.827   2.484
 8425SOL     OW26173   0.006   5.259   1.664
 8425SOL    HW126174   6.976   5.317   1.599
 8425SOL    HW226175   0.103   5.284   1.665
 8426SOL     OW26176   3.532   3.536   3.807
 8426SOL    HW126177   3.585   3.450   3.806
 8426SOL    HW226178   3.435   3.515   3.820
 8427SOL     OW26179   1.477   3.969   6.876
 8427SOL    HW126180   1.537   4.026   6.820
 8427SOL    HW226181   1.525   3.943   6.960
 8428SOL     OW26182   0.339   4.189   2.155
 8428SOL    HW126183   0.324   4.144   2.067
 8428SOL    HW226184   0.254   4.193   2.206
 8429SOL     OW26185   2.631   5.005   3.969
 8429SOL    HW126186   2.538   4.997   3.932
 8429SOL    HW226187   2.627   5.048   4.060
 8430SOL     OW26188   4.715   4.948   2.615
 8430SOL    HW126189   4.764   4.861   2.609
 8430SOL    HW226190   4.666   4.954   2.702
 8431SOL     OW26191   3.356   5.095   1.294
 8431SOL    HW126192   3.261   5.096   1.262
 8431SOL    HW226193   3.357   5.096   1.394
 8432SOL     OW26194   4.367   5.456   6.418
 8432SOL    HW126195   4.301   5.387   6.389
 8432SOL    HW226196   4.398   5.435   6.511
 8433SOL     OW26197   1.274   2.517   6.671
 8433SOL    HW126198   1.320   2.545   6.755
 8433SOL    HW226199   1.220   2.435   6.688
 8434SOL     OW26200   4.136   6.778   5.482
 8434SOL    HW126201   4.234   6.797   5.471
 8434SOL    HW226202   4.120   6.726   5.565
 8435SOL     OW26203   4.331   2.049   1.264
 8435SOL    HW126204   4.313   1.968   1.208
 8435SOL    HW226205   4.429   2.061   1.276
 8436SOL     OW26206   3.819   4.801   2.385
 8436SOL    HW126207   3.889   4.783   2.315
 8436SOL    HW226208   3.734   4.829   2.340
 8437SOL     OW26209   0.444   1.031   1.097
 8437SOL    HW126210   0.463   0.979   1.181
 8437SOL    HW226211   0.375   0.983   1.043
 8438SOL     OW26212   3.007   4.880   2.271
 8438SOL    HW126213   2.908   4.868   2.283
 8438SOL    HW226214   3.036   4.834   2.187
 8439SOL     OW26215   6.713   5.817   1.916
 8439SOL    HW126216   6.633   5.818   1.976
 8439SOL    HW226217   6.684   5.821   1.821
 8440SOL     OW26218   0.226   0.929   1.885
 8440SOL    HW126219   0.241   0.830   1.873
 8440SOL    HW226220   0.308   0.970   1.925
 8441SOL     OW26221   5.631   5.890   6.759
 8441SOL    HW126222   5.553   5.946   6.787
 8441SOL    HW226223   5.667   5.840   6.838
 8442SOL     OW26224   2.571   4.381   6.793
 8442SOL    HW126225   2.551   4.305   6.856
 8442SOL    HW226226   2.527   4.464   6.826
 8443SOL     OW26227   0.860   0.571   3.565
 8443SOL    HW126228   0.764   0.579   3.590
 8443SOL    HW226229   0.883   0.643   3.498
 8444SOL     OW26230   3.785   6.425   4.129
 8444SOL    HW126231   3.868   6.372   4.149
 8444SOL    HW226232   3.782   6.506   4.187
 8445SOL     OW26233   3.542   5.330   3.058
 8445SOL    HW126234   3.502   5.261   2.998
 8445SOL    HW226235   3.605   5.387   3.005
 8446SOL     OW26236   5.337   5.995   3.165
 8446SOL    HW126237   5.273   6.072   3.165
 8446SOL    HW226238   5.290   5.912   3.195
 8447SOL     OW26239   5.099   2.309   1.809
 8447SOL    HW126240   5.162   2.379   1.773
 8447SOL    HW226241   5.050   2.345   1.888
 8448SOL     OW26242   0.395   3.861   6.074
 8448SOL    HW126243   0.483   3.845   6.118
 8448SOL    HW226244   0.335   3.782   6.091
 8449SOL     OW26245   0.194   3.272   5.037
 8449SOL    HW126246   0.245   3.259   4.952
 8449SOL    HW226247   0.237   3.344   5.091
 8450SOL     OW26248   1.553   6.508   3.149
 8450SOL    HW126249   1.642   6.509   3.104
 8450SOL    HW226250   1.498   6.585   3.118
 8451SOL     OW26251   3.412   2.688   0.767
 8451SOL    HW126252   3.435   2.762   0.829
 8451SOL    HW226253   3.445   2.601   0.805
 8452SOL     OW26254   6.712   0.365   1.388
 8452SOL    HW126255   6.729   0.418   1.305
 8452SOL    HW226256   6.799   0.333   1.426
 8453SOL     OW26257   6.475   5.055   6.364
 8453SOL    HW126258   6.514   5.028   6.276
 8453SOL    HW226259   6.420   5.138   6.351
 8454SOL     OW26260   1.791   6.669   2.574
 8454SOL    HW126261   1.859   6.734   2.608
 8454SOL    HW226262   1.825   6.576   2.585
 8455SOL     OW26263   4.864   1.490   1.452
 8455SOL    HW126264   4.780   1.541   1.438
 8455SOL    HW226265   4.943   1.549   1.433
 8456SOL     OW26266   5.671   5.422   3.782
 8456SOL    HW126267   5.758   5.384   3.816
 8456SOL    HW226268   5.686   5.462   3.691
 8457SOL     OW26269   6.387   0.022   5.434
 8457SOL    HW126270   6.398   6.984   5.352
 8457SOL    HW226271   6.329   0.100   5.413
 8458SOL     OW26272   1.963   1.357   0.223
 8458SOL    HW126273   1.957   1.433   0.159
 8458SOL    HW226274   1.884   1.297   0.211
 8459SOL     OW26275   3.879   6.225   2.448
 8459SOL    HW126276   3.883   6.303   2.384
 8459SOL    HW226277   3.788   6.184   2.446
 8460SOL     OW26278   4.653   2.684   6.893
 8460SOL    HW126279   4.580   2.712   6.831
 8460SOL    HW226280   4.620   2.612   6.954
 8461SOL     OW26281   0.333   3.622   1.777
 8461SOL    HW126282   0.397   3.639   1.852
 8461SOL    HW226283   0.369   3.663   1.693
 8462SOL     OW26284   3.721   3.414   0.135
 8462SOL    HW126285   3.650   3.453   0.077
 8462SOL    HW226286   3.694   3.321   0.162
 8463SOL     OW26287   6.334   2.112   0.249
 8463SOL    HW126288   6.393   2.183   0.285
 8463SOL    HW226289   6.303   2.052   0.323
 8464SOL     OW26290   0.121   3.407   6.208
 8464SOL    HW126291   0.060   3.466   6.155
 8464SOL    HW226292   0.072   3.371   6.287
 8465SOL     OW26293   2.920   2.610   0.695
 8465SOL    HW126294   2.990   2.539   0.693
 8465SOL    HW226295   2.882   2.617   0.787
 8466SOL     OW26296   5.383   0.638   5.572
 8466SOL    HW126297   5.478   0.631   5.603
 8466SOL    HW226298   5.322   0.602   5.642
 8467SOL     OW26299   3.667   0.606   0.469
 8467SOL    HW126300   3.710   0.692   0.440
 8467SOL    HW226301   3.660   0.605   0.569
 8468SOL     OW26302   5.997   3.538   6.325
 8468SOL    HW126303   5.931   3.517   6.397
 8468SOL    HW226304   6.045   3.623   6.349
 8469SOL     OW26305   3.870   3.175   6.272
 8469SOL    HW126306   3.957   3.140   6.236
 8469SOL    HW226307   3.862   3.273   6.252
 8470SOL     OW26308   0.968   4.875   0.865
 8470SOL    HW126309   1.005   4.849   0.954
 8470SOL    HW226310   0.879   4.919   0.876
 8471SOL     OW26311   3.256   0.555   4.605
 8471SOL    HW126312   3.334   0.617   4.616
 8471SOL    HW226313   3.183   0.601   4.554
 8472SOL     OW26314   5.934   1.749   6.010
 8472SOL    HW126315   5.978   1.696   5.937
 8472SOL    HW226316   6.005   1.786   6.071
 8473SOL     OW26317   4.392   4.334   7.015
 8473SOL    HW126318   4.402   4.350   0.095
 8473SOL    HW226319   4.349   4.244   7.000
 8474SOL     OW26320   2.906   3.616   3.060
 8474SOL    HW126321   2.888   3.645   3.154
 8474SOL    HW226322   2.893   3.517   3.053
 8475SOL     OW26323   0.458   3.678   1.545
 8475SOL    HW126324   0.542   3.732   1.553
 8475SOL    HW226325   0.475   3.599   1.486
 8476SOL     OW26326   6.396   0.312   1.420
 8476SOL    HW126327   6.474   0.275   1.470
 8476SOL    HW226328   6.417   0.316   1.323
 8477SOL     OW26329   5.488   5.658   1.535
 8477SOL    HW126330   5.485   5.642   1.436
 8477SOL    HW226331   5.507   5.572   1.582
 8478SOL     OW26332   1.193   0.780   5.620
 8478SOL    HW126333   1.125   0.716   5.583
 8478SOL    HW226334   1.236   0.740   5.701
 8479SOL     OW26335   2.173   2.040   1.062
 8479SOL    HW126336   2.186   2.120   1.003
 8479SOL    HW226337   2.241   1.970   1.039
 8480SOL     OW26338   4.804   2.716   0.330
 8480SOL    HW126339   4.784   2.620   0.345
 8480SOL    HW226340   4.722   2.762   0.295
 8481SOL     OW26341   3.750   2.094   4.373
 8481SOL    HW126342   3.827   2.097   4.436
 8481SOL    HW226343   3.772   2.033   4.297
 8482SOL     OW26344   4.029   1.361   0.210
 8482SOL    HW126345   3.980   1.444   0.235
 8482SOL    HW226346   3.968   1.301   0.157
 8483SOL     OW26347   3.363   6.085   3.517
 8483SOL    HW126348   3.347   6.087   3.616
 8483SOL    HW226349   3.361   6.179   3.481
 8484SOL     OW26350   6.263   6.226   5.443
 8484SOL    HW126351   6.312   6.310   5.422
 8484SOL    HW226352   6.215   6.237   5.531
 8485SOL     OW26353   3.587   2.220   0.058
 8485SOL    HW126354   3.569   2.175   0.145
 8485SOL    HW226355   3.506   2.214   7.019
 8486SOL     OW26356   2.157   1.276   2.265
 8486SOL    HW126357   2.219   1.344   2.304
 8486SOL    HW226358   2.201   1.231   2.187
 8487SOL     OW26359   5.413   1.441   6.129
 8487SOL    HW126360   5.381   1.479   6.216
 8487SOL    HW226361   5.368   1.354   6.112
 8488SOL     OW26362   5.945   5.501   2.933
 8488SOL    HW126363   5.926   5.433   3.003
 8488SOL    HW226364   5.897   5.476   2.849
 8489SOL     OW26365   5.599   0.521   1.355
 8489SOL    HW126366   5.672   0.555   1.414
 8489SOL    HW226367   5.524   0.488   1.411
 8490SOL     OW26368   2.998   7.010   6.073
 8490SOL    HW126369   3.072   6.946   6.053
 8490SOL    HW226370   3.015   0.036   6.161
 8491SOL     OW26371   2.280   6.183   2.708
 8491SOL    HW126372   2.296   6.134   2.623
 8491SOL    HW226373   2.224   6.127   2.769
 8492SOL     OW26374   5.954   4.360   3.758
 8492SOL    HW126375   6.043   4.386   3.796
 8492SOL    HW226376   5.901   4.310   3.826
 8493SOL     OW26377   2.488   1.186   0.266
 8493SOL    HW126378   2.493   1.271   0.318
 8493SOL    HW226379   2.435   1.118   0.318
 8494SOL     OW26380   5.253   4.756   1.897
 8494SOL    HW126381   5.270   4.799   1.808
 8494SOL    HW226382   5.178   4.803   1.943
 8495SOL     OW26383   6.733   5.900   0.773
 8495SOL    HW126384   6.661   5.839   0.804
 8495SOL    HW226385   6.790   5.927   0.851
 8496SOL     OW26386   5.413   1.133   2.104
 8496SOL    HW126387   5.314   1.145   2.114
 8496SOL    HW226388   5.453   1.217   2.066
 8497SOL     OW26389   0.477   0.420   3.700
 8497SOL    HW126390   0.540   0.463   3.634
 8497SOL    HW226391   0.486   0.321   3.694
 8498SOL     OW26392   5.375   0.064   3.917
 8498SOL    HW126393   5.301   0.084   3.853
 8498SOL    HW226394   5.351   7.004   3.974
 8499SOL     OW26395   1.012   5.534   0.496
 8499SOL    HW126396   1.101   5.579   0.506
 8499SOL    HW226397   0.969   5.523   0.585
 8500SOL     OW26398   1.908   0.384   5.918
 8500SOL    HW126399   1.882   0.480   5.904
 8500SOL    HW226400   1.944   0.346   5.832
 8501SOL     OW26401   0.172   2.348   0.277
 8501SOL    HW126402   0.159   2.251   0.296
 8501SOL    HW226403   0.265   2.375   0.301
 8502SOL     OW26404   0.376   2.817   0.235
 8502SOL    HW126405   0.402   2.775   0.148
 8502SOL    HW226406   0.431   2.899   0.251
 8503SOL     OW26407   6.846   5.823   4.871
 8503SOL    HW126408   6.898   5.737   4.872
 8503SOL    HW226409   6.763   5.812   4.925
 8504SOL     OW26410   1.627   5.163   2.575
 8504SOL    HW126411   1.675   5.100   2.514
 8504SOL    HW226412   1.552   5.207   2.526
 8505SOL     OW26413   5.396   3.529   2.389
 8505SOL    HW126414   5.368   3.623   2.408
 8505SOL    HW226415   5.380   3.508   2.293
 8506SOL     OW26416   1.593   1.282   6.648
 8506SOL    HW126417   1.650   1.241   6.576
 8506SOL    HW226418   1.624   1.376   6.665
 8507SOL     OW26419   4.435   0.129   4.949
 8507SOL    HW126420   4.499   0.206   4.948
 8507SOL    HW226421   4.486   0.043   4.949
 8508SOL     OW26422   4.061   1.966   6.094
 8508SOL    HW126423   4.100   2.044   6.144
 8508SOL    HW226424   3.975   1.993   6.052
 8509SOL     OW26425   5.619   0.316   3.439
 8509SOL    HW126426   5.691   0.330   3.371
 8509SOL    HW226427   5.618   0.220   3.466
 8510SOL     OW26428   5.598   2.796   3.862
 8510SOL    HW126429   5.637   2.813   3.952
 8510SOL    HW226430   5.642   2.715   3.822
 8511SOL     OW26431   6.018   3.500   2.588
 8511SOL    HW126432   5.998   3.431   2.518
 8511SOL    HW226433   5.961   3.483   2.669
 8512SOL     OW26434   2.051   0.311   3.242
 8512SOL    HW126435   2.142   0.339   3.211
 8512SOL    HW226436   2.027   0.224   3.198
 8513SOL     OW26437   6.140   6.243   0.061
 8513SOL    HW126438   6.094   6.277   0.143
 8513SOL    HW226439   6.129   6.144   0.055
 8514SOL     OW26440   3.332   6.342   3.233
 8514SOL    HW126441   3.299   6.281   3.161
 8514SOL    HW226442   3.432   6.341   3.234
 8515SOL     OW26443   5.535   2.903   1.005
 8515SOL    HW126444   5.471   2.845   0.955
 8515SOL    HW226445   5.625   2.860   1.006
 8516SOL     OW26446   6.797   2.152   2.612
 8516SOL    HW126447   6.803   2.053   2.617
 8516SOL    HW226448   6.742   2.179   2.532
 8517SOL     OW26449   0.901   2.339   0.458
 8517SOL    HW126450   0.873   2.247   0.434
 8517SOL    HW226451   0.985   2.362   0.409
 8518SOL     OW26452   3.924   5.131   0.209
 8518SOL    HW126453   3.991   5.067   0.248
 8518SOL    HW226454   3.908   5.206   0.273
 8519SOL     OW26455   1.887   5.820   2.326
 8519SOL    HW126456   1.851   5.780   2.242
 8519SOL    HW226457   1.825   5.800   2.402
 8520SOL     OW26458   3.803   1.348   0.471
 8520SOL    HW126459   3.858   1.335   0.554
 8520SOL    HW226460   3.845   1.419   0.415
 8521SOL     OW26461   0.611   6.375   6.035
 8521SOL    HW126462   0.515   6.357   6.012
 8521SOL    HW226463   0.634   6.329   6.121
 8522SOL     OW26464   1.208   6.465   3.169
 8522SOL    HW126465   1.247   6.443   3.080
 8522SOL    HW226466   1.244   6.553   3.200
 8523SOL     OW26467   2.438   0.064   5.848
 8523SOL    HW126468   2.366   0.058   5.779
 8523SOL    HW226469   2.397   0.058   5.939
 8524SOL     OW26470   1.368   3.171   5.079
 8524SOL    HW126471   1.417   3.184   5.166
 8524SOL    HW226472   1.415   3.221   5.007
 8525SOL     OW26473   5.806   3.274   3.074
 8525SOL    HW126474   5.882   3.336   3.096
 8525SOL    HW226475   5.721   3.327   3.068
 8526SOL     OW26476   2.427   2.823   1.805
 8526SOL    HW126477   2.443   2.746   1.744
 8526SOL    HW226478   2.388   2.790   1.891
 8527SOL     OW26479   4.690   0.702   4.226
 8527SOL    HW126480   4.616   0.663   4.171
 8527SOL    HW226481   4.761   0.739   4.167
 8528SOL     OW26482   4.991   2.994   6.387
 8528SOL    HW126483   4.980   2.950   6.476
 8528SOL    HW226484   5.005   3.092   6.401
 8529SOL     OW26485   1.588   5.207   0.056
 8529SOL    HW126486   1.640   5.122   0.058
 8529SOL    HW226487   1.650   5.285   0.059
 8530SOL     OW26488   1.346   4.329   5.432
 8530SOL    HW126489   1.284   4.333   5.353
 8530SOL    HW226490   1.295   4.299   5.513
 8531SOL     OW26491   5.342   4.135   2.972
 8531SOL    HW126492   5.326   4.193   3.052
 8531SOL    HW226493   5.326   4.039   2.996
 8532SOL     OW26494   3.937   4.976   5.200
 8532SOL    HW126495   3.937   4.950   5.104
 8532SOL    HW226496   4.012   4.930   5.247
 8533SOL     OW26497   3.092   1.157   4.412
 8533SOL    HW126498   3.056   1.213   4.487
 8533SOL    HW226499   3.052   1.189   4.326
 8534SOL     OW26500   1.341   3.658   2.907
 8534SOL    HW126501   1.328   3.727   2.836
 8534SOL    HW226502   1.361   3.703   2.994
 8535SOL     OW26503   0.697   1.975   4.917
 8535SOL    HW126504   0.758   2.043   4.876
 8535SOL    HW226505   0.621   2.021   4.963
 8536SOL     OW26506   6.946   1.247   5.349
 8536SOL    HW126507   6.905   1.314   5.287
 8536SOL    HW226508   6.874   1.189   5.388
 8537SOL     OW26509   5.496   0.784   0.962
 8537SOL    HW126510   5.397   0.771   0.966
 8537SOL    HW226511   5.523   0.812   0.870
 8538SOL     OW26512   0.051   0.832   4.766
 8538SOL    HW126513   0.034   0.802   4.672
 8538SOL    HW226514   0.010   0.923   4.779
 8539SOL     OW26515   0.148   2.482   1.640
 8539SOL    HW126516   0.167   2.393   1.681
 8539SOL    HW226517   0.193   2.488   1.551
 8540SOL     OW26518   3.114   1.019   0.534
 8540SOL    HW126519   3.092   1.009   0.631
 8540SOL    HW226520   3.146   1.112   0.517
 8541SOL     OW26521   2.987   1.461   4.986
 8541SOL    HW126522   3.004   1.534   5.052
 8541SOL    HW226523   2.897   1.474   4.943
 8542SOL     OW26524   2.226   4.354   7.000
 8542SOL    HW126525   2.264   4.263   7.017
 8542SOL    HW226526   2.277   4.422   0.033
 8543SOL     OW26527   2.573   2.563   5.253
 8543SOL    HW126528   2.544   2.589   5.161
 8543SOL    HW226529   2.507   2.499   5.293
 8544SOL     OW26530   4.888   3.849   5.096
 8544SOL    HW126531   4.835   3.824   5.177
 8544SOL    HW226532   4.851   3.801   5.016
 8545SOL     OW26533   3.407   6.877   5.125
 8545SOL    HW126534   3.340   6.802   5.122
 8545SOL    HW226535   3.480   6.854   5.190
 8546SOL     OW26536   5.760   0.671   1.821
 8546SOL    HW126537   5.702   0.734   1.873
 8546SOL    HW226538   5.849   0.713   1.804
 8547SOL     OW26539   6.847   6.678   5.703
 8547SOL    HW126540   6.789   6.734   5.644
 8547SOL    HW226541   6.856   6.587   5.664
 8548SOL     OW26542   0.630   3.004   6.434
 8548SOL    HW126543   0.706   3.045   6.485
 8548SOL    HW226544   0.665   2.930   6.377
 8549SOL     OW26545   1.650   0.872   3.585
 8549SOL    HW126546   1.746   0.890   3.606
 8549SOL    HW226547   1.632   0.897   3.490
 8550SOL     OW26548   0.954   4.234   0.284
 8550SOL    HW126549   0.882   4.260   0.348
 8550SOL    HW226550   0.999   4.317   0.249
 8551SOL     OW26551   1.771   2.009   6.397
 8551SOL    HW126552   1.860   2.047   6.424
 8551SOL    HW226553   1.729   2.069   6.329
 8552SOL     OW26554   2.781   1.501   2.404
 8552SOL    HW126555   2.703   1.554   2.437
 8552SOL    HW226556   2.811   1.437   2.475
 8553SOL     OW26557   4.521   3.073   0.941
 8553SOL    HW126558   4.427   3.041   0.939
 8553SOL    HW226559   4.559   3.061   1.032
 8554SOL     OW26560   0.685   6.932   1.074
 8554SOL    HW126561   0.692   6.875   0.992
 8554SOL    HW226562   0.647   6.879   1.149
 8555SOL     OW26563   4.513   1.480   3.881
 8555SOL    HW126564   4.504   1.570   3.923
 8555SOL    HW226565   4.589   1.431   3.923
 8556SOL     OW26566   2.168   6.223   6.885
 8556SOL    HW126567   2.174   6.307   6.938
 8556SOL    HW226568   2.126   6.152   6.942
 8557SOL     OW26569   6.800   0.739   6.836
 8557SOL    HW126570   6.818   0.837   6.833
 8557SOL    HW226571   6.864   0.691   6.777
 8558SOL     OW26572   2.770   4.703   3.184
 8558SOL    HW126573   2.778   4.719   3.085
 8558SOL    HW226574   2.860   4.679   3.221
 8559SOL     OW26575   0.940   5.083   2.326
 8559SOL    HW126576   0.932   5.014   2.397
 8559SOL    HW226577   1.034   5.085   2.292
 8560SOL     OW26578   2.483   4.968   1.386
 8560SOL    HW126579   2.525   4.978   1.476
 8560SOL    HW226580   2.407   5.032   1.377
 8561SOL     OW26581   3.013   0.280   2.757
 8561SOL    HW126582   2.922   0.256   2.721
 8561SOL    HW226583   3.018   0.253   2.854
 8562SOL     OW26584   4.072   1.296   6.896
 8562SOL    HW126585   3.986   1.246   6.889
 8562SOL    HW226586   4.066   1.363   6.970
 8563SOL     OW26587   1.476   5.558   3.141
 8563SOL    HW126588   1.559   5.574   3.194
 8563SOL    HW226589   1.451   5.642   3.093
 8564SOL     OW26590   3.820   6.626   6.942
 8564SOL    HW126591   3.732   6.631   6.896
 8564SOL    HW226592   3.882   6.568   6.889
 8565SOL     OW26593   3.354   5.467   0.589
 8565SOL    HW126594   3.376   5.467   0.686
 8565SOL    HW226595   3.390   5.549   0.546
 8566SOL     OW26596   3.012   1.094   3.322
 8566SOL    HW126597   2.996   1.105   3.420
 8566SOL    HW226598   3.031   0.998   3.301
 8567SOL     OW26599   2.179   1.919   1.540
 8567SOL    HW126600   2.153   1.994   1.479
 8567SOL    HW226601   2.097   1.880   1.582
 8568SOL     OW26602   6.817   1.263   0.155
 8568SOL    HW126603   6.882   1.338   0.141
 8568SOL    HW226604   6.736   1.297   0.203
 8569SOL     OW26605   5.304   2.557   6.365
 8569SOL    HW126606   5.237   2.532   6.435
 8569SOL    HW226607   5.385   2.595   6.408
 8570SOL     OW26608   0.989   2.180   5.142
 8570SOL    HW126609   1.075   2.195   5.094
 8570SOL    HW226610   0.984   2.085   5.173
 8571SOL     OW26611   2.075   0.842   4.291
 8571SOL    HW126612   2.094   0.931   4.332
 8571SOL    HW226613   2.045   0.778   4.362
 8572SOL     OW26614   3.364   3.831   5.858
 8572SOL    HW126615   3.314   3.750   5.826
 8572SOL    HW226616   3.305   3.882   5.921
 8573SOL     OW26617   3.570   6.107   1.321
 8573SOL    HW126618   3.497   6.051   1.361
 8573SOL    HW226619   3.593   6.073   1.230
 8574SOL     OW26620   0.106   6.188   5.760
 8574SOL    HW126621   0.033   6.232   5.812
 8574SOL    HW226622   0.089   6.090   5.756
 8575SOL     OW26623   3.397   6.718   2.669
 8575SOL    HW126624   3.422   6.646   2.734
 8575SOL    HW226625   3.414   6.685   2.576
 8576SOL     OW26626   0.671   4.002   4.295
 8576SOL    HW126627   0.588   3.955   4.325
 8576SOL    HW226628   0.739   3.936   4.264
 8577SOL     OW26629   1.498   1.454   6.235
 8577SOL    HW126630   1.507   1.518   6.311
 8577SOL    HW226631   1.589   1.431   6.200
 8578SOL     OW26632   6.094   6.526   5.299
 8578SOL    HW126633   6.071   6.440   5.252
 8578SOL    HW226634   6.086   6.602   5.234
 8579SOL     OW26635   2.716   6.088   2.310
 8579SOL    HW126636   2.696   6.004   2.259
 8579SOL    HW226637   2.791   6.137   2.266
 8580SOL     OW26638   1.103   6.226   0.982
 8580SOL    HW126639   1.082   6.225   0.884
 8580SOL    HW226640   1.113   6.133   1.015
 8581SOL     OW26641   3.547   5.062   1.687
 8581SOL    HW126642   3.608   5.124   1.637
 8581SOL    HW226643   3.461   5.053   1.638
 8582SOL     OW26644   4.125   4.818   5.598
 8582SOL    HW126645   4.202   4.782   5.546
 8582SOL    HW226646   4.074   4.743   5.640
 8583SOL     OW26647   4.176   0.790   2.576
 8583SOL    HW126648   4.078   0.789   2.598
 8583SOL    HW226649   4.228   0.811   2.658
 8584SOL     OW26650   6.507   1.343   4.507
 8584SOL    HW126651   6.416   1.318   4.476
 8584SOL    HW226652   6.532   1.432   4.470
 8585SOL     OW26653   5.823   2.433   1.235
 8585SOL    HW126654   5.823   2.533   1.243
 8585SOL    HW226655   5.917   2.399   1.239
 8586SOL     OW26656   5.416   6.308   1.241
 8586SOL    HW126657   5.358   6.300   1.160
 8586SOL    HW226658   5.512   6.313   1.213
 8587SOL     OW26659   1.043   1.653   5.792
 8587SOL    HW126660   0.999   1.566   5.814
 8587SOL    HW226661   1.121   1.637   5.732
 8588SOL     OW26662   3.071   1.700   6.554
 8588SOL    HW126663   3.027   1.624   6.507
 8588SOL    HW226664   3.141   1.664   6.616
 8589SOL     OW26665   0.053   3.488   5.663
 8589SOL    HW126666   0.071   3.390   5.662
 8589SOL    HW226667   6.984   3.505   5.709
 8590SOL     OW26668   6.772   1.879   2.566
 8590SOL    HW126669   6.818   1.867   2.478
 8590SOL    HW226670   6.690   1.822   2.570
 8591SOL     OW26671   6.743   4.967   0.140
 8591SOL    HW126672   6.805   5.043   0.119
 8591SOL    HW226673   6.738   4.955   0.239
 8592SOL     OW26674   0.454   2.746   6.983
 8592SOL    HW126675   0.384   2.815   6.962
 8592SOL    HW226676   0.494   2.712   6.898
 8593SOL     OW26677   3.238   0.408   6.222
 8593SOL    HW126678   3.179   0.480   6.186
 8593SOL    HW226679   3.329   0.445   6.241
 8594SOL     OW26680   5.988   2.997   6.186
 8594SOL    HW126681   6.033   3.061   6.248
 8594SOL    HW226682   5.911   2.953   6.233
 8595SOL     OW26683   5.162   6.982   2.458
 8595SOL    HW126684   5.190   7.017   2.547
 8595SOL    HW226685   5.075   6.934   2.467
 8596SOL     OW26686   1.159   3.501   3.939
 8596SOL    HW126687   1.247   3.548   3.941
 8596SOL    HW226688   1.174   3.403   3.953
 8597SOL     OW26689   6.563   3.510   1.303
 8597SOL    HW126690   6.514   3.504   1.390
 8597SOL    HW226691   6.511   3.464   1.231
 8598SOL     OW26692   5.603   0.789   4.991
 8598SOL    HW126693   5.657   0.872   4.978
 8598SOL    HW226694   5.648   0.712   4.946
 8599SOL     OW26695   1.448   3.275   3.712
 8599SOL    HW126696   1.412   3.201   3.655
 8599SOL    HW226697   1.527   3.316   3.667
 8600SOL     OW26698   4.573   3.638   1.137
 8600SOL    HW126699   4.612   3.723   1.171
 8600SOL    HW226700   4.480   3.655   1.105
 8601SOL     OW26701   0.761   0.710   4.124
 8601SOL    HW126702   0.777   0.715   4.025
 8601SOL    HW226703   0.697   0.782   4.151
 8602SOL     OW26704   2.814   7.014   3.889
 8602SOL    HW126705   2.786   6.941   3.826
 8602SOL    HW226706   2.788   6.988   3.982
 8603SOL     OW26707   6.508   0.912   0.316
 8603SOL    HW126708   6.544   0.855   0.242
 8603SOL    HW226709   6.463   0.854   0.384
 8604SOL     OW26710   0.877   3.836   6.105
 8604SOL    HW126711   0.943   3.760   6.101
 8604SOL    HW226712   0.822   3.836   6.021
 8605SOL     OW26713   0.299   4.748   4.604
 8605SOL    HW126714   0.310   4.653   4.576
 8605SOL    HW226715   0.227   4.791   4.550
 8606SOL     OW26716   2.304   2.157   6.432
 8606SOL    HW126717   2.345   2.103   6.358
 8606SOL    HW226718   2.210   2.127   6.447
 8607SOL     OW26719   2.299   4.867   1.641
 8607SOL    HW126720   2.375   4.861   1.577
 8607SOL    HW226721   2.290   4.781   1.691
 8608SOL     OW26722   2.513   4.668   2.845
 8608SOL    HW126723   2.574   4.659   2.766
 8608SOL    HW226724   2.480   4.578   2.872
 8609SOL     OW26725   4.975   1.471   3.742
 8609SOL    HW126726   5.010   1.401   3.679
 8609SOL    HW226727   4.956   1.430   3.831
 8610SOL     OW26728   6.971   6.434   3.303
 8610SOL    HW126729   0.033   6.375   3.295
 8610SOL    HW226730   6.902   6.390   3.360
 8611SOL     OW26731   3.633   0.899   3.780
 8611SOL    HW126732   3.585   0.937   3.859
 8611SOL    HW226733   3.686   0.818   3.808
 8612SOL     OW26734   3.832   3.002   2.891
 8612SOL    HW126735   3.821   3.075   2.959
 8612SOL    HW226736   3.775   2.924   2.917
 8613SOL     OW26737   3.167   2.220   1.478
 8613SOL    HW126738   3.094   2.277   1.517
 8613SOL    HW226739   3.188   2.146   1.542
 8614SOL     OW26740   1.455   2.297   2.091
 8614SOL    HW126741   1.510   2.225   2.133
 8614SOL    HW226742   1.380   2.256   2.039
 8615SOL     OW26743   4.875   2.104   3.745
 8615SOL    HW126744   4.831   2.097   3.835
 8615SOL    HW226745   4.879   2.014   3.703
 8616SOL     OW26746   4.304   5.033   2.533
 8616SOL    HW126747   4.233   5.060   2.468
 8616SOL    HW226748   4.377   4.985   2.484
 8617SOL     OW26749   5.273   6.794   3.889
 8617SOL    HW126750   5.226   6.749   3.814
 8617SOL    HW226751   5.287   6.729   3.964
 8618SOL     OW26752   6.512   3.583   1.546
 8618SOL    HW126753   6.611   3.597   1.541
 8618SOL    HW226754   6.485   3.565   1.641
 8619SOL     OW26755   5.180   5.175   2.126
 8619SOL    HW126756   5.158   5.080   2.148
 8619SOL    HW226757   5.095   5.229   2.122
 8620SOL     OW26758   2.330   0.866   4.776
 8620SOL    HW126759   2.264   0.872   4.851
 8620SOL    HW226760   2.286   0.826   4.696
 8621SOL     OW26761   4.723   2.745   2.068
 8621SOL    HW126762   4.672   2.706   1.991
 8621SOL    HW226763   4.731   2.844   2.056
 8622SOL     OW26764   6.516   5.437   2.616
 8622SOL    HW126765   6.563   5.520   2.586
 8622SOL    HW226766   6.535   5.421   2.713
 8623SOL     OW26767   6.919   3.536   4.787
 8623SOL    HW126768   6.977   3.611   4.756
 8623SOL    HW226769   6.943   3.511   4.881
 8624SOL     OW26770   3.204   3.675   5.655
 8624SOL    HW126771   3.249   3.686   5.566
 8624SOL    HW226772   3.109   3.707   5.648
 8625SOL     OW26773   3.597   1.721   5.281
 8625SOL    HW126774   3.615   1.813   5.317
 8625SOL    HW226775   3.643   1.710   5.193
 8626SOL     OW26776   4.503   2.976   0.689
 8626SOL    HW126777   4.585   2.921   0.670
 8626SOL    HW226778   4.504   3.004   0.785
 8627SOL     OW26779   1.474   1.719   2.735
 8627SOL    HW126780   1.512   1.742   2.824
 8627SOL    HW226781   1.548   1.697   2.671
 8628SOL     OW26782   0.285   6.687   0.116
 8628SOL    HW126783   0.320   6.605   0.161
 8628SOL    HW226784   0.290   6.676   0.017
 8629SOL     OW26785   0.910   7.017   4.460
 8629SOL    HW126786   0.983   6.963   4.419
 8629SOL    HW226787   0.843   0.023   4.390
 8630SOL     OW26788   4.868   3.319   3.507
 8630SOL    HW126789   4.960   3.328   3.467
 8630SOL    HW226790   4.833   3.410   3.529
 8631SOL     OW26791   2.653   5.514   0.261
 8631SOL    HW126792   2.601   5.546   0.182
 8631SOL    HW226793   2.632   5.570   0.341
 8632SOL     OW26794   4.155   4.499   5.356
 8632SOL    HW126795   4.092   4.427   5.384
 8632SOL    HW226796   4.220   4.463   5.289
 8633SOL     OW26797   5.137   4.136   5.666
 8633SOL    HW126798   5.178   4.224   5.643
 8633SOL    HW226799   5.060   4.118   5.606
 8634SOL     OW26800   5.894   5.113   0.733
 8634SOL    HW126801   5.969   5.178   0.744
 8634SOL    HW226802   5.812   5.147   0.780
 8635SOL     OW26803   6.132   3.204   6.678
 8635SOL    HW126804   6.186   3.165   6.753
 8635SOL    HW226805   6.100   3.130   6.618
 8636SOL     OW26806   4.038   6.058   0.879
 8636SOL    HW126807   4.013   6.105   0.794
 8636SOL    HW226808   4.136   6.068   0.894
 8637SOL     OW26809   1.537   1.740   6.676
 8637SOL    HW126810   1.559   1.650   6.715
 8637SOL    HW226811   1.481   1.791   6.741
 8638SOL     OW26812   3.945   2.928   5.302
 8638SOL    HW126813   3.850   2.903   5.320
 8638SOL    HW226814   3.957   3.025   5.319
 8639SOL     OW26815   4.900   3.118   0.035
 8639SOL    HW126816   4.898   3.030   7.006
 8639SOL    HW226817   4.807   3.142   0.065
 8640SOL     OW26818   3.294   3.330   1.014
 8640SOL    HW126819   3.372   3.285   1.057
 8640SOL    HW226820   3.293   3.427   1.039
 8641SOL     OW26821   4.107   5.196   2.992
 8641SOL    HW126822   4.104   5.296   2.987
 8641SOL    HW226823   4.020   5.162   3.028
 8642SOL     OW26824   1.229   6.892   3.728
 8642SOL    HW126825   1.220   6.816   3.792
 8642SOL    HW226826   1.138   6.923   3.701
 8643SOL     OW26827   2.933   0.075   0.391
 8643SOL    HW126828   2.886   0.093   0.305
 8643SOL    HW226829   3.032   0.080   0.377
 8644SOL     OW26830   6.327   2.123   6.566
 8644SOL    HW126831   6.275   2.088   6.489
 8644SOL    HW226832   6.281   2.204   6.604
 8645SOL     OW26833   5.690   4.358   1.577
 8645SOL    HW126834   5.649   4.446   1.602
 8645SOL    HW226835   5.626   4.284   1.601
 8646SOL     OW26836   0.521   2.486   5.554
 8646SOL    HW126837   0.455   2.526   5.618
 8646SOL    HW226838   0.605   2.540   5.555
 8647SOL     OW26839   2.666   5.427   1.530
 8647SOL    HW126840   2.763   5.415   1.552
 8647SOL    HW226841   2.653   5.416   1.432
 8648SOL     OW26842   5.663   6.578   1.048
 8648SOL    HW126843   5.751   6.615   1.077
 8648SOL    HW226844   5.609   6.650   1.005
 8649SOL     OW26845   4.390   6.792   0.098
 8649SOL    HW126846   4.318   6.751   0.042
 8649SOL    HW226847   4.459   6.834   0.039
 8650SOL     OW26848   2.120   0.276   4.540
 8650SOL    HW126849   2.122   0.216   4.620
 8650SOL    HW226850   2.034   0.264   4.491
 8651SOL     OW26851   2.780   1.332   0.786
 8651SOL    HW126852   2.759   1.358   0.880
 8651SOL    HW226853   2.813   1.238   0.784
 8652SOL     OW26854   0.943   4.828   4.345
 8652SOL    HW126855   0.987   4.848   4.257
 8652SOL    HW226856   0.918   4.914   4.389
 8653SOL     OW26857   0.158   1.714   6.211
 8653SOL    HW126858   0.256   1.695   6.205
 8653SOL    HW226859   0.129   1.711   6.306
 8654SOL     OW26860   0.928   4.731   1.935
 8654SOL    HW126861   0.957   4.638   1.914
 8654SOL    HW226862   1.004   4.794   1.918
 8655SOL     OW26863   6.732   1.458   5.584
 8655SOL    HW126864   6.814   1.514   5.572
 8655SOL    HW226865   6.755   1.372   5.629
 8656SOL     OW26866   5.846   6.895   2.045
 8656SOL    HW126867   5.926   6.899   1.986
 8656SOL    HW226868   5.765   6.877   1.991
 8657SOL     OW26869   5.753   0.441   1.972
 8657SOL    HW126870   5.764   0.358   1.917
 8657SOL    HW226871   5.740   0.519   1.911
 8658SOL     OW26872   6.316   5.024   1.701
 8658SOL    HW126873   6.253   5.021   1.779
 8658SOL    HW226874   6.289   4.956   1.633
 8659SOL     OW26875   4.639   2.420   2.668
 8659SOL    HW126876   4.565   2.427   2.602
 8659SOL    HW226877   4.626   2.489   2.740
 8660SOL     OW26878   0.881   2.724   1.128
 8660SOL    HW126879   0.815   2.673   1.184
 8660SOL    HW226880   0.832   2.775   1.057
 8661SOL     OW26881   6.371   3.194   3.168
 8661SOL    HW126882   6.387   3.111   3.221
 8661SOL    HW226883   6.346   3.268   3.230
 8662SOL     OW26884   3.312   5.760   2.432
 8662SOL    HW126885   3.352   5.688   2.374
 8662SOL    HW226886   3.362   5.763   2.519
 8663SOL     OW26887   3.342   5.646   3.184
 8663SOL    HW126888   3.346   5.616   3.279
 8663SOL    HW226889   3.435   5.655   3.148
 8664SOL     OW26890   2.203   5.796   2.911
 8664SOL    HW126891   2.178   5.845   2.995
 8664SOL    HW226892   2.272   5.728   2.932
 8665SOL     OW26893   5.751   4.819   5.585
 8665SOL    HW126894   5.821   4.756   5.621
 8665SOL    HW226895   5.705   4.864   5.662
 8666SOL     OW26896   5.051   0.361   3.878
 8666SOL    HW126897   5.107   0.367   3.795
 8666SOL    HW226898   5.018   0.452   3.902
 8667SOL     OW26899   4.911   1.475   4.259
 8667SOL    HW126900   4.825   1.425   4.264
 8667SOL    HW226901   4.895   1.572   4.279
 8668SOL     OW26902   5.805   3.025   4.665
 8668SOL    HW126903   5.854   2.984   4.742
 8668SOL    HW226904   5.746   2.957   4.622
 8669SOL     OW26905   6.637   6.475   6.050
 8669SOL    HW126906   6.733   6.496   6.029
 8669SOL    HW226907   6.594   6.433   5.970
 8670SOL     OW26908   5.706   5.007   5.954
 8670SOL    HW126909   5.669   4.934   5.897
 8670SOL    HW226910   5.711   4.977   6.049
 8671SOL     OW26911   0.375   2.307   2.218
 8671SOL    HW126912   0.466   2.339   2.244
 8671SOL    HW226913   0.308   2.341   2.283
 8672SOL     OW26914   6.955   0.189   3.429
 8672SOL    HW126915   0.017   0.210   3.375
 8672SOL    HW226916   6.894   0.130   3.376
 8673SOL     OW26917   0.213   1.482   0.128
 8673SOL    HW126918   0.113   1.475   0.128
 8673SOL    HW226919   0.242   1.552   0.193
 8674SOL     OW26920   0.636   4.317   3.106
 8674SOL    HW126921   0.694   4.311   3.025
 8674SOL    HW226922   0.688   4.292   3.187
 8675SOL     OW26923   3.521   1.678   6.170
 8675SOL    HW126924   3.502   1.759   6.225
 8675SOL    HW226925   3.541   1.706   6.076
 8676SOL     OW26926   5.565   1.298   1.270
 8676SOL    HW126927   5.510   1.363   1.217
 8676SOL    HW226928   5.560   1.208   1.227
 8677SOL     OW26929   1.635   6.480   6.059
 8677SOL    HW126930   1.643   6.409   6.129
 8677SOL    HW226931   1.541   6.482   6.024
 8678SOL     OW26932   1.120   6.860   0.572
 8678SOL    HW126933   1.149   6.919   0.496
 8678SOL    HW226934   1.022   6.871   0.587
 8679SOL     OW26935   1.987   1.036   3.999
 8679SOL    HW126936   1.935   1.084   4.069
 8679SOL    HW226937   1.981   1.085   3.912
 8680SOL     OW26938   6.480   2.742   5.840
 8680SOL    HW126939   6.453   2.774   5.931
 8680SOL    HW226940   6.401   2.699   5.795
 8681SOL     OW26941   5.170   6.078   0.776
 8681SOL    HW126942   5.109   6.019   0.830
 8681SOL    HW226943   5.174   6.045   0.682
 8682SOL     OW26944   6.982   0.393   1.054
 8682SOL    HW126945   6.973   0.493   1.053
 8682SOL    HW226946   6.917   0.354   1.119
 8683SOL     OW26947   1.828   3.548   5.000
 8683SOL    HW126948   1.835   3.589   4.909
 8683SOL    HW226949   1.841   3.449   4.993
 8684SOL     OW26950   0.502   3.882   4.846
 8684SOL    HW126951   0.540   3.789   4.846
 8684SOL    HW226952   0.573   3.947   4.822
 8685SOL     OW26953   5.392   2.677   5.918
 8685SOL    HW126954   5.296   2.704   5.921
 8685SOL    HW226955   5.424   2.658   6.011
 8686SOL     OW26956   6.464   6.495   2.715
 8686SOL    HW126957   6.500   6.427   2.651
 8686SOL    HW226958   6.519   6.578   2.711
 8687SOL     OW26959   6.231   3.181   3.527
 8687SOL    HW126960   6.160   3.189   3.458
 8687SOL    HW226961   6.270   3.089   3.524
 8688SOL     OW26962   1.706   3.577   6.261
 8688SOL    HW126963   1.707   3.673   6.290
 8688SOL    HW226964   1.649   3.524   6.324
 8689SOL     OW26965   4.289   3.340   0.396
 8689SOL    HW126966   4.382   3.332   0.434
 8689SOL    HW226967   4.289   3.405   0.321
 8690SOL     OW26968   1.037   1.969   3.199
 8690SOL    HW126969   0.996   2.018   3.276
 8690SOL    HW226970   1.070   2.035   3.132
 8691SOL     OW26971   3.290   1.996   4.604
 8691SOL    HW126972   3.378   1.973   4.647
 8691SOL    HW226973   3.245   2.068   4.657
 8692SOL     OW26974   4.267   1.968   5.404
 8692SOL    HW126975   4.264   2.062   5.368
 8692SOL    HW226976   4.335   1.916   5.352
 8693SOL     OW26977   6.533   0.903   6.629
 8693SOL    HW126978   6.560   0.814   6.591
 8693SOL    HW226979   6.611   0.944   6.676
 8694SOL     OW26980   6.420   3.181   4.305
 8694SOL    HW126981   6.416   3.259   4.243
 8694SOL    HW226982   6.491   3.197   4.374
 8695SOL     OW26983   4.448   3.475   6.476
 8695SOL    HW126984   4.387   3.508   6.404
 8695SOL    HW226985   4.393   3.436   6.551
 8696SOL     OW26986   2.796   5.753   5.651
 8696SOL    HW126987   2.729   5.678   5.642
 8696SOL    HW226988   2.869   5.725   5.713
 8697SOL     OW26989   1.658   4.184   5.986
 8697SOL    HW126990   1.697   4.242   5.915
 8697SOL    HW226991   1.692   4.091   5.975
 8698SOL     OW26992   4.789   5.920   6.045
 8698SOL    HW126993   4.723   5.995   6.043
 8698SOL    HW226994   4.805   5.887   5.952
 8699SOL     OW26995   2.401   2.618   6.482
 8699SOL    HW126996   2.341   2.539   6.488
 8699SOL    HW226997   2.346   2.701   6.468
 8700SOL     OW26998   0.915   0.631   5.185
 8700SOL    HW126999   0.925   0.711   5.126
 8700SOL    HW227000   0.867   0.558   5.136
 8701SOL     OW27001   1.030   1.618   0.122
 8701SOL    HW127002   1.009   1.581   0.212
 8701SOL    HW227003   1.020   1.546   0.053
 8702SOL     OW27004   5.070   4.780   1.539
 8702SOL    HW127005   5.087   4.876   1.515
 8702SOL    HW227006   5.046   4.728   1.457
 8703SOL     OW27007   2.647   4.625   0.126
 8703SOL    HW127008   2.704   4.635   0.208
 8703SOL    HW227009   2.704   4.621   0.045
 8704SOL     OW27010   0.426   2.299   4.332
 8704SOL    HW127011   0.437   2.228   4.402
 8704SOL    HW227012   0.328   2.315   4.317
 8705SOL     OW27013   4.360   2.823   0.165
 8705SOL    HW127014   4.340   2.909   0.211
 8705SOL    HW227015   4.345   2.833   0.067
 8706SOL     OW27016   5.591   2.860   0.092
 8706SOL    HW127017   5.504   2.813   0.079
 8706SOL    HW227018   5.628   2.838   0.183
 8707SOL     OW27019   1.260   1.691   4.539
 8707SOL    HW127020   1.162   1.682   4.558
 8707SOL    HW227021   1.309   1.620   4.589
 8708SOL     OW27022   5.199   1.810   3.192
 8708SOL    HW127023   5.285   1.859   3.206
 8708SOL    HW227024   5.169   1.770   3.278
 8709SOL     OW27025   6.572   0.135   6.612
 8709SOL    HW127026   6.479   0.168   6.590
 8709SOL    HW227027   6.568   0.037   6.632
 8710SOL     OW27028   2.456   1.444   3.265
 8710SOL    HW127029   2.482   1.357   3.307
 8710SOL    HW227030   2.537   1.491   3.232
 8711SOL     OW27031   1.021   1.488   2.234
 8711SOL    HW127032   1.117   1.493   2.262
 8711SOL    HW227033   1.013   1.514   2.138
 8712SOL     OW27034   2.209   2.487   5.112
 8712SOL    HW127035   2.150   2.492   5.031
 8712SOL    HW227036   2.205   2.396   5.152
 8713SOL     OW27037   0.967   4.446   1.904
 8713SOL    HW127038   1.045   4.417   1.959
 8713SOL    HW227039   0.900   4.372   1.899
 8714SOL     OW27040   0.304   6.290   6.888
 8714SOL    HW127041   0.401   6.281   6.909
 8714SOL    HW227042   0.273   6.210   6.836
 8715SOL     OW27043   2.735   1.858   0.086
 8715SOL    HW127044   2.707   1.767   0.115
 8715SOL    HW227045   2.673   1.891   0.015
 8716SOL     OW27046   0.161   6.454   1.368
 8716SOL    HW127047   0.073   6.408   1.381
 8716SOL    HW227048   0.235   6.388   1.383
 8717SOL     OW27049   2.378   3.797   6.940
 8717SOL    HW127050   2.347   3.890   6.957
 8717SOL    HW227051   2.410   3.756   0.007
 8718SOL     OW27052   1.688   3.451   6.640
 8718SOL    HW127053   1.633   3.438   6.558
 8718SOL    HW227054   1.648   3.523   6.697
 8719SOL     OW27055   3.468   1.159   6.360
 8719SOL    HW127056   3.503   1.219   6.288
 8719SOL    HW227057   3.380   1.193   6.393
 8720SOL     OW27058   6.109   4.462   5.189
 8720SOL    HW127059   6.072   4.529   5.253
 8720SOL    HW227060   6.063   4.375   5.202
 8721SOL     OW27061   0.255   6.340   6.592
 8721SOL    HW127062   0.349   6.330   6.626
 8721SOL    HW227063   0.239   6.436   6.567
 8722SOL     OW27064   3.593   0.518   1.176
 8722SOL    HW127065   3.613   0.616   1.185
 8722SOL    HW227066   3.518   0.494   1.237
 8723SOL     OW27067   5.299   0.154   2.300
 8723SOL    HW127068   5.231   0.112   2.360
 8723SOL    HW227069   5.294   0.254   2.308
 8724SOL     OW27070   4.213   0.454   4.157
 8724SOL    HW127071   4.176   0.455   4.250
 8724SOL    HW227072   4.242   0.547   4.132
 8725SOL     OW27073   0.476   6.411   4.625
 8725SOL    HW127074   0.497   6.313   4.623
 8725SOL    HW227075   0.561   6.463   4.620
 8726SOL     OW27076   0.297   0.945   0.501
 8726SOL    HW127077   0.231   0.941   0.575
 8726SOL    HW227078   0.329   1.039   0.490
 8727SOL     OW27079   5.623   5.974   6.435
 8727SOL    HW127080   5.623   5.977   6.535
 8727SOL    HW227081   5.590   5.885   6.405
 8728SOL     OW27082   5.409   0.987   3.375
 8728SOL    HW127083   5.404   1.078   3.332
 8728SOL    HW227084   5.356   0.922   3.322
 8729SOL     OW27085   3.863   4.887   5.826
 8729SOL    HW127086   3.880   4.979   5.789
 8729SOL    HW227087   3.896   4.883   5.920
 8730SOL     OW27088   5.456   4.341   3.248
 8730SOL    HW127089   5.446   4.341   3.348
 8730SOL    HW227090   5.367   4.321   3.206
 8731SOL     OW27091   0.289   1.822   3.441
 8731SOL    HW127092   0.309   1.727   3.464
 8731SOL    HW227093   0.209   1.853   3.492
 8732SOL     OW27094   5.315   5.234   0.920
 8732SOL    HW127095   5.306   5.153   0.977
 8732SOL    HW227096   5.374   5.301   0.966
 8733SOL     OW27097   0.973   5.119   0.646
 8733SOL    HW127098   0.945   5.027   0.676
 8733SOL    HW227099   0.893   5.170   0.615
 8734SOL     OW27100   6.811   3.825   2.196
 8734SOL    HW127101   6.780   3.733   2.171
 8734SOL    HW227102   6.817   3.881   2.114
 8735SOL     OW27103   2.072   3.830   5.348
 8735SOL    HW127104   2.065   3.736   5.381
 8735SOL    HW227105   2.025   3.891   5.411
 8736SOL     OW27106   0.631   5.393   1.936
 8736SOL    HW127107   0.560   5.321   1.935
 8736SOL    HW227108   0.717   5.355   1.903
 8737SOL     OW27109   1.420   5.446   6.582
 8737SOL    HW127110   1.394   5.425   6.487
 8737SOL    HW227111   1.344   5.494   6.627
 8738SOL     OW27112   1.097   3.615   3.700
 8738SOL    HW127113   1.040   3.556   3.642
 8738SOL    HW227114   1.122   3.565   3.783
 8739SOL     OW27115   5.267   3.697   5.246
 8739SOL    HW127116   5.295   3.609   5.283
 8739SOL    HW227117   5.348   3.748   5.217
 8740SOL     OW27118   3.671   1.612   3.156
 8740SOL    HW127119   3.632   1.662   3.234
 8740SOL    HW227120   3.672   1.671   3.076
 8741SOL     OW27121   1.508   0.111   2.544
 8741SOL    HW127122   1.540   0.027   2.500
 8741SOL    HW227123   1.447   0.160   2.482
 8742SOL     OW27124   3.626   0.849   2.859
 8742SOL    HW127125   3.614   0.913   2.783
 8742SOL    HW227126   3.561   0.871   2.932
 8743SOL     OW27127   1.410   0.920   1.711
 8743SOL    HW127128   1.382   1.003   1.760
 8743SOL    HW227129   1.446   0.853   1.777
 8744SOL     OW27130   4.272   3.282   6.658
 8744SOL    HW127131   4.176   3.256   6.659
 8744SOL    HW227132   4.326   3.206   6.621
 8745SOL     OW27133   6.798   1.777   6.635
 8745SOL    HW127134   6.717   1.764   6.577
 8745SOL    HW227135   6.769   1.786   6.730
 8746SOL     OW27136   5.133   5.544   4.056
 8746SOL    HW127137   5.165   5.565   3.963
 8746SOL    HW227138   5.191   5.473   4.095
 8747SOL     OW27139   6.219   1.073   2.294
 8747SOL    HW127140   6.300   1.016   2.307
 8747SOL    HW227141   6.153   1.056   2.367
 8748SOL     OW27142   0.653   1.676   4.462
 8748SOL    HW127143   0.555   1.697   4.459
 8748SOL    HW227144   0.688   1.697   4.554
 8749SOL     OW27145   2.545   1.131   5.945
 8749SOL    HW127146   2.474   1.184   5.898
 8749SOL    HW227147   2.503   1.069   6.010
 8750SOL     OW27148   4.371   2.607   6.142
 8750SOL    HW127149   4.332   2.529   6.192
 8750SOL    HW227150   4.347   2.692   6.188
 8751SOL     OW27151   0.142   6.913   1.335
 8751SOL    HW127152   0.203   6.834   1.336
 8751SOL    HW227153   0.128   6.943   1.241
 8752SOL     OW27154   4.572   2.970   0.392
 8752SOL    HW127155   4.643   3.040   0.383
 8752SOL    HW227156   4.594   2.910   0.469
 8753SOL     OW27157   1.618   3.176   0.410
 8753SOL    HW127158   1.709   3.190   0.370
 8753SOL    HW227159   1.574   3.097   0.368
 8754SOL     OW27160   2.538   4.546   6.414
 8754SOL    HW127161   2.515   4.514   6.322
 8754SOL    HW227162   2.477   4.502   6.480
 8755SOL     OW27163   0.425   1.632   1.617
 8755SOL    HW127164   0.494   1.560   1.611
 8755SOL    HW227165   0.447   1.693   1.693
 8756SOL     OW27166   2.382   2.666   3.960
 8756SOL    HW127167   2.358   2.736   4.027
 8756SOL    HW227168   2.465   2.619   3.988
 8757SOL     OW27169   5.202   6.203   5.141
 8757SOL    HW127170   5.203   6.289   5.193
 8757SOL    HW227171   5.108   6.184   5.110
 8758SOL     OW27172   3.338   6.777   3.364
 8758SOL    HW127173   3.423   6.731   3.389
 8758SOL    HW227174   3.269   6.710   3.340
 8759SOL     OW27175   6.390   0.819   6.831
 8759SOL    HW127176   6.453   0.830   6.753
 8759SOL    HW227177   6.332   0.739   6.815
 8760SOL     OW27178   2.165   1.676   3.632
 8760SOL    HW127179   2.120   1.741   3.571
 8760SOL    HW227180   2.171   1.587   3.588
 8761SOL     OW27181   5.141   1.215   2.041
 8761SOL    HW127182   5.158   1.313   2.040
 8761SOL    HW227183   5.042   1.199   2.040
 8762SOL     OW27184   1.788   5.250   3.990
 8762SOL    HW127185   1.776   5.167   3.935
 8762SOL    HW227186   1.824   5.324   3.932
 8763SOL     OW27187   6.938   0.883   5.287
 8763SOL    HW127188   6.977   0.793   5.307
 8763SOL    HW227189   6.962   0.910   5.194
 8764SOL     OW27190   4.244   5.237   5.775
 8764SOL    HW127191   4.168   5.257   5.713
 8764SOL    HW227192   4.240   5.141   5.803
 8765SOL     OW27193   5.058   0.446   5.171
 8765SOL    HW127194   5.113   0.485   5.245
 8765SOL    HW227195   5.111   0.448   5.086
 8766SOL     OW27196   5.141   4.025   6.137
 8766SOL    HW127197   5.116   4.014   6.041
 8766SOL    HW227198   5.141   4.123   6.161
 8767SOL     OW27199   2.928   0.388   3.600
 8767SOL    HW127200   2.978   0.353   3.521
 8767SOL    HW227201   2.977   0.466   3.639
 8768SOL     OW27202   6.716   2.667   0.272
 8768SOL    HW127203   6.755   2.756   0.247
 8768SOL    HW227204   6.723   2.655   0.371
 8769SOL     OW27205   6.332   1.140   1.887
 8769SOL    HW127206   6.290   1.183   1.967
 8769SOL    HW227207   6.275   1.159   1.806
 8770SOL     OW27208   5.722   3.502   2.108
 8770SOL    HW127209   5.726   3.409   2.146
 8770SOL    HW227210   5.628   3.523   2.081
 8771SOL     OW27211   0.756   3.644   6.581
 8771SOL    HW127212   0.775   3.588   6.500
 8771SOL    HW227213   0.842   3.681   6.615
 8772SOL     OW27214   5.572   0.435   5.140
 8772SOL    HW127215   5.649   0.498   5.147
 8772SOL    HW227216   5.581   0.380   5.057
 8773SOL     OW27217   6.789   1.741   4.050
 8773SOL    HW127218   6.879   1.765   4.012
 8773SOL    HW227219   6.773   1.643   4.038
 8774SOL     OW27220   1.217   6.860   6.872
 8774SOL    HW127221   1.132   6.865   6.925
 8774SOL    HW227222   1.211   6.786   6.806
 8775SOL     OW27223   5.310   2.205   4.163
 8775SOL    HW127224   5.265   2.120   4.190
 8775SOL    HW227225   5.363   2.190   4.079
 8776SOL     OW27226   4.851   2.598   0.872
 8776SOL    HW127227   4.880   2.674   0.930
 8776SOL    HW227228   4.754   2.609   0.848
 8777SOL     OW27229   1.241   3.411   3.135
 8777SOL    HW127230   1.255   3.329   3.079
 8777SOL    HW227231   1.177   3.472   3.088
 8778SOL     OW27232   4.505   4.573   5.794
 8778SOL    HW127233   4.556   4.511   5.735
 8778SOL    HW227234   4.415   4.534   5.813
 8779SOL     OW27235   3.240   5.091   2.775
 8779SOL    HW127236   3.233   5.139   2.687
 8779SOL    HW227237   3.155   5.104   2.826
 8780SOL     OW27238   0.399   5.904   2.236
 8780SOL    HW127239   0.357   5.829   2.185
 8780SOL    HW227240   0.407   5.984   2.177
 8781SOL     OW27241   4.170   0.227   2.351
 8781SOL    HW127242   4.086   0.179   2.329
 8781SOL    HW227243   4.202   0.200   2.442
 8782SOL     OW27244   5.037   0.749   1.538
 8782SOL    HW127245   5.015   0.745   1.635
 8782SOL    HW227246   4.968   0.803   1.490
 8783SOL     OW27247   4.897   3.383   4.392
 8783SOL    HW127248   4.889   3.325   4.474
 8783SOL    HW227249   4.900   3.479   4.420
 8784SOL     OW27250   6.048   6.693   0.727
 8784SOL    HW127251   5.958   6.654   0.708
 8784SOL    HW227252   6.119   6.628   0.699
 8785SOL     OW27253   0.001   5.985   6.593
 8785SOL    HW127254   7.007   5.978   6.494
 8785SOL    HW227255   7.015   6.081   6.621
 8786SOL     OW27256   4.152   2.120   2.246
 8786SOL    HW127257   4.059   2.084   2.239
 8786SOL    HW227258   4.154   2.198   2.309
 8787SOL     OW27259   3.550   0.508   1.659
 8787SOL    HW127260   3.484   0.471   1.724
 8787SOL    HW227261   3.640   0.513   1.703
 8788SOL     OW27262   0.277   0.361   4.731
 8788SOL    HW127263   0.185   0.389   4.703
 8788SOL    HW227264   0.313   0.427   4.797
 8789SOL     OW27265   0.240   4.018   5.209
 8789SOL    HW127266   0.270   4.044   5.117
 8789SOL    HW227267   0.141   4.025   5.215
 8790SOL     OW27268   5.979   2.731   0.077
 8790SOL    HW127269   5.920   2.672   0.020
 8790SOL    HW227270   6.018   2.677   0.151
 8791SOL     OW27271   4.386   6.189   5.356
 8791SOL    HW127272   4.405   6.228   5.266
 8791SOL    HW227273   4.466   6.202   5.416
 8792SOL     OW27274   4.167   4.836   1.400
 8792SOL    HW127275   4.248   4.778   1.408
 8792SOL    HW227276   4.106   4.798   1.329
 8793SOL     OW27277   0.890   5.676   4.119
 8793SOL    HW127278   0.865   5.584   4.151
 8793SOL    HW227279   0.988   5.691   4.133
 8794SOL     OW27280   0.036   0.776   2.389
 8794SOL    HW127281   6.969   0.825   2.382
 8794SOL    HW227282   0.057   0.757   2.485
 8795SOL     OW27283   1.489   5.287   5.128
 8795SOL    HW127284   1.568   5.229   5.107
 8795SOL    HW227285   1.413   5.229   5.157
 8796SOL     OW27286   6.580   3.211   3.443
 8796SOL    HW127287   6.598   3.305   3.469
 8796SOL    HW227288   6.540   3.161   3.521
 8797SOL     OW27289   6.596   0.173   3.173
 8797SOL    HW127290   6.654   0.255   3.166
 8797SOL    HW227291   6.575   0.140   3.081
 8798SOL     OW27292   4.614   6.655   4.938
 8798SOL    HW127293   4.527   6.639   4.891
 8798SOL    HW227294   4.687   6.605   4.891
 8799SOL     OW27295   2.466   5.250   2.217
 8799SOL    HW127296   2.487   5.235   2.120
 8799SOL    HW227297   2.497   5.341   2.244
 8800SOL     OW27298   6.763   5.860   5.621
 8800SOL    HW127299   6.739   5.878   5.526
 8800SOL    HW227300   6.792   5.765   5.631
 8801SOL     OW27301   6.154   2.083   4.936
 8801SOL    HW127302   6.166   2.058   5.032
 8801SOL    HW227303   6.209   2.022   4.878
 8802SOL     OW27304   1.152   5.671   5.877
 8802SOL    HW127305   1.144   5.733   5.954
 8802SOL    HW227306   1.181   5.722   5.796
 8803SOL     OW27307   5.991   0.690   7.010
 8803SOL    HW127308   6.036   0.764   6.960
 8803SOL    HW227309   5.892   0.698   7.000
 8804SOL     OW27310   1.917   5.977   1.125
 8804SOL    HW127311   1.818   5.966   1.119
 8804SOL    HW227312   1.941   6.073   1.113
 8805SOL     OW27313   4.672   5.757   2.714
 8805SOL    HW127314   4.761   5.765   2.670
 8805SOL    HW227315   4.604   5.808   2.662
 8806SOL     OW27316   2.372   5.951   0.285
 8806SOL    HW127317   2.322   5.870   0.315
 8806SOL    HW227318   2.471   5.936   0.296
 8807SOL     OW27319   4.746   2.310   0.912
 8807SOL    HW127320   4.777   2.405   0.909
 8807SOL    HW227321   4.808   2.256   0.968
 8808SOL     OW27322   1.959   2.335   0.297
 8808SOL    HW127323   2.041   2.372   0.341
 8808SOL    HW227324   1.907   2.280   0.362
 8809SOL     OW27325   2.220   4.093   3.580
 8809SOL    HW127326   2.137   4.041   3.600
 8809SOL    HW227327   2.298   4.054   3.628
 8810SOL     OW27328   6.980   1.624   6.023
 8810SOL    HW127329   0.031   1.623   6.094
 8810SOL    HW227330   6.930   1.537   6.024
 8811SOL     OW27331   4.124   0.076   2.618
 8811SOL    HW127332   4.094   0.143   2.686
 8811SOL    HW227333   4.049   0.014   2.597
 8812SOL     OW27334   3.294   1.069   6.661
 8812SOL    HW127335   3.326   0.992   6.716
 8812SOL    HW227336   3.245   1.035   6.581
 8813SOL     OW27337   2.026   4.485   3.024
 8813SOL    HW127338   1.987   4.537   3.099
 8813SOL    HW227339   2.123   4.510   3.013
 8814SOL     OW27340   6.115   6.894   0.131
 8814SOL    HW127341   6.186   6.940   0.077
 8814SOL    HW227342   6.028   6.943   0.119
 8815SOL     OW27343   5.240   1.087   0.777
 8815SOL    HW127344   5.265   1.090   0.874
 8815SOL    HW227345   5.227   0.992   0.749
 8816SOL     OW27346   0.333   6.416   5.835
 8816SOL    HW127347   0.305   6.404   5.930
 8816SOL    HW227348   0.254   6.407   5.775
 8817SOL     OW27349   1.210   3.262   4.774
 8817SOL    HW127350   1.210   3.309   4.863
 8817SOL    HW227351   1.286   3.296   4.719
 8818SOL     OW27352   2.225   6.765   4.035
 8818SOL    HW127353   2.139   6.764   4.085
 8818SOL    HW227354   2.283   6.840   4.068
 8819SOL     OW27355   5.536   4.261   5.912
 8819SOL    HW127356   5.508   4.213   5.829
 8819SOL    HW227357   5.619   4.314   5.894
 8820SOL     OW27358   3.535   1.168   4.604
 8820SOL    HW127359   3.562   1.260   4.575
 8820SOL    HW227360   3.549   1.104   4.528
 8821SOL     OW27361   1.635   5.049   0.853
 8821SOL    HW127362   1.552   5.014   0.808
 8821SOL    HW227363   1.626   5.147   0.869
 8822SOL     OW27364   6.447   6.731   4.114
 8822SOL    HW127365   6.395   6.645   4.114
 8822SOL    HW227366   6.490   6.744   4.025
 8823SOL     OW27367   2.999   1.506   3.465
 8823SOL    HW127368   2.975   1.441   3.393
 8823SOL    HW227369   3.094   1.534   3.454
 8824SOL     OW27370   1.581   0.315   0.704
 8824SOL    HW127371   1.580   0.403   0.753
 8824SOL    HW227372   1.493   0.270   0.715
 8825SOL     OW27373   0.229   0.289   0.675
 8825SOL    HW127374   0.213   0.378   0.632
 8825SOL    HW227375   0.225   0.299   0.774
 8826SOL     OW27376   1.025   3.449   0.834
 8826SOL    HW127377   1.065   3.485   0.919
 8826SOL    HW227378   1.039   3.350   0.831
 8827SOL     OW27379   3.982   0.389   2.628
 8827SOL    HW127380   4.029   0.425   2.547
 8827SOL    HW227381   3.931   0.462   2.672
 8828SOL     OW27382   4.294   3.523   5.957
 8828SOL    HW127383   4.355   3.584   5.908
 8828SOL    HW227384   4.300   3.431   5.919
 8829SOL     OW27385   0.263   1.726   2.097
 8829SOL    HW127386   0.189   1.724   2.164
 8829SOL    HW227387   0.256   1.809   2.041
 8830SOL     OW27388   2.644   2.116   3.007
 8830SOL    HW127389   2.689   2.205   3.013
 8830SOL    HW227390   2.649   2.070   3.096
 8831SOL     OW27391   0.373   2.020   2.547
 8831SOL    HW127392   0.428   1.938   2.532
 8831SOL    HW227393   0.421   2.083   2.608
 8832SOL     OW27394   6.373   0.008   3.929
 8832SOL    HW127395   6.464   6.985   3.924
 8832SOL    HW227396   6.332   7.005   4.017
 8833SOL     OW27397   3.781   2.398   1.140
 8833SOL    HW127398   3.821   2.408   1.231
 8833SOL    HW227399   3.840   2.340   1.084
 8834SOL     OW27400   5.789   3.884   5.583
 8834SOL    HW127401   5.708   3.865   5.528
 8834SOL    HW227402   5.836   3.799   5.604
 8835SOL     OW27403   6.124   0.688   5.716
 8835SOL    HW127404   6.055   0.617   5.699
 8835SOL    HW227405   6.078   0.773   5.743
 8836SOL     OW27406   5.365   2.707   6.698
 8836SOL    HW127407   5.319   2.795   6.689
 8836SOL    HW227408   5.297   2.635   6.713
 8837SOL     OW27409   6.430   6.711   2.070
 8837SOL    HW127410   6.355   6.776   2.058
 8837SOL    HW227411   6.417   6.634   2.007
 8838SOL     OW27412   0.501   4.232   2.778
 8838SOL    HW127413   0.472   4.176   2.855
 8838SOL    HW227414   0.587   4.279   2.802
 8839SOL     OW27415   5.452   5.655   2.655
 8839SOL    HW127416   5.521   5.722   2.682
 8839SOL    HW227417   5.443   5.586   2.727
 8840SOL     OW27418   0.368   0.905   1.344
 8840SOL    HW127419   0.403   0.879   1.435
 8840SOL    HW227420   0.289   0.965   1.355
 8841SOL     OW27421   3.695   0.920   1.777
 8841SOL    HW127422   3.750   0.840   1.802
 8841SOL    HW227423   3.737   1.002   1.815
 8842SOL     OW27424   3.435   3.925   3.922
 8842SOL    HW127425   3.384   4.000   3.880
 8842SOL    HW227426   3.418   3.924   4.020
 8843SOL     OW27427   1.995   3.610   5.532
 8843SOL    HW127428   1.995   3.610   5.632
 8843SOL    HW227429   2.068   3.550   5.499
 8844SOL     OW27430   5.867   2.270   5.493
 8844SOL    HW127431   5.958   2.237   5.468
 8844SOL    HW227432   5.821   2.307   5.413
 8845SOL     OW27433   2.052   5.593   1.442
 8845SOL    HW127434   1.981   5.664   1.446
 8845SOL    HW227435   2.043   5.542   1.357
 8846SOL     OW27436   5.157   4.243   3.724
 8846SOL    HW127437   5.114   4.328   3.694
 8846SOL    HW227438   5.089   4.170   3.726
 8847SOL     OW27439   2.197   2.127   2.856
 8847SOL    HW127440   2.289   2.133   2.896
 8847SOL    HW227441   2.158   2.037   2.879
 8848SOL     OW27442   2.964   1.644   1.298
 8848SOL    HW127443   2.958   1.740   1.325
 8848SOL    HW227444   2.873   1.608   1.282
 8849SOL     OW27445   3.576   5.819   4.577
 8849SOL    HW127446   3.525   5.790   4.496
 8849SOL    HW227447   3.514   5.826   4.655
 8850SOL     OW27448   2.792   1.749   0.708
 8850SOL    HW127449   2.790   1.772   0.610
 8850SOL    HW227450   2.843   1.664   0.721
 8851SOL     OW27451   1.539   4.281   3.091
 8851SOL    HW127452   1.603   4.277   3.014
 8851SOL    HW227453   1.479   4.361   3.081
 8852SOL     OW27454   5.507   2.959   6.210
 8852SOL    HW127455   5.468   3.043   6.247
 8852SOL    HW227456   5.497   2.958   6.111
 8853SOL     OW27457   4.059   1.809   5.032
 8853SOL    HW127458   4.133   1.796   4.966
 8853SOL    HW227459   3.993   1.734   5.024
 8854SOL     OW27460   0.958   1.263   6.153
 8854SOL    HW127461   1.027   1.305   6.094
 8854SOL    HW227462   0.992   1.260   6.247
 8855SOL     OW27463   6.307   5.734   6.925
 8855SOL    HW127464   6.368   5.804   6.889
 8855SOL    HW227465   6.296   5.661   6.858
 8856SOL     OW27466   6.444   0.644   4.950
 8856SOL    HW127467   6.344   0.648   4.949
 8856SOL    HW227468   6.473   0.556   4.988
 8857SOL     OW27469   6.815   1.786   3.271
 8857SOL    HW127470   6.720   1.755   3.264
 8857SOL    HW227471   6.865   1.760   3.189
 8858SOL     OW27472   0.611   4.036   5.648
 8858SOL    HW127473   0.541   4.095   5.608
 8858SOL    HW227474   0.566   3.967   5.706
 8859SOL     OW27475   1.080   6.654   5.258
 8859SOL    HW127476   0.997   6.691   5.301
 8859SOL    HW227477   1.124   6.726   5.204
 8860SOL     OW27478   1.301   2.975   2.787
 8860SOL    HW127479   1.279   3.015   2.698
 8860SOL    HW227480   1.341   2.884   2.773
 8861SOL     OW27481   3.431   2.827   6.964
 8861SOL    HW127482   3.388   2.803   0.032
 8861SOL    HW227483   3.365   2.871   6.904
 8862SOL     OW27484   6.194   1.771   4.974
 8862SOL    HW127485   6.171   1.837   5.046
 8862SOL    HW227486   6.266   1.808   4.916
 8863SOL     OW27487   2.025   5.877   4.882
 8863SOL    HW127488   2.017   5.838   4.974
 8863SOL    HW227489   1.936   5.914   4.854
 8864SOL     OW27490   2.151   3.417   6.650
 8864SOL    HW127491   2.073   3.441   6.592
 8864SOL    HW227492   2.168   3.489   6.716
 8865SOL     OW27493   2.653   1.762   5.142
 8865SOL    HW127494   2.577   1.784   5.204
 8865SOL    HW227495   2.642   1.814   5.057
 8866SOL     OW27496   3.972   6.608   3.419
 8866SOL    HW127497   3.875   6.634   3.415
 8866SOL    HW227498   4.026   6.675   3.368
 8867SOL     OW27499   5.755   2.028   2.731
 8867SOL    HW127500   5.693   2.006   2.655
 8867SOL    HW227501   5.838   2.071   2.695
 8868SOL     OW27502   4.684   3.612   0.397
 8868SOL    HW127503   4.767   3.654   0.362
 8868SOL    HW227504   4.703   3.565   0.483
 8869SOL     OW27505   4.871   3.955   3.554
 8869SOL    HW127506   4.835   4.043   3.584
 8869SOL    HW227507   4.856   3.887   3.626
 8870SOL     OW27508   3.519   1.205   0.930
 8870SOL    HW127509   3.445   1.230   0.992
 8870SOL    HW227510   3.504   1.248   0.841
 8871SOL     OW27511   1.462   1.229   3.681
 8871SOL    HW127512   1.493   1.146   3.727
 8871SOL    HW227513   1.384   1.267   3.731
 8872SOL     OW27514   2.122   4.480   3.657
 8872SOL    HW127515   2.215   4.517   3.661
 8872SOL    HW227516   2.070   4.511   3.736
 8873SOL     OW27517   0.322   5.973   3.404
 8873SOL    HW127518   0.386   5.911   3.449
 8873SOL    HW227519   0.279   5.926   3.327
 8874SOL     OW27520   1.955   6.862   1.222
 8874SOL    HW127521   1.922   6.956   1.216
 8874SOL    HW227522   2.055   6.862   1.217
 8875SOL     OW27523   1.379   2.648   4.576
 8875SOL    HW127524   1.396   2.566   4.521
 8875SOL    HW227525   1.451   2.715   4.559
 8876SOL     OW27526   0.009   1.401   4.822
 8876SOL    HW127527   0.013   1.486   4.875
 8876SOL    HW227528   0.005   1.323   4.884
 8877SOL     OW27529   3.047   0.689   4.105
 8877SOL    HW127530   2.992   0.618   4.061
 8877SOL    HW227531   2.987   0.762   4.137
 8878SOL     OW27532   0.143   4.627   0.743
 8878SOL    HW127533   0.107   4.555   0.803
 8878SOL    HW227534   0.136   4.598   0.648
 8879SOL     OW27535   5.160   5.675   0.564
 8879SOL    HW127536   5.119   5.595   0.520
 8879SOL    HW227537   5.258   5.680   0.541
 8880SOL     OW27538   6.882   5.485   4.658
 8880SOL    HW127539   6.977   5.506   4.684
 8880SOL    HW227540   6.835   5.444   4.736
 8881SOL     OW27541   6.519   1.045   2.751
 8881SOL    HW127542   6.578   1.066   2.673
 8881SOL    HW227543   6.575   1.014   2.828
 8882SOL     OW27544   5.667   1.227   6.928
 8882SOL    HW127545   5.738   1.285   6.969
 8882SOL    HW227546   5.660   1.246   6.830
 8883SOL     OW27547   0.210   0.937   6.245
 8883SOL    HW127548   0.181   0.870   6.177
 8883SOL    HW227549   0.302   0.915   6.277
 8884SOL     OW27550   5.715   6.630   6.354
 8884SOL    HW127551   5.620   6.646   6.382
 8884SOL    HW227552   5.772   6.619   6.435
 8885SOL     OW27553   6.058   3.907   1.505
 8885SOL    HW127554   6.117   3.938   1.430
 8885SOL    HW227555   6.112   3.905   1.590
 8886SOL     OW27556   2.860   6.554   5.600
 8886SOL    HW127557   2.851   6.511   5.690
 8886SOL    HW227558   2.938   6.515   5.551
 8887SOL     OW27559   2.739   0.986   1.057
 8887SOL    HW127560   2.815   0.922   1.043
 8887SOL    HW227561   2.655   0.935   1.076
 8888SOL     OW27562   1.041   1.766   1.218
 8888SOL    HW127563   1.005   1.767   1.125
 8888SOL    HW227564   1.062   1.672   1.245
 8889SOL     OW27565   5.084   6.925   4.676
 8889SOL    HW127566   5.142   6.951   4.600
 8889SOL    HW227567   5.069   6.826   4.674
 8890SOL     OW27568   6.528   5.593   4.272
 8890SOL    HW127569   6.627   5.580   4.280
 8890SOL    HW227570   6.482   5.523   4.326
 8891SOL     OW27571   5.833   3.204   6.763
 8891SOL    HW127572   5.889   3.157   6.831
 8891SOL    HW227573   5.878   3.200   6.673
 8892SOL     OW27574   2.278   6.965   3.047
 8892SOL    HW127575   2.303   6.927   2.958
 8892SOL    HW227576   2.285   6.894   3.117
 8893SOL     OW27577   0.077   1.250   1.608
 8893SOL    HW127578   0.007   1.271   1.540
 8893SOL    HW227579   0.066   1.155   1.637
 8894SOL     OW27580   3.957   2.724   6.038
 8894SOL    HW127581   3.970   2.640   5.986
 8894SOL    HW227582   3.939   2.702   6.134
 8895SOL     OW27583   0.338   6.999   1.525
 8895SOL    HW127584   0.401   6.922   1.517
 8895SOL    HW227585   0.271   6.995   1.451
 8896SOL     OW27586   1.646   3.530   5.270
 8896SOL    HW127587   1.559   3.536   5.221
 8896SOL    HW227588   1.720   3.561   5.211
 8897SOL     OW27589   1.579   1.635   2.006
 8897SOL    HW127590   1.516   1.640   2.083
 8897SOL    HW227591   1.617   1.543   2.000
 8898SOL     OW27592   6.263   3.463   4.806
 8898SOL    HW127593   6.225   3.413   4.884
 8898SOL    HW227594   6.194   3.472   4.735
 8899SOL     OW27595   1.667   4.095   6.731
 8899SOL    HW127596   1.715   4.011   6.755
 8899SOL    HW227597   1.728   4.154   6.678
 8900SOL     OW27598   5.022   2.862   3.286
 8900SOL    HW127599   4.962   2.938   3.310
 8900SOL    HW227600   5.070   2.883   3.201
 8901SOL     OW27601   1.569   0.751   2.775
 8901SOL    HW127602   1.584   0.849   2.773
 8901SOL    HW227603   1.522   0.726   2.860
 8902SOL     OW27604   2.006   5.771   6.455
 8902SOL    HW127605   2.055   5.858   6.442
 8902SOL    HW227606   2.014   5.716   6.372
 8903SOL     OW27607   2.431   1.604   3.828
 8903SOL    HW127608   2.353   1.660   3.797
 8903SOL    HW227609   2.423   1.513   3.788
 8904SOL     OW27610   6.903   5.571   3.597
 8904SOL    HW127611   6.830   5.636   3.580
 8904SOL    HW227612   6.968   5.572   3.521
 8905SOL     OW27613   2.398   3.212   5.359
 8905SOL    HW127614   2.479   3.266   5.382
 8905SOL    HW227615   2.425   3.129   5.309
 8906SOL     OW27616   6.605   6.390   6.342
 8906SOL    HW127617   6.512   6.356   6.352
 8906SOL    HW227618   6.633   6.382   6.246
 8907SOL     OW27619   3.173   2.526   5.302
 8907SOL    HW127620   3.197   2.441   5.254
 8907SOL    HW227621   3.075   2.543   5.292
 8908SOL     OW27622   1.471   2.043   0.667
 8908SOL    HW127623   1.399   1.974   0.671
 8908SOL    HW227624   1.559   1.998   0.654
 8909SOL     OW27625   3.189   0.179   5.720
 8909SOL    HW127626   3.253   0.244   5.677
 8909SOL    HW227627   3.143   0.224   5.796
 8910SOL     OW27628   2.904   3.009   6.102
 8910SOL    HW127629   2.824   2.953   6.125
 8910SOL    HW227630   2.970   2.954   6.051
 8911SOL     OW27631   3.114   2.202   4.407
 8911SOL    HW127632   3.078   2.259   4.481
 8911SOL    HW227633   3.058   2.120   4.398
 8912SOL     OW27634   4.648   1.557   6.363
 8912SOL    HW127635   4.631   1.542   6.266
 8912SOL    HW227636   4.638   1.470   6.413
 8913SOL     OW27637   5.038   4.198   1.875
 8913SOL    HW127638   4.957   4.253   1.893
 8913SOL    HW227639   5.100   4.204   1.953
 8914SOL     OW27640   4.198   1.277   4.957
 8914SOL    HW127641   4.104   1.306   4.940
 8914SOL    HW227642   4.217   1.192   4.908
 8915SOL     OW27643   2.165   3.210   3.647
 8915SOL    HW127644   2.247   3.177   3.693
 8915SOL    HW227645   2.163   3.310   3.648
 8916SOL     OW27646   0.143   4.302   2.357
 8916SOL    HW127647   0.129   4.245   2.438
 8916SOL    HW227648   0.200   4.380   2.381
 8917SOL     OW27649   5.919   5.486   6.787
 8917SOL    HW127650   6.009   5.479   6.743
 8917SOL    HW227651   5.927   5.541   6.871
 8918SOL     OW27652   5.725   6.285   0.075
 8918SOL    HW127653   5.778   6.341   0.011
 8918SOL    HW227654   5.724   6.191   0.042
 8919SOL     OW27655   3.800   3.947   0.843
 8919SOL    HW127656   3.759   4.028   0.886
 8919SOL    HW227657   3.737   3.870   0.850
 8920SOL     OW27658   6.294   5.692   6.261
 8920SOL    HW127659   6.345   5.752   6.323
 8920SOL    HW227660   6.302   5.598   6.294
 8921SOL     OW27661   1.036   0.785   3.668
 8921SOL    HW127662   1.063   0.869   3.714
 8921SOL    HW227663   0.965   0.805   3.600
 8922SOL     OW27664   2.601   4.943   0.957
 8922SOL    HW127665   2.689   4.918   0.916
 8922SOL    HW227666   2.589   4.895   1.043
 8923SOL     OW27667   1.721   3.731   6.977
 8923SOL    HW127668   1.694   3.639   7.004
 8923SOL    HW227669   1.714   3.792   0.037
 8924SOL     OW27670   2.691   5.015   5.595
 8924SOL    HW127671   2.681   5.114   5.610
 8924SOL    HW227672   2.788   4.992   5.591
 8925SOL     OW27673   0.351   6.763   2.320
 8925SOL    HW127674   0.377   6.850   2.278
 8925SOL    HW227675   0.276   6.778   2.384
 8926SOL     OW27676   5.695   2.194   2.264
 8926SOL    HW127677   5.632   2.145   2.203
 8926SOL    HW227678   5.689   2.292   2.246
 8927SOL     OW27679   2.465   2.549   4.762
 8927SOL    HW127680   2.422   2.616   4.701
 8927SOL    HW227681   2.436   2.565   4.856
 8928SOL     OW27682   0.394   0.729   5.643
 8928SOL    HW127683   0.307   0.693   5.675
 8928SOL    HW227684   0.377   0.809   5.585
 8929SOL     OW27685   0.231   3.677   3.904
 8929SOL    HW127686   0.148   3.648   3.857
 8929SOL    HW227687   0.212   3.759   3.958
 8930SOL     OW27688   1.287   5.105   5.255
 8930SOL    HW127689   1.214   5.165   5.288
 8930SOL    HW227690   1.302   5.032   5.322
 8931SOL     OW27691   5.046   2.237   1.563
 8931SOL    HW127692   5.042   2.288   1.649
 8931SOL    HW227693   4.962   2.184   1.551
 8932SOL     OW27694   5.806   6.937   6.320
 8932SOL    HW127695   5.851   6.902   6.402
 8932SOL    HW227696   5.822   6.874   6.244
 8933SOL     OW27697   1.239   0.933   5.242
 8933SOL    HW127698   1.170   0.992   5.201
 8933SOL    HW227699   1.204   0.840   5.250
 8934SOL     OW27700   3.502   5.263   3.350
 8934SOL    HW127701   3.505   5.323   3.270
 8934SOL    HW227702   3.417   5.278   3.400
 8935SOL     OW27703   4.857   3.147   2.532
 8935SOL    HW127704   4.876   3.224   2.593
 8935SOL    HW227705   4.787   3.088   2.574
 8936SOL     OW27706   0.066   4.063   1.136
 8936SOL    HW127707   0.096   4.029   1.048
 8936SOL    HW227708   6.988   4.091   1.130
 8937SOL     OW27709   0.476   0.139   3.701
 8937SOL    HW127710   0.405   0.143   3.771
 8937SOL    HW227711   0.502   0.043   3.686
 8938SOL     OW27712   5.846   0.715   0.579
 8938SOL    HW127713   5.937   0.728   0.539
 8938SOL    HW227714   5.777   0.736   0.510
 8939SOL     OW27715   6.979   2.685   4.788
 8939SOL    HW127716   6.898   2.651   4.836
 8939SOL    HW227717   6.981   2.784   4.793
 8940SOL     OW27718   6.744   3.474   0.669
 8940SOL    HW127719   6.695   3.524   0.598
 8940SOL    HW227720   6.704   3.496   0.758
 8941SOL     OW27721   4.906   2.566   2.194
 8941SOL    HW127722   4.937   2.621   2.272
 8941SOL    HW227723   4.834   2.616   2.146
 8942SOL     OW27724   6.935   5.161   3.754
 8942SOL    HW127725   0.005   5.127   3.784
 8942SOL    HW227726   6.869   5.087   3.753
 8943SOL     OW27727   4.299   3.415   0.063
 8943SOL    HW127728   4.294   3.315   0.074
 8943SOL    HW227729   4.380   3.450   0.109
 8944SOL     OW27730   4.712   5.432   4.395
 8944SOL    HW127731   4.682   5.523   4.368
 8944SOL    HW227732   4.798   5.410   4.350
 8945SOL     OW27733   5.947   3.713   5.018
 8945SOL    HW127734   5.947   3.675   4.925
 8945SOL    HW227735   6.030   3.767   5.032
 8946SOL     OW27736   4.853   1.079   4.446
 8946SOL    HW127737   4.776   1.016   4.434
 8946SOL    HW227738   4.939   1.030   4.435
 8947SOL     OW27739   1.108   4.682   6.680
 8947SOL    HW127740   1.082   4.586   6.686
 8947SOL    HW227741   1.150   4.700   6.590
 8948SOL     OW27742   6.073   6.850   4.014
 8948SOL    HW127743   6.063   6.763   3.967
 8948SOL    HW227744   6.079   6.924   3.946
 8949SOL     OW27745   3.612   6.336   0.335
 8949SOL    HW127746   3.555   6.255   0.320
 8949SOL    HW227747   3.586   6.408   0.272
 8950SOL     OW27748   4.625   4.341   1.488
 8950SOL    HW127749   4.563   4.291   1.548
 8950SOL    HW227750   4.604   4.320   1.392
 8951SOL     OW27751   2.232   1.182   4.060
 8951SOL    HW127752   2.153   1.124   4.040
 8951SOL    HW227753   2.275   1.150   4.145
 8952SOL     OW27754   2.298   4.881   3.559
 8952SOL    HW127755   2.332   4.917   3.473
 8952SOL    HW227756   2.201   4.902   3.569
 8953SOL     OW27757   2.760   5.294   2.394
 8953SOL    HW127758   2.779   5.297   2.296
 8953SOL    HW227759   2.805   5.213   2.434
 8954SOL     OW27760   1.314   5.920   4.526
 8954SOL    HW127761   1.276   5.910   4.618
 8954SOL    HW227762   1.240   5.934   4.460
 8955SOL     OW27763   5.765   3.057   3.202
 8955SOL    HW127764   5.790   3.136   3.147
 8955SOL    HW227765   5.775   2.974   3.148
 8956SOL     OW27766   0.778   6.663   5.708
 8956SOL    HW127767   0.757   6.739   5.647
 8956SOL    HW227768   0.820   6.698   5.792
 8957SOL     OW27769   1.383   5.321   2.458
 8957SOL    HW127770   1.370   5.357   2.551
 8957SOL    HW227771   1.397   5.397   2.395
 8958SOL     OW27772   1.519   3.322   5.593
 8958SOL    HW127773   1.528   3.411   5.549
 8958SOL    HW227774   1.429   3.283   5.572
 8959SOL     OW27775   0.809   3.457   1.972
 8959SOL    HW127776   0.780   3.462   2.067
 8959SOL    HW227777   0.843   3.366   1.951
 8960SOL     OW27778   6.175   3.823   4.122
 8960SOL    HW127779   6.197   3.851   4.029
 8960SOL    HW227780   6.165   3.724   4.126
 8961SOL     OW27781   3.162   6.406   4.789
 8961SOL    HW127782   3.158   6.312   4.823
 8961SOL    HW227783   3.221   6.461   4.848
 8962SOL     OW27784   1.042   5.658   1.172
 8962SOL    HW127785   1.080   5.571   1.141
 8962SOL    HW227786   0.948   5.667   1.139
 8963SOL     OW27787   3.735   6.018   4.501
 8963SOL    HW127788   3.754   6.076   4.579
 8963SOL    HW227789   3.688   5.935   4.531
 8964SOL     OW27790   6.376   3.726   3.463
 8964SOL    HW127791   6.278   3.745   3.466
 8964SOL    HW227792   6.396   3.645   3.519
 8965SOL     OW27793   4.355   4.824   0.369
 8965SOL    HW127794   4.324   4.844   0.462
 8965SOL    HW227795   4.313   4.889   0.306
 8966SOL     OW27796   4.861   5.497   6.353
 8966SOL    HW127797   4.825   5.434   6.284
 8966SOL    HW227798   4.859   5.590   6.318
 8967SOL     OW27799   3.145   0.855   2.862
 8967SOL    HW127800   3.121   0.937   2.913
 8967SOL    HW227801   3.161   0.780   2.926
 8968SOL     OW27802   3.298   4.993   1.908
 8968SOL    HW127803   3.283   4.964   2.003
 8968SOL    HW227804   3.229   5.061   1.883
 8969SOL     OW27805   6.691   0.679   3.240
 8969SOL    HW127806   6.762   0.688   3.310
 8969SOL    HW227807   6.705   0.749   3.170
 8970SOL     OW27808   0.946   1.530   6.362
 8970SOL    HW127809   0.939   1.612   6.420
 8970SOL    HW227810   0.863   1.520   6.308
 8971SOL     OW27811   4.392   5.614   0.781
 8971SOL    HW127812   4.296   5.593   0.801
 8971SOL    HW227813   4.435   5.653   0.863
 8972SOL     OW27814   5.939   5.176   0.331
 8972SOL    HW127815   5.907   5.091   0.375
 8972SOL    HW227816   6.019   5.210   0.380
 8973SOL     OW27817   0.951   2.540   2.133
 8973SOL    HW127818   0.869   2.497   2.097
 8973SOL    HW227819   1.028   2.477   2.126
 8974SOL     OW27820   2.282   4.147   4.506
 8974SOL    HW127821   2.244   4.162   4.415
 8974SOL    HW227822   2.377   4.177   4.509
 8975SOL     OW27823   0.490   0.281   6.593
 8975SOL    HW127824   0.568   0.266   6.533
 8975SOL    HW227825   0.491   0.214   6.667
 8976SOL     OW27826   6.602   0.470   1.698
 8976SOL    HW127827   6.532   0.522   1.648
 8976SOL    HW227828   6.689   0.477   1.650
 8977SOL     OW27829   6.865   5.079   6.366
 8977SOL    HW127830   6.964   5.076   6.360
 8977SOL    HW227831   6.825   5.068   6.275
 8978SOL     OW27832   5.975   5.981   6.021
 8978SOL    HW127833   6.029   6.046   5.967
 8978SOL    HW227834   6.036   5.909   6.055
 8979SOL     OW27835   0.062   6.030   6.334
 8979SOL    HW127836   0.044   6.042   6.237
 8979SOL    HW227837   0.137   6.090   6.362
 8980SOL     OW27838   3.926   1.326   4.914
 8980SOL    HW127839   3.923   1.405   4.976
 8980SOL    HW227840   3.888   1.352   4.825
 8981SOL     OW27841   4.518   2.367   6.682
 8981SOL    HW127842   4.450   2.298   6.657
 8981SOL    HW227843   4.471   2.452   6.705
 8982SOL     OW27844   6.527   1.085   1.701
 8982SOL    HW127845   6.618   1.100   1.740
 8982SOL    HW227846   6.459   1.079   1.774
 8983SOL     OW27847   1.010   5.655   3.182
 8983SOL    HW127848   1.069   5.697   3.113
 8983SOL    HW227849   1.050   5.668   3.273
 8984SOL     OW27850   6.028   0.455   4.398
 8984SOL    HW127851   6.024   0.536   4.340
 8984SOL    HW227852   6.106   0.399   4.371
 8985SOL     OW27853   5.139   1.948   0.680
 8985SOL    HW127854   5.125   1.973   0.585
 8985SOL    HW227855   5.155   2.030   0.735
 8986SOL     OW27856   5.942   4.468   1.860
 8986SOL    HW127857   5.954   4.565   1.880
 8986SOL    HW227858   5.886   4.458   1.778
 8987SOL     OW27859   2.572   6.793   1.226
 8987SOL    HW127860   2.519   6.770   1.308
 8987SOL    HW227861   2.580   6.713   1.167
 8988SOL     OW27862   2.252   5.211   1.433
 8988SOL    HW127863   2.222   5.156   1.355
 8988SOL    HW227864   2.285   5.300   1.402
 8989SOL     OW27865   5.210   2.343   2.552
 8989SOL    HW127866   5.182   2.296   2.468
 8989SOL    HW227867   5.190   2.440   2.545
 8990SOL     OW27868   3.507   6.691   1.350
 8990SOL    HW127869   3.514   6.718   1.254
 8990SOL    HW227870   3.499   6.591   1.356
 8991SOL     OW27871   2.093   2.119   0.530
 8991SOL    HW127872   2.091   2.066   0.445
 8991SOL    HW227873   2.185   2.117   0.568
 8992SOL     OW27874   0.931   3.355   0.211
 8992SOL    HW127875   0.906   3.363   0.114
 8992SOL    HW227876   0.998   3.425   0.234
 8993SOL     OW27877   5.599   2.526   3.311
 8993SOL    HW127878   5.572   2.468   3.388
 8993SOL    HW227879   5.694   2.506   3.286
 8994SOL     OW27880   1.393   5.292   3.944
 8994SOL    HW127881   1.436   5.328   3.861
 8994SOL    HW227882   1.386   5.365   4.012
 8995SOL     OW27883   1.862   3.343   5.375
 8995SOL    HW127884   1.778   3.396   5.359
 8995SOL    HW227885   1.941   3.395   5.342
 8996SOL     OW27886   0.507   3.981   2.319
 8996SOL    HW127887   0.570   3.971   2.396
 8996SOL    HW227888   0.468   4.073   2.319
 8997SOL     OW27889   4.734   1.144   5.377
 8997SOL    HW127890   4.665   1.082   5.414
 8997SOL    HW227891   4.812   1.091   5.342
 8998SOL     OW27892   1.583   2.792   5.572
 8998SOL    HW127893   1.611   2.726   5.641
 8998SOL    HW227894   1.607   2.885   5.602
 8999SOL     OW27895   5.260   1.565   5.892
 8999SOL    HW127896   5.179   1.610   5.930
 8999SOL    HW227897   5.329   1.556   5.964
 9000SOL     OW27898   3.729   4.051   0.570
 9000SOL    HW127899   3.723   3.997   0.655
 9000SOL    HW227900   3.696   4.143   0.587
 9001SOL     OW27901   2.534   4.881   3.701
 9001SOL    HW127902   2.578   4.970   3.689
 9001SOL    HW227903   2.448   4.879   3.649
 9002SOL     OW27904   5.925   4.627   5.715
 9002SOL    HW127905   5.934   4.552   5.780
 9002SOL    HW227906   6.009   4.681   5.713
 9003SOL     OW27907   6.438   3.012   0.075
 9003SOL    HW127908   6.452   2.918   0.105
 9003SOL    HW227909   6.443   3.073   0.154
 9004SOL     OW27910   4.960   6.406   1.188
 9004SOL    HW127911   4.915   6.414   1.277
 9004SOL    HW227912   4.967   6.309   1.164
 9005SOL     OW27913   4.567   2.247   3.223
 9005SOL    HW127914   4.578   2.188   3.143
 9005SOL    HW227915   4.546   2.340   3.193
 9006SOL     OW27916   2.046   5.185   0.826
 9006SOL    HW127917   2.125   5.214   0.771
 9006SOL    HW227918   2.062   5.208   0.922
 9007SOL     OW27919   3.286   5.531   4.431
 9007SOL    HW127920   3.331   5.545   4.343
 9007SOL    HW227921   3.216   5.602   4.444
 9008SOL     OW27922   0.182   4.293   1.603
 9008SOL    HW127923   0.250   4.359   1.568
 9008SOL    HW227924   0.090   4.324   1.578
 9009SOL     OW27925   2.689   6.563   0.460
 9009SOL    HW127926   2.618   6.531   0.523
 9009SOL    HW227927   2.753   6.488   0.442
 9010SOL     OW27928   0.543   6.586   4.965
 9010SOL    HW127929   0.625   6.547   4.924
 9010SOL    HW227930   0.488   6.630   4.894
 9011SOL     OW27931   3.911   1.804   1.070
 9011SOL    HW127932   3.983   1.740   1.096
 9011SOL    HW227933   3.822   1.760   1.082
 9012SOL     OW27934   1.038   4.999   1.377
 9012SOL    HW127935   1.076   5.086   1.345
 9012SOL    HW227936   0.945   5.015   1.412
 9013SOL     OW27937   6.410   6.111   3.925
 9013SOL    HW127938   6.419   6.190   3.864
 9013SOL    HW227939   6.494   6.057   3.921
 9014SOL     OW27940   1.309   0.935   0.725
 9014SOL    HW127941   1.296   1.023   0.678
 9014SOL    HW227942   1.405   0.908   0.717
 9015SOL     OW27943   0.243   1.227   5.852
 9015SOL    HW127944   0.311   1.291   5.886
 9015SOL    HW227945   0.285   1.138   5.836
 9016SOL     OW27946   6.703   6.179   5.980
 9016SOL    HW127947   6.773   6.236   5.937
 9016SOL    HW227948   6.694   6.094   5.929
 9017SOL     OW27949   5.693   2.253   3.670
 9017SOL    HW127950   5.728   2.263   3.763
 9017SOL    HW227951   5.767   2.224   3.609
 9018SOL     OW27952   3.040   1.692   5.131
 9018SOL    HW127953   2.997   1.714   5.219
 9018SOL    HW227954   3.139   1.699   5.140
 9019SOL     OW27955   2.997   5.937   0.453
 9019SOL    HW127956   2.929   5.867   0.434
 9019SOL    HW227957   3.006   5.999   0.375
 9020SOL     OW27958   1.643   4.288   2.852
 9020SOL    HW127959   1.589   4.373   2.851
 9020SOL    HW227960   1.599   4.221   2.792
 9021SOL     OW27961   0.245   5.904   4.339
 9021SOL    HW127962   0.164   5.876   4.392
 9021SOL    HW227963   0.216   5.930   4.246
 9022SOL     OW27964   2.774   0.408   0.329
 9022SOL    HW127965   2.696   0.380   0.385
 9022SOL    HW227966   2.787   0.342   0.255
 9023SOL     OW27967   3.341   3.654   3.620
 9023SOL    HW127968   3.264   3.617   3.673
 9023SOL    HW227969   3.418   3.590   3.623
 9024SOL     OW27970   1.759   6.249   6.185
 9024SOL    HW127971   1.752   6.156   6.148
 9024SOL    HW227972   1.746   6.246   6.284
 9025SOL     OW27973   6.207   4.894   1.952
 9025SOL    HW127974   6.268   4.821   1.984
 9025SOL    HW227975   6.117   4.884   1.994
 9026SOL     OW27976   3.544   2.878   4.330
 9026SOL    HW127977   3.593   2.792   4.326
 9026SOL    HW227978   3.609   2.954   4.336
 9027SOL     OW27979   2.417   2.254   3.016
 9027SOL    HW127980   2.395   2.258   3.114
 9027SOL    HW227981   2.501   2.201   3.003
 9028SOL     OW27982   2.342   4.430   5.578
 9028SOL    HW127983   2.432   4.445   5.537
 9028SOL    HW227984   2.327   4.498   5.650
 9029SOL     OW27985   4.807   5.607   3.597
 9029SOL    HW127986   4.725   5.643   3.643
 9029SOL    HW227987   4.888   5.652   3.634
 9030SOL     OW27988   2.206   0.964   2.422
 9030SOL    HW127989   2.212   1.020   2.505
 9030SOL    HW227990   2.298   0.949   2.386
 9031SOL     OW27991   2.618   6.220   5.794
 9031SOL    HW127992   2.710   6.239   5.828
 9031SOL    HW227993   2.616   6.130   5.749
 9032SOL     OW27994   2.692   2.351   1.803
 9032SOL    HW127995   2.773   2.371   1.858
 9032SOL    HW227996   2.647   2.437   1.780
 9033SOL     OW27997   1.847   3.369   4.017
 9033SOL    HW127998   1.857   3.346   3.920
 9033SOL    HW227999   1.936   3.365   4.062
 9034SOL     OW28000   2.546   6.773   5.388
 9034SOL    HW128001   2.525   6.871   5.391
 9034SOL    HW228002   2.504   6.728   5.466
 9035SOL     OW28003   0.052   0.454   4.607
 9035SOL    HW128004   0.001   0.432   4.690
 9035SOL    HW228005   7.010   0.449   4.528
 9036SOL     OW28006   1.472   2.442   5.633
 9036SOL    HW128007   1.507   2.397   5.551
 9036SOL    HW228008   1.544   2.497   5.674
 9037SOL     OW28009   2.230   3.956   6.540
 9037SOL    HW128010   2.305   4.003   6.587
 9037SOL    HW228011   2.196   4.014   6.466
 9038SOL     OW28012   5.239   0.182   5.299
 9038SOL    HW128013   5.146   0.214   5.317
 9038SOL    HW228014   5.253   0.177   5.200
 9039SOL     OW28015   2.039   4.863   5.271
 9039SOL    HW128016   1.972   4.926   5.231
 9039SOL    HW228017   2.114   4.916   5.312
 9040SOL     OW28018   2.334   1.562   2.625
 9040SOL    HW128019   2.420   1.613   2.618
 9040SOL    HW228020   2.262   1.612   2.577
 9041SOL     OW28021   1.137   2.187   1.410
 9041SOL    HW128022   1.145   2.088   1.397
 9041SOL    HW228023   1.143   2.233   1.321
 9042SOL     OW28024   3.245   5.243   3.461
 9042SOL    HW128025   3.191   5.185   3.521
 9042SOL    HW228026   3.257   5.198   3.372
 9043SOL     OW28027   1.390   2.540   6.128
 9043SOL    HW128028   1.373   2.558   6.225
 9043SOL    HW228029   1.324   2.474   6.093
 9044SOL     OW28030   6.009   0.164   0.854
 9044SOL    HW128031   6.058   0.097   0.798
 9044SOL    HW228032   5.952   0.221   0.794
 9045SOL     OW28033   3.090   0.245   3.061
 9045SOL    HW128034   3.060   0.317   3.124
 9045SOL    HW228035   3.187   0.224   3.079
 9046SOL     OW28036   3.272   4.290   5.461
 9046SOL    HW128037   3.301   4.196   5.447
 9046SOL    HW228038   3.348   4.352   5.439
 9047SOL     OW28039   1.405   4.438   3.979
 9047SOL    HW128040   1.444   4.346   3.990
 9047SOL    HW228041   1.321   4.432   3.924
 9048SOL     OW28042   1.820   4.054   4.924
 9048SOL    HW128043   1.821   4.154   4.924
 9048SOL    HW228044   1.904   4.020   4.967
 9049SOL     OW28045   5.104   6.094   6.220
 9049SOL    HW128046   5.021   6.147   6.239
 9049SOL    HW228047   5.156   6.139   6.148
 9050SOL     OW28048   0.502   5.224   6.846
 9050SOL    HW128049   0.487   5.129   6.817
 9050SOL    HW228050   0.599   5.239   6.861
 9051SOL     OW28051   4.876   6.156   0.164
 9051SOL    HW128052   4.880   6.154   0.064
 9051SOL    HW228053   4.870   6.251   0.195
 9052SOL     OW28054   2.774   4.838   4.539
 9052SOL    HW128055   2.727   4.856   4.625
 9052SOL    HW228056   2.707   4.810   4.470
 9053SOL     OW28057   2.310   2.876   4.132
 9053SOL    HW128058   2.322   2.894   4.230
 9053SOL    HW228059   2.245   2.942   4.094
 9054SOL     OW28060   1.505   0.732   1.886
 9054SOL    HW128061   1.595   0.734   1.842
 9054SOL    HW228062   1.515   0.748   1.984
 9055SOL     OW28063   1.014   2.565   4.298
 9055SOL    HW128064   1.077   2.491   4.321
 9055SOL    HW228065   0.929   2.554   4.349
 9056SOL     OW28066   5.047   0.352   2.389
 9056SOL    HW128067   5.097   0.426   2.344
 9056SOL    HW228068   5.069   0.350   2.486
 9057SOL     OW28069   6.161   5.415   6.997
 9057SOL    HW128070   6.099   5.338   7.009
 9057SOL    HW228071   6.233   5.390   6.933
 9058SOL     OW28072   2.034   2.772   4.869
 9058SOL    HW128073   2.021   2.769   4.968
 9058SOL    HW228074   2.125   2.808   4.848
 9059SOL     OW28075   6.402   1.425   3.505
 9059SOL    HW128076   6.403   1.524   3.499
 9059SOL    HW228077   6.382   1.397   3.599
 9060SOL     OW28078   6.935   3.661   2.385
 9060SOL    HW128079   6.931   3.577   2.330
 9060SOL    HW228080   6.886   3.734   2.338
 9061SOL     OW28081   4.909   5.909   3.061
 9061SOL    HW128082   4.924   5.899   2.963
 9061SOL    HW228083   4.924   6.005   3.088
 9062SOL     OW28084   1.285   4.199   2.861
 9062SOL    HW128085   1.292   4.265   2.786
 9062SOL    HW228086   1.348   4.226   2.934
 9063SOL     OW28087   3.068   1.592   2.719
 9063SOL    HW128088   3.061   1.516   2.784
 9063SOL    HW228089   3.112   1.559   2.635
 9064SOL     OW28090   0.171   3.925   3.638
 9064SOL    HW128091   0.170   3.991   3.563
 9064SOL    HW228092   0.174   3.832   3.601
 9065SOL     OW28093   2.870   6.219   4.830
 9065SOL    HW128094   2.828   6.304   4.801
 9065SOL    HW228095   2.957   6.239   4.877
 9066SOL     OW28096   6.354   6.282   6.420
 9066SOL    HW128097   6.305   6.303   6.336
 9066SOL    HW228098   6.331   6.349   6.490
 9067SOL     OW28099   6.503   6.740   4.380
 9067SOL    HW128100   6.454   6.825   4.399
 9067SOL    HW228101   6.494   6.717   4.283
 9068SOL     OW28102   5.310   0.294   5.558
 9068SOL    HW128103   5.275   0.388   5.567
 9068SOL    HW228104   5.310   0.268   5.461
 9069SOL     OW28105   4.557   2.420   2.318
 9069SOL    HW128106   4.494   2.411   2.395
 9069SOL    HW228107   4.649   2.395   2.348
 9070SOL     OW28108   1.106   1.942   6.261
 9070SOL    HW128109   1.125   1.946   6.359
 9070SOL    HW228110   1.132   1.852   6.225
 9071SOL     OW28111   4.458   1.561   6.140
 9071SOL    HW128112   4.387   1.555   6.070
 9071SOL    HW228113   4.429   1.511   6.221
 9072SOL     OW28114   5.554   0.006   1.565
 9072SOL    HW128115   5.499   0.074   1.517
 9072SOL    HW228116   5.509   7.001   1.652
 9073SOL     OW28117   4.239   0.090   0.185
 9073SOL    HW128118   4.320   0.043   0.222
 9073SOL    HW228119   4.158   0.033   0.200
 9074SOL     OW28120   1.444   0.407   1.285
 9074SOL    HW128121   1.529   0.364   1.255
 9074SOL    HW228122   1.430   0.493   1.235
 9075SOL     OW28123   6.431   0.892   2.331
 9075SOL    HW128124   6.477   0.817   2.378
 9075SOL    HW228125   6.423   0.871   2.234
 9076SOL     OW28126   4.789   0.799   2.970
 9076SOL    HW128127   4.808   0.758   3.059
 9076SOL    HW228128   4.749   0.730   2.909
 9077SOL     OW28129   5.084   1.234   5.907
 9077SOL    HW128130   5.148   1.285   5.850
 9077SOL    HW228131   4.993   1.277   5.903
 9078SOL     OW28132   4.885   5.084   6.847
 9078SOL    HW128133   4.828   5.027   6.906
 9078SOL    HW228134   4.953   5.027   6.802
 9079SOL     OW28135   1.673   0.576   5.151
 9079SOL    HW128136   1.641   0.642   5.219
 9079SOL    HW228137   1.674   0.485   5.191
 9080SOL     OW28138   6.490   3.866   0.628
 9080SOL    HW128139   6.400   3.841   0.663
 9080SOL    HW228140   6.506   3.964   0.644
 9081SOL     OW28141   3.661   1.936   1.475
 9081SOL    HW128142   3.696   1.937   1.381
 9081SOL    HW228143   3.720   1.878   1.531
 9082SOL     OW28144   2.604   6.853   5.896
 9082SOL    HW128145   2.614   6.872   5.994
 9082SOL    HW228146   2.520   6.894   5.862
 9083SOL     OW28147   5.065   4.398   5.755
 9083SOL    HW128148   5.101   4.447   5.676
 9083SOL    HW228149   5.056   4.461   5.832
 9084SOL     OW28150   0.530   3.066   5.641
 9084SOL    HW128151   0.596   3.141   5.648
 9084SOL    HW228152   0.489   3.049   5.731
 9085SOL     OW28153   3.439   5.017   0.248
 9085SOL    HW128154   3.530   5.043   0.217
 9085SOL    HW228155   3.371   5.051   0.183
 9086SOL     OW28156   6.572   4.470   0.979
 9086SOL    HW128157   6.495   4.407   0.974
 9086SOL    HW228158   6.610   4.469   1.071
 9087SOL     OW28159   5.955   2.869   2.763
 9087SOL    HW128160   6.043   2.834   2.732
 9087SOL    HW228161   5.943   2.847   2.860
 9088SOL     OW28162   6.231   0.579   2.100
 9088SOL    HW128163   6.219   0.622   2.011
 9088SOL    HW228164   6.295   0.502   2.092
 9089SOL     OW28165   4.237   5.459   4.082
 9089SOL    HW128166   4.196   5.370   4.101
 9089SOL    HW228167   4.323   5.467   4.132
 9090SOL     OW28168   5.311   6.242   4.176
 9090SOL    HW128169   5.404   6.212   4.200
 9090SOL    HW228170   5.307   6.261   4.078
 9091SOL     OW28171   3.139   2.479   0.225
 9091SOL    HW128172   3.095   2.403   0.274
 9091SOL    HW228173   3.170   2.447   0.135
 9092SOL     OW28174   1.391   0.379   5.479
 9092SOL    HW128175   1.326   0.304   5.487
 9092SOL    HW228176   1.432   0.398   5.568
 9093SOL     OW28177   1.712   6.166   6.880
 9093SOL    HW128178   1.741   6.087   6.826
 9093SOL    HW228179   1.670   6.134   6.965
 9094SOL     OW28180   0.220   6.187   2.158
 9094SOL    HW128181   0.273   6.255   2.209
 9094SOL    HW228182   0.229   6.204   2.060
 9095SOL     OW28183   5.282   3.296   6.879
 9095SOL    HW128184   5.348   3.222   6.890
 9095SOL    HW228185   5.190   3.262   6.904
 9096SOL     OW28186   5.361   3.322   3.168
 9096SOL    HW128187   5.388   3.226   3.176
 9096SOL    HW228188   5.381   3.355   3.076
 9097SOL     OW28189   1.130   3.579   0.144
 9097SOL    HW128190   1.116   3.615   0.052
 9097SOL    HW228191   1.226   3.557   0.157
 9098SOL     OW28192   4.121   3.673   1.581
 9098SOL    HW128193   4.133   3.721   1.494
 9098SOL    HW228194   4.099   3.577   1.563
 9099SOL     OW28195   3.354   3.633   0.918
 9099SOL    HW128196   3.427   3.684   0.873
 9099SOL    HW228197   3.280   3.616   0.853
 9100SOL     OW28198   1.078   2.954   1.989
 9100SOL    HW128199   1.050   2.875   1.934
 9100SOL    HW228200   1.104   2.923   2.080
 9101SOL     OW28201   2.192   3.102   2.863
 9101SOL    HW128202   2.162   3.131   2.954
 9101SOL    HW228203   2.229   3.009   2.869
 9102SOL     OW28204   3.825   6.018   2.235
 9102SOL    HW128205   3.741   6.052   2.277
 9102SOL    HW228206   3.889   6.094   2.222
 9103SOL     OW28207   0.129   3.349   0.387
 9103SOL    HW128208   0.141   3.405   0.469
 9103SOL    HW228209   0.113   3.254   0.414
 9104SOL     OW28210   4.294   6.250   1.629
 9104SOL    HW128211   4.306   6.324   1.696
 9104SOL    HW228212   4.357   6.263   1.553
 9105SOL     OW28213   1.873   0.582   6.911
 9105SOL    HW128214   1.938   0.643   6.866
 9105SOL    HW228215   1.782   0.623   6.909
 9106SOL     OW28216   6.382   3.730   0.323
 9106SOL    HW128217   6.411   3.677   0.403
 9106SOL    HW228218   6.325   3.806   0.353
 9107SOL     OW28219   4.617   6.979   6.412
 9107SOL    HW128220   4.585   0.028   6.479
 9107SOL    HW228221   4.591   7.008   6.320
 9108SOL     OW28222   4.828   4.605   5.121
 9108SOL    HW128223   4.851   4.630   5.027
 9108SOL    HW228224   4.880   4.524   5.147
 9109SOL     OW28225   1.911   2.372   2.720
 9109SOL    HW128226   1.984   2.440   2.729
 9109SOL    HW228227   1.825   2.418   2.696
 9110SOL     OW28228   2.373   4.510   4.211
 9110SOL    HW128229   2.278   4.539   4.223
 9110SOL    HW228230   2.387   4.424   4.261
 9111SOL     OW28231   4.199   3.467   0.834
 9111SOL    HW128232   4.262   3.461   0.757
 9111SOL    HW228233   4.120   3.407   0.818
 9112SOL     OW28234   0.516   4.028   3.788
 9112SOL    HW128235   0.474   3.941   3.760
 9112SOL    HW228236   0.555   4.018   3.880
 9113SOL     OW28237   4.475   0.567   0.329
 9113SOL    HW128238   4.568   0.547   0.362
 9113SOL    HW228239   4.413   0.494   0.357
 9114SOL     OW28240   1.376   4.840   2.538
 9114SOL    HW128241   1.347   4.894   2.459
 9114SOL    HW228242   1.451   4.887   2.585
 9115SOL     OW28243   0.508   5.816   5.148
 9115SOL    HW128244   0.512   5.716   5.141
 9115SOL    HW228245   0.442   5.851   5.082
 9116SOL     OW28246   6.468   1.648   0.301
 9116SOL    HW128247   6.439   1.707   0.226
 9116SOL    HW228248   6.402   1.655   0.376
 9117SOL     OW28249   6.248   2.830   6.759
 9117SOL    HW128250   6.237   2.773   6.841
 9117SOL    HW228251   6.249   2.771   6.678
 9118SOL     OW28252   5.930   6.047   0.483
 9118SOL    HW128253   5.837   6.082   0.475
 9118SOL    HW228254   5.994   6.110   0.438
 9119SOL     OW28255   5.556   1.432   2.776
 9119SOL    HW128256   5.651   1.410   2.758
 9119SOL    HW228257   5.507   1.441   2.689
 9120SOL     OW28258   5.666   2.812   5.744
 9120SOL    HW128259   5.698   2.722   5.714
 9120SOL    HW228260   5.667   2.875   5.666
 9121SOL     OW28261   0.656   3.108   6.035
 9121SOL    HW128262   0.636   3.169   5.959
 9121SOL    HW228263   0.748   3.070   6.023
 9122SOL     OW28264   1.792   2.495   1.747
 9122SOL    HW128265   1.799   2.549   1.663
 9122SOL    HW228266   1.879   2.450   1.764
 9123SOL     OW28267   3.334   0.212   4.568
 9123SOL    HW128268   3.356   0.120   4.536
 9123SOL    HW228269   3.239   0.214   4.601
 9124SOL     OW28270   5.683   6.674   5.480
 9124SOL    HW128271   5.740   6.592   5.471
 9124SOL    HW228272   5.741   6.754   5.492
 9125SOL     OW28273   4.603   4.303   3.967
 9125SOL    HW128274   4.606   4.240   4.044
 9125SOL    HW228275   4.628   4.395   3.997
 9126SOL     OW28276   5.752   1.193   2.418
 9126SOL    HW128277   5.745   1.256   2.496
 9126SOL    HW228278   5.676   1.210   2.355
 9127SOL     OW28279   6.513   0.416   6.171
 9127SOL    HW128280   6.420   0.446   6.196
 9127SOL    HW228281   6.533   0.329   6.217
 9128SOL     OW28282   3.492   2.203   5.388
 9128SOL    HW128283   3.421   2.138   5.359
 9128SOL    HW228284   3.551   2.225   5.311
 9129SOL     OW28285   2.192   2.768   1.196
 9129SOL    HW128286   2.189   2.855   1.245
 9129SOL    HW228287   2.186   2.785   1.098
 9130SOL     OW28288   6.951   3.451   6.983
 9130SOL    HW128289   6.941   3.514   0.041
 9130SOL    HW228290   6.985   3.363   7.016
 9131SOL     OW28291   6.848   4.347   5.235
 9131SOL    HW128292   6.936   4.392   5.253
 9131SOL    HW228293   6.783   4.371   5.307
 9132SOL     OW28294   0.154   4.655   4.280
 9132SOL    HW128295   0.228   4.716   4.253
 9132SOL    HW228296   0.094   4.703   4.344
 9133SOL     OW28297   3.055   5.397   0.736
 9133SOL    HW128298   3.115   5.318   0.721
 9133SOL    HW228299   3.109   5.481   0.731
 9134SOL     OW28300   3.462   6.665   0.816
 9134SOL    HW128301   3.507   6.637   0.732
 9134SOL    HW228302   3.368   6.693   0.797
 9135SOL     OW28303   6.670   6.367   1.961
 9135SOL    HW128304   6.665   6.318   2.048
 9135SOL    HW228305   6.702   6.305   1.889
 9136SOL     OW28306   4.824   5.525   5.168
 9136SOL    HW128307   4.869   5.472   5.096
 9136SOL    HW228308   4.882   5.603   5.192
 9137SOL     OW28309   5.055   1.806   1.228
 9137SOL    HW128310   5.006   1.880   1.274
 9137SOL    HW228311   5.134   1.843   1.181
 9138SOL     OW28312   6.081   4.894   6.044
 9138SOL    HW128313   6.111   4.986   6.070
 9138SOL    HW228314   5.998   4.871   6.094
 9139SOL     OW28315   2.170   1.394   4.245
 9139SOL    HW128316   2.140   1.486   4.218
 9139SOL    HW228317   2.171   1.334   4.165
 9140SOL     OW28318   6.513   3.456   2.787
 9140SOL    HW128319   6.537   3.541   2.740
 9140SOL    HW228320   6.480   3.390   2.719
 9141SOL     OW28321   5.453   0.633   6.780
 9141SOL    HW128322   5.527   0.691   6.745
 9141SOL    HW228323   5.472   0.537   6.760
 9142SOL     OW28324   0.491   2.447   0.053
 9142SOL    HW128325   0.430   2.497   7.011
 9142SOL    HW228326   0.468   2.468   0.148
 9143SOL     OW28327   5.084   3.741   0.680
 9143SOL    HW128328   5.035   3.744   0.767
 9143SOL    HW228329   5.075   3.829   0.633
 9144SOL     OW28330   2.127   5.449   5.860
 9144SOL    HW128331   2.156   5.355   5.840
 9144SOL    HW228332   2.028   5.451   5.876
 9145SOL     OW28333   6.741   5.484   0.330
 9145SOL    HW128334   6.699   5.511   0.417
 9145SOL    HW228335   6.796   5.560   0.295
 9146SOL     OW28336   4.762   2.110   2.122
 9146SOL    HW128337   4.682   2.069   2.079
 9146SOL    HW228338   4.845   2.073   2.080
 9147SOL     OW28339   5.800   0.031   4.216
 9147SOL    HW128340   5.849   0.089   4.282
 9147SOL    HW228341   5.770   0.087   4.139
 9148SOL     OW28342   5.115   6.741   0.627
 9148SOL    HW128343   5.208   6.729   0.593
 9148SOL    HW228344   5.086   6.657   0.674
 9149SOL     OW28345   5.395   3.112   3.684
 9149SOL    HW128346   5.356   3.181   3.746
 9149SOL    HW228347   5.334   3.033   3.681
 9150SOL     OW28348   3.436   5.326   3.907
 9150SOL    HW128349   3.468   5.402   3.850
 9150SOL    HW228350   3.503   5.308   3.979
 9151SOL     OW28351   1.523   4.537   3.343
 9151SOL    HW128352   1.592   4.464   3.348
 9151SOL    HW228353   1.436   4.498   3.313
 9152SOL     OW28354   2.513   5.174   4.781
 9152SOL    HW128355   2.517   5.091   4.836
 9152SOL    HW228356   2.418   5.200   4.765
 9153SOL     OW28357   1.372   2.928   1.001
 9153SOL    HW128358   1.393   2.991   0.926
 9153SOL    HW228359   1.341   2.980   1.080
 9154SOL     OW28360   3.938   5.418   0.061
 9154SOL    HW128361   3.872   5.371   0.119
 9154SOL    HW228362   4.029   5.415   0.103
 9155SOL     OW28363   1.256   3.021   0.765
 9155SOL    HW128364   1.335   2.983   0.716
 9155SOL    HW228365   1.211   2.947   0.816
 9156SOL     OW28366   2.265   2.503   0.052
 9156SOL    HW128367   2.310   2.424   0.010
 9156SOL    HW228368   2.302   2.587   0.013
 9157SOL     OW28369   5.873   4.711   6.163
 9157SOL    HW128370   5.889   4.676   6.255
 9157SOL    HW228371   5.894   4.640   6.096
 9158SOL     OW28372   5.659   3.419   5.015
 9158SOL    HW128373   5.735   3.355   5.009
 9158SOL    HW228374   5.671   3.478   5.095
 9159SOL     OW28375   1.154   0.010   3.013
 9159SOL    HW128376   1.211   0.051   2.942
 9159SOL    HW228377   1.088   0.077   3.047
 9160SOL     OW28378   6.330   0.182   5.083
 9160SOL    HW128379   6.373   0.103   5.126
 9160SOL    HW228380   6.266   0.150   5.013
 9161SOL     OW28381   4.807   4.112   4.552
 9161SOL    HW128382   4.788   4.143   4.645
 9161SOL    HW228383   4.754   4.167   4.487
 9162SOL     OW28384   4.650   1.346   4.069
 9162SOL    HW128385   4.644   1.305   4.160
 9162SOL    HW228386   4.744   1.341   4.037
 9163SOL     OW28387   2.155   3.474   4.602
 9163SOL    HW128388   2.150   3.572   4.584
 9163SOL    HW228389   2.177   3.459   4.699
 9164SOL     OW28390   2.459   0.151   6.644
 9164SOL    HW128391   2.393   0.140   6.570
 9164SOL    HW228392   2.533   0.212   6.615
 9165SOL     OW28393   5.998   1.879   5.521
 9165SOL    HW128394   6.056   1.895   5.601
 9165SOL    HW228395   5.914   1.833   5.551
 9166SOL     OW28396   4.297   6.135   0.920
 9166SOL    HW128397   4.345   6.097   0.999
 9166SOL    HW228398   4.323   6.231   0.908
 9167SOL     OW28399   1.637   2.591   6.008
 9167SOL    HW128400   1.545   2.576   6.046
 9167SOL    HW228401   1.700   2.525   6.047
 9168SOL     OW28402   0.646   0.642   6.453
 9168SOL    HW128403   0.635   0.616   6.357
 9168SOL    HW228404   0.571   0.602   6.507
 9169SOL     OW28405   6.103   1.132   5.321
 9169SOL    HW128406   6.028   1.198   5.326
 9169SOL    HW228407   6.148   1.140   5.232
 9170SOL     OW28408   1.484   4.557   0.399
 9170SOL    HW128409   1.444   4.499   0.471
 9170SOL    HW228410   1.581   4.571   0.418
 9171SOL     OW28411   3.801   4.514   0.858
 9171SOL    HW128412   3.802   4.474   0.767
 9171SOL    HW228413   3.831   4.609   0.853
 9172SOL     OW28414   3.235   0.472   4.858
 9172SOL    HW128415   3.144   0.495   4.893
 9172SOL    HW228416   3.232   0.463   4.759
 9173SOL     OW28417   6.445   4.071   4.855
 9173SOL    HW128418   6.430   4.101   4.760
 9173SOL    HW228419   6.391   4.128   4.917
 9174SOL     OW28420   5.831   4.838   1.132
 9174SOL    HW128421   5.747   4.861   1.181
 9174SOL    HW228422   5.895   4.915   1.137
 9175SOL     OW28423   0.782   0.018   3.805
 9175SOL    HW128424   0.805   0.106   3.765
 9175SOL    HW228425   0.725   0.031   3.886
 9176SOL     OW28426   3.178   1.120   4.996
 9176SOL    HW128427   3.188   1.150   4.901
 9176SOL    HW228428   3.175   1.200   5.056
 9177SOL     OW28429   1.284   4.704   5.136
 9177SOL    HW128430   1.362   4.643   5.120
 9177SOL    HW228431   1.267   4.759   5.054
 9178SOL     OW28432   2.335   5.543   0.048
 9178SOL    HW128433   2.393   5.478   0.097
 9178SOL    HW228434   2.385   5.582   6.990
 9179SOL     OW28435   2.960   5.450   4.323
 9179SOL    HW128436   2.999   5.540   4.304
 9179SOL    HW228437   3.033   5.382   4.333
 9180SOL     OW28438   5.646   2.288   2.822
 9180SOL    HW128439   5.728   2.232   2.830
 9180SOL    HW228440   5.579   2.259   2.891
 9181SOL     OW28441   3.941   2.182   4.145
 9181SOL    HW128442   3.862   2.186   4.206
 9181SOL    HW228443   4.014   2.240   4.181
 9182SOL     OW28444   1.982   6.177   1.926
 9182SOL    HW128445   1.997   6.123   1.844
 9182SOL    HW228446   2.066   6.225   1.951
 9183SOL     OW28447   5.470   6.308   0.372
 9183SOL    HW128448   5.465   6.301   0.272
 9183SOL    HW228449   5.429   6.394   0.402
 9184SOL     OW28450   5.426   1.953   0.600
 9184SOL    HW128451   5.450   1.856   0.605
 9184SOL    HW228452   5.327   1.963   0.605
 9185SOL     OW28453   4.012   6.861   4.641
 9185SOL    HW128454   3.944   6.921   4.598
 9185SOL    HW228455   3.967   6.804   4.710
 9186SOL     OW28456   5.486   7.010   4.215
 9186SOL    HW128457   5.575   6.966   4.223
 9186SOL    HW228458   5.477   0.033   4.124
 9187SOL     OW28459   2.713   1.574   1.282
 9187SOL    HW128460   2.634   1.619   1.240
 9187SOL    HW228461   2.681   1.509   1.351
 9188SOL     OW28462   1.685   6.936   1.669
 9188SOL    HW128463   1.664   7.011   1.732
 9188SOL    HW228464   1.685   6.849   1.719
 9189SOL     OW28465   4.642   6.128   1.250
 9189SOL    HW128466   4.733   6.124   1.290
 9189SOL    HW228467   4.607   6.222   1.256
 9190SOL     OW28468   2.013   4.008   6.998
 9190SOL    HW128469   2.005   3.948   0.059
 9190SOL    HW228470   1.950   3.977   6.926
 9191SOL     OW28471   6.344   1.694   5.686
 9191SOL    HW128472   6.303   1.607   5.656
 9191SOL    HW228473   6.283   1.769   5.662
 9192SOL     OW28474   0.619   3.820   6.206
 9192SOL    HW128475   0.718   3.818   6.194
 9192SOL    HW228476   0.596   3.804   6.302
 9193SOL     OW28477   4.728   3.894   0.485
 9193SOL    HW128478   4.691   3.801   0.487
 9193SOL    HW228479   4.715   3.937   0.575
 9194SOL     OW28480   3.108   0.436   3.299
 9194SOL    HW128481   3.039   0.503   3.326
 9194SOL    HW228482   3.184   0.482   3.253
 9195SOL     OW28483   1.956   1.886   4.093
 9195SOL    HW128484   1.984   1.793   4.118
 9195SOL    HW228485   2.035   1.936   4.059
 9196SOL     OW28486   4.314   6.874   3.857
 9196SOL    HW128487   4.331   6.906   3.950
 9196SOL    HW228488   4.331   6.949   3.793
 9197SOL     OW28489   1.733   4.693   2.032
 9197SOL    HW128490   1.808   4.735   2.083
 9197SOL    HW228491   1.770   4.647   1.951
 9198SOL     OW28492   6.670   5.106   6.545
 9198SOL    HW128493   6.598   5.088   6.478
 9198SOL    HW228494   6.758   5.114   6.497
 9199SOL     OW28495   1.385   3.731   6.150
 9199SOL    HW128496   1.485   3.725   6.152
 9199SOL    HW228497   1.357   3.788   6.072
 9200SOL     OW28498   2.603   6.728   0.679
 9200SOL    HW128499   2.652   6.804   0.721
 9200SOL    HW228500   2.657   6.644   0.690
 9201SOL     OW28501   0.456   2.792   0.603
 9201SOL    HW128502   0.528   2.781   0.534
 9201SOL    HW228503   0.462   2.883   0.643
 9202SOL     OW28504   1.515   6.574   2.559
 9202SOL    HW128505   1.480   6.647   2.618
 9202SOL    HW228506   1.608   6.598   2.529
 9203SOL     OW28507   0.777   4.706   0.009
 9203SOL    HW128508   0.756   4.617   0.049
 9203SOL    HW228509   0.876   4.716   0.001
 9204SOL     OW28510   4.697   3.010   6.299
 9204SOL    HW128511   4.639   3.092   6.294
 9204SOL    HW228512   4.790   3.036   6.327
 9205SOL     OW28513   6.752   4.767   2.827
 9205SOL    HW128514   6.690   4.840   2.854
 9205SOL    HW228515   6.708   4.709   2.758
 9206SOL     OW28516   4.541   5.598   2.160
 9206SOL    HW128517   4.550   5.693   2.131
 9206SOL    HW228518   4.545   5.593   2.260
 9207SOL     OW28519   5.058   4.813   6.121
 9207SOL    HW128520   4.965   4.848   6.114
 9207SOL    HW228521   5.097   4.839   6.209
 9208SOL     OW28522   5.909   4.172   4.011
 9208SOL    HW128523   5.986   4.212   4.060
 9208SOL    HW228524   5.933   4.080   3.979
 9209SOL     OW28525   3.354   0.378   6.589
 9209SOL    HW128526   3.345   0.372   6.689
 9209SOL    HW228527   3.342   0.474   6.561
 9210SOL     OW28528   0.290   1.057   3.253
 9210SOL    HW128529   0.196   1.054   3.219
 9210SOL    HW228530   0.346   0.990   3.204
 9211SOL     OW28531   0.622   2.395   4.958
 9211SOL    HW128532   0.706   2.364   4.914
 9211SOL    HW228533   0.545   2.387   4.894
 9212SOL     OW28534   4.947   5.290   4.333
 9212SOL    HW128535   4.933   5.230   4.254
 9212SOL    HW228536   4.915   5.243   4.416
 9213SOL     OW28537   5.199   3.615   5.797
 9213SOL    HW128538   5.259   3.551   5.748
 9213SOL    HW228539   5.180   3.694   5.738
 9214SOL     OW28540   0.216   4.169   6.469
 9214SOL    HW128541   0.123   4.191   6.499
 9214SOL    HW228542   0.246   4.239   6.404
 9215SOL     OW28543   0.749   2.120   1.180
 9215SOL    HW128544   0.832   2.064   1.178
 9215SOL    HW228545   0.774   2.216   1.186
 9216SOL     OW28546   2.543   0.186   2.413
 9216SOL    HW128547   2.576   0.127   2.339
 9216SOL    HW228548   2.443   0.193   2.407
 9217SOL     OW28549   0.833   1.789   0.133
 9217SOL    HW128550   0.902   1.717   0.145
 9217SOL    HW228551   0.755   1.770   0.192
 9218SOL     OW28552   2.671   6.906   0.298
 9218SOL    HW128553   2.758   6.869   0.332
 9218SOL    HW228554   2.628   6.840   0.236
 9219SOL     OW28555   7.010   2.553   1.305
 9219SOL    HW128556   0.072   2.606   1.329
 9219SOL    HW228557   6.927   2.606   1.324
 9220SOL     OW28558   1.839   6.338   0.898
 9220SOL    HW128559   1.885   6.350   0.810
 9220SOL    HW228560   1.827   6.427   0.942
 9221SOL     OW28561   2.824   0.908   3.823
 9221SOL    HW128562   2.802   0.816   3.855
 9221SOL    HW228563   2.921   0.913   3.800
 9222SOL     OW28564   1.867   0.291   6.269
 9222SOL    HW128565   1.962   0.320   6.259
 9222SOL    HW228566   1.807   0.370   6.264
 9223SOL     OW28567   1.280   0.891   3.964
 9223SOL    HW128568   1.219   0.813   3.982
 9223SOL    HW228569   1.353   0.862   3.902
 9224SOL     OW28570   1.999   5.070   4.985
 9224SOL    HW128571   2.005   5.149   5.045
 9224SOL    HW228572   2.002   5.100   4.889
 9225SOL     OW28573   3.330   6.204   6.212
 9225SOL    HW128574   3.234   6.223   6.231
 9225SOL    HW228575   3.345   6.105   6.212
 9226SOL     OW28576   5.914   0.210   1.709
 9226SOL    HW128577   5.817   0.207   1.734
 9226SOL    HW228578   5.925   0.183   1.613
 9227SOL     OW28579   1.073   4.876   1.117
 9227SOL    HW128580   1.146   4.808   1.118
 9227SOL    HW228581   1.079   4.932   1.200
 9228SOL     OW28582   1.546   1.122   5.975
 9228SOL    HW128583   1.446   1.121   5.966
 9228SOL    HW228584   1.575   1.041   6.026
 9229SOL     OW28585   1.010   5.237   4.696
 9229SOL    HW128586   1.085   5.293   4.730
 9229SOL    HW228587   1.018   5.227   4.597
 9230SOL     OW28588   4.933   1.452   3.070
 9230SOL    HW128589   4.845   1.470   3.026
 9230SOL    HW228590   5.000   1.519   3.037
 9231SOL     OW28591   0.661   4.506   4.473
 9231SOL    HW128592   0.751   4.469   4.453
 9231SOL    HW228593   0.620   4.455   4.548
 9232SOL     OW28594   3.719   5.244   6.713
 9232SOL    HW128595   3.802   5.191   6.734
 9232SOL    HW228596   3.745   5.338   6.690
 9233SOL     OW28597   5.422   5.252   2.049
 9233SOL    HW128598   5.343   5.213   2.097
 9233SOL    HW228599   5.394   5.331   1.997
 9234SOL     OW28600   3.600   5.302   5.399
 9234SOL    HW128601   3.602   5.363   5.320
 9234SOL    HW228602   3.558   5.216   5.373
 9235SOL     OW28603   1.539   2.864   3.631
 9235SOL    HW128604   1.591   2.825   3.555
 9235SOL    HW228605   1.464   2.802   3.655
 9236SOL     OW28606   2.959   4.200   5.546
 9236SOL    HW128607   3.035   4.145   5.579
 9236SOL    HW228608   2.983   4.242   5.458
 9237SOL     OW28609   2.130   5.405   4.793
 9237SOL    HW128610   2.189   5.469   4.842
 9237SOL    HW228611   2.051   5.454   4.756
 9238SOL     OW28612   4.028   1.514   6.674
 9238SOL    HW128613   4.116   1.515   6.721
 9238SOL    HW228614   4.007   1.421   6.644
 9239SOL     OW28615   6.862   4.135   0.607
 9239SOL    HW128616   6.962   4.136   0.605
 9239SOL    HW228617   6.827   4.219   0.564
 9240SOL     OW28618   4.929   1.607   0.659
 9240SOL    HW128619   4.961   1.523   0.615
 9240SOL    HW228620   4.956   1.606   0.755
 9241SOL     OW28621   0.222   5.294   5.825
 9241SOL    HW128622   0.227   5.375   5.883
 9241SOL    HW228623   0.289   5.302   5.751
 9242SOL     OW28624   0.106   5.585   0.387
 9242SOL    HW128625   0.186   5.615   0.336
 9242SOL    HW228626   0.128   5.503   0.440
 9243SOL     OW28627   6.032   0.160   2.407
 9243SOL    HW128628   5.998   0.148   2.314
 9243SOL    HW228629   6.110   0.100   2.422
 9244SOL     OW28630   4.837   4.590   6.414
 9244SOL    HW128631   4.880   4.680   6.411
 9244SOL    HW228632   4.835   4.550   6.322
 9245SOL     OW28633   2.275   5.108   3.835
 9245SOL    HW128634   2.296   5.156   3.920
 9245SOL    HW228635   2.273   5.009   3.852
 9246SOL     OW28636   0.198   4.421   2.708
 9246SOL    HW128637   0.285   4.457   2.743
 9246SOL    HW228638   0.123   4.479   2.738
 9247SOL     OW28639   0.648   0.172   3.006
 9247SOL    HW128640   0.688   0.188   2.916
 9247SOL    HW228641   0.684   0.086   3.043
 9248SOL     OW28642   1.696   2.590   5.755
 9248SOL    HW128643   1.674   2.605   5.851
 9248SOL    HW228644   1.786   2.628   5.735
 9249SOL     OW28645   5.036   3.557   6.962
 9249SOL    HW128646   5.028   3.463   6.929
 9249SOL    HW228647   4.988   3.619   6.900
 9250SOL     OW28648   5.288   3.339   4.810
 9250SOL    HW128649   5.338   3.298   4.734
 9250SOL    HW228650   5.230   3.414   4.777
 9251SOL     OW28651   3.887   2.130   2.946
 9251SOL    HW128652   3.839   2.129   2.859
 9251SOL    HW228653   3.870   2.044   2.995
 9252SOL     OW28654   5.675   0.230   4.045
 9252SOL    HW128655   5.734   0.203   3.968
 9252SOL    HW228656   5.716   0.309   4.091
 9253SOL     OW28657   5.826   6.411   5.790
 9253SOL    HW128658   5.821   6.400   5.890
 9253SOL    HW228659   5.845   6.506   5.768
 9254SOL     OW28660   6.721   4.509   2.716
 9254SOL    HW128661   6.764   4.435   2.665
 9254SOL    HW228662   6.627   4.521   2.684
 9255SOL     OW28663   5.192   4.256   0.395
 9255SOL    HW128664   5.182   4.158   0.378
 9255SOL    HW228665   5.288   4.281   0.388
 9256SOL     OW28666   3.632   5.897   2.508
 9256SOL    HW128667   3.575   5.893   2.590
 9256SOL    HW228668   3.681   5.811   2.497
 9257SOL     OW28669   0.593   3.580   2.852
 9257SOL    HW128670   0.577   3.490   2.893
 9257SOL    HW228671   0.506   3.621   2.827
 9258SOL     OW28672   3.289   2.951   3.350
 9258SOL    HW128673   3.313   2.912   3.261
 9258SOL    HW228674   3.369   2.995   3.390
 9259SOL     OW28675   0.955   1.725   0.498
 9259SOL    HW128676   0.897   1.663   0.445
 9259SOL    HW228677   0.949   1.817   0.460
 9260SOL     OW28678   4.933   1.704   5.581
 9260SOL    HW128679   5.014   1.646   5.570
 9260SOL    HW228680   4.961   1.798   5.599
 9261SOL     OW28681   5.084   0.696   6.345
 9261SOL    HW128682   5.156   0.737   6.401
 9261SOL    HW228683   5.042   0.767   6.288
 9262SOL     OW28684   6.533   3.048   5.413
 9262SOL    HW128685   6.457   2.989   5.438
 9262SOL    HW228686   6.614   3.022   5.464
 9263SOL     OW28687   5.727   4.805   1.581
 9263SOL    HW128688   5.800   4.754   1.536
 9263SOL    HW228689   5.678   4.744   1.644
 9264SOL     OW28690   5.474   4.263   0.381
 9264SOL    HW128691   5.497   4.168   0.401
 9264SOL    HW228692   5.499   4.321   0.459
 9265SOL     OW28693   2.709   1.837   6.669
 9265SOL    HW128694   2.772   1.762   6.689
 9265SOL    HW228695   2.703   1.850   6.570
 9266SOL     OW28696   2.205   6.541   2.239
 9266SOL    HW128697   2.137   6.611   2.217
 9266SOL    HW228698   2.294   6.584   2.251
 9267SOL     OW28699   0.007   4.113   5.862
 9267SOL    HW128700   0.072   4.175   5.905
 9267SOL    HW228701   6.950   4.165   5.824
 9268SOL     OW28702   1.880   4.880   1.275
 9268SOL    HW128703   1.949   4.910   1.340
 9268SOL    HW228704   1.923   4.854   1.189
 9269SOL     OW28705   3.195   2.152   5.911
 9269SOL    HW128706   3.174   2.065   5.866
 9269SOL    HW228707   3.184   2.142   6.010
 9270SOL     OW28708   5.070   6.936   5.939
 9270SOL    HW128709   5.116   7.011   5.986
 9270SOL    HW228710   4.976   6.927   5.975
 9271SOL     OW28711   1.640   5.547   0.051
 9271SOL    HW128712   1.720   5.492   0.025
 9271SOL    HW228713   1.631   5.625   7.007
 9272SOL     OW28714   2.158   5.643   6.052
 9272SOL    HW128715   2.150   5.590   5.968
 9272SOL    HW228716   2.252   5.637   6.086
 9273SOL     OW28717   5.505   6.045   3.869
 9273SOL    HW128718   5.570   6.110   3.830
 9273SOL    HW228719   5.553   5.962   3.895
 9274SOL     OW28720   6.443   2.755   0.178
 9274SOL    HW128721   6.390   2.734   0.260
 9274SOL    HW228722   6.533   2.713   0.185
 9275SOL     OW28723   6.798   2.209   0.123
 9275SOL    HW128724   6.810   2.200   0.024
 9275SOL    HW228725   6.851   2.139   0.170
 9276SOL     OW28726   3.014   4.817   3.809
 9276SOL    HW128727   3.085   4.857   3.867
 9276SOL    HW228728   2.942   4.777   3.866
 9277SOL     OW28729   5.012   3.531   0.512
 9277SOL    HW128730   5.047   3.609   0.564
 9277SOL    HW228731   5.024   3.549   0.414
 9278SOL     OW28732   1.085   0.773   4.677
 9278SOL    HW128733   0.985   0.777   4.675
 9278SOL    HW228734   1.120   0.775   4.583
 9279SOL     OW28735   4.329   0.892   1.342
 9279SOL    HW128736   4.377   0.975   1.372
 9279SOL    HW228737   4.371   0.857   1.259
 9280SOL     OW28738   1.455   0.659   2.998
 9280SOL    HW128739   1.524   0.611   3.053
 9280SOL    HW228740   1.420   0.737   3.049
 9281SOL     OW28741   3.207   4.273   1.307
 9281SOL    HW128742   3.163   4.257   1.396
 9281SOL    HW228743   3.205   4.188   1.253
 9282SOL     OW28744   4.845   1.822   5.082
 9282SOL    HW128745   4.786   1.747   5.052
 9282SOL    HW228746   4.789   1.902   5.103
 9283SOL     OW28747   5.419   0.340   4.057
 9283SOL    HW128748   5.368   0.256   4.040
 9283SOL    HW228749   5.517   0.321   4.054
 9284SOL     OW28750   3.292   4.909   5.869
 9284SOL    HW128751   3.240   4.832   5.832
 9284SOL    HW228752   3.383   4.910   5.829
 9285SOL     OW28753   5.081   3.249   0.933
 9285SOL    HW128754   5.106   3.169   0.879
 9285SOL    HW228755   5.043   3.220   1.021
 9286SOL     OW28756   5.434   0.228   6.308
 9286SOL    HW128757   5.531   0.204   6.310
 9286SOL    HW228758   5.404   0.235   6.213
 9287SOL     OW28759   3.240   5.210   0.462
 9287SOL    HW128760   3.273   5.292   0.510
 9287SOL    HW228761   3.215   5.140   0.529
 9288SOL     OW28762   3.602   1.067   5.092
 9288SOL    HW128763   3.523   1.040   5.036
 9288SOL    HW228764   3.578   1.063   5.188
 9289SOL     OW28765   3.148   1.871   2.684
 9289SOL    HW128766   3.081   1.807   2.722
 9289SOL    HW228767   3.153   1.858   2.585
 9290SOL     OW28768   5.103   1.989   3.553
 9290SOL    HW128769   5.081   1.974   3.649
 9290SOL    HW228770   5.029   2.038   3.509
 9291SOL     OW28771   2.449   6.903   4.986
 9291SOL    HW128772   2.469   6.865   4.895
 9291SOL    HW228773   2.483   6.842   5.056
 9292SOL     OW28774   0.459   2.839   6.567
 9292SOL    HW128775   0.519   2.907   6.523
 9292SOL    HW228776   0.386   2.813   6.505
 9293SOL     OW28777   6.261   4.205   0.303
 9293SOL    HW128778   6.282   4.205   0.205
 9293SOL    HW228779   6.222   4.117   0.328
 9294SOL     OW28780   3.768   6.708   5.220
 9294SOL    HW128781   3.676   6.717   5.259
 9294SOL    HW228782   3.792   6.791   5.171
 9295SOL     OW28783   5.239   2.452   4.197
 9295SOL    HW128784   5.154   2.471   4.148
 9295SOL    HW228785   5.270   2.359   4.176
 9296SOL     OW28786   0.402   6.624   6.208
 9296SOL    HW128787   0.474   6.638   6.140
 9296SOL    HW228788   0.393   6.705   6.265
 9297SOL     OW28789   6.515   1.024   0.587
 9297SOL    HW128790   6.482   0.933   0.611
 9297SOL    HW228791   6.557   1.022   0.497
 9298SOL     OW28792   1.535   0.472   4.749
 9298SOL    HW128793   1.624   0.506   4.718
 9298SOL    HW228794   1.466   0.544   4.738
 9299SOL     OW28795   0.964   2.696   4.827
 9299SOL    HW128796   0.901   2.757   4.778
 9299SOL    HW228797   0.949   2.706   4.925
 9300SOL     OW28798   6.903   4.811   4.789
 9300SOL    HW128799   7.000   4.789   4.789
 9300SOL    HW228800   6.849   4.727   4.791
 9301SOL     OW28801   4.754   4.431   3.614
 9301SOL    HW128802   4.707   4.505   3.662
 9301SOL    HW228803   4.770   4.458   3.519
 9302SOL     OW28804   2.020   3.431   4.380
 9302SOL    HW128805   2.070   3.453   4.463
 9302SOL    HW228806   2.023   3.332   4.365
 9303SOL     OW28807   4.076   6.046   0.549
 9303SOL    HW128808   4.000   6.091   0.502
 9303SOL    HW228809   4.162   6.082   0.514
 9304SOL     OW28810   4.818   4.172   0.943
 9304SOL    HW128811   4.821   4.180   0.844
 9304SOL    HW228812   4.845   4.260   0.984
 9305SOL     OW28813   3.524   1.153   2.188
 9305SOL    HW128814   3.427   1.177   2.189
 9305SOL    HW228815   3.577   1.224   2.234
 9306SOL     OW28816   0.576   4.302   5.206
 9306SOL    HW128817   0.660   4.255   5.234
 9306SOL    HW228818   0.525   4.244   5.143
 9307SOL     OW28819   1.152   3.318   1.426
 9307SOL    HW128820   1.070   3.322   1.368
 9307SOL    HW228821   1.230   3.356   1.376
 9308SOL     OW28822   1.394   4.265   1.168
 9308SOL    HW128823   1.471   4.213   1.205
 9308SOL    HW228824   1.377   4.345   1.225
 9309SOL     OW28825   3.586   5.092   5.663
 9309SOL    HW128826   3.534   5.095   5.577
 9309SOL    HW228827   3.581   4.999   5.700
 9310SOL     OW28828   4.787   4.926   6.113
 9310SOL    HW128829   4.716   4.931   6.043
 9310SOL    HW228830   4.783   5.007   6.171
 9311SOL     OW28831   5.106   5.005   1.857
 9311SOL    HW128832   5.155   5.015   1.943
 9311SOL    HW228833   5.017   4.963   1.874
 9312SOL     OW28834   1.237   3.654   1.843
 9312SOL    HW128835   1.143   3.665   1.811
 9312SOL    HW228836   1.252   3.560   1.872
 9313SOL     OW28837   6.641   0.730   1.124
 9313SOL    HW128838   6.576   0.784   1.178
 9313SOL    HW228839   6.673   0.783   1.046
 9314SOL     OW28840   4.370   5.864   6.196
 9314SOL    HW128841   4.308   5.913   6.135
 9314SOL    HW228842   4.395   5.777   6.154
 9315SOL     OW28843   6.543   0.863   5.273
 9315SOL    HW128844   6.601   0.903   5.202
 9315SOL    HW228845   6.468   0.925   5.294
 9316SOL     OW28846   4.309   5.608   5.462
 9316SOL    HW128847   4.396   5.558   5.471
 9316SOL    HW228848   4.263   5.577   5.379
 9317SOL     OW28849   6.784   5.209   3.175
 9317SOL    HW128850   6.815   5.119   3.206
 9317SOL    HW228851   6.802   5.276   3.246
 9318SOL     OW28852   6.449   0.664   5.417
 9318SOL    HW128853   6.493   0.744   5.377
 9318SOL    HW228854   6.409   0.689   5.505
 9319SOL     OW28855   0.979   2.598   6.651
 9319SOL    HW128856   1.066   2.548   6.647
 9319SOL    HW228857   0.962   2.628   6.745
 9320SOL     OW28858   3.738   1.119   6.406
 9320SOL    HW128859   3.648   1.150   6.436
 9320SOL    HW228860   3.782   1.191   6.353
 9321SOL     OW28861   6.382   0.442   3.160
 9321SOL    HW128862   6.331   0.388   3.094
 9321SOL    HW228863   6.466   0.477   3.118
 9322SOL     OW28864   0.554   5.142   6.492
 9322SOL    HW128865   0.505   5.054   6.491
 9322SOL    HW228866   0.639   5.131   6.543
 9323SOL     OW28867   1.619   7.000   5.343
 9323SOL    HW128868   1.543   0.001   5.282
 9323SOL    HW228869   1.596   0.009   5.437
 9324SOL     OW28870   1.956   4.829   0.488
 9324SOL    HW128871   2.036   4.841   0.547
 9324SOL    HW228872   1.909   4.916   0.478
 9325SOL     OW28873   5.138   0.953   6.679
 9325SOL    HW128874   5.191   0.907   6.608
 9325SOL    HW228875   5.119   0.889   6.754
 9326SOL     OW28876   1.843   6.637   0.993
 9326SOL    HW128877   1.794   6.662   1.077
 9326SOL    HW228878   1.926   6.692   0.986
 9327SOL     OW28879   5.016   7.012   3.013
 9327SOL    HW128880   5.012   7.012   2.913
 9327SOL    HW228881   5.066   0.074   3.044
 9328SOL     OW28882   3.513   1.319   5.876
 9328SOL    HW128883   3.587   1.274   5.826
 9328SOL    HW228884   3.429   1.267   5.864
 9329SOL     OW28885   6.412   4.103   2.209
 9329SOL    HW128886   6.394   4.033   2.278
 9329SOL    HW228887   6.507   4.133   2.215
 9330SOL     OW28888   0.202   6.577   6.901
 9330SOL    HW128889   0.235   6.500   6.847
 9330SOL    HW228890   0.103   6.570   6.913
 9331SOL     OW28891   1.173   1.656   6.253
 9331SOL    HW128892   1.260   1.646   6.301
 9331SOL    HW228893   1.101   1.608   6.304
 9332SOL     OW28894   3.852   3.641   2.355
 9332SOL    HW128895   3.952   3.645   2.357
 9332SOL    HW228896   3.815   3.733   2.373
 9333SOL     OW28897   4.166   3.848   1.357
 9333SOL    HW128898   4.130   3.928   1.404
 9333SOL    HW228899   4.179   3.869   1.260
 9334SOL     OW28900   4.549   5.906   3.782
 9334SOL    HW128901   4.554   5.822   3.728
 9334SOL    HW228902   4.584   5.982   3.728
 9335SOL     OW28903   0.700   1.513   6.237
 9335SOL    HW128904   0.654   1.436   6.283
 9335SOL    HW228905   0.645   1.596   6.247
 9336SOL     OW28906   2.919   5.237   5.563
 9336SOL    HW128907   2.965   5.229   5.652
 9336SOL    HW228908   2.943   5.159   5.506
 9337SOL     OW28909   4.722   1.117   3.456
 9337SOL    HW128910   4.718   1.127   3.556
 9337SOL    HW228911   4.669   1.191   3.414
 9338SOL     OW28912   3.851   0.625   1.843
 9338SOL    HW128913   3.868   0.557   1.772
 9338SOL    HW228914   3.799   0.582   1.917
 9339SOL     OW28915   5.475   6.866   1.166
 9339SOL    HW128916   5.563   6.901   1.132
 9339SOL    HW228917   5.411   6.857   1.090
 9340SOL     OW28918   5.997   3.665   4.731
 9340SOL    HW128919   5.928   3.726   4.695
 9340SOL    HW228920   6.080   3.671   4.675
 9341SOL     OW28921   0.228   6.029   6.779
 9341SOL    HW128922   0.144   6.016   6.726
 9341SOL    HW228923   0.296   5.962   6.751
 9342SOL     OW28924   1.992   0.359   3.716
 9342SOL    HW128925   1.914   0.342   3.655
 9342SOL    HW228926   1.958   0.386   3.806
 9343SOL     OW28927   6.203   4.455   3.223
 9343SOL    HW128928   6.174   4.405   3.142
 9343SOL    HW228929   6.123   4.497   3.266
 9344SOL     OW28930   4.629   6.329   1.653
 9344SOL    HW128931   4.600   6.313   1.748
 9344SOL    HW228932   4.717   6.282   1.638
 9345SOL     OW28933   6.539   4.425   2.282
 9345SOL    HW128934   6.467   4.431   2.213
 9345SOL    HW228935   6.591   4.340   2.269
 9346SOL     OW28936   5.866   0.765   0.977
 9346SOL    HW128937   5.853   0.738   1.073
 9346SOL    HW228938   5.852   0.864   0.969
 9347SOL     OW28939   1.240   4.655   1.105
 9347SOL    HW128940   1.166   4.588   1.108
 9347SOL    HW228941   1.288   4.647   1.017
 9348SOL     OW28942   3.948   5.677   1.959
 9348SOL    HW128943   3.972   5.667   1.863
 9348SOL    HW228944   3.857   5.640   1.975
 9349SOL     OW28945   1.170   6.367   2.500
 9349SOL    HW128946   1.267   6.343   2.510
 9349SOL    HW228947   1.131   6.315   2.424
 9350SOL     OW28948   0.672   3.621   5.332
 9350SOL    HW128949   0.655   3.577   5.421
 9350SOL    HW228950   0.638   3.715   5.335
 9351SOL     OW28951   2.958   0.583   6.279
 9351SOL    HW128952   3.040   0.640   6.266
 9351SOL    HW228953   2.961   0.543   6.370
 9352SOL     OW28954   2.793   2.639   6.715
 9352SOL    HW128955   2.753   2.630   6.624
 9352SOL    HW228956   2.837   2.553   6.741
 9353SOL     OW28957   0.643   5.326   0.720
 9353SOL    HW128958   0.569   5.266   0.749
 9353SOL    HW228959   0.665   5.309   0.624
 9354SOL     OW28960   6.348   1.868   6.699
 9354SOL    HW128961   6.352   1.956   6.651
 9354SOL    HW228962   6.253   1.842   6.713
 9355SOL     OW28963   0.431   2.055   5.047
 9355SOL    HW128964   0.444   1.958   5.026
 9355SOL    HW228965   0.418   2.066   5.145
 9356SOL     OW28966   3.983   0.398   1.246
 9356SOL    HW128967   3.988   0.305   1.209
 9356SOL    HW228968   3.972   0.463   1.170
 9357SOL     OW28969   1.009   3.394   6.324
 9357SOL    HW128970   1.076   3.466   6.304
 9357SOL    HW228971   1.029   3.355   6.414
 9358SOL     OW28972   0.076   3.904   2.378
 9358SOL    HW128973   0.164   3.901   2.425
 9358SOL    HW228974   0.031   3.816   2.387
 9359SOL     OW28975   1.453   4.523   6.767
 9359SOL    HW128976   1.415   4.510   6.675
 9359SOL    HW228977   1.379   4.551   6.828
 9360SOL     OW28978   1.543   5.809   6.049
 9360SOL    HW128979   1.567   5.731   6.107
 9360SOL    HW228980   1.463   5.855   6.087
 9361SOL     OW28981   2.059   5.459   3.496
 9361SOL    HW128982   2.055   5.379   3.436
 9361SOL    HW228983   2.151   5.497   3.495
 9362SOL     OW28984   1.464   1.485   2.996
 9362SOL    HW128985   1.498   1.429   2.921
 9362SOL    HW228986   1.541   1.524   3.046
 9363SOL     OW28987   3.954   5.156   1.314
 9363SOL    HW128988   3.938   5.081   1.249
 9363SOL    HW228989   4.000   5.231   1.268
 9364SOL     OW28990   2.063   1.418   1.006
 9364SOL    HW128991   2.042   1.399   0.910
 9364SOL    HW228992   2.027   1.345   1.063
 9365SOL     OW28993   3.228   1.856   3.520
 9365SOL    HW128994   3.299   1.925   3.507
 9365SOL    HW228995   3.160   1.864   3.446
 9366SOL     OW28996   3.035   5.751   0.152
 9366SOL    HW128997   3.067   5.661   0.121
 9366SOL    HW228998   3.111   5.799   0.197
 9367SOL     OW28999   6.125   0.506   1.692
 9367SOL    HW129000   6.118   0.444   1.771
 9367SOL    HW229001   6.102   0.599   1.721
 9368SOL     OW29002   3.795   6.903   2.144
 9368SOL    HW129003   3.802   6.932   2.048
 9368SOL    HW229004   3.879   6.856   2.171
 9369SOL     OW29005   0.269   5.862   5.292
 9369SOL    HW129006   0.244   5.800   5.218
 9369SOL    HW229007   0.364   5.846   5.319
 9370SOL     OW29008   5.032   0.921   3.836
 9370SOL    HW129009   5.108   0.905   3.899
 9370SOL    HW229010   5.067   0.947   3.746
 9371SOL     OW29011   2.676   5.703   1.068
 9371SOL    HW129012   2.586   5.730   1.034
 9371SOL    HW229013   2.704   5.765   1.141
 9372SOL     OW29014   4.663   6.936   1.997
 9372SOL    HW129015   4.619   0.007   2.000
 9372SOL    HW229016   4.609   6.870   2.049
 9373SOL     OW29017   5.828   2.248   0.578
 9373SOL    HW129018   5.901   2.187   0.547
 9373SOL    HW229019   5.866   2.318   0.639
 9374SOL     OW29020   6.846   3.566   5.815
 9374SOL    HW129021   6.828   3.468   5.814
 9374SOL    HW229022   6.866   3.596   5.909
 9375SOL     OW29023   6.801   2.042   1.115
 9375SOL    HW129024   6.844   1.999   1.035
 9375SOL    HW229025   6.871   2.066   1.182
 9376SOL     OW29026   2.085   3.347   1.839
 9376SOL    HW129027   2.072   3.401   1.756
 9376SOL    HW229028   2.150   3.393   1.899
 9377SOL     OW29029   2.826   5.302   3.076
 9377SOL    HW129030   2.856   5.396   3.092
 9377SOL    HW229031   2.726   5.298   3.081
 9378SOL     OW29032   3.304   1.325   3.894
 9378SOL    HW129033   3.316   1.388   3.971
 9378SOL    HW229034   3.211   1.332   3.859
 9379SOL     OW29035   4.725   0.239   4.742
 9379SOL    HW129036   4.796   0.303   4.713
 9379SOL    HW229037   4.653   0.290   4.791
 9380SOL     OW29038   3.513   5.916   5.855
 9380SOL    HW129039   3.562   5.835   5.886
 9380SOL    HW229040   3.416   5.908   5.880
 9381SOL     OW29041   5.350   2.599   4.873
 9381SOL    HW129042   5.294   2.656   4.933
 9381SOL    HW229043   5.343   2.503   4.901
 9382SOL     OW29044   4.031   0.783   4.099
 9382SOL    HW129045   4.109   0.787   4.161
 9382SOL    HW229046   4.063   0.794   4.005
 9383SOL     OW29047   4.854   4.606   4.187
 9383SOL    HW129048   4.837   4.702   4.210
 9383SOL    HW229049   4.950   4.585   4.206
 9384SOL     OW29050   2.602   6.954   2.283
 9384SOL    HW129051   2.625   6.888   2.354
 9384SOL    HW229052   2.589   6.906   2.196
 9385SOL     OW29053   3.947   1.651   4.011
 9385SOL    HW129054   3.875   1.582   4.021
 9385SOL    HW229055   3.911   1.730   3.962
 9386SOL     OW29056   3.141   5.701   5.199
 9386SOL    HW129057   3.079   5.723   5.274
 9386SOL    HW229058   3.101   5.629   5.143
 9387SOL     OW29059   3.852   2.215   0.055
 9387SOL    HW129060   3.889   2.189   0.144
 9387SOL    HW229061   3.753   2.227   0.063
 9388SOL     OW29062   1.656   6.653   3.748
 9388SOL    HW129063   1.590   6.620   3.681
 9388SOL    HW229064   1.746   6.660   3.706
 9389SOL     OW29065   3.359   5.548   1.958
 9389SOL    HW129066   3.426   5.491   1.910
 9389SOL    HW229067   3.331   5.624   1.900
 9390SOL     OW29068   5.737   4.434   5.864
 9390SOL    HW129069   5.775   4.428   5.772
 9390SOL    HW229070   5.777   4.362   5.922
 9391SOL     OW29071   0.712   0.202   4.658
 9391SOL    HW129072   0.763   0.125   4.619
 9391SOL    HW229073   0.616   0.177   4.667
 9392SOL     OW29074   4.936   4.556   3.860
 9392SOL    HW129075   4.927   4.476   3.919
 9392SOL    HW229076   4.961   4.526   3.767
 9393SOL     OW29077   3.035   6.432   6.203
 9393SOL    HW129078   3.042   6.366   6.128
 9393SOL    HW229079   2.938   6.450   6.221
 9394SOL     OW29080   5.924   0.646   1.251
 9394SOL    HW129081   6.021   0.666   1.267
 9394SOL    HW229082   5.875   0.647   1.339
 9395SOL     OW29083   2.565   1.424   0.650
 9395SOL    HW129084   2.642   1.377   0.692
 9395SOL    HW229085   2.542   1.505   0.704
 9396SOL     OW29086   1.943   5.573   5.343
 9396SOL    HW129087   1.899   5.507   5.404
 9396SOL    HW229088   1.951   5.661   5.389
 9397SOL     OW29089   3.328   6.513   5.857
 9397SOL    HW129090   3.367   6.431   5.898
 9397SOL    HW229091   3.350   6.516   5.760
 9398SOL     OW29092   6.397   1.374   5.855
 9398SOL    HW129093   6.441   1.460   5.881
 9398SOL    HW229094   6.455   1.298   5.885
 9399SOL     OW29095   1.160   2.305   4.352
 9399SOL    HW129096   1.201   2.233   4.295
 9399SOL    HW229097   1.131   2.267   4.439
 9400SOL     OW29098   4.829   0.712   0.261
 9400SOL    HW129099   4.811   0.659   0.343
 9400SOL    HW229100   4.759   0.782   0.250
 9401SOL     OW29101   6.987   2.657   1.728
 9401SOL    HW129102   0.026   2.589   1.684
 9401SOL    HW229103   0.022   2.738   1.751
 9402SOL     OW29104   1.903   5.410   3.814
 9402SOL    HW129105   1.940   5.503   3.804
 9402SOL    HW229106   1.965   5.345   3.771
 9403SOL     OW29107   0.026   1.213   2.380
 9403SOL    HW129108   0.108   1.221   2.323
 9403SOL    HW229109   6.965   1.200   2.321
 9404SOL     OW29110   0.643   3.073   1.387
 9404SOL    HW129111   0.604   2.981   1.385
 9404SOL    HW229112   0.698   3.087   1.305
 9405SOL     OW29113   0.672   4.684   4.805
 9405SOL    HW129114   0.588   4.701   4.856
 9405SOL    HW229115   0.660   4.714   4.710
 9406SOL     OW29116   0.870   3.033   6.754
 9406SOL    HW129117   0.919   3.118   6.770
 9406SOL    HW229118   0.921   2.977   6.689
 9407SOL     OW29119   2.627   5.100   5.133
 9407SOL    HW129120   2.713   5.064   5.169
 9407SOL    HW229121   2.590   5.036   5.065
 9408SOL     OW29122   6.874   3.198   5.504
 9408SOL    HW129123   6.962   3.177   5.462
 9408SOL    HW229124   6.853   3.295   5.491
 9409SOL     OW29125   6.447   5.745   2.031
 9409SOL    HW129126   6.512   5.671   2.049
 9409SOL    HW229127   6.461   5.818   2.099
 9410SOL     OW29128   4.631   1.096   2.013
 9410SOL    HW129129   4.714   1.085   2.068
 9410SOL    HW229130   4.564   1.151   2.064
 9411SOL     OW29131   3.092   3.094   3.194
 9411SOL    HW129132   3.096   3.082   3.095
 9411SOL    HW229133   3.182   3.077   3.234
 9412SOL     OW29134   0.821   0.511   0.905
 9412SOL    HW129135   0.756   0.587   0.894
 9412SOL    HW229136   0.771   0.424   0.897
 9413SOL     OW29137   4.719   4.716   4.797
 9413SOL    HW129138   4.702   4.775   4.876
 9413SOL    HW229139   4.680   4.625   4.814
 9414SOL     OW29140   2.432   2.245   4.855
 9414SOL    HW129141   2.377   2.282   4.780
 9414SOL    HW229142   2.524   2.284   4.850
 9415SOL     OW29143   2.781   0.478   1.988
 9415SOL    HW129144   2.782   0.431   1.899
 9415SOL    HW229145   2.861   0.451   2.041
 9416SOL     OW29146   0.342   0.243   5.478
 9416SOL    HW129147   0.262   0.289   5.440
 9416SOL    HW229148   0.411   0.234   5.406
 9417SOL     OW29149   3.410   6.368   1.756
 9417SOL    HW129150   3.489   6.403   1.706
 9417SOL    HW229151   3.432   6.281   1.799
 9418SOL     OW29152   3.057   1.374   3.797
 9418SOL    HW129153   2.971   1.387   3.846
 9418SOL    HW229154   3.076   1.454   3.741
 9419SOL     OW29155   2.174   2.572   6.139
 9419SOL    HW129156   2.183   2.527   6.228
 9419SOL    HW229157   2.146   2.667   6.152
 9420SOL     OW29158   5.822   4.361   0.831
 9420SOL    HW129159   5.829   4.450   0.876
 9420SOL    HW229160   5.874   4.362   0.746
 9421SOL     OW29161   3.715   5.918   4.895
 9421SOL    HW129162   3.618   5.898   4.903
 9421SOL    HW229163   3.763   5.838   4.859
 9422SOL     OW29164   2.620   6.238   4.015
 9422SOL    HW129165   2.534   6.188   4.004
 9422SOL    HW229166   2.688   6.179   4.057
 9423SOL     OW29167   3.907   5.470   3.073
 9423SOL    HW129168   3.870   5.563   3.069
 9423SOL    HW229169   3.872   5.425   3.155
 9424SOL     OW29170   5.047   1.783   4.560
 9424SOL    HW129171   5.056   1.693   4.603
 9424SOL    HW229172   5.093   1.852   4.617
 9425SOL     OW29173   5.924   4.710   1.390
 9425SOL    HW129174   5.983   4.782   1.355
 9425SOL    HW229175   5.872   4.669   1.315
 9426SOL     OW29176   0.895   2.128   6.631
 9426SOL    HW129177   0.887   2.175   6.719
 9426SOL    HW229178   0.827   2.164   6.567
 9427SOL     OW29179   3.019   5.703   2.821
 9427SOL    HW129180   2.923   5.730   2.830
 9427SOL    HW229181   3.045   5.645   2.898
 9428SOL     OW29182   6.221   6.197   0.611
 9428SOL    HW129183   6.313   6.230   0.588
 9428SOL    HW229184   6.217   6.098   0.597
 9429SOL     OW29185   1.579   2.261   4.288
 9429SOL    HW129186   1.542   2.251   4.196
 9429SOL    HW229187   1.671   2.223   4.291
 9430SOL     OW29188   0.415   2.131   4.603
 9430SOL    HW129189   0.447   2.043   4.639
 9430SOL    HW229190   0.317   2.140   4.619
 9431SOL     OW29191   0.096   4.397   0.903
 9431SOL    HW129192   0.000   4.384   0.876
 9431SOL    HW229193   0.102   4.402   1.002
 9432SOL     OW29194   6.695   1.243   3.904
 9432SOL    HW129195   6.725   1.173   3.968
 9432SOL    HW229196   6.772   1.272   3.848
 9433SOL     OW29197   4.219   5.696   2.693
 9433SOL    HW129198   4.183   5.636   2.765
 9433SOL    HW229199   4.290   5.648   2.642
 9434SOL     OW29200   5.577   5.583   3.993
 9434SOL    HW129201   5.586   5.671   3.947
 9434SOL    HW229202   5.579   5.509   3.926
 9435SOL     OW29203   0.314   2.679   2.340
 9435SOL    HW129204   0.306   2.773   2.373
 9435SOL    HW229205   0.331   2.618   2.418
 9436SOL     OW29206   0.968   1.229   2.206
 9436SOL    HW129207   1.055   1.180   2.208
 9436SOL    HW229208   0.984   1.326   2.221
 9437SOL     OW29209   0.551   5.511   3.216
 9437SOL    HW129210   0.588   5.461   3.294
 9437SOL    HW229211   0.615   5.584   3.190
 9438SOL     OW29212   2.394   6.689   1.396
 9438SOL    HW129213   2.320   6.691   1.464
 9438SOL    HW229214   2.431   6.597   1.390
 9439SOL     OW29215   0.828   3.079   0.754
 9439SOL    HW129216   0.744   3.132   0.761
 9439SOL    HW229217   0.906   3.136   0.781
 9440SOL     OW29218   3.108   4.992   3.633
 9440SOL    HW129219   3.108   5.076   3.687
 9440SOL    HW229220   3.055   4.922   3.681
 9441SOL     OW29221   6.617   5.765   5.034
 9441SOL    HW129222   6.580   5.852   5.002
 9441SOL    HW229223   6.543   5.699   5.044
 9442SOL     OW29224   4.892   3.519   1.027
 9442SOL    HW129225   4.861   3.454   1.096
 9442SOL    HW229226   4.903   3.473   0.939
 9443SOL     OW29227   3.217   5.329   1.375
 9443SOL    HW129228   3.166   5.280   1.304
 9443SOL    HW229229   3.168   5.413   1.398
 9444SOL     OW29230   2.006   3.608   0.857
 9444SOL    HW129231   2.043   3.691   0.815
 9444SOL    HW229232   2.076   3.536   0.856
 9445SOL     OW29233   0.751   2.003   4.321
 9445SOL    HW129234   0.767   2.094   4.283
 9445SOL    HW229235   0.784   1.999   4.416
 9446SOL     OW29236   6.272   5.118   3.842
 9446SOL    HW129237   6.337   5.193   3.832
 9446SOL    HW229238   6.233   5.119   3.934
 9447SOL     OW29239   5.130   5.605   3.011
 9447SOL    HW129240   5.103   5.512   2.987
 9447SOL    HW229241   5.229   5.610   3.020
 9448SOL     OW29242   5.850   6.883   5.599
 9448SOL    HW129243   5.924   6.924   5.545
 9448SOL    HW229244   5.770   6.944   5.597
 9449SOL     OW29245   5.296   6.601   7.016
 9449SOL    HW129246   5.236   6.568   6.943
 9449SOL    HW229247   5.271   6.694   0.022
 9450SOL     OW29248   1.650   5.749   4.260
 9450SOL    HW129249   1.617   5.665   4.216
 9450SOL    HW229250   1.594   5.768   4.341
 9451SOL     OW29251   3.380   5.616   6.320
 9451SOL    HW129252   3.402   5.700   6.370
 9451SOL    HW229253   3.400   5.629   6.223
 9452SOL     OW29254   0.741   4.310   0.988
 9452SOL    HW129255   0.796   4.231   0.959
 9452SOL    HW229256   0.652   4.308   0.942
 9453SOL     OW29257   3.214   5.107   3.219
 9453SOL    HW129258   3.283   5.035   3.228
 9453SOL    HW229259   3.125   5.066   3.199
 9454SOL     OW29260   4.659   4.297   1.220
 9454SOL    HW129261   4.588   4.237   1.185
 9454SOL    HW229262   4.743   4.244   1.236
 9455SOL     OW29263   2.936   2.227   2.439
 9455SOL    HW129264   2.992   2.209   2.359
 9455SOL    HW229265   2.982   2.193   2.521
 9456SOL     OW29266   6.353   3.524   2.401
 9456SOL    HW129267   6.294   3.555   2.327
 9456SOL    HW229268   6.316   3.555   2.488
 9457SOL     OW29269   1.441   5.110   4.668
 9457SOL    HW129270   1.441   5.081   4.763
 9457SOL    HW229271   1.421   5.208   4.663
 9458SOL     OW29272   6.742   4.359   0.531
 9458SOL    HW129273   6.773   4.359   0.436
 9458SOL    HW229274   6.650   4.396   0.536
 9459SOL     OW29275   5.116   4.300   4.662
 9459SOL    HW129276   5.062   4.346   4.732
 9459SOL    HW229277   5.116   4.354   4.578
 9460SOL     OW29278   1.584   3.388   4.271
 9460SOL    HW129279   1.628   3.314   4.220
 9460SOL    HW229280   1.502   3.354   4.316
 9461SOL     OW29281   1.242   1.832   1.626
 9461SOL    HW129282   1.203   1.864   1.711
 9461SOL    HW229283   1.342   1.825   1.635
 9462SOL     OW29284   1.632   2.132   3.803
 9462SOL    HW129285   1.706   2.071   3.830
 9462SOL    HW229286   1.669   2.208   3.751
 9463SOL     OW29287   5.516   6.495   1.434
 9463SOL    HW129288   5.463   6.579   1.443
 9463SOL    HW229289   5.488   6.446   1.351
 9464SOL     OW29290   6.417   0.572   1.525
 9464SOL    HW129291   6.401   0.474   1.510
 9464SOL    HW229292   6.345   0.624   1.480
 9465SOL     OW29293   0.276   4.041   1.538
 9465SOL    HW129294   0.206   3.971   1.552
 9465SOL    HW229295   0.242   4.129   1.571
 9466SOL     OW29296   3.844   5.825   6.440
 9466SOL    HW129297   3.944   5.830   6.445
 9466SOL    HW229298   3.817   5.738   6.400
 9467SOL     OW29299   2.061   2.799   0.725
 9467SOL    HW129300   2.015   2.864   0.665
 9467SOL    HW229301   2.008   2.714   0.729
 9468SOL     OW29302   0.064   3.656   6.820
 9468SOL    HW129303   0.015   3.585   6.871
 9468SOL    HW229304   0.028   3.661   6.727
 9469SOL     OW29305   0.113   5.940   0.204
 9469SOL    HW129306   0.149   6.033   0.211
 9469SOL    HW229307   0.091   5.919   0.108
 9470SOL     OW29308   4.655   3.873   0.122
 9470SOL    HW129309   4.721   3.931   0.073
 9470SOL    HW229310   4.598   3.929   0.180
 9471SOL     OW29311   6.262   2.329   4.950
 9471SOL    HW129312   6.254   2.239   4.909
 9471SOL    HW229313   6.188   2.388   4.916
 9472SOL     OW29314   1.119   4.685   6.221
 9472SOL    HW129315   1.142   4.594   6.189
 9472SOL    HW229316   1.029   4.711   6.185
 9473SOL     OW29317   2.899   4.006   6.903
 9473SOL    HW129318   2.844   3.980   6.982
 9473SOL    HW229319   2.845   4.063   6.841
 9474SOL     OW29320   5.864   3.802   1.837
 9474SOL    HW129321   5.909   3.821   1.750
 9474SOL    HW229322   5.924   3.830   1.913
 9475SOL     OW29323   4.574   3.406   6.038
 9475SOL    HW129324   4.544   3.320   5.996
 9475SOL    HW229325   4.626   3.387   6.121
 9476SOL     OW29326   3.870   4.355   5.481
 9476SOL    HW129327   3.811   4.346   5.401
 9476SOL    HW229328   3.838   4.431   5.538
 9477SOL     OW29329   1.664   3.325   1.406
 9477SOL    HW129330   1.656   3.356   1.501
 9477SOL    HW229331   1.653   3.226   1.402
 9478SOL     OW29332   4.433   2.742   0.894
 9478SOL    HW129333   4.416   2.831   0.935
 9478SOL    HW229334   4.493   2.689   0.955
 9479SOL     OW29335   3.980   1.160   1.523
 9479SOL    HW129336   4.025   1.121   1.443
 9479SOL    HW229337   4.013   1.114   1.605
 9480SOL     OW29338   5.543   5.873   0.136
 9480SOL    HW129339   5.573   5.824   0.054
 9480SOL    HW229340   5.443   5.875   0.140
 9481SOL     OW29341   4.309   1.592   3.385
 9481SOL    HW129342   4.219   1.621   3.419
 9481SOL    HW229343   4.370   1.577   3.463
 9482SOL     OW29344   5.517   0.540   0.695
 9482SOL    HW129345   5.513   0.638   0.680
 9482SOL    HW229346   5.595   0.518   0.754
 9483SOL     OW29347   0.739   0.703   6.994
 9483SOL    HW129348   0.820   0.753   6.963
 9483SOL    HW229349   0.736   0.614   6.949
 9484SOL     OW29350   2.806   6.887   4.154
 9484SOL    HW129351   2.846   6.908   4.243
 9484SOL    HW229352   2.872   6.835   4.100
 9485SOL     OW29353   5.948   1.244   1.067
 9485SOL    HW129354   6.019   1.296   1.018
 9485SOL    HW229355   5.916   1.298   1.144
 9486SOL     OW29356   4.953   5.398   0.804
 9486SOL    HW129357   4.939   5.463   0.879
 9486SOL    HW229358   4.899   5.426   0.725
 9487SOL     OW29359   3.204   3.770   4.333
 9487SOL    HW129360   3.149   3.837   4.383
 9487SOL    HW229361   3.177   3.771   4.236
 9488SOL     OW29362   1.693   1.170   1.386
 9488SOL    HW129363   1.707   1.244   1.320
 9488SOL    HW229364   1.595   1.153   1.396
 9489SOL     OW29365   5.433   4.623   1.343
 9489SOL    HW129366   5.465   4.700   1.288
 9489SOL    HW229367   5.428   4.541   1.285
 9490SOL     OW29368   6.442   5.536   3.658
 9490SOL    HW129369   6.475   5.482   3.736
 9490SOL    HW229370   6.368   5.486   3.612
 9491SOL     OW29371   5.668   6.259   3.715
 9491SOL    HW129372   5.741   6.192   3.723
 9491SOL    HW229373   5.639   6.267   3.619
 9492SOL     OW29374   5.008   3.072   5.203
 9492SOL    HW129375   4.936   3.063   5.271
 9492SOL    HW229376   5.005   3.163   5.162
 9493SOL     OW29377   3.461   6.346   4.185
 9493SOL    HW129378   3.480   6.442   4.165
 9493SOL    HW229379   3.533   6.289   4.146
 9494SOL     OW29380   5.753   2.833   2.416
 9494SOL    HW129381   5.806   2.905   2.370
 9494SOL    HW229382   5.666   2.821   2.369
 9495SOL     OW29383   6.826   1.209   2.233
 9495SOL    HW129384   6.745   1.150   2.232
 9495SOL    HW229385   6.810   1.289   2.175
 9496SOL     OW29386   4.411   1.983   2.348
 9496SOL    HW129387   4.349   2.026   2.282
 9496SOL    HW229388   4.454   1.903   2.306
 9497SOL     OW29389   5.384   5.823   5.316
 9497SOL    HW129390   5.406   5.795   5.223
 9497SOL    HW229391   5.468   5.848   5.365
 9498SOL     OW29392   6.824   4.812   4.303
 9498SOL    HW129393   6.894   4.821   4.232
 9498SOL    HW229394   6.735   4.795   4.261
 9499SOL     OW29395   6.727   5.515   4.904
 9499SOL    HW129396   6.691   5.537   4.995
 9499SOL    HW229397   6.763   5.422   4.904
 9500SOL     OW29398   4.252   6.699   1.070
 9500SOL    HW129399   4.180   6.656   1.015
 9500SOL    HW229400   4.211   6.749   1.146
 9501SOL     OW29401   1.442   1.521   4.216
 9501SOL    HW129402   1.542   1.523   4.211
 9501SOL    HW229403   1.407   1.615   4.216
 9502SOL     OW29404   5.529   4.572   4.848
 9502SOL    HW129405   5.619   4.531   4.860
 9502SOL    HW229406   5.539   4.665   4.812
 9503SOL     OW29407   0.621   2.265   0.594
 9503SOL    HW129408   0.684   2.207   0.543
 9503SOL    HW229409   0.629   2.359   0.562
 9504SOL     OW29410   6.939   3.691   1.943
 9504SOL    HW129411   7.017   3.716   2.001
 9504SOL    HW229412   6.909   3.771   1.892
 9505SOL     OW29413   4.999   5.064   5.821
 9505SOL    HW129414   4.941   5.143   5.801
 9505SOL    HW229415   5.055   5.084   5.902
 9506SOL     OW29416   2.338   2.248   0.253
 9506SOL    HW129417   2.269   2.192   0.207
 9506SOL    HW229418   2.297   2.334   0.284
 9507SOL     OW29419   6.318   0.389   1.136
 9507SOL    HW129420   6.231   0.341   1.129
 9507SOL    HW229421   6.307   0.484   1.107
 9508SOL     OW29422   4.870   1.262   2.070
 9508SOL    HW129423   4.876   1.282   2.168
 9508SOL    HW229424   4.804   1.322   2.027
 9509SOL     OW29425   6.668   0.899   3.058
 9509SOL    HW129426   6.617   0.838   2.997
 9509SOL    HW229427   6.607   0.933   3.129
 9510SOL     OW29428   0.775   3.440   3.677
 9510SOL    HW129429   0.835   3.450   3.597
 9510SOL    HW229430   0.782   3.347   3.712
 9511SOL     OW29431   0.736   1.087   1.421
 9511SOL    HW129432   0.769   1.054   1.510
 9511SOL    HW229433   0.788   1.168   1.394
 9512SOL     OW29434   6.716   3.083   0.900
 9512SOL    HW129435   6.794   3.030   0.866
 9512SOL    HW229436   6.642   3.021   0.924
 9513SOL     OW29437   3.590   4.835   5.797
 9513SOL    HW129438   3.681   4.839   5.837
 9513SOL    HW229439   3.558   4.740   5.797
 9514SOL     OW29440   3.237   3.187   6.509
 9514SOL    HW129441   3.207   3.252   6.580
 9514SOL    HW229442   3.158   3.141   6.469
 9515SOL     OW29443   2.668   4.853   3.375
 9515SOL    HW129444   2.691   4.786   3.304
 9515SOL    HW229445   2.715   4.828   3.460
 9516SOL     OW29446   6.214   4.522   0.726
 9516SOL    HW129447   6.312   4.543   0.726
 9516SOL    HW229448   6.170   4.567   0.804
 9517SOL     OW29449   1.162   4.617   1.454
 9517SOL    HW129450   1.095   4.589   1.384
 9517SOL    HW229451   1.177   4.715   1.449
 9518SOL     OW29452   2.824   1.119   0.471
 9518SOL    HW129453   2.767   1.059   0.527
 9518SOL    HW229454   2.905   1.068   0.440
 9519SOL     OW29455   1.216   2.516   5.545
 9519SOL    HW129456   1.209   2.613   5.569
 9519SOL    HW229457   1.303   2.479   5.577
 9520SOL     OW29458   2.313   0.322   2.214
 9520SOL    HW129459   2.245   0.287   2.278
 9520SOL    HW229460   2.315   0.263   2.133
 9521SOL     OW29461   6.214   6.181   4.327
 9521SOL    HW129462   6.167   6.188   4.239
 9521SOL    HW229463   6.163   6.232   4.396
 9522SOL     OW29464   3.386   5.863   0.762
 9522SOL    HW129465   3.410   5.786   0.822
 9522SOL    HW229466   3.360   5.942   0.818
 9523SOL     OW29467   3.440   5.274   4.402
 9523SOL    HW129468   3.538   5.290   4.407
 9523SOL    HW229469   3.392   5.347   4.451
 9524SOL     OW29470   3.630   2.901   1.102
 9524SOL    HW129471   3.603   2.889   1.198
 9524SOL    HW229472   3.651   2.813   1.062
 9525SOL     OW29473   1.952   1.241   6.270
 9525SOL    HW129474   2.032   1.196   6.230
 9525SOL    HW229475   1.873   1.226   6.212
 9526SOL     OW29476   5.610   6.094   3.213
 9526SOL    HW129477   5.514   6.069   3.205
 9526SOL    HW229478   5.625   6.184   3.171
 9527SOL     OW29479   0.769   0.779   2.130
 9527SOL    HW129480   0.863   0.802   2.152
 9527SOL    HW229481   0.716   0.767   2.214
 9528SOL     OW29482   6.488   0.392   0.589
 9528SOL    HW129483   6.414   0.327   0.571
 9528SOL    HW229484   6.488   0.416   0.686
 9529SOL     OW29485   1.264   3.160   6.650
 9529SOL    HW129486   1.326   3.083   6.661
 9529SOL    HW229487   1.234   3.192   6.740
 9530SOL     OW29488   1.757   2.653   3.019
 9530SOL    HW129489   1.851   2.681   3.041
 9530SOL    HW229490   1.719   2.602   3.095
 9531SOL     OW29491   4.185   5.961   2.721
 9531SOL    HW129492   4.169   5.994   2.628
 9531SOL    HW229493   4.218   5.867   2.718
 9532SOL     OW29494   1.552   6.113   1.281
 9532SOL    HW129495   1.597   6.053   1.215
 9532SOL    HW229496   1.617   6.180   1.317
 9533SOL     OW29497   0.470   1.088   5.017
 9533SOL    HW129498   0.485   1.042   4.929
 9533SOL    HW229499   0.425   1.176   5.001
 9534SOL     OW29500   5.309   1.678   5.054
 9534SOL    HW129501   5.392   1.726   5.027
 9534SOL    HW229502   5.234   1.743   5.061
 9535SOL     OW29503   2.718   0.642   5.689
 9535SOL    HW129504   2.694   0.732   5.724
 9535SOL    HW229505   2.818   0.634   5.683
 9536SOL     OW29506   2.042   5.651   5.657
 9536SOL    HW129507   1.983   5.730   5.640
 9536SOL    HW229508   1.994   5.586   5.717
 9537SOL     OW29509   3.204   0.303   2.386
 9537SOL    HW129510   3.265   0.342   2.317
 9537SOL    HW229511   3.198   0.365   2.464
 9538SOL     OW29512   6.328   1.934   4.335
 9538SOL    HW129513   6.373   1.950   4.422
 9538SOL    HW229514   6.326   2.018   4.281
 9539SOL     OW29515   1.645   5.496   6.465
 9539SOL    HW129516   1.679   5.410   6.426
 9539SOL    HW229517   1.562   5.479   6.517
 9540SOL     OW29518   4.751   4.946   5.709
 9540SOL    HW129519   4.838   4.977   5.748
 9540SOL    HW229520   4.750   4.846   5.706
 9541SOL     OW29521   1.451   2.429   4.985
 9541SOL    HW129522   1.513   2.482   4.927
 9541SOL    HW229523   1.446   2.335   4.951
 9542SOL     OW29524   4.935   3.313   4.656
 9542SOL    HW129525   4.963   3.246   4.724
 9542SOL    HW229526   4.914   3.400   4.702
 9543SOL     OW29527   4.630   0.935   4.389
 9543SOL    HW129528   4.600   0.909   4.481
 9543SOL    HW229529   4.646   0.852   4.336
 9544SOL     OW29530   5.936   0.132   2.153
 9544SOL    HW129531   5.897   0.046   2.121
 9544SOL    HW229532   5.862   0.195   2.178
 9545SOL     OW29533   6.412   6.850   3.538
 9545SOL    HW129534   6.479   6.916   3.570
 9545SOL    HW229535   6.457   6.780   3.484
 9546SOL     OW29536   2.838   4.475   6.868
 9546SOL    HW129537   2.787   4.432   6.794
 9546SOL    HW229538   2.918   4.523   6.830
 9547SOL     OW29539   1.346   6.469   4.062
 9547SOL    HW129540   1.440   6.483   4.031
 9547SOL    HW229541   1.288   6.447   3.983
 9548SOL     OW29542   5.784   5.700   4.992
 9548SOL    HW129543   5.723   5.631   4.954
 9548SOL    HW229544   5.735   5.786   5.003
 9549SOL     OW29545   3.525   5.423   0.294
 9549SOL    HW129546   3.495   5.355   0.227
 9549SOL    HW229547   3.445   5.474   0.326
 9550SOL     OW29548   0.372   1.641   0.279
 9550SOL    HW129549   0.472   1.639   0.288
 9550SOL    HW229550   0.331   1.671   0.365
 9551SOL     OW29551   0.444   0.134   4.713
 9551SOL    HW129552   0.426   0.105   4.618
 9551SOL    HW229553   0.372   0.197   4.742
 9552SOL     OW29554   1.390   6.769   3.322
 9552SOL    HW129555   1.295   6.749   3.347
 9552SOL    HW229556   1.400   6.764   3.223
 9553SOL     OW29557   5.644   4.539   6.479
 9553SOL    HW129558   5.628   4.550   6.577
 9553SOL    HW229559   5.559   4.554   6.429
 9554SOL     OW29560   2.698   0.916   2.426
 9554SOL    HW129561   2.701   0.842   2.359
 9554SOL    HW229562   2.607   0.957   2.427
 9555SOL     OW29563   6.491   2.344   0.910
 9555SOL    HW129564   6.484   2.432   0.863
 9555SOL    HW229565   6.559   2.287   0.863
 9556SOL     OW29566   2.146   0.817   1.017
 9556SOL    HW129567   2.138   0.869   0.932
 9556SOL    HW229568   2.098   0.867   1.090
 9557SOL     OW29569   6.381   0.607   2.325
 9557SOL    HW129570   6.324   0.645   2.253
 9557SOL    HW229571   6.475   0.596   2.291
 9558SOL     OW29572   0.093   4.952   3.106
 9558SOL    HW129573   0.056   5.040   3.136
 9558SOL    HW229574   0.187   4.964   3.075
 9559SOL     OW29575   0.336   3.182   2.215
 9559SOL    HW129576   0.379   3.098   2.181
 9559SOL    HW229577   0.406   3.252   2.229
 9560SOL     OW29578   2.810   1.581   3.652
 9560SOL    HW129579   2.882   1.552   3.589
 9560SOL    HW229580   2.773   1.501   3.699
 9561SOL     OW29581   3.152   6.564   0.727
 9561SOL    HW129582   3.116   6.477   0.695
 9561SOL    HW229583   3.087   6.605   0.792
 9562SOL     OW29584   4.536   5.581   2.863
 9562SOL    HW129585   4.590   5.528   2.929
 9562SOL    HW229586   4.599   5.630   2.802
 9563SOL     OW29587   0.032   6.074   6.071
 9563SOL    HW129588   6.966   6.078   6.017
 9563SOL    HW229589   0.083   6.159   6.059
 9564SOL     OW29590   2.888   0.002   6.669
 9564SOL    HW129591   2.831   0.007   6.587
 9564SOL    HW229592   2.972   6.971   6.649
 9565SOL     OW29593   3.826   6.112   4.256
 9565SOL    HW129594   3.789   6.082   4.344
 9565SOL    HW229595   3.922   6.086   4.249
 9566SOL     OW29596   2.791   4.315   5.728
 9566SOL    HW129597   2.853   4.265   5.668
 9566SOL    HW229598   2.732   4.249   5.776
 9567SOL     OW29599   6.413   5.797   6.483
 9567SOL    HW129600   6.484   5.864   6.457
 9567SOL    HW229601   6.420   5.777   6.581
 9568SOL     OW29602   5.659   3.844   6.670
 9568SOL    HW129603   5.636   3.772   6.735
 9568SOL    HW229604   5.677   3.804   6.580
 9569SOL     OW29605   6.403   1.112   0.076
 9569SOL    HW129606   6.343   1.096   7.015
 9569SOL    HW229607   6.497   1.090   0.051
 9570SOL     OW29608   7.008   1.489   0.885
 9570SOL    HW129609   0.065   1.424   0.887
 9570SOL    HW229610   6.946   1.465   0.810
 9571SOL     OW29611   1.885   3.199   0.275
 9571SOL    HW129612   1.970   3.156   0.308
 9571SOL    HW229613   1.865   3.280   0.330
 9572SOL     OW29614   1.319   4.208   1.475
 9572SOL    HW129615   1.314   4.268   1.555
 9572SOL    HW229616   1.227   4.191   1.440
 9573SOL     OW29617   1.735   1.237   0.134
 9573SOL    HW129618   1.672   1.265   0.061
 9573SOL    HW229619   1.698   1.266   0.223
 9574SOL     OW29620   3.577   3.421   5.422
 9574SOL    HW129621   3.533   3.333   5.405
 9574SOL    HW229622   3.663   3.425   5.372
 9575SOL     OW29623   5.382   0.730   1.989
 9575SOL    HW129624   5.412   0.764   2.079
 9575SOL    HW229625   5.293   0.768   1.967
 9576SOL     OW29626   3.009   1.563   4.508
 9576SOL    HW129627   2.934   1.629   4.507
 9576SOL    HW229628   3.088   1.602   4.556
 9577SOL     OW29629   0.410   6.065   2.708
 9577SOL    HW129630   0.381   5.979   2.748
 9577SOL    HW229631   0.498   6.092   2.746
 9578SOL     OW29632   6.431   2.615   2.187
 9578SOL    HW129633   6.374   2.533   2.200
 9578SOL    HW229634   6.468   2.644   2.275
 9579SOL     OW29635   1.615   0.086   1.908
 9579SOL    HW129636   1.670   0.042   1.979
 9579SOL    HW229637   1.589   0.178   1.938
 9580SOL     OW29638   4.103   3.751   6.904
 9580SOL    HW129639   4.145   3.794   6.984
 9580SOL    HW229640   4.029   3.691   6.934
 9581SOL     OW29641   0.936   5.188   6.139
 9581SOL    HW129642   0.906   5.279   6.111
 9581SOL    HW229643   0.861   5.123   6.128
 9582SOL     OW29644   4.222   4.725   4.382
 9582SOL    HW129645   4.279   4.647   4.357
 9582SOL    HW229646   4.180   4.763   4.300
 9583SOL     OW29647   2.001   3.656   2.018
 9583SOL    HW129648   1.992   3.700   2.108
 9583SOL    HW229649   2.082   3.596   2.018
 9584SOL     OW29650   6.312   5.282   6.783
 9584SOL    HW129651   6.317   5.192   6.826
 9584SOL    HW229652   6.396   5.299   6.732
 9585SOL     OW29653   6.078   6.996   3.260
 9585SOL    HW129654   6.174   7.011   3.284
 9585SOL    HW229655   6.048   6.908   3.295
 9586SOL     OW29656   4.907   3.305   3.185
 9586SOL    HW129657   4.990   3.283   3.134
 9586SOL    HW229658   4.870   3.393   3.153
 9587SOL     OW29659   5.667   0.239   2.139
 9587SOL    HW129660   5.686   0.321   2.085
 9587SOL    HW229661   5.608   0.178   2.086
 9588SOL     OW29662   0.484   0.583   1.529
 9588SOL    HW129663   0.546   0.517   1.488
 9588SOL    HW229664   0.390   0.561   1.504
 9589SOL     OW29665   2.706   0.243   6.064
 9589SOL    HW129666   2.658   0.249   5.977
 9589SOL    HW229667   2.695   0.151   6.102
 9590SOL     OW29668   6.744   3.988   2.981
 9590SOL    HW129669   6.705   4.080   2.992
 9590SOL    HW229670   6.824   3.978   3.040
 9591SOL     OW29671   2.181   5.519   0.958
 9591SOL    HW129672   2.181   5.505   0.859
 9591SOL    HW229673   2.199   5.615   0.979
 9592SOL     OW29674   4.450   5.677   2.416
 9592SOL    HW129675   4.374   5.613   2.409
 9592SOL    HW229676   4.416   5.770   2.400
 9593SOL     OW29677   6.683   2.698   4.713
 9593SOL    HW129678   6.754   2.708   4.643
 9593SOL    HW229679   6.716   2.638   4.786
 9594SOL     OW29680   6.370   6.601   2.311
 9594SOL    HW129681   6.409   6.641   2.229
 9594SOL    HW229682   6.279   6.564   2.291
 9595SOL     OW29683   1.938   5.760   4.594
 9595SOL    HW129684   1.873   5.801   4.530
 9595SOL    HW229685   1.947   5.817   4.675
 9596SOL     OW29686   5.937   5.793   5.666
 9596SOL    HW129687   5.863   5.773   5.730
 9596SOL    HW229688   6.023   5.754   5.699
 9597SOL     OW29689   1.307   4.024   1.846
 9597SOL    HW129690   1.303   4.117   1.810
 9597SOL    HW229691   1.346   3.963   1.777
 9598SOL     OW29692   0.097   4.954   5.954
 9598SOL    HW129693   0.036   4.946   5.875
 9598SOL    HW229694   0.101   4.867   6.002
 9599SOL     OW29695   4.249   0.987   5.694
 9599SOL    HW129696   4.224   0.998   5.598
 9599SOL    HW229697   4.174   1.020   5.752
 9600SOL     OW29698   1.373   6.989   6.169
 9600SOL    HW129699   1.337   6.976   6.261
 9600SOL    HW229700   1.368   6.902   6.119
 9601SOL     OW29701   0.448   4.899   5.582
 9601SOL    HW129702   0.547   4.905   5.594
 9601SOL    HW229703   0.403   4.908   5.671
 9602SOL     OW29704   0.982   5.700   6.943
 9602SOL    HW129705   1.039   5.624   6.975
 9602SOL    HW229706   0.888   5.669   6.932
 9603SOL     OW29707   1.928   6.230   4.700
 9603SOL    HW129708   1.943   6.327   4.684
 9603SOL    HW229709   1.905   6.184   4.614
 9604SOL     OW29710   5.631   1.340   6.686
 9604SOL    HW129711   5.645   1.372   6.593
 9604SOL    HW229712   5.537   1.306   6.696
 9605SOL     OW29713   2.136   6.024   6.390
 9605SOL    HW129714   2.168   6.032   6.296
 9605SOL    HW229715   2.084   6.106   6.414
 9606SOL     OW29716   0.283   6.466   3.904
 9606SOL    HW129717   0.369   6.499   3.941
 9606SOL    HW229718   0.266   6.509   3.815
 9607SOL     OW29719   1.246   1.489   2.374
 9607SOL    HW129720   1.226   1.583   2.403
 9607SOL    HW229721   1.258   1.431   2.455
 9608SOL     OW29722   0.189   6.995   2.828
 9608SOL    HW129723   0.259   6.999   2.756
 9608SOL    HW229724   0.131   6.915   2.814
 9609SOL     OW29725   2.188   4.663   4.499
 9609SOL    HW129726   2.122   4.656   4.573
 9609SOL    HW229727   2.145   4.706   4.419
 9610SOL     OW29728   2.008   1.682   6.191
 9610SOL    HW129729   2.079   1.694   6.260
 9610SOL    HW229730   2.009   1.759   6.127
 9611SOL     OW29731   6.293   0.080   1.255
 9611SOL    HW129732   6.229   0.133   1.198
 9611SOL    HW229733   6.241   0.028   1.323
 9612SOL     OW29734   5.777   3.290   1.816
 9612SOL    HW129735   5.709   3.291   1.890
 9612SOL    HW229736   5.801   3.384   1.792
 9613SOL     OW29737   6.333   6.796   5.072
 9613SOL    HW129738   6.403   6.859   5.106
 9613SOL    HW229739   6.376   6.709   5.048
 9614SOL     OW29740   3.435   3.754   2.273
 9614SOL    HW129741   3.370   3.794   2.337
 9614SOL    HW229742   3.412   3.659   2.256
 9615SOL     OW29743   1.409   6.167   2.476
 9615SOL    HW129744   1.432   6.160   2.379
 9615SOL    HW229745   1.479   6.222   2.523
 9616SOL     OW29746   3.470   2.429   0.865
 9616SOL    HW129747   3.502   2.432   0.960
 9616SOL    HW229748   3.520   2.358   0.816
 9617SOL     OW29749   1.226   2.929   3.839
 9617SOL    HW129750   1.198   2.881   3.922
 9617SOL    HW229751   1.321   2.960   3.848
 9618SOL     OW29752   3.460   5.850   6.433
 9618SOL    HW129753   3.469   5.860   6.334
 9618SOL    HW229754   3.526   5.910   6.479
 9619SOL     OW29755   2.644   6.038   0.557
 9619SOL    HW129756   2.682   6.026   0.648
 9619SOL    HW229757   2.602   6.129   0.549
 9620SOL     OW29758   3.419   1.326   6.687
 9620SOL    HW129759   3.369   1.251   6.644
 9620SOL    HW229760   3.516   1.301   6.696
 9621SOL     OW29761   0.570   0.842   1.961
 9621SOL    HW129762   0.642   0.827   2.029
 9621SOL    HW229763   0.546   0.755   1.919
 9622SOL     OW29764   5.927   0.282   6.292
 9622SOL    HW129765   5.984   0.223   6.349
 9622SOL    HW229766   5.865   0.335   6.350
 9623SOL     OW29767   4.463   6.356   6.131
 9623SOL    HW129768   4.450   6.446   6.090
 9623SOL    HW229769   4.523   6.364   6.210
 9624SOL     OW29770   4.334   5.202   5.190
 9624SOL    HW129771   4.275   5.279   5.216
 9624SOL    HW229772   4.320   5.126   5.254
 9625SOL     OW29773   5.331   4.121   6.433
 9625SOL    HW129774   5.372   4.086   6.349
 9625SOL    HW229775   5.377   4.081   6.512
 9626SOL     OW29776   1.666   4.283   6.248
 9626SOL    HW129777   1.741   4.225   6.281
 9626SOL    HW229778   1.646   4.259   6.153
 9627SOL     OW29779   0.841   5.256   6.534
 9627SOL    HW129780   0.859   5.186   6.465
 9627SOL    HW229781   0.894   5.235   6.617
 9628SOL     OW29782   5.857   3.727   0.132
 9628SOL    HW129783   5.892   3.661   0.065
 9628SOL    HW229784   5.928   3.746   0.200
 9629SOL     OW29785   6.991   5.598   2.803
 9629SOL    HW129786   6.977   5.500   2.814
 9629SOL    HW229787   0.016   5.616   2.715
 9630SOL     OW29788   6.566   6.301   5.600
 9630SOL    HW129789   6.622   6.242   5.543
 9630SOL    HW229790   6.497   6.346   5.544
 9631SOL     OW29791   4.191   1.197   0.641
 9631SOL    HW129792   4.092   1.205   0.634
 9631SOL    HW229793   4.234   1.228   0.556
 9632SOL     OW29794   3.489   6.382   1.340
 9632SOL    HW129795   3.540   6.296   1.334
 9632SOL    HW229796   3.396   6.367   1.305
 9633SOL     OW29797   3.963   3.128   2.199
 9633SOL    HW129798   4.006   3.086   2.279
 9633SOL    HW229799   3.878   3.173   2.226
 9634SOL     OW29800   5.059   4.851   2.465
 9634SOL    HW129801   5.071   4.920   2.536
 9634SOL    HW229802   4.984   4.790   2.491
 9635SOL     OW29803   1.103   4.063   3.764
 9635SOL    HW129804   1.161   3.992   3.803
 9635SOL    HW229805   1.107   4.145   3.819
 9636SOL     OW29806   4.445   2.269   4.689
 9636SOL    HW129807   4.512   2.338   4.660
 9636SOL    HW229808   4.485   2.213   4.761
 9637SOL     OW29809   2.094   2.924   0.958
 9637SOL    HW129810   2.086   2.885   0.866
 9637SOL    HW229811   2.137   3.014   0.953
 9638SOL     OW29812   0.035   4.843   5.656
 9638SOL    HW129813   0.051   4.762   5.711
 9638SOL    HW229814   6.960   4.875   5.670
 9639SOL     OW29815   4.419   1.738   1.701
 9639SOL    HW129816   4.464   1.650   1.710
 9639SOL    HW229817   4.349   1.733   1.630
 9640SOL     OW29818   3.449   0.639   2.208
 9640SOL    HW129819   3.412   0.624   2.300
 9640SOL    HW229820   3.530   0.697   2.214
 9641SOL     OW29821   6.122   4.421   2.745
 9641SOL    HW129822   6.082   4.513   2.749
 9641SOL    HW229823   6.052   4.356   2.715
 9642SOL     OW29824   1.876   0.642   3.708
 9642SOL    HW129825   1.933   0.713   3.666
 9642SOL    HW229826   1.852   0.573   3.640
 9643SOL     OW29827   5.327   4.008   3.801
 9643SOL    HW129828   5.284   4.096   3.781
 9643SOL    HW229829   5.339   3.957   3.716
 9644SOL     OW29830   1.456   5.494   4.877
 9644SOL    HW129831   1.507   5.438   4.943
 9644SOL    HW229832   1.488   5.588   4.883
 9645SOL     OW29833   1.635   5.515   5.909
 9645SOL    HW129834   1.675   5.520   6.000
 9645SOL    HW229835   1.536   5.499   5.917
 9646SOL     OW29836   3.148   6.797   5.671
 9646SOL    HW129837   3.055   6.835   5.678
 9646SOL    HW229838   3.210   6.853   5.726
 9647SOL     OW29839   6.313   5.882   3.019
 9647SOL    HW129840   6.305   5.941   3.100
 9647SOL    HW229841   6.280   5.930   2.939
 9648SOL     OW29842   4.669   1.913   1.114
 9648SOL    HW129843   4.612   1.883   1.037
 9648SOL    HW229844   4.675   2.013   1.114
 9649SOL     OW29845   2.530   3.230   0.739
 9649SOL    HW129846   2.520   3.142   0.692
 9649SOL    HW229847   2.484   3.301   0.686
 9650SOL     OW29848   0.009   4.852   4.116
 9650SOL    HW129849   0.106   4.829   4.115
 9650SOL    HW229850   7.005   4.906   4.035
 9651SOL     OW29851   2.672   1.598   0.142
 9651SOL    HW129852   2.689   1.528   0.072
 9651SOL    HW229853   2.665   1.555   0.232
 9652SOL     OW29854   6.904   3.746   0.988
 9652SOL    HW129855   6.963   3.684   1.040
 9652SOL    HW229856   6.808   3.726   1.009
 9653SOL     OW29857   4.827   3.752   5.991
 9653SOL    HW129858   4.862   3.692   6.062
 9653SOL    HW229859   4.867   3.843   6.001
 9654SOL     OW29860   3.507   3.140   3.461
 9654SOL    HW129861   3.466   3.214   3.515
 9654SOL    HW229862   3.573   3.090   3.517
 9655SOL     OW29863   5.524   0.602   2.249
 9655SOL    HW129864   5.532   0.615   2.150
 9655SOL    HW229865   5.614   0.582   2.288
 9656SOL     OW29866   5.918   3.868   0.836
 9656SOL    HW129867   5.966   3.781   0.825
 9656SOL    HW229868   5.928   3.922   0.752
 9657SOL     OW29869   6.046   3.546   3.460
 9657SOL    HW129870   5.988   3.574   3.383
 9657SOL    HW229871   6.073   3.627   3.512
 9658SOL     OW29872   4.775   1.648   2.717
 9658SOL    HW129873   4.692   1.609   2.676
 9658SOL    HW229874   4.763   1.746   2.730
 9659SOL     OW29875   3.153   2.698   1.025
 9659SOL    HW129876   3.065   2.678   1.068
 9659SOL    HW229877   3.177   2.625   0.962
 9660SOL     OW29878   1.050   5.850   0.790
 9660SOL    HW129879   1.060   5.930   0.731
 9660SOL    HW229880   1.127   5.846   0.854
 9661SOL     OW29881   5.227   4.959   1.004
 9661SOL    HW129882   5.271   4.873   1.030
 9661SOL    HW229883   5.139   4.940   0.961
 9662SOL     OW29884   5.150   4.301   6.820
 9662SOL    HW129885   5.236   4.348   6.800
 9662SOL    HW229886   5.073   4.362   6.803
 9663SOL     OW29887   0.736   4.076   3.508
 9663SOL    HW129888   0.735   4.118   3.599
 9663SOL    HW229889   0.830   4.053   3.482
 9664SOL     OW29890   5.280   4.056   3.239
 9664SOL    HW129891   5.376   4.043   3.263
 9664SOL    HW229892   5.239   4.125   3.299
 9665SOL     OW29893   6.313   6.470   6.629
 9665SOL    HW129894   6.234   6.411   6.642
 9665SOL    HW229895   6.281   6.564   6.610
 9666SOL     OW29896   6.280   4.660   1.208
 9666SOL    HW129897   6.214   4.585   1.211
 9666SOL    HW229898   6.353   4.643   1.273
 9667SOL     OW29899   5.010   5.573   1.034
 9667SOL    HW129900   5.093   5.602   1.080
 9667SOL    HW229901   4.961   5.508   1.092
 9668SOL     OW29902   1.397   6.224   5.899
 9668SOL    HW129903   1.334   6.236   5.822
 9668SOL    HW229904   1.423   6.128   5.906
 9669SOL     OW29905   2.945   6.895   0.609
 9669SOL    HW129906   2.949   6.977   0.551
 9669SOL    HW229907   2.871   6.904   0.675
 9670SOL     OW29908   0.205   0.288   5.900
 9670SOL    HW129909   0.255   0.209   5.934
 9670SOL    HW229910   0.116   0.259   5.865
 9671SOL     OW29911   0.903   4.798   6.480
 9671SOL    HW129912   0.983   4.747   6.514
 9671SOL    HW229913   0.934   4.875   6.425
 9672SOL     OW29914   0.826   4.346   4.044
 9672SOL    HW129915   0.884   4.423   4.019
 9672SOL    HW229916   0.864   4.300   4.124
 9673SOL     OW29917   2.768   4.027   1.694
 9673SOL    HW129918   2.728   3.971   1.621
 9673SOL    HW229919   2.699   4.090   1.729
 9674SOL     OW29920   3.411   6.541   2.913
 9674SOL    HW129921   3.491   6.554   2.971
 9674SOL    HW229922   3.417   6.452   2.867
 9675SOL     OW29923   4.697   3.868   1.245
 9675SOL    HW129924   4.778   3.810   1.241
 9675SOL    HW229925   4.713   3.944   1.308
 9676SOL     OW29926   1.234   3.032   6.175
 9676SOL    HW129927   1.264   3.004   6.084
 9676SOL    HW229928   1.149   3.086   6.167
 9677SOL     OW29929   6.202   4.831   0.342
 9677SOL    HW129930   6.296   4.798   0.335
 9677SOL    HW229931   6.162   4.839   0.250
 9678SOL     OW29932   3.213   4.012   4.718
 9678SOL    HW129933   3.138   3.975   4.773
 9678SOL    HW229934   3.293   3.954   4.727
 9679SOL     OW29935   2.242   1.689   4.453
 9679SOL    HW129936   2.269   1.634   4.373
 9679SOL    HW229937   2.241   1.631   4.534
 9680SOL     OW29938   4.490   6.278   3.449
 9680SOL    HW129939   4.394   6.297   3.430
 9680SOL    HW229940   4.543   6.363   3.440
 9681SOL     OW29941   2.073   0.858   1.331
 9681SOL    HW129942   1.975   0.874   1.327
 9681SOL    HW229943   2.113   0.913   1.404
 9682SOL     OW29944   5.563   5.630   4.451
 9682SOL    HW129945   5.486   5.596   4.396
 9682SOL    HW229946   5.647   5.621   4.398
 9683SOL     OW29947   1.606   6.694   0.832
 9683SOL    HW129948   1.630   6.755   0.757
 9683SOL    HW229949   1.684   6.684   0.893
 9684SOL     OW29950   1.754   4.169   5.478
 9684SOL    HW129951   1.693   4.094   5.453
 9684SOL    HW229952   1.836   4.165   5.421
 9685SOL     OW29953   4.473   3.738   0.575
 9685SOL    HW129954   4.386   3.771   0.538
 9685SOL    HW229955   4.461   3.647   0.615
 9686SOL     OW29956   6.286   2.397   6.341
 9686SOL    HW129957   6.209   2.448   6.379
 9686SOL    HW229958   6.342   2.363   6.416
 9687SOL     OW29959   6.334   0.328   2.034
 9687SOL    HW129960   6.236   0.315   2.016
 9687SOL    HW229961   6.371   0.245   2.075
 9688SOL     OW29962   1.775   4.625   1.337
 9688SOL    HW129963   1.793   4.721   1.319
 9688SOL    HW229964   1.693   4.616   1.394
 9689SOL     OW29965   1.243   6.415   6.714
 9689SOL    HW129966   1.185   6.378   6.786
 9689SOL    HW229967   1.339   6.396   6.735
 9690SOL     OW29968   5.223   5.438   4.619
 9690SOL    HW129969   5.250   5.374   4.547
 9690SOL    HW229970   5.268   5.412   4.705
 9691SOL     OW29971   3.188   4.084   2.113
 9691SOL    HW129972   3.258   4.073   2.042
 9691SOL    HW229973   3.187   4.179   2.144
 9692SOL     OW29974   4.313   4.960   6.966
 9692SOL    HW129975   4.241   4.909   7.015
 9692SOL    HW229976   4.364   4.896   6.908
 9693SOL     OW29977   6.007   3.790   3.782
 9693SOL    HW129978   5.982   3.699   3.815
 9693SOL    HW229979   5.924   3.840   3.756
 9694SOL     OW29980   2.816   6.650   2.040
 9694SOL    HW129981   2.771   6.561   2.051
 9694SOL    HW229982   2.774   6.698   1.963
 9695SOL     OW29983   6.985   4.090   3.807
 9695SOL    HW129984   0.025   4.053   3.735
 9695SOL    HW229985   0.007   4.174   3.843
 9696SOL     OW29986   6.119   1.890   2.866
 9696SOL    HW129987   6.143   1.798   2.835
 9696SOL    HW229988   6.094   1.946   2.786
 9697SOL     OW29989   0.317   5.767   0.251
 9697SOL    HW129990   0.371   5.773   0.335
 9697SOL    HW229991   0.235   5.824   0.260
 9698SOL     OW29992   5.304   3.760   0.442
 9698SOL    HW129993   5.211   3.784   0.471
 9698SOL    HW229994   5.303   3.669   0.400
 9699SOL     OW29995   1.390   5.135   0.235
 9699SOL    HW129996   1.459   5.182   0.181
 9699SOL    HW229997   1.310   5.194   0.246
 9700SOL     OW29998   5.814   6.553   3.980
 9700SOL    HW129999   5.755   6.527   3.904
 9700SOL    HW230000   5.788   6.644   4.014
 9701SOL     OW30001   4.861   2.873   6.920
 9701SOL    HW130002   4.776   2.823   6.906
 9701SOL    HW230003   4.908   2.883   6.832
 9702SOL     OW30004   3.396   3.017   0.628
 9702SOL    HW130005   3.406   2.960   0.710
 9702SOL    HW230006   3.310   3.068   0.633
 9703SOL     OW30007   6.209   4.184   4.980
 9703SOL    HW130008   6.112   4.161   4.968
 9703SOL    HW230009   6.227   4.274   4.941
 9704SOL     OW30010   3.214   4.897   2.513
 9704SOL    HW130011   3.185   4.879   2.419
 9704SOL    HW230012   3.314   4.902   2.516
 9705SOL     OW30013   5.891   4.050   5.393
 9705SOL    HW130014   5.983   4.066   5.428
 9705SOL    HW230015   5.841   3.990   5.455
 9706SOL     OW30016   1.445   1.609   2.224
 9706SOL    HW130017   1.409   1.539   2.285
 9706SOL    HW230018   1.435   1.699   2.266
 9707SOL     OW30019   6.161   4.878   2.408
 9707SOL    HW130020   6.241   4.864   2.351
 9707SOL    HW230021   6.101   4.798   2.402
 9708SOL     OW30022   1.638   1.068   2.716
 9708SOL    HW130023   1.698   1.045   2.792
 9708SOL    HW230024   1.692   1.105   2.640
 9709SOL     OW30025   5.945   3.140   2.723
 9709SOL    HW130026   5.956   3.046   2.756
 9709SOL    HW230027   5.874   3.142   2.653
 9710SOL     OW30028   6.307   6.366   6.155
 9710SOL    HW130029   6.344   6.282   6.114
 9710SOL    HW230030   6.321   6.442   6.092
 9711SOL     OW30031   3.940   6.617   6.521
 9711SOL    HW130032   3.982   6.694   6.473
 9711SOL    HW230033   3.954   6.533   6.468
 9712SOL     OW30034   5.873   3.107   0.773
 9712SOL    HW130035   5.790   3.156   0.802
 9712SOL    HW230036   5.862   3.010   0.793
 9713SOL     OW30037   1.706   6.189   3.360
 9713SOL    HW130038   1.631   6.173   3.424
 9713SOL    HW230039   1.715   6.287   3.343
 9714SOL     OW30040   3.770   5.385   4.643
 9714SOL    HW130041   3.867   5.392   4.666
 9714SOL    HW230042   3.719   5.452   4.697
 9715SOL     OW30043   6.134   4.875   1.342
 9715SOL    HW130044   6.177   4.961   1.318
 9715SOL    HW230045   6.183   4.800   1.298
 9716SOL     OW30046   4.213   4.193   6.646
 9716SOL    HW130047   4.140   4.198   6.714
 9716SOL    HW230048   4.261   4.105   6.655
 9717SOL     OW30049   4.412   0.473   6.043
 9717SOL    HW130050   4.312   0.480   6.045
 9717SOL    HW230051   4.439   0.404   5.976
 9718SOL     OW30052   3.444   1.882   0.091
 9718SOL    HW130053   3.433   1.804   0.153
 9718SOL    HW230054   3.488   1.957   0.139
 9719SOL     OW30055   5.042   6.302   4.682
 9719SOL    HW130056   5.036   6.367   4.758
 9719SOL    HW230057   5.119   6.326   4.623
 9720SOL     OW30058   1.754   4.045   2.499
 9720SOL    HW130059   1.752   3.961   2.445
 9720SOL    HW230060   1.798   4.027   2.587
 9721SOL     OW30061   0.674   1.808   0.619
 9721SOL    HW130062   0.599   1.858   0.662
 9721SOL    HW230063   0.717   1.748   0.686
 9722SOL     OW30064   3.422   2.559   5.694
 9722SOL    HW130065   3.430   2.543   5.596
 9722SOL    HW230066   3.334   2.524   5.727
 9723SOL     OW30067   6.112   4.722   4.500
 9723SOL    HW130068   6.027   4.685   4.537
 9723SOL    HW230069   6.172   4.751   4.575
 9724SOL     OW30070   1.618   5.790   6.941
 9724SOL    HW130071   1.539   5.800   7.001
 9724SOL    HW230072   1.587   5.777   6.847
 9725SOL     OW30073   3.872   5.356   5.467
 9725SOL    HW130074   3.780   5.321   5.450
 9725SOL    HW230075   3.870   5.455   5.471
 9726SOL     OW30076   5.601   0.780   4.530
 9726SOL    HW130077   5.640   0.783   4.438
 9726SOL    HW230078   5.635   0.857   4.583
 9727SOL     OW30079   0.146   2.455   0.001
 9727SOL    HW130080   0.059   2.413   6.993
 9727SOL    HW230081   0.145   2.473   0.099
 9728SOL     OW30082   5.968   0.810   5.991
 9728SOL    HW130083   5.937   0.841   5.902
 9728SOL    HW230084   6.021   0.726   5.981
 9729SOL     OW30085   1.016   3.854   3.429
 9729SOL    HW130086   1.111   3.824   3.421
 9729SOL    HW230087   0.961   3.778   3.463
 9730SOL     OW30088   0.770   4.220   3.777
 9730SOL    HW130089   0.802   4.238   3.870
 9730SOL    HW230090   0.671   4.205   3.778
 9731SOL     OW30091   5.253   3.753   2.441
 9731SOL    HW130092   5.163   3.728   2.407
 9731SOL    HW230093   5.255   3.851   2.460
 9732SOL     OW30094   1.307   3.258   2.327
 9732SOL    HW130095   1.255   3.334   2.289
 9732SOL    HW230096   1.372   3.224   2.259
 9733SOL     OW30097   6.183   5.788   2.644
 9733SOL    HW130098   6.168   5.819   2.551
 9733SOL    HW230099   6.194   5.688   2.645
 9734SOL     OW30100   6.576   6.442   6.716
 9734SOL    HW130101   6.488   6.458   6.672
 9734SOL    HW230102   6.627   6.373   6.664
 9735SOL     OW30103   1.289   2.049   3.494
 9735SOL    HW130104   1.266   2.128   3.551
 9735SOL    HW230105   1.376   2.010   3.524
 9736SOL     OW30106   4.584   2.356   5.530
 9736SOL    HW130107   4.658   2.423   5.517
 9736SOL    HW230108   4.614   2.267   5.497
 9737SOL     OW30109   5.843   1.804   2.532
 9737SOL    HW130110   5.856   1.887   2.479
 9737SOL    HW230111   5.749   1.772   2.522
 9738SOL     OW30112   2.051   6.460   0.379
 9738SOL    HW130113   2.144   6.495   0.383
 9738SOL    HW230114   2.039   6.407   0.294
 9739SOL     OW30115   4.496   6.709   6.798
 9739SOL    HW130116   4.557   6.767   6.744
 9739SOL    HW230117   4.401   6.738   6.783
 9740SOL     OW30118   5.635   0.883   2.393
 9740SOL    HW130119   5.671   0.973   2.415
 9740SOL    HW230120   5.642   0.823   2.473
 9741SOL     OW30121   2.964   1.219   4.169
 9741SOL    HW130122   2.913   1.298   4.203
 9741SOL    HW230123   2.903   1.157   4.121
 9742SOL     OW30124   4.295   1.377   6.619
 9742SOL    HW130125   4.225   1.329   6.566
 9742SOL    HW230126   4.355   1.309   6.662
 9743SOL     OW30127   0.448   2.849   3.474
 9743SOL    HW130128   0.480   2.861   3.380
 9743SOL    HW230129   0.348   2.856   3.476
 9744SOL     OW30130   1.953   6.920   2.551
 9744SOL    HW130131   2.035   6.920   2.494
 9744SOL    HW230132   1.897   7.000   2.528
 9745SOL     OW30133   5.835   1.392   5.894
 9745SOL    HW130134   5.796   1.433   5.977
 9745SOL    HW230135   5.873   1.465   5.837
 9746SOL     OW30136   4.883   6.465   6.874
 9746SOL    HW130137   4.795   6.482   6.918
 9746SOL    HW230138   4.892   6.523   6.793
 9747SOL     OW30139   2.502   1.811   1.913
 9747SOL    HW130140   2.463   1.895   1.876
 9747SOL    HW230141   2.589   1.832   1.959
 9748SOL     OW30142   6.958   0.366   3.051
 9748SOL    HW130143   0.018   0.393   3.105
 9748SOL    HW230144   6.988   0.310   2.974
 9749SOL     OW30145   0.436   2.068   2.081
 9749SOL    HW130146   0.519   2.099   2.035
 9749SOL    HW230147   0.394   2.144   2.130
 9750SOL     OW30148   6.359   4.899   3.993
 9750SOL    HW130149   6.357   4.946   3.904
 9750SOL    HW230150   6.348   4.966   4.066
 9751SOL     OW30151   2.297   0.188   1.137
 9751SOL    HW130152   2.214   0.231   1.173
 9751SOL    HW230153   2.357   0.258   1.098
 9752SOL     OW30154   4.237   2.362   6.918
 9752SOL    HW130155   4.155   2.330   6.870
 9752SOL    HW230156   4.222   2.355   7.017
 9753SOL     OW30157   0.888   5.808   6.246
 9753SOL    HW130158   0.867   5.713   6.268
 9753SOL    HW230159   0.905   5.859   6.330
 9754SOL     OW30160   3.674   0.573   0.765
 9754SOL    HW130161   3.620   0.502   0.720
 9754SOL    HW230162   3.715   0.537   0.848
 9755SOL     OW30163   3.314   4.048   5.111
 9755SOL    HW130164   3.351   4.071   5.021
 9755SOL    HW230165   3.356   4.107   5.180
 9756SOL     OW30166   5.787   1.563   6.282
 9756SOL    HW130167   5.733   1.619   6.345
 9756SOL    HW230168   5.756   1.579   6.188
 9757SOL     OW30169   5.709   4.020   4.247
 9757SOL    HW130170   5.636   4.007   4.314
 9757SOL    HW230171   5.680   4.090   4.181
 9758SOL     OW30172   1.192   1.183   0.716
 9758SOL    HW130173   1.098   1.196   0.682
 9758SOL    HW230174   1.248   1.261   0.687
 9759SOL     OW30175   0.904   1.488   0.326
 9759SOL    HW130176   0.893   1.425   0.249
 9759SOL    HW230177   0.830   1.474   0.392
 9760SOL     OW30178   5.019   2.292   6.963
 9760SOL    HW130179   5.099   2.341   6.999
 9760SOL    HW230180   4.962   2.355   6.912
 9761SOL     OW30181   1.421   1.313   2.033
 9761SOL    HW130182   1.514   1.342   2.011
 9761SOL    HW230183   1.356   1.376   1.991
 9762SOL     OW30184   2.822   1.701   4.658
 9762SOL    HW130185   2.895   1.733   4.719
 9762SOL    HW230186   2.764   1.636   4.708
 9763SOL     OW30187   6.588   1.657   2.558
 9763SOL    HW130188   6.585   1.587   2.630
 9763SOL    HW230189   6.525   1.631   2.485
 9764SOL     OW30190   5.813   2.547   2.554
 9764SOL    HW130191   5.819   2.637   2.511
 9764SOL    HW230192   5.717   2.518   2.558
 9765SOL     OW30193   5.928   1.342   2.267
 9765SOL    HW130194   5.857   1.287   2.311
 9765SOL    HW230195   6.006   1.351   2.329
 9766SOL     OW30196   2.710   0.594   3.579
 9766SOL    HW130197   2.630   0.547   3.542
 9766SOL    HW230198   2.761   0.531   3.637
 9767SOL     OW30199   2.553   3.239   5.994
 9767SOL    HW130200   2.479   3.244   5.928
 9767SOL    HW230201   2.569   3.144   6.020
 9768SOL     OW30202   5.566   2.563   0.737
 9768SOL    HW130203   5.559   2.504   0.818
 9768SOL    HW230204   5.503   2.640   0.747
 9769SOL     OW30205   3.235   1.108   5.509
 9769SOL    HW130206   3.271   1.185   5.457
 9769SOL    HW230207   3.303   1.035   5.512
 9770SOL     OW30208   3.517   2.133   6.107
 9770SOL    HW130209   3.466   2.151   6.023
 9770SOL    HW230210   3.606   2.177   6.102
 9771SOL     OW30211   2.222   6.744   1.623
 9771SOL    HW130212   2.252   6.840   1.619
 9771SOL    HW230213   2.239   6.708   1.715
 9772SOL     OW30214   1.610   6.035   1.927
 9772SOL    HW130215   1.646   6.116   1.881
 9772SOL    HW230216   1.526   6.006   1.882
 9773SOL     OW30217   5.841   5.301   3.085
 9773SOL    HW130218   5.779   5.234   3.043
 9773SOL    HW230219   5.854   5.279   3.181
 9774SOL     OW30220   1.005   5.469   3.660
 9774SOL    HW130221   1.021   5.391   3.600
 9774SOL    HW230222   0.927   5.451   3.720
 9775SOL     OW30223   3.052   0.844   3.175
 9775SOL    HW130224   3.048   0.776   3.248
 9775SOL    HW230225   2.984   0.823   3.106
 9776SOL     OW30226   1.679   5.247   6.356
 9776SOL    HW130227   1.611   5.191   6.309
 9776SOL    HW230228   1.725   5.192   6.425
 9777SOL     OW30229   5.259   6.677   6.481
 9777SOL    HW130230   5.336   6.681   6.417
 9777SOL    HW230231   5.197   6.604   6.454
 9778SOL     OW30232   0.062   1.771   4.693
 9778SOL    HW130233   0.081   1.680   4.655
 9778SOL    HW230234   0.145   1.826   4.689
 9779SOL     OW30235   0.558   2.455   3.443
 9779SOL    HW130236   0.522   2.384   3.382
 9779SOL    HW230237   0.658   2.459   3.434
 9780SOL     OW30238   1.386   1.452   1.556
 9780SOL    HW130239   1.382   1.498   1.467
 9780SOL    HW230240   1.328   1.371   1.554
 9781SOL     OW30241   1.311   3.980   4.028
 9781SOL    HW130242   1.298   3.929   3.943
 9781SOL    HW230243   1.322   3.916   4.104
 9782SOL     OW30244   0.371   2.447   0.790
 9782SOL    HW130245   0.419   2.519   0.840
 9782SOL    HW230246   0.272   2.463   0.795
 9783SOL     OW30247   4.019   1.772   2.974
 9783SOL    HW130248   4.067   1.845   2.925
 9783SOL    HW230249   3.950   1.812   3.033
 9784SOL     OW30250   3.154   0.908   6.444
 9784SOL    HW130251   3.065   0.946   6.417
 9784SOL    HW230252   3.140   0.830   6.505
 9785SOL     OW30253   6.759   2.180   4.564
 9785SOL    HW130254   6.766   2.267   4.515
 9785SOL    HW230255   6.717   2.111   4.506
 9786SOL     OW30256   2.952   4.518   0.906
 9786SOL    HW130257   2.902   4.432   0.919
 9786SOL    HW230258   3.032   4.502   0.849
 9787SOL     OW30259   3.606   3.409   4.098
 9787SOL    HW130260   3.537   3.478   4.119
 9787SOL    HW230261   3.689   3.454   4.066
 9788SOL     OW30262   0.968   5.528   2.017
 9788SOL    HW130263   1.051   5.536   1.961
 9788SOL    HW230264   0.888   5.549   1.961
 9789SOL     OW30265   3.062   7.002   7.013
 9789SOL    HW130266   3.039   6.936   0.066
 9789SOL    HW230267   2.981   0.002   6.957
 9790SOL     OW30268   6.356   4.562   5.231
 9790SOL    HW130269   6.435   4.515   5.269
 9790SOL    HW230270   6.285   4.495   5.209
 9791SOL     OW30271   0.677   6.858   0.182
 9791SOL    HW130272   0.593   6.859   0.128
 9791SOL    HW230273   0.726   6.944   0.169
 9792SOL     OW30274   3.692   5.491   0.633
 9792SOL    HW130275   3.604   5.444   0.638
 9792SOL    HW230276   3.705   5.548   0.714
 9793SOL     OW30277   4.030   0.740   1.206
 9793SOL    HW130278   4.021   0.670   1.136
 9793SOL    HW230279   4.027   0.698   1.296
 9794SOL     OW30280   4.900   4.504   4.566
 9794SOL    HW130281   4.848   4.589   4.577
 9794SOL    HW230282   4.983   4.522   4.515
 9795SOL     OW30283   1.066   3.090   4.239
 9795SOL    HW130284   1.098   2.997   4.221
 9795SOL    HW230285   0.984   3.108   4.183
 9796SOL     OW30286   4.054   3.709   3.946
 9796SOL    HW130287   4.064   3.623   3.895
 9796SOL    HW230288   4.059   3.786   3.882
 9797SOL     OW30289   2.807   6.201   6.729
 9797SOL    HW130290   2.752   6.168   6.653
 9797SOL    HW230291   2.752   6.206   6.812
 9798SOL     OW30292   2.509   1.703   1.173
 9798SOL    HW130293   2.425   1.650   1.179
 9798SOL    HW230294   2.488   1.800   1.179
 9799SOL     OW30295   3.047   4.484   6.291
 9799SOL    HW130296   2.985   4.523   6.359
 9799SOL    HW230297   2.995   4.425   6.229
 9800SOL     OW30298   6.142   3.149   4.235
 9800SOL    HW130299   6.108   3.153   4.141
 9800SOL    HW230300   6.242   3.153   4.235
 9801SOL     OW30301   5.024   4.709   0.019
 9801SOL    HW130302   5.059   4.633   0.074
 9801SOL    HW230303   5.096   4.778   0.008
 9802SOL     OW30304   4.296   4.560   0.399
 9802SOL    HW130305   4.200   4.559   0.426
 9802SOL    HW230306   4.319   4.651   0.363
 9803SOL     OW30307   1.948   2.919   6.899
 9803SOL    HW130308   1.955   2.919   6.799
 9803SOL    HW230309   2.029   2.962   6.938
 9804SOL     OW30310   6.587   5.907   3.039
 9804SOL    HW130311   6.627   5.985   2.990
 9804SOL    HW230312   6.488   5.906   3.023
 9805SOL     OW30313   1.026   6.643   3.028
 9805SOL    HW130314   1.067   6.580   3.093
 9805SOL    HW230315   0.965   6.706   3.076
 9806SOL     OW30316   3.197   2.511   6.384
 9806SOL    HW130317   3.247   2.426   6.401
 9806SOL    HW230318   3.142   2.501   6.300
 9807SOL     OW30319   3.378   2.845   2.543
 9807SOL    HW130320   3.448   2.847   2.614
 9807SOL    HW230321   3.390   2.763   2.487
 9808SOL     OW30322   4.318   5.506   3.785
 9808SOL    HW130323   4.323   5.485   3.883
 9808SOL    HW230324   4.243   5.454   3.744
 9809SOL     OW30325   0.533   3.215   0.457
 9809SOL    HW130326   0.497   3.145   0.395
 9809SOL    HW230327   0.596   3.275   0.408
 9810SOL     OW30328   2.704   1.952   4.934
 9810SOL    HW130329   2.641   1.906   4.871
 9810SOL    HW230330   2.793   1.964   4.889
 9811SOL     OW30331   6.374   3.031   3.811
 9811SOL    HW130332   6.347   2.954   3.753
 9811SOL    HW230333   6.365   3.005   3.907
 9812SOL     OW30334   2.755   0.127   4.410
 9812SOL    HW130335   2.823   0.058   4.387
 9812SOL    HW230336   2.766   0.207   4.351
 9813SOL     OW30337   5.754   2.592   0.558
 9813SOL    HW130338   5.846   2.568   0.589
 9813SOL    HW230339   5.687   2.572   0.630
 9814SOL     OW30340   5.556   1.842   0.134
 9814SOL    HW130341   5.582   1.937   0.146
 9814SOL    HW230342   5.470   1.824   0.181
 9815SOL     OW30343   4.561   2.185   3.899
 9815SOL    HW130344   4.658   2.188   3.920
 9815SOL    HW230345   4.542   2.108   3.838
 9816SOL     OW30346   0.960   6.783   5.879
 9816SOL    HW130347   0.985   6.797   5.975
 9816SOL    HW230348   0.902   6.859   5.848
 9817SOL     OW30349   0.734   6.968   3.141
 9817SOL    HW130350   0.662   6.967   3.210
 9817SOL    HW230351   0.747   6.875   3.105
 9818SOL     OW30352   5.805   1.843   4.875
 9818SOL    HW130353   5.861   1.892   4.941
 9818SOL    HW230354   5.865   1.795   4.811
 9819SOL     OW30355   4.674   2.699   3.364
 9819SOL    HW130356   4.594   2.688   3.422
 9819SOL    HW230357   4.706   2.610   3.333
 9820SOL     OW30358   3.398   3.595   6.803
 9820SOL    HW130359   3.463   3.587   6.728
 9820SOL    HW230360   3.310   3.628   6.768
 9821SOL     OW30361   6.281   6.971   6.676
 9821SOL    HW130362   6.229   6.931   6.752
 9821SOL    HW230363   6.284   0.051   6.686
 9822SOL     OW30364   0.735   0.260   2.745
 9822SOL    HW130365   0.777   0.345   2.713
 9822SOL    HW230366   0.643   0.253   2.707
 9823SOL     OW30367   3.250   0.429   1.025
 9823SOL    HW130368   3.287   0.435   1.118
 9823SOL    HW230369   3.320   0.391   0.965
 9824SOL     OW30370   1.347   3.898   5.950
 9824SOL    HW130371   1.273   3.865   5.892
 9824SOL    HW230372   1.394   3.974   5.905
 9825SOL     OW30373   3.511   5.452   5.647
 9825SOL    HW130374   3.514   5.436   5.746
 9825SOL    HW230375   3.559   5.379   5.600
 9826SOL     OW30376   4.013   6.147   6.181
 9826SOL    HW130377   4.025   6.101   6.093
 9826SOL    HW230378   3.915   6.151   6.203
 9827SOL     OW30379   2.096   4.492   4.248
 9827SOL    HW130380   2.016   4.511   4.191
 9827SOL    HW230381   2.089   4.543   4.334
 9828SOL     OW30382   3.494   2.886   6.595
 9828SOL    HW130383   3.556   2.814   6.564
 9828SOL    HW230384   3.400   2.850   6.599
 9829SOL     OW30385   2.800   6.424   0.757
 9829SOL    HW130386   2.821   6.450   0.852
 9829SOL    HW230387   2.740   6.345   0.757
 9830SOL     OW30388   5.621   2.174   1.652
 9830SOL    HW130389   5.704   2.119   1.659
 9830SOL    HW230390   5.625   2.229   1.569
 9831SOL     OW30391   1.584   5.958   0.461
 9831SOL    HW130392   1.635   6.030   0.509
 9831SOL    HW230393   1.554   5.993   0.372
 9832SOL     OW30394   4.809   5.456   2.679
 9832SOL    HW130395   4.801   5.525   2.751
 9832SOL    HW230396   4.763   5.488   2.596
 9833SOL     OW30397   3.284   2.750   5.320
 9833SOL    HW130398   3.242   2.660   5.319
 9833SOL    HW230399   3.274   2.792   5.229
 9834SOL     OW30400   2.514   4.088   5.604
 9834SOL    HW130401   2.439   4.058   5.545
 9834SOL    HW230402   2.589   4.123   5.547
 9835SOL     OW30403   4.386   2.490   5.620
 9835SOL    HW130404   4.468   2.439   5.593
 9835SOL    HW230405   4.401   2.531   5.711
 9836SOL     OW30406   6.403   3.989   3.227
 9836SOL    HW130407   6.471   3.916   3.220
 9836SOL    HW230408   6.413   4.051   3.149
 9837SOL     OW30409   1.917   0.231   2.470
 9837SOL    HW130410   1.875   0.288   2.541
 9837SOL    HW230411   2.013   0.255   2.460
 9838SOL     OW30412   0.411   6.930   5.353
 9838SOL    HW130413   0.442   6.846   5.397
 9838SOL    HW230414   0.343   6.975   5.410
 9839SOL     OW30415   6.599   1.459   2.755
 9839SOL    HW130416   6.658   1.442   2.833
 9839SOL    HW230417   6.577   1.373   2.709
 9840SOL     OW30418   0.191   0.550   0.582
 9840SOL    HW130419   0.153   0.594   0.500
 9840SOL    HW230420   0.131   0.569   0.660
 9841SOL     OW30421   1.279   4.807   4.892
 9841SOL    HW130422   1.299   4.724   4.840
 9841SOL    HW230423   1.349   4.876   4.874
 9842SOL     OW30424   3.639   4.147   3.087
 9842SOL    HW130425   3.631   4.245   3.106
 9842SOL    HW230426   3.561   4.117   3.033
 9843SOL     OW30427   6.778   1.693   1.815
 9843SOL    HW130428   6.749   1.721   1.906
 9843SOL    HW230429   6.878   1.702   1.807
 9844SOL     OW30430   4.868   0.421   2.851
 9844SOL    HW130431   4.840   0.325   2.844
 9844SOL    HW230432   4.871   0.449   2.947
 9845SOL     OW30433   2.386   1.440   4.882
 9845SOL    HW130434   2.388   1.482   4.973
 9845SOL    HW230435   2.350   1.347   4.890
 9846SOL     OW30436   3.969   3.468   2.800
 9846SOL    HW130437   3.929   3.462   2.709
 9846SOL    HW230438   4.012   3.381   2.824
 9847SOL     OW30439   2.791   2.685   6.081
 9847SOL    HW130440   2.761   2.634   6.162
 9847SOL    HW230441   2.711   2.710   6.026
 9848SOL     OW30442   3.600   2.358   6.489
 9848SOL    HW130443   3.523   2.333   6.429
 9848SOL    HW230444   3.567   2.370   6.582
 9849SOL     OW30445   6.322   0.479   0.348
 9849SOL    HW130446   6.250   0.506   0.284
 9849SOL    HW230447   6.397   0.436   0.298
 9850SOL     OW30448   5.147   5.957   2.461
 9850SOL    HW130449   5.073   5.955   2.528
 9850SOL    HW230450   5.232   5.985   2.506
 9851SOL     OW30451   4.506   1.838   5.315
 9851SOL    HW130452   4.541   1.843   5.408
 9851SOL    HW230453   4.454   1.754   5.303
 9852SOL     OW30454   4.103   2.039   3.194
 9852SOL    HW130455   4.089   2.063   3.098
 9852SOL    HW230456   4.169   1.964   3.200
 9853SOL     OW30457   4.707   4.225   3.413
 9853SOL    HW130458   4.697   4.207   3.511
 9853SOL    HW230459   4.619   4.254   3.375
 9854SOL     OW30460   5.843   4.844   5.099
 9854SOL    HW130461   5.924   4.871   5.048
 9854SOL    HW230462   5.821   4.915   5.166
 9855SOL     OW30463   1.798   4.330   1.552
 9855SOL    HW130464   1.758   4.331   1.644
 9855SOL    HW230465   1.726   4.348   1.485
 9856SOL     OW30466   4.905   4.213   0.448
 9856SOL    HW130467   4.845   4.228   0.370
 9856SOL    HW230468   4.997   4.246   0.426
 9857SOL     OW30469   5.202   2.229   3.454
 9857SOL    HW130470   5.203   2.138   3.495
 9857SOL    HW230471   5.115   2.274   3.473
 9858SOL     OW30472   6.053   0.901   1.408
 9858SOL    HW130473   6.083   0.976   1.350
 9858SOL    HW230474   5.954   0.902   1.415
 9859SOL     OW30475   6.583   0.063   1.169
 9859SOL    HW130476   6.487   0.080   1.190
 9859SOL    HW230477   6.595   0.062   1.070
 9860SOL     OW30478   0.008   1.107   1.961
 9860SOL    HW130479   0.077   1.043   1.927
 9860SOL    HW230480   7.016   1.097   2.060
 9861SOL     OW30481   2.891   0.029   3.386
 9861SOL    HW130482   2.838   0.050   3.469
 9861SOL    HW230483   2.971   6.993   3.411
 9862SOL     OW30484   2.829   4.001   0.778
 9862SOL    HW130485   2.731   3.983   0.785
 9862SOL    HW230486   2.880   3.926   0.821
 9863SOL     OW30487   3.363   0.182   3.057
 9863SOL    HW130488   3.352   0.084   3.076
 9863SOL    HW230489   3.428   0.221   3.123
 9864SOL     OW30490   3.907   5.658   3.699
 9864SOL    HW130491   3.906   5.741   3.754
 9864SOL    HW230492   3.966   5.589   3.743
 9865SOL     OW30493   1.305   1.428   5.019
 9865SOL    HW130494   1.328   1.427   4.922
 9865SOL    HW230495   1.225   1.370   5.035
 9866SOL     OW30496   5.065   4.082   4.436
 9866SOL    HW130497   5.123   4.128   4.502
 9866SOL    HW230498   4.970   4.085   4.468
 9867SOL     OW30499   5.708   0.248   1.304
 9867SOL    HW130500   5.664   0.171   1.351
 9867SOL    HW230501   5.651   0.330   1.313
 9868SOL     OW30502   1.277   4.475   5.846
 9868SOL    HW130503   1.251   4.432   5.932
 9868SOL    HW230504   1.273   4.406   5.773
 9869SOL     OW30505   2.172   3.296   2.668
 9869SOL    HW130506   2.140   3.382   2.707
 9869SOL    HW230507   2.175   3.226   2.739
 9870SOL     OW30508   4.305   5.913   2.382
 9870SOL    HW130509   4.231   5.974   2.411
 9870SOL    HW230510   4.329   5.932   2.287
 9871SOL     OW30511   1.046   0.057   5.701
 9871SOL    HW130512   1.031   6.985   5.660
 9871SOL    HW230513   0.979   0.121   5.664
 9872SOL     OW30514   3.264   5.241   4.201
 9872SOL    HW130515   3.331   5.261   4.272
 9872SOL    HW230516   3.277   5.304   4.124
 9873SOL     OW30517   2.304   2.180   1.251
 9873SOL    HW130518   2.221   2.127   1.233
 9873SOL    HW230519   2.316   2.249   1.179
 9874SOL     OW30520   0.622   2.890   4.246
 9874SOL    HW130521   0.713   2.866   4.213
 9874SOL    HW230522   0.629   2.933   4.336
 9875SOL     OW30523   0.095   6.698   2.133
 9875SOL    HW130524   0.033   6.623   2.155
 9875SOL    HW230525   0.174   6.695   2.193
 9876SOL     OW30526   6.805   0.919   2.362
 9876SOL    HW130527   6.772   0.943   2.271
 9876SOL    HW230528   6.733   0.872   2.413
 9877SOL     OW30529   0.582   6.062   3.098
 9877SOL    HW130530   0.580   6.119   3.180
 9877SOL    HW230531   0.668   6.010   3.096
 9878SOL     OW30532   2.788   5.491   4.542
 9878SOL    HW130533   2.780   5.416   4.608
 9878SOL    HW230534   2.836   5.459   4.460
 9879SOL     OW30535   5.704   5.208   4.743
 9879SOL    HW130536   5.777   5.142   4.726
 9879SOL    HW230537   5.646   5.215   4.662
 9880SOL     OW30538   2.120   2.115   5.430
 9880SOL    HW130539   2.026   2.147   5.437
 9880SOL    HW230540   2.152   2.085   5.520
 9881SOL     OW30541   1.846   1.218   4.819
 9881SOL    HW130542   1.762   1.192   4.773
 9881SOL    HW230543   1.863   1.155   4.896
 9882SOL     OW30544   0.784   2.263   3.579
 9882SOL    HW130545   0.805   2.166   3.569
 9882SOL    HW230546   0.753   2.282   3.672
 9883SOL     OW30547   1.800   5.338   6.999
 9883SOL    HW130548   1.897   5.319   7.016
 9883SOL    HW230549   1.765   5.276   6.930
 9884SOL     OW30550   4.042   1.503   3.043
 9884SOL    HW130551   3.998   1.591   3.024
 9884SOL    HW230552   4.140   1.515   3.052
 9885SOL     OW30553   0.072   3.172   5.352
 9885SOL    HW130554   0.133   3.096   5.330
 9885SOL    HW230555   0.125   3.248   5.390
 9886SOL     OW30556   0.567   4.490   1.832
 9886SOL    HW130557   0.654   4.520   1.794
 9886SOL    HW230558   0.551   4.535   1.919
 9887SOL     OW30559   3.214   1.303   6.302
 9887SOL    HW130560   3.172   1.238   6.238
 9887SOL    HW230561   3.243   1.385   6.253
 9888SOL     OW30562   6.645   4.184   1.772
 9888SOL    HW130563   6.641   4.211   1.676
 9888SOL    HW230564   6.671   4.263   1.828
 9889SOL     OW30565   6.614   5.099   1.601
 9889SOL    HW130566   6.539   5.096   1.666
 9889SOL    HW230567   6.701   5.100   1.650
 9890SOL     OW30568   1.521   2.191   0.344
 9890SOL    HW130569   1.497   2.236   0.258
 9890SOL    HW230570   1.450   2.124   0.367
 9891SOL     OW30571   5.943   3.324   0.998
 9891SOL    HW130572   5.961   3.315   1.096
 9891SOL    HW230573   5.934   3.233   0.957
 9892SOL     OW30574   6.961   5.120   0.562
 9892SOL    HW130575   6.966   5.192   0.631
 9892SOL    HW230576   6.881   5.063   0.580
 9893SOL     OW30577   0.994   0.034   1.220
 9893SOL    HW130578   0.988   6.953   1.223
 9893SOL    HW230579   1.077   0.062   1.172
 9894SOL     OW30580   1.861   2.638   2.132
 9894SOL    HW130581   1.820   2.660   2.043
 9894SOL    HW230582   1.866   2.720   2.188
 9895SOL     OW30583   6.484   3.812   5.414
 9895SOL    HW130584   6.516   3.718   5.429
 9895SOL    HW230585   6.391   3.809   5.377
 9896SOL     OW30586   5.933   0.481   6.820
 9896SOL    HW130587   5.946   0.549   6.892
 9896SOL    HW230588   5.909   0.527   6.735
 9897SOL     OW30589   6.607   5.616   3.394
 9897SOL    HW130590   6.575   5.668   3.473
 9897SOL    HW230591   6.541   5.623   3.319
 9898SOL     OW30592   1.971   6.404   5.071
 9898SOL    HW130593   2.002   6.392   5.166
 9898SOL    HW230594   1.936   6.497   5.059
 9899SOL     OW30595   0.611   5.715   6.610
 9899SOL    HW130596   0.609   5.768   6.525
 9899SOL    HW230597   0.615   5.617   6.589
 9900SOL     OW30598   1.937   3.806   3.119
 9900SOL    HW130599   1.896   3.750   3.047
 9900SOL    HW230600   1.864   3.854   3.168
 9901SOL     OW30601   2.913   0.909   6.102
 9901SOL    HW130602   2.831   0.959   6.073
 9901SOL    HW230603   2.914   0.902   6.202
 9902SOL     OW30604   3.502   5.002   0.487
 9902SOL    HW130605   3.601   4.993   0.499
 9902SOL    HW230606   3.482   5.018   0.390
 9903SOL     OW30607   4.946   1.352   1.669
 9903SOL    HW130608   4.903   1.429   1.622
 9903SOL    HW230609   4.894   1.268   1.651
 9904SOL     OW30610   1.247   4.373   0.284
 9904SOL    HW130611   1.237   4.295   0.345
 9904SOL    HW230612   1.344   4.385   0.261
 9905SOL     OW30613   2.727   0.411   6.295
 9905SOL    HW130614   2.816   0.441   6.329
 9905SOL    HW230615   2.739   0.335   6.231
 9906SOL     OW30616   2.579   3.034   1.702
 9906SOL    HW130617   2.525   2.958   1.739
 9906SOL    HW230618   2.676   3.013   1.711
 9907SOL     OW30619   6.610   7.007   0.887
 9907SOL    HW130620   6.654   6.941   0.826
 9907SOL    HW230621   6.511   7.004   0.874
 9908SOL     OW30622   4.895   1.752   4.318
 9908SOL    HW130623   4.928   1.808   4.242
 9908SOL    HW230624   4.931   1.788   4.404
 9909SOL     OW30625   4.239   0.344   3.897
 9909SOL    HW130626   4.337   0.368   3.898
 9909SOL    HW230627   4.198   0.373   3.984
 9910SOL     OW30628   1.890   3.943   2.756
 9910SOL    HW130629   1.964   3.883   2.787
 9910SOL    HW230630   1.802   3.906   2.786
 9911SOL     OW30631   2.814   6.478   1.713
 9911SOL    HW130632   2.724   6.464   1.754
 9911SOL    HW230633   2.867   6.393   1.718
 9912SOL     OW30634   3.845   0.902   1.476
 9912SOL    HW130635   3.787   0.971   1.520
 9912SOL    HW230636   3.912   0.946   1.417
 9913SOL     OW30637   6.350   4.378   1.300
 9913SOL    HW130638   6.443   4.414   1.305
 9913SOL    HW230639   6.293   4.425   1.368
 9914SOL     OW30640   5.506   2.003   4.481
 9914SOL    HW130641   5.539   1.950   4.403
 9914SOL    HW230642   5.575   2.002   4.553
 9915SOL     OW30643   5.131   0.707   4.150
 9915SOL    HW130644   5.160   0.673   4.239
 9915SOL    HW230645   5.032   0.697   4.140
 9916SOL     OW30646   1.911   2.561   3.312
 9916SOL    HW130647   1.847   2.500   3.265
 9916SOL    HW230648   2.005   2.535   3.290
 9917SOL     OW30649   5.585   4.192   0.116
 9917SOL    HW130650   5.551   4.232   0.201
 9917SOL    HW230651   5.649   4.118   0.136
 9918SOL     OW30652   3.378   0.984   3.564
 9918SOL    HW130653   3.420   1.006   3.652
 9918SOL    HW230654   3.387   1.063   3.503
 9919SOL     OW30655   6.685   5.231   1.376
 9919SOL    HW130656   6.653   5.182   1.457
 9919SOL    HW230657   6.781   5.256   1.388
 9920SOL     OW30658   4.576   1.083   2.288
 9920SOL    HW130659   4.662   1.041   2.317
 9920SOL    HW230660   4.500   1.021   2.307
 9921SOL     OW30661   4.121   6.997   5.707
 9921SOL    HW130662   4.027   6.972   5.730
 9921SOL    HW230663   4.183   6.962   5.778
 9922SOL     OW30664   2.815   4.306   0.242
 9922SOL    HW130665   2.871   4.349   0.312
 9922SOL    HW230666   2.857   4.319   0.152
 9923SOL     OW30667   4.932   4.454   6.871
 9923SOL    HW130668   4.847   4.416   6.834
 9923SOL    HW230669   4.909   4.519   6.944
 9924SOL     OW30670   6.235   1.981   5.190
 9924SOL    HW130671   6.220   2.059   5.251
 9924SOL    HW230672   6.304   1.921   5.231
 9925SOL     OW30673   6.698   3.347   4.413
 9925SOL    HW130674   6.726   3.339   4.509
 9925SOL    HW230675   6.637   3.426   4.403
 9926SOL     OW30676   3.847   2.759   0.769
 9926SOL    HW130677   3.850   2.844   0.822
 9926SOL    HW230678   3.938   2.740   0.731
 9927SOL     OW30679   6.916   6.408   0.534
 9927SOL    HW130680   6.947   6.404   0.629
 9927SOL    HW230681   6.871   6.496   0.517
 9928SOL     OW30682   5.271   4.756   2.315
 9928SOL    HW130683   5.359   4.758   2.363
 9928SOL    HW230684   5.203   4.805   2.369
 9929SOL     OW30685   2.982   4.681   5.520
 9929SOL    HW130686   2.916   4.624   5.569
 9929SOL    HW230687   2.942   4.711   5.434
 9930SOL     OW30688   6.879   6.682   4.665
 9930SOL    HW130689   6.821   6.706   4.743
 9930SOL    HW230690   6.859   6.745   4.590
 9931SOL     OW30691   0.536   5.587   3.938
 9931SOL    HW130692   0.623   5.637   3.949
 9931SOL    HW230693   0.479   5.603   4.019
 9932SOL     OW30694   2.904   4.953   6.652
 9932SOL    HW130695   2.963   4.884   6.610
 9932SOL    HW230696   2.818   4.911   6.682
 9933SOL     OW30697   0.150   6.062   3.706
 9933SOL    HW130698   0.112   5.970   3.703
 9933SOL    HW230699   0.210   6.072   3.785
 9934SOL     OW30700   5.071   1.927   5.631
 9934SOL    HW130701   5.093   1.942   5.728
 9934SOL    HW230702   4.997   1.988   5.603
 9935SOL     OW30703   2.594   6.664   0.209
 9935SOL    HW130704   2.638   6.624   0.290
 9935SOL    HW230705   2.619   6.612   0.128
 9936SOL     OW30706   6.563   5.091   6.895
 9936SOL    HW130707   6.551   5.000   6.935
 9936SOL    HW230708   6.512   5.158   6.949
 9937SOL     OW30709   6.637   1.576   0.570
 9937SOL    HW130710   6.622   1.589   0.668
 9937SOL    HW230711   6.549   1.561   0.525
 9938SOL     OW30712   6.844   5.321   2.507
 9938SOL    HW130713   6.790   5.270   2.574
 9938SOL    HW230714   6.799   5.408   2.487
 9939SOL     OW30715   4.217   2.539   0.872
 9939SOL    HW130716   4.188   2.497   0.958
 9939SOL    HW230717   4.272   2.620   0.892
 9940SOL     OW30718   1.058   0.405   1.128
 9940SOL    HW130719   1.123   0.366   1.062
 9940SOL    HW230720   0.967   0.368   1.109
 9941SOL     OW30721   3.166   4.008   5.596
 9941SOL    HW130722   3.216   4.012   5.510
 9941SOL    HW230723   3.143   3.913   5.617
 9942SOL     OW30724   2.562   5.584   2.138
 9942SOL    HW130725   2.638   5.526   2.107
 9942SOL    HW230726   2.599   5.661   2.190
 9943SOL     OW30727   6.755   5.032   5.240
 9943SOL    HW130728   6.705   5.025   5.154
 9943SOL    HW230729   6.696   5.071   5.311
 9944SOL     OW30730   1.562   4.519   6.268
 9944SOL    HW130731   1.561   4.420   6.257
 9944SOL    HW230732   1.557   4.542   6.365
 9945SOL     OW30733   5.832   5.623   6.472
 9945SOL    HW130734   5.758   5.626   6.540
 9945SOL    HW230735   5.873   5.531   6.473
 9946SOL     OW30736   4.722   1.142   3.735
 9946SOL    HW130737   4.719   1.042   3.730
 9946SOL    HW230738   4.760   1.170   3.824
 9947SOL     OW30739   1.733   3.027   4.894
 9947SOL    HW130740   1.675   3.105   4.872
 9947SOL    HW230741   1.711   2.994   4.986
 9948SOL     OW30742   5.283   4.122   4.696
 9948SOL    HW130743   5.350   4.146   4.767
 9948SOL    HW230744   5.218   4.197   4.684
 9949SOL     OW30745   6.559   5.022   4.345
 9949SOL    HW130746   6.632   5.019   4.276
 9949SOL    HW230747   6.587   5.080   4.421
 9950SOL     OW30748   5.623   5.945   5.073
 9950SOL    HW130749   5.565   6.023   5.051
 9950SOL    HW230750   5.712   5.977   5.106
 9951SOL     OW30751   6.593   0.626   4.681
 9951SOL    HW130752   6.674   0.570   4.661
 9951SOL    HW230753   6.544   0.588   4.759
 9952SOL     OW30754   0.814   3.561   1.472
 9952SOL    HW130755   0.862   3.541   1.387
 9952SOL    HW230756   0.868   3.626   1.526
 9953SOL     OW30757   6.090   2.857   4.471
 9953SOL    HW130758   6.040   2.878   4.387
 9953SOL    HW230759   6.185   2.834   4.449
 9954SOL     OW30760   6.523   0.451   5.896
 9954SOL    HW130761   6.540   0.430   5.993
 9954SOL    HW230762   6.444   0.399   5.864
 9955SOL     OW30763   6.488   3.589   5.116
 9955SOL    HW130764   6.394   3.555   5.120
 9955SOL    HW230765   6.487   3.687   5.098
 9956SOL     OW30766   1.080   0.062   2.281
 9956SOL    HW130767   1.071   0.011   2.195
 9956SOL    HW230768   1.158   0.025   2.333
 9957SOL     OW30769   5.117   5.611   2.297
 9957SOL    HW130770   5.202   5.642   2.338
 9957SOL    HW230771   5.088   5.525   2.339
 9958SOL     OW30772   3.707   5.619   0.881
 9958SOL    HW130773   3.619   5.642   0.921
 9958SOL    HW230774   3.775   5.686   0.910
 9959SOL     OW30775   4.142   3.623   5.061
 9959SOL    HW130776   4.146   3.608   4.962
 9959SOL    HW230777   4.124   3.719   5.079
 9960SOL     OW30778   7.015   6.721   2.556
 9960SOL    HW130779   6.941   6.699   2.491
 9960SOL    HW230780   0.056   6.790   2.516
 9961SOL     OW30781   1.673   5.241   4.222
 9961SOL    HW130782   1.731   5.269   4.145
 9961SOL    HW230783   1.704   5.151   4.255
 9962SOL     OW30784   6.448   0.029   2.960
 9962SOL    HW130785   6.358   0.073   2.950
 9962SOL    HW230786   6.441   6.972   3.025
 9963SOL     OW30787   3.022   2.857   6.522
 9963SOL    HW130788   2.979   2.947   6.526
 9963SOL    HW230789   2.982   2.798   6.593
 9964SOL     OW30790   5.068   4.860   5.536
 9964SOL    HW130791   5.010   4.928   5.493
 9964SOL    HW230792   5.140   4.832   5.473
 9965SOL     OW30793   3.637   6.562   6.240
 9965SOL    HW130794   3.625   6.588   6.144
 9965SOL    HW230795   3.639   6.644   6.297
 9966SOL     OW30796   1.562   5.612   1.881
 9966SOL    HW130797   1.565   5.513   1.883
 9966SOL    HW230798   1.639   5.647   1.827
 9967SOL     OW30799   0.497   6.537   2.121
 9967SOL    HW130800   0.467   6.454   2.167
 9967SOL    HW230801   0.452   6.616   2.162
 9968SOL     OW30802   3.491   3.803   1.377
 9968SOL    HW130803   3.518   3.899   1.373
 9968SOL    HW230804   3.417   3.792   1.444
 9969SOL     OW30805   1.817   2.860   2.296
 9969SOL    HW130806   1.846   2.945   2.339
 9969SOL    HW230807   1.722   2.867   2.267
 9970SOL     OW30808   5.169   3.625   2.752
 9970SOL    HW130809   5.078   3.662   2.767
 9970SOL    HW230810   5.168   3.568   2.669
 9971SOL     OW30811   1.910   5.125   1.780
 9971SOL    HW130812   1.991   5.094   1.730
 9971SOL    HW230813   1.909   5.082   1.871
 9972SOL     OW30814   5.148   5.085   1.258
 9972SOL    HW130815   5.188   5.031   1.184
 9972SOL    HW230816   5.190   5.059   1.345
 9973SOL     OW30817   5.620   2.118   4.088
 9973SOL    HW130818   5.571   2.180   4.027
 9973SOL    HW230819   5.666   2.171   4.159
 9974SOL     OW30820   0.814   2.575   2.797
 9974SOL    HW130821   0.822   2.671   2.772
 9974SOL    HW230822   0.901   2.544   2.836
 9975SOL     OW30823   6.318   4.207   0.038
 9975SOL    HW130824   6.343   4.285   7.000
 9975SOL    HW230825   6.329   4.123   7.004
 9976SOL     OW30826   1.259   6.507   5.415
 9976SOL    HW130827   1.180   6.455   5.447
 9976SOL    HW230828   1.227   6.590   5.370
 9977SOL     OW30829   6.819   5.384   5.247
 9977SOL    HW130830   6.883   5.454   5.217
 9977SOL    HW230831   6.840   5.358   5.341
 9978SOL     OW30832   0.635   2.472   4.333
 9978SOL    HW130833   0.595   2.542   4.273
 9978SOL    HW230834   0.566   2.403   4.354
 9979SOL     OW30835   6.032   5.057   5.387
 9979SOL    HW130836   6.019   5.141   5.441
 9979SOL    HW230837   5.943   5.018   5.365
 9980SOL     OW30838   2.027   0.721   6.400
 9980SOL    HW130839   1.950   0.673   6.442
 9980SOL    HW230840   2.099   0.655   6.377
 9981SOL     OW30841   2.573   1.312   2.934
 9981SOL    HW130842   2.515   1.278   3.007
 9981SOL    HW230843   2.523   1.380   2.880
 9982SOL     OW30844   6.368   6.378   4.656
 9982SOL    HW130845   6.457   6.346   4.688
 9982SOL    HW230846   6.368   6.384   4.556
 9983SOL     OW30847   6.589   2.048   2.767
 9983SOL    HW130848   6.649   2.113   2.720
 9983SOL    HW230849   6.644   1.983   2.820
 9984SOL     OW30850   2.262   0.904   0.182
 9984SOL    HW130851   2.352   0.907   0.138
 9984SOL    HW230852   2.194   0.874   0.116
 9985SOL     OW30853   1.186   0.703   0.872
 9985SOL    HW130854   1.236   0.779   0.831
 9985SOL    HW230855   1.096   0.736   0.902
 9986SOL     OW30856   5.562   4.588   5.999
 9986SOL    HW130857   5.473   4.550   5.976
 9986SOL    HW230858   5.634   4.529   5.962
 9987SOL     OW30859   0.386   2.861   4.145
 9987SOL    HW130860   0.475   2.862   4.189
 9987SOL    HW230861   0.379   2.783   4.084
 9988SOL     OW30862   0.020   6.052   3.993
 9988SOL    HW130863   6.973   6.066   4.067
 9988SOL    HW230864   0.011   6.127   3.927
 9989SOL     OW30865   6.981   3.611   3.831
 9989SOL    HW130866   6.897   3.633   3.782
 9989SOL    HW230867   6.981   3.655   3.920
 9990SOL     OW30868   2.223   5.476   2.573
 9990SOL    HW130869   2.230   5.376   2.566
 9990SOL    HW230870   2.246   5.517   2.485
 9991SOL     OW30871   2.317   2.130   3.486
 9991SOL    HW130872   2.396   2.074   3.507
 9991SOL    HW230873   2.289   2.181   3.567
 9992SOL     OW30874   5.525   5.462   6.921
 9992SOL    HW130875   5.480   5.400   6.857
 9992SOL    HW230876   5.517   5.426   7.014
 9993SOL     OW30877   2.883   1.376   0.444
 9993SOL    HW130878   2.911   1.420   0.529
 9993SOL    HW230879   2.864   1.279   0.462
 9994SOL     OW30880   6.435   4.313   3.301
 9994SOL    HW130881   6.346   4.358   3.303
 9994SOL    HW230882   6.435   4.241   3.231
 9995SOL     OW30883   4.515   1.459   2.683
 9995SOL    HW130884   4.518   1.442   2.782
 9995SOL    HW230885   4.531   1.373   2.634
 9996SOL     OW30886   3.184   3.615   0.698
 9996SOL    HW130887   3.138   3.527   0.690
 9996SOL    HW230888   3.217   3.644   0.608
 9997SOL     OW30889   3.137   1.557   6.062
 9997SOL    HW130890   3.144   1.640   6.007
 9997SOL    HW230891   3.191   1.568   6.146
 9998SOL     OW30892   5.622   4.805   6.159
 9998SOL    HW130893   5.722   4.798   6.163
 9998SOL    HW230894   5.589   4.751   6.082
 9999SOL     OW30895   6.247   2.606   5.762
 9999SOL    HW130896   6.248   2.515   5.721
 9999SOL    HW230897   6.183   2.665   5.711
10000SOL     OW30898   0.155   4.689   6.875
10000SOL    HW130899   0.191   4.605   6.916
10000SOL    HW230900   0.223   4.729   6.814
10001SOL     OW30901   5.166   6.745   2.006
10001SOL    HW130902   5.072   6.780   2.009
10001SOL    HW230903   5.219   6.785   2.081
10002SOL     OW30904   1.042   6.684   2.664
10002SOL    HW130905   1.072   6.744   2.738
10002SOL    HW230906   1.105   6.689   2.587
10003SOL     OW30907   3.898   1.957   3.358
10003SOL    HW130908   3.928   1.899   3.434
10003SOL    HW230909   3.976   1.977   3.299
10004SOL     OW30910   0.212   2.599   4.088
10004SOL    HW130911   0.283   2.539   4.049
10004SOL    HW230912   0.198   2.575   4.184
10005SOL     OW30913   5.777   0.283   4.367
10005SOL    HW130914   5.866   0.268   4.411
10005SOL    HW230915   5.779   0.369   4.316
10006SOL     OW30916   5.100   5.692   4.667
10006SOL    HW130917   5.088   5.739   4.579
10006SOL    HW230918   5.156   5.611   4.654
10007SOL     OW30919   6.882   4.276   4.955
10007SOL    HW130920   6.883   4.275   5.055
10007SOL    HW230921   6.814   4.341   4.922
10008SOL     OW30922   3.839   1.436   4.653
10008SOL    HW130923   3.885   1.516   4.689
10008SOL    HW230924   3.780   1.462   4.577
10009SOL     OW30925   1.850   3.813   1.839
10009SOL    HW130926   1.902   3.746   1.892
10009SOL    HW230927   1.890   3.903   1.850
10010SOL     OW30928   2.417   0.938   6.093
10010SOL    HW130929   2.429   0.848   6.053
10010SOL    HW230930   2.340   0.936   6.157
10011SOL     OW30931   6.517   1.147   5.890
10011SOL    HW130932   6.482   1.078   5.953
10011SOL    HW230933   6.616   1.136   5.881
10012SOL     OW30934   5.436   1.302   2.999
10012SOL    HW130935   5.503   1.228   3.009
10012SOL    HW230936   5.471   1.370   2.935
10013SOL     OW30937   0.276   1.180   3.478
10013SOL    HW130938   0.348   1.250   3.479
10013SOL    HW230939   0.280   1.130   3.392
10014SOL     OW30940   0.195   4.116   0.280
10014SOL    HW130941   0.283   4.074   0.302
10014SOL    HW230942   0.122   4.049   0.294
10015SOL     OW30943   2.877   5.014   0.555
10015SOL    HW130944   2.786   5.019   0.595
10015SOL    HW230945   2.888   5.087   0.486
10016SOL     OW30946   0.698   1.549   6.631
10016SOL    HW130947   0.642   1.471   6.658
10016SOL    HW230948   0.649   1.603   6.562
10017SOL     OW30949   3.174   1.922   3.111
10017SOL    HW130950   3.112   1.881   3.178
10017SOL    HW230951   3.130   2.002   3.070
10018SOL     OW30952   4.941   0.650   6.743
10018SOL    HW130953   4.885   0.728   6.772
10018SOL    HW230954   5.036   0.666   6.768
10019SOL     OW30955   0.222   1.576   2.719
10019SOL    HW130956   0.311   1.574   2.765
10019SOL    HW230957   0.162   1.506   2.758
10020SOL     OW30958   1.949   2.120   1.450
10020SOL    HW130959   1.950   2.100   1.548
10020SOL    HW230960   1.937   2.218   1.435
10021SOL     OW30961   6.975   2.899   1.119
10021SOL    HW130962   6.971   2.867   1.214
10021SOL    HW230963   0.051   2.923   1.096
10022SOL     OW30964   2.157   1.192   6.076
10022SOL    HW130965   2.153   1.249   5.994
10022SOL    HW230966   2.148   1.096   6.050
10023SOL     OW30967   6.850   4.906   0.706
10023SOL    HW130968   6.944   4.905   0.741
10023SOL    HW230969   6.812   4.814   0.712
10024SOL     OW30970   1.833   6.266   2.976
10024SOL    HW130971   1.790   6.197   2.918
10024SOL    HW230972   1.905   6.223   3.031
10025SOL     OW30973   1.572   0.503   0.900
10025SOL    HW130974   1.495   0.533   0.956
10025SOL    HW230975   1.641   0.576   0.896
10026SOL     OW30976   4.982   6.921   3.602
10026SOL    HW130977   5.071   6.880   3.586
10026SOL    HW230978   4.915   6.849   3.621
10027SOL     OW30979   5.869   3.271   4.525
10027SOL    HW130980   5.859   3.192   4.586
10027SOL    HW230981   5.821   3.252   4.439
10028SOL     OW30982   0.788   0.049   1.451
10028SOL    HW130983   0.848   0.096   1.387
10028SOL    HW230984   0.755   0.114   1.520
10029SOL     OW30985   5.249   2.495   3.821
10029SOL    HW130986   5.164   2.453   3.852
10029SOL    HW230987   5.253   2.492   3.721
10030SOL     OW30988   1.850   0.769   3.064
10030SOL    HW130989   1.871   0.682   3.108
10030SOL    HW230990   1.862   0.760   2.965
10031SOL     OW30991   5.612   4.850   4.121
10031SOL    HW130992   5.552   4.866   4.043
10031SOL    HW230993   5.557   4.818   4.199
10032SOL     OW30994   2.828   1.267   5.225
10032SOL    HW130995   2.850   1.213   5.144
10032SOL    HW230996   2.905   1.263   5.290
10033SOL     OW30997   6.958   3.805   4.406
10033SOL    HW130998   6.948   3.875   4.475
10033SOL    HW230999   6.980   3.717   4.450
10034SOL     OW31000   3.614   0.377   4.513
10034SOL    HW131001   3.655   0.302   4.565
10034SOL    HW231002   3.514   0.372   4.521
10035SOL     OW31003   6.476   5.261   1.971
10035SOL    HW131004   6.482   5.181   2.031
10035SOL    HW231005   6.389   5.258   1.921
10036SOL     OW31006   6.509   1.911   1.009
10036SOL    HW131007   6.555   1.851   1.073
10036SOL    HW231008   6.467   1.857   0.936
10037SOL     OW31009   0.048   1.429   6.438
10037SOL    HW131010   0.075   1.438   6.343
10037SOL    HW231011   0.019   1.518   6.473
10038SOL     OW31012   6.166   0.188   0.137
10038SOL    HW131013   6.240   0.241   0.179
10038SOL    HW231014   6.205   0.121   0.075
10039SOL     OW31015   3.351   0.340   3.413
10039SOL    HW131016   3.380   0.408   3.480
10039SOL    HW231017   3.251   0.341   3.407
10040SOL     OW31018   5.869   4.575   6.887
10040SOL    HW131019   5.904   4.594   6.979
10040SOL    HW231020   5.899   4.484   6.858
10041SOL     OW31021   3.482   6.120   0.244
10041SOL    HW131022   3.469   6.157   0.152
10041SOL    HW231023   3.531   6.033   0.238
10042SOL     OW31024   6.992   2.266   3.334
10042SOL    HW131025   6.939   2.342   3.295
10042SOL    HW231026   6.977   2.184   3.278
10043SOL     OW31027   6.300   1.989   5.991
10043SOL    HW131028   6.279   1.896   6.022
10043SOL    HW231029   6.375   2.026   6.046
10044SOL     OW31030   2.757   3.298   5.594
10044SOL    HW131031   2.718   3.227   5.653
10044SOL    HW231032   2.843   3.266   5.557
10045SOL     OW31033   4.243   0.935   0.562
10045SOL    HW131034   4.280   1.023   0.593
10045SOL    HW231035   4.145   0.944   0.546
10046SOL     OW31036   1.561   3.998   1.256
10046SOL    HW131037   1.556   3.901   1.232
10046SOL    HW231038   1.609   4.008   1.344
10047SOL     OW31039   0.751   3.488   6.334
10047SOL    HW131040   0.831   3.436   6.304
10047SOL    HW231041   0.696   3.513   6.254
10048SOL     OW31042   6.891   6.660   3.150
10048SOL    HW131043   6.918   6.580   3.204
10048SOL    HW231044   6.923   6.649   3.056
10049SOL     OW31045   0.561   2.756   6.156
10049SOL    HW131046   0.620   2.784   6.081
10049SOL    HW231047   0.617   2.722   6.232
10050SOL     OW31048   5.168   3.441   5.037
10050SOL    HW131049   5.202   3.408   5.125
10050SOL    HW231050   5.208   3.387   4.963
10051SOL     OW31051   0.786   4.329   4.763
10051SOL    HW131052   0.850   4.400   4.734
10051SOL    HW231053   0.824   4.281   4.842
10052SOL     OW31054   1.039   0.713   3.375
10052SOL    HW131055   1.067   0.691   3.282
10052SOL    HW231056   1.081   0.648   3.438
10053SOL     OW31057   5.029   5.596   4.311
10053SOL    HW131058   5.040   5.504   4.347
10053SOL    HW231059   5.056   5.598   4.214
10054SOL     OW31060   5.837   3.858   4.556
10054SOL    HW131061   5.850   3.952   4.585
10054SOL    HW231062   5.914   3.830   4.498
10055SOL     OW31063   6.371   2.381   6.720
10055SOL    HW131064   6.290   2.427   6.682
10055SOL    HW231065   6.359   2.370   6.819
10056SOL     OW31066   5.177   3.542   3.139
10056SOL    HW131067   5.225   3.614   3.190
10056SOL    HW231068   5.217   3.453   3.160
10057SOL     OW31069   5.824   4.112   6.231
10057SOL    HW131070   5.767   4.183   6.270
10057SOL    HW231071   5.864   4.057   6.304
10058SOL     OW31072   6.559   3.420   4.888
10058SOL    HW131073   6.463   3.439   4.867
10058SOL    HW231074   6.589   3.483   4.961
10059SOL     OW31075   6.415   1.338   0.472
10059SOL    HW131076   6.370   1.284   0.401
10059SOL    HW231077   6.415   1.287   0.558
10060SOL     OW31078   2.828   1.954   2.604
10060SOL    HW131079   2.790   2.018   2.671
10060SOL    HW231080   2.815   1.990   2.512
10061SOL     OW31081   4.199   1.054   3.667
10061SOL    HW131082   4.140   1.122   3.623
10061SOL    HW231083   4.264   1.101   3.727
10062SOL     OW31084   0.726   6.727   3.890
10062SOL    HW131085   0.775   6.740   3.804
10062SOL    HW231086   0.788   6.743   3.967
10063SOL     OW31087   1.710   2.376   4.818
10063SOL    HW131088   1.757   2.350   4.902
10063SOL    HW231089   1.739   2.469   4.791
10064SOL     OW31090   3.406   6.208   6.981
10064SOL    HW131091   3.363   6.294   6.954
10064SOL    HW231092   3.342   6.133   6.967
10065SOL     OW31093   1.019   0.469   1.792
10065SOL    HW131094   1.110   0.509   1.785
10065SOL    HW231095   1.021   0.392   1.856
10066SOL     OW31096   0.038   3.550   5.038
10066SOL    HW131097   7.016   3.615   5.102
10066SOL    HW231098   0.137   3.551   5.047
10067SOL     OW31099   0.948   2.871   6.531
10067SOL    HW131100   0.926   2.785   6.577
10067SOL    HW231101   1.001   2.853   6.449
10068SOL     OW31102   2.295   2.804   2.568
10068SOL    HW131103   2.258   2.897   2.560
10068SOL    HW231104   2.269   2.765   2.656
10069SOL     OW31105   3.735   5.077   1.928
10069SOL    HW131106   3.792   5.112   2.002
10069SOL    HW231107   3.640   5.104   1.944
10070SOL     OW31108   2.824   5.690   4.881
10070SOL    HW131109   2.793   5.707   4.974
10070SOL    HW231110   2.766   5.739   4.816
10071SOL     OW31111   0.594   6.706   3.347
10071SOL    HW131112   0.632   6.616   3.326
10071SOL    HW231113   0.664   6.776   3.334
10072SOL     OW31114   6.760   1.132   2.596
10072SOL    HW131115   6.844   1.173   2.633
10072SOL    HW231116   6.776   1.102   2.502
10073SOL     OW31117   6.202   2.720   4.215
10073SOL    HW131118   6.150   2.641   4.248
10073SOL    HW231119   6.254   2.759   4.290
10074SOL     OW31120   2.577   4.973   0.552
10074SOL    HW131121   2.590   4.874   0.563
10074SOL    HW231122   2.617   5.002   0.465
10075SOL     OW31123   2.161   1.770   2.127
10075SOL    HW131124   2.128   1.860   2.097
10075SOL    HW231125   2.085   1.705   2.128
10076SOL     OW31126   4.973   5.358   3.514
10076SOL    HW131127   4.957   5.455   3.531
10076SOL    HW231128   5.003   5.345   3.420
10077SOL     OW31129   6.431   3.334   6.906
10077SOL    HW131130   6.392   3.250   6.869
10077SOL    HW231131   6.382   3.413   6.869
10078SOL     OW31132   0.045   6.228   4.808
10078SOL    HW131133   7.001   6.292   4.764
10078SOL    HW231134   0.096   6.274   4.880
10079SOL     OW31135   5.100   2.899   2.979
10079SOL    HW131136   5.103   2.993   2.944
10079SOL    HW231137   5.176   2.846   2.941
10080SOL     OW31138   5.432   0.792   5.847
10080SOL    HW131139   5.480   0.705   5.834
10080SOL    HW231140   5.360   0.801   5.779
10081SOL     OW31141   1.875   1.872   0.403
10081SOL    HW131142   1.974   1.874   0.389
10081SOL    HW231143   1.835   1.957   0.369
10082SOL     OW31144   1.337   4.632   2.717
10082SOL    HW131145   1.359   4.687   2.637
10082SOL    HW231146   1.284   4.687   2.782
10083SOL     OW31147   3.949   5.038   4.009
10083SOL    HW131148   3.872   5.090   4.048
10083SOL    HW231149   3.914   4.974   3.941
10084SOL     OW31150   1.196   0.184   5.170
10084SOL    HW131151   1.199   0.162   5.073
10084SOL    HW231152   1.167   0.279   5.182
10085SOL     OW31153   3.999   6.566   0.625
10085SOL    HW131154   3.912   6.537   0.664
10085SOL    HW231155   3.997   6.554   0.525
10086SOL     OW31156   6.084   6.466   1.996
10086SOL    HW131157   6.027   6.507   1.925
10086SOL    HW231158   6.133   6.387   1.959
10087SOL     OW31159   1.569   6.272   4.373
10087SOL    HW131160   1.542   6.367   4.356
10087SOL    HW231161   1.571   6.222   4.286
10088SOL     OW31162   6.651   2.826   6.609
10088SOL    HW131163   6.662   2.728   6.598
10088SOL    HW231164   6.679   2.853   6.701
10089SOL     OW31165   4.219   1.828   2.136
10089SOL    HW131166   4.304   1.837   2.084
10089SOL    HW231167   4.154   1.897   2.104
10090SOL     OW31168   1.433   5.312   1.076
10090SOL    HW131169   1.500   5.326   1.003
10090SOL    HW231170   1.469   5.349   1.162
10091SOL     OW31171   6.089   4.855   5.652
10091SOL    HW131172   6.176   4.905   5.655
10091SOL    HW231173   6.014   4.920   5.642
10092SOL     OW31174   0.303   2.591   5.337
10092SOL    HW131175   0.357   2.521   5.290
10092SOL    HW231176   0.360   2.637   5.405
10093SOL     OW31177   5.718   4.010   5.991
10093SOL    HW131178   5.736   4.041   6.085
10093SOL    HW231179   5.668   4.080   5.941
10094SOL     OW31180   3.151   0.632   0.887
10094SOL    HW131181   3.138   0.614   0.790
10094SOL    HW231182   3.209   0.561   0.927
10095SOL     OW31183   5.211   2.894   5.389
10095SOL    HW131184   5.208   2.803   5.429
10095SOL    HW231185   5.118   2.922   5.364
10096SOL     OW31186   4.965   0.976   2.622
10096SOL    HW131187   4.884   0.984   2.563
10096SOL    HW231188   5.005   0.885   2.611
10097SOL     OW31189   1.155   1.859   6.853
10097SOL    HW131190   1.101   1.864   6.768
10097SOL    HW231191   1.213   1.778   6.851
10098SOL     OW31192   3.603   5.520   4.826
10098SOL    HW131193   3.517   5.523   4.775
10098SOL    HW231194   3.624   5.612   4.861
10099SOL     OW31195   6.997   4.571   2.307
10099SOL    HW131196   7.015   4.520   2.223
10099SOL    HW231197   0.065   4.593   2.351
10100SOL     OW31198   5.211   5.241   4.411
10100SOL    HW131199   5.116   5.243   4.382
10100SOL    HW231200   5.231   5.153   4.453
10101SOL     OW31201   1.184   1.940   1.342
10101SOL    HW131202   1.126   1.885   1.283
10101SOL    HW231203   1.189   1.897   1.433
10102SOL     OW31204   6.550   6.538   1.499
10102SOL    HW131205   6.624   6.575   1.555
10102SOL    HW231206   6.535   6.598   1.421
10103SOL     OW31207   0.106   6.677   5.717
10103SOL    HW131208   0.111   6.658   5.816
10103SOL    HW231209   0.011   6.688   5.690
10104SOL     OW31210   1.782   0.652   5.732
10104SOL    HW131211   1.880   0.663   5.750
10104SOL    HW231212   1.769   0.607   5.644
10105SOL     OW31213   2.347   0.784   5.601
10105SOL    HW131214   2.434   0.832   5.584
10105SOL    HW231215   2.284   0.845   5.648
10106SOL     OW31216   5.056   6.132   1.061
10106SOL    HW131217   4.967   6.098   1.031
10106SOL    HW231218   5.078   6.093   1.151
10107SOL     OW31219   5.395   4.406   6.732
10107SOL    HW131220   5.454   4.332   6.765
10107SOL    HW231221   5.449   4.490   6.721
10108SOL     OW31222   1.214   2.190   0.516
10108SOL    HW131223   1.267   2.105   0.519
10108SOL    HW231224   1.213   2.233   0.607
10109SOL     OW31225   0.705   1.447   0.501
10109SOL    HW131226   0.739   1.378   0.565
10109SOL    HW231227   0.625   1.493   0.541
10110SOL     OW31228   4.768   6.183   2.858
10110SOL    HW131229   4.808   6.093   2.838
10110SOL    HW231230   4.716   6.214   2.778
10111SOL     OW31231   1.387   1.898   2.523
10111SOL    HW131232   1.395   1.843   2.606
10111SOL    HW231233   1.291   1.918   2.505
10112SOL     OW31234   6.177   2.127   3.785
10112SOL    HW131235   6.251   2.192   3.803
10112SOL    HW231236   6.117   2.163   3.713
10113SOL     OW31237   5.901   1.269   6.600
10113SOL    HW131238   5.948   1.267   6.688
10113SOL    HW231239   5.803   1.267   6.615
10114SOL     OW31240   3.902   1.536   2.434
10114SOL    HW131241   3.875   1.630   2.412
10114SOL    HW231242   4.001   1.533   2.450
10115SOL     OW31243   3.303   2.046   5.254
10115SOL    HW131244   3.331   1.963   5.205
10115SOL    HW231245   3.309   2.125   5.193
10116SOL     OW31246   6.247   0.546   4.604
10116SOL    HW131247   6.280   0.498   4.685
10116SOL    HW231248   6.325   0.569   4.545
10117SOL     OW31249   6.465   5.364   3.865
10117SOL    HW131250   6.483   5.451   3.911
10117SOL    HW231251   6.524   5.293   3.904
10118SOL     OW31252   3.639   5.081   5.084
10118SOL    HW131253   3.715   5.039   5.034
10118SOL    HW231254   3.590   5.144   5.024
10119SOL     OW31255   0.378   5.425   4.798
10119SOL    HW131256   0.419   5.422   4.707
10119SOL    HW231257   0.349   5.333   4.824
10120SOL     OW31258   2.233   2.799   2.047
10120SOL    HW131259   2.221   2.885   2.097
10120SOL    HW231260   2.261   2.727   2.111
10121SOL     OW31261   6.261   4.145   0.771
10121SOL    HW131262   6.218   4.189   0.692
10121SOL    HW231263   6.218   4.056   0.787
10122SOL     OW31264   1.098   1.277   4.010
10122SOL    HW131265   1.154   1.198   4.037
10122SOL    HW231266   1.061   1.321   4.091
10123SOL     OW31267   6.155   5.944   0.824
10123SOL    HW131268   6.152   5.911   0.729
10123SOL    HW231269   6.247   5.933   0.860
10124SOL     OW31270   1.340   3.857   2.729
10124SOL    HW131271   1.312   3.830   2.636
10124SOL    HW231272   1.388   3.945   2.725
10125SOL     OW31273   1.090   1.949   6.602
10125SOL    HW131274   1.013   2.012   6.618
10125SOL    HW231275   1.163   1.997   6.553
10126SOL     OW31276   6.956   6.705   6.583
10126SOL    HW131277   6.945   6.802   6.565
10126SOL    HW231278   6.882   6.654   6.540
10127SOL     OW31279   2.021   5.302   6.383
10127SOL    HW131280   2.116   5.304   6.415
10127SOL    HW231281   2.003   5.383   6.328
10128SOL     OW31282   3.433   0.324   6.878
10128SOL    HW131283   3.491   0.364   6.950
10128SOL    HW231284   3.397   0.236   6.909
10129SOL     OW31285   6.005   1.394   4.024
10129SOL    HW131286   5.936   1.460   4.053
10129SOL    HW231287   5.985   1.363   3.931
10130SOL     OW31288   1.533   2.365   2.998
10130SOL    HW131289   1.443   2.335   2.966
10130SOL    HW231290   1.578   2.416   2.925
10131SOL     OW31291   1.961   0.696   4.501
10131SOL    HW131292   1.949   0.706   4.600
10131SOL    HW231293   1.872   0.680   4.458
10132SOL     OW31294   0.035   0.838   2.800
10132SOL    HW131295   0.029   0.767   2.871
10132SOL    HW231296   6.984   0.821   2.731
10133SOL     OW31297   4.853   6.371   0.362
10133SOL    HW131298   4.787   6.303   0.394
10133SOL    HW231299   4.876   6.433   0.437
10134SOL     OW31300   6.030   0.922   2.092
10134SOL    HW131301   5.952   0.948   2.148
10134SOL    HW231302   6.111   0.911   2.150
10135SOL     OW31303   5.905   6.931   2.771
10135SOL    HW131304   5.997   6.937   2.731
10135SOL    HW231305   5.839   6.969   2.706
10136SOL     OW31306   4.970   1.402   2.706
10136SOL    HW131307   4.892   1.347   2.677
10136SOL    HW231308   4.943   1.497   2.715
10137SOL     OW31309   6.498   5.489   5.799
10137SOL    HW131310   6.567   5.449   5.860
10137SOL    HW231311   6.438   5.549   5.851
10138SOL     OW31312   6.209   1.417   0.704
10138SOL    HW131313   6.257   1.329   0.704
10138SOL    HW231314   6.145   1.419   0.627
10139SOL     OW31315   3.345   3.603   5.403
10139SOL    HW131316   3.330   3.663   5.324
10139SOL    HW231317   3.439   3.572   5.404
10140SOL     OW31318   0.017   5.776   6.065
10140SOL    HW131319   6.939   5.760   6.044
10140SOL    HW231320   0.032   5.874   6.079
10141SOL     OW31321   2.619   1.678   4.273
10141SOL    HW131322   2.694   1.739   4.248
10141SOL    HW231323   2.607   1.609   4.200
10142SOL     OW31324   6.004   6.466   4.148
10142SOL    HW131325   5.951   6.484   4.065
10142SOL    HW231326   6.068   6.391   4.132
10143SOL     OW31327   5.905   3.160   0.084
10143SOL    HW131328   5.978   3.093   0.100
10143SOL    HW231329   5.910   3.232   0.153
10144SOL     OW31330   4.021   6.335   5.710
10144SOL    HW131331   4.079   6.262   5.672
10144SOL    HW231332   4.007   6.319   5.807
10145SOL     OW31333   5.280   6.359   6.802
10145SOL    HW131334   5.378   6.371   6.820
10145SOL    HW231335   5.237   6.449   6.791
10146SOL     OW31336   0.151   2.211   4.675
10146SOL    HW131337   0.121   2.297   4.635
10146SOL    HW231338   0.142   2.215   4.775
10147SOL     OW31339   4.777   5.723   6.215
10147SOL    HW131340   4.761   5.786   6.291
10147SOL    HW231341   4.770   5.773   6.129
10148SOL     OW31342   0.800   4.572   6.351
10148SOL    HW131343   0.836   4.632   6.422
10148SOL    HW231344   0.868   4.502   6.328
10149SOL     OW31345   4.423   4.196   0.626
10149SOL    HW131346   4.492   4.201   0.554
10149SOL    HW231347   4.455   4.136   0.699
10150SOL     OW31348   4.058   4.130   6.855
10150SOL    HW131349   4.146   4.109   6.898
10150SOL    HW231350   3.984   4.101   6.916
10151SOL     OW31351   6.480   6.762   5.363
10151SOL    HW131352   6.402   6.771   5.423
10151SOL    HW231353   6.484   6.669   5.326
10152SOL     OW31354   5.262   6.406   2.922
10152SOL    HW131355   5.180   6.451   2.885
10152SOL    HW231356   5.234   6.332   2.984
10153SOL     OW31357   5.134   4.223   3.407
10153SOL    HW131358   5.146   4.320   3.427
10153SOL    HW231359   5.062   4.211   3.339
10154SOL     OW31360   5.337   5.322   4.843
10154SOL    HW131361   5.403   5.255   4.877
10154SOL    HW231362   5.314   5.386   4.917
10155SOL     OW31363   4.686   2.299   4.962
10155SOL    HW131364   4.696   2.231   4.890
10155SOL    HW231365   4.598   2.286   5.008
10156SOL     OW31366   5.556   1.700   0.386
10156SOL    HW131367   5.612   1.731   0.309
10156SOL    HW231368   5.470   1.752   0.387
10157SOL     OW31369   0.265   2.842   1.261
10157SOL    HW131370   0.251   2.852   1.163
10157SOL    HW231371   0.253   2.931   1.306
10158SOL     OW31372   5.818   5.709   1.272
10158SOL    HW131373   5.728   5.695   1.232
10158SOL    HW231374   5.875   5.761   1.209
10159SOL     OW31375   3.552   3.261   2.719
10159SOL    HW131376   3.544   3.266   2.619
10159SOL    HW231377   3.552   3.165   2.747
10160SOL     OW31378   1.971   4.834   3.555
10160SOL    HW131379   1.984   4.822   3.653
10160SOL    HW231380   1.954   4.745   3.512
10161SOL     OW31381   4.958   3.747   5.731
10161SOL    HW131382   4.982   3.686   5.656
10161SOL    HW231383   4.916   3.695   5.805
10162SOL     OW31384   1.209   3.436   2.808
10162SOL    HW131385   1.225   3.530   2.837
10162SOL    HW231386   1.297   3.391   2.792
10163SOL     OW31387   1.104   6.049   4.959
10163SOL    HW131388   1.068   6.075   5.048
10163SOL    HW231389   1.068   6.111   4.889
10164SOL     OW31390   0.357   3.321   2.771
10164SOL    HW131391   0.391   3.353   2.859
10164SOL    HW231392   0.297   3.242   2.784
10165SOL     OW31393   6.685   3.150   4.206
10165SOL    HW131394   6.690   3.217   4.280
10165SOL    HW231395   6.638   3.190   4.127
10166SOL     OW31396   1.069   1.291   1.069
10166SOL    HW131397   1.164   1.260   1.079
10166SOL    HW231398   1.014   1.255   1.144
10167SOL     OW31399   1.348   0.166   6.648
10167SOL    HW131400   1.363   0.180   6.745
10167SOL    HW231401   1.424   0.112   6.610
10168SOL     OW31402   6.079   0.973   0.627
10168SOL    HW131403   6.103   0.935   0.538
10168SOL    HW231404   6.064   0.899   0.693
10169SOL     OW31405   6.310   2.351   3.824
10169SOL    HW131406   6.320   2.414   3.901
10169SOL    HW231407   6.400   2.333   3.783
10170SOL     OW31408   6.061   5.738   6.111
10170SOL    HW131409   6.134   5.705   6.170
10170SOL    HW231410   5.972   5.719   6.153
10171SOL     OW31411   2.200   3.851   6.214
10171SOL    HW131412   2.289   3.832   6.255
10171SOL    HW231413   2.207   3.844   6.114
10172SOL     OW31414   6.513   0.750   2.901
10172SOL    HW131415   6.499   0.651   2.896
10172SOL    HW231416   6.438   0.797   2.855
10173SOL     OW31417   3.272   4.567   5.938
10173SOL    HW131418   3.193   4.510   5.915
10173SOL    HW231419   3.255   4.613   6.025
10174SOL     OW31420   5.061   6.090   2.215
10174SOL    HW131421   5.115   6.047   2.142
10174SOL    HW231422   5.067   6.035   2.298
10175SOL     OW31423   0.420   1.579   4.179
10175SOL    HW131424   0.460   1.511   4.240
10175SOL    HW231425   0.474   1.663   4.183
10176SOL     OW31426   6.219   2.604   6.042
10176SOL    HW131427   6.206   2.627   5.945
10176SOL    HW231428   6.251   2.509   6.049
10177SOL     OW31429   2.422   0.760   2.507
10177SOL    HW131430   2.465   0.670   2.509
10177SOL    HW231431   2.338   0.758   2.561
10178SOL     OW31432   1.922   1.118   6.998
10178SOL    HW131433   1.852   1.124   0.050
10178SOL    HW231434   1.918   1.200   6.940
10179SOL     OW31435   0.683   4.287   1.260
10179SOL    HW131436   0.682   4.187   1.269
10179SOL    HW231437   0.696   4.312   1.165
10180SOL     OW31438   4.135   6.595   5.701
10180SOL    HW131439   4.074   6.517   5.712
10180SOL    HW231440   4.219   6.565   5.655
10181SOL     OW31441   6.854   3.468   1.835
10181SOL    HW131442   6.885   3.401   1.903
10181SOL    HW231443   6.850   3.559   1.876
10182SOL     OW31444   5.585   2.018   6.879
10182SOL    HW131445   5.567   1.933   6.931
10182SOL    HW231446   5.505   2.039   6.823
10183SOL     OW31447   6.417   2.748   6.487
10183SOL    HW131448   6.354   2.687   6.534
10183SOL    HW231449   6.485   2.783   6.552
10184SOL     OW31450   5.662   3.376   5.821
10184SOL    HW131451   5.751   3.361   5.779
10184SOL    HW231452   5.615   3.451   5.774
10185SOL     OW31453   4.314   5.439   2.420
10185SOL    HW131454   4.365   5.412   2.501
10185SOL    HW231455   4.237   5.377   2.407
10186SOL     OW31456   4.234   3.258   5.863
10186SOL    HW131457   4.308   3.210   5.911
10186SOL    HW231458   4.157   3.195   5.850
10187SOL     OW31459   1.833   5.129   6.049
10187SOL    HW131460   1.745   5.130   6.001
10187SOL    HW231461   1.821   5.164   6.142
10188SOL     OW31462   3.085   0.243   0.093
10188SOL    HW131463   3.077   0.150   0.057
10188SOL    HW231464   3.173   0.254   0.138
10189SOL     OW31465   0.670   1.956   5.959
10189SOL    HW131466   0.675   1.868   6.006
10189SOL    HW231467   0.754   2.008   5.977
10190SOL     OW31468   3.473   5.178   2.000
10190SOL    HW131469   3.438   5.149   2.090
10190SOL    HW231470   3.431   5.122   1.929
10191SOL     OW31471   5.771   5.722   0.269
10191SOL    HW131472   5.713   5.658   0.321
10191SOL    HW231473   5.714   5.794   0.230
10192SOL     OW31474   2.216   1.888   4.649
10192SOL    HW131475   2.257   1.875   4.739
10192SOL    HW231476   2.234   1.807   4.593
10193SOL     OW31477   3.900   3.940   3.003
10193SOL    HW131478   3.807   3.956   3.034
10193SOL    HW231479   3.943   3.869   3.059
10194SOL     OW31480   3.347   0.211   3.906
10194SOL    HW131481   3.375   0.121   3.874
10194SOL    HW231482   3.401   0.237   3.986
10195SOL     OW31483   4.289   6.777   1.990
10195SOL    HW131484   4.233   6.857   2.013
10195SOL    HW231485   4.272   6.752   1.894
10196SOL     OW31486   5.788   1.582   3.064
10196SOL    HW131487   5.859   1.533   3.013
10196SOL    HW231488   5.751   1.655   3.007
10197SOL     OW31489   5.866   0.807   2.575
10197SOL    HW131490   5.805   0.752   2.632
10197SOL    HW231491   5.950   0.827   2.626
10198SOL     OW31492   2.921   0.115   1.590
10198SOL    HW131493   2.961   0.041   1.645
10198SOL    HW231494   2.825   0.095   1.573
10199SOL     OW31495   0.446   1.352   7.009
10199SOL    HW131496   0.354   1.335   0.026
10199SOL    HW231497   0.493   1.417   0.049
10200SOL     OW31498   4.986   4.375   5.187
10200SOL    HW131499   4.956   4.289   5.145
10200SOL    HW231500   5.085   4.372   5.201
10201SOL     OW31501   1.022   5.269   2.106
10201SOL    HW131502   1.001   5.364   2.083
10201SOL    HW231503   0.953   5.234   2.170
10202SOL     OW31504   1.012   3.212   1.948
10202SOL    HW131505   1.040   3.116   1.957
10202SOL    HW231506   1.014   3.238   1.851
10203SOL     OW31507   2.168   3.035   2.539
10203SOL    HW131508   2.224   3.112   2.569
10203SOL    HW231509   2.074   3.048   2.571
10204SOL     OW31510   3.129   4.726   5.242
10204SOL    HW131511   3.079   4.639   5.243
10204SOL    HW231512   3.197   4.724   5.169
10205SOL     OW31513   5.225   2.272   3.187
10205SOL    HW131514   5.152   2.338   3.170
10205SOL    HW231515   5.231   2.252   3.284
10206SOL     OW31516   5.215   6.659   5.856
10206SOL    HW131517   5.264   6.572   5.854
10206SOL    HW231518   5.195   6.684   5.951
10207SOL     OW31519   3.709   0.993   3.134
10207SOL    HW131520   3.671   1.067   3.077
10207SOL    HW231521   3.682   1.008   3.229
10208SOL     OW31522   6.244   3.955   5.797
10208SOL    HW131523   6.200   3.908   5.873
10208SOL    HW231524   6.222   3.909   5.711
10209SOL     OW31525   6.760   6.598   6.403
10209SOL    HW131526   6.776   6.659   6.325
10209SOL    HW231527   6.736   6.507   6.370
10210SOL     OW31528   5.518   5.931   2.365
10210SOL    HW131529   5.450   5.885   2.307
10210SOL    HW231530   5.606   5.884   2.357
10211SOL     OW31531   3.696   6.164   5.331
10211SOL    HW131532   3.683   6.261   5.310
10211SOL    HW231533   3.777   6.154   5.388
10212SOL     OW31534   0.300   0.898   4.067
10212SOL    HW131535   0.214   0.908   4.116
10212SOL    HW231536   0.282   0.862   3.975
10213SOL     OW31537   5.935   1.660   3.688
10213SOL    HW131538   5.995   1.667   3.608
10213SOL    HW231539   5.878   1.742   3.695
10214SOL     OW31540   6.498   1.189   2.190
10214SOL    HW131541   6.402   1.218   2.200
10214SOL    HW231542   6.501   1.101   2.142
10215SOL     OW31543   3.684   3.772   6.760
10215SOL    HW131544   3.627   3.808   6.835
10215SOL    HW231545   3.658   3.677   6.742
10216SOL     OW31546   5.417   0.205   1.442
10216SOL    HW131547   5.364   0.289   1.453
10216SOL    HW231548   5.400   0.165   1.352
10217SOL     OW31549   2.210   1.934   4.327
10217SOL    HW131550   2.235   1.872   4.402
10217SOL    HW231551   2.120   1.972   4.345
10218SOL     OW31552   1.763   0.709   0.868
10218SOL    HW131553   1.834   0.644   0.897
10218SOL    HW231554   1.800   0.802   0.874
10219SOL     OW31555   0.801   2.365   1.669
10219SOL    HW131556   0.895   2.366   1.703
10219SOL    HW231557   0.790   2.290   1.604
10220SOL     OW31558   4.342   1.560   1.040
10220SOL    HW131559   4.431   1.593   1.071
10220SOL    HW231560   4.344   1.460   1.031
10221SOL     OW31561   2.875   0.576   5.291
10221SOL    HW131562   2.853   0.486   5.328
10221SOL    HW231563   2.806   0.601   5.222
10222SOL     OW31564   1.096   4.317   5.268
10222SOL    HW131565   1.045   4.253   5.325
10222SOL    HW231566   1.051   4.406   5.268
10223SOL     OW31567   1.700   4.263   6.969
10223SOL    HW131568   1.790   4.298   6.994
10223SOL    HW231569   1.704   4.223   6.878
10224SOL     OW31570   1.059   0.252   4.299
10224SOL    HW131571   1.101   0.194   4.229
10224SOL    HW231572   0.962   0.230   4.307
10225SOL     OW31573   6.802   6.294   4.968
10225SOL    HW131574   6.789   6.250   5.057
10225SOL    HW231575   6.895   6.275   4.935
10226SOL     OW31576   2.071   0.923   6.578
10226SOL    HW131577   1.982   0.959   6.606
10226SOL    HW231578   2.058   0.857   6.504
10227SOL     OW31579   4.663   4.556   7.013
10227SOL    HW131580   4.572   4.532   6.977
10227SOL    HW231581   4.673   4.519   0.086
10228SOL     OW31582   1.447   5.442   3.731
10228SOL    HW131583   1.536   5.473   3.699
10228SOL    HW231584   1.381   5.517   3.722
10229SOL     OW31585   1.226   0.275   3.328
10229SOL    HW131586   1.317   0.271   3.370
10229SOL    HW231587   1.167   0.335   3.382
10230SOL     OW31588   5.961   0.324   3.646
10230SOL    HW131589   5.915   0.406   3.612
10230SOL    HW231590   6.038   0.302   3.587
10231SOL     OW31591   5.464   6.449   4.908
10231SOL    HW131592   5.518   6.401   4.977
10231SOL    HW231593   5.497   6.425   4.817
10232SOL     OW31594   3.596   1.810   4.846
10232SOL    HW131595   3.613   1.795   4.749
10232SOL    HW231596   3.508   1.771   4.872
10233SOL     OW31597   4.698   2.832   5.869
10233SOL    HW131598   4.678   2.839   5.967
10233SOL    HW231599   4.697   2.736   5.842
10234SOL     OW31600   5.728   6.915   1.070
10234SOL    HW131601   5.702   6.880   0.980
10234SOL    HW231602   5.819   6.956   1.064
10235SOL     OW31603   4.618   1.818   0.140
10235SOL    HW131604   4.654   1.819   0.047
10235SOL    HW231605   4.544   1.885   0.149
10236SOL     OW31606   2.060   5.854   1.787
10236SOL    HW131607   2.026   5.850   1.880
10236SOL    HW231608   2.022   5.934   1.740
10237SOL     OW31609   6.176   3.893   2.442
10237SOL    HW131610   6.274   3.873   2.443
10237SOL    HW231611   6.145   3.909   2.536
10238SOL     OW31612   4.349   4.685   5.478
10238SOL    HW131613   4.299   4.599   5.466
10238SOL    HW231614   4.445   4.671   5.456
10239SOL     OW31615   0.331   4.061   4.930
10239SOL    HW131616   0.392   3.991   4.893
10239SOL    HW231617   0.260   4.082   4.863
10240SOL     OW31618   0.963   4.019   3.208
10240SOL    HW131619   1.048   4.067   3.186
10240SOL    HW231620   0.984   3.936   3.259
10241SOL     OW31621   1.034   1.670   2.657
10241SOL    HW131622   1.080   1.614   2.727
10241SOL    HW231623   1.050   1.767   2.676
10242SOL     OW31624   0.080   1.172   6.105
10242SOL    HW131625   0.112   1.154   6.012
10242SOL    HW231626   0.103   1.095   6.164
10243SOL     OW31627   0.937   5.436   1.627
10243SOL    HW131628   0.899   5.405   1.540
10243SOL    HW231629   1.035   5.455   1.617
10244SOL     OW31630   2.448   5.315   0.127
10244SOL    HW131631   2.374   5.291   0.190
10244SOL    HW231632   2.488   5.232   0.089
10245SOL     OW31633   1.482   2.708   6.842
10245SOL    HW131634   1.536   2.717   6.926
10245SOL    HW231635   1.385   2.710   6.864
10246SOL     OW31636   2.950   3.726   4.604
10246SOL    HW131637   2.946   3.741   4.703
10246SOL    HW231638   2.976   3.811   4.559
10247SOL     OW31639   6.748   5.045   6.121
10247SOL    HW131640   6.651   5.030   6.103
10247SOL    HW231641   6.799   5.032   6.036
10248SOL     OW31642   2.295   0.195   1.951
10248SOL    HW131643   2.216   0.229   1.901
10248SOL    HW231644   2.378   0.238   1.916
10249SOL     OW31645   4.465   1.192   5.657
10249SOL    HW131646   4.404   1.143   5.719
10249SOL    HW231647   4.474   1.142   5.572
10250SOL     OW31648   5.831   1.077   1.362
10250SOL    HW131649   5.840   1.169   1.324
10250SOL    HW231650   5.758   1.029   1.315
10251SOL     OW31651   2.723   2.809   6.905
10251SOL    HW131652   2.626   2.794   6.927
10251SOL    HW231653   2.749   2.753   6.827
10252SOL     OW31654   6.441   6.697   0.919
10252SOL    HW131655   6.449   6.660   1.011
10252SOL    HW231656   6.373   6.645   0.868
10253SOL     OW31657   5.082   4.315   0.065
10253SOL    HW131658   5.132   4.395   0.099
10253SOL    HW231659   5.105   4.301   6.988
10254SOL     OW31660   2.576   1.355   5.180
10254SOL    HW131661   2.672   1.334   5.198
10254SOL    HW231662   2.545   1.427   5.242
10255SOL     OW31663   2.228   5.313   2.108
10255SOL    HW131664   2.313   5.273   2.141
10255SOL    HW231665   2.172   5.343   2.186
10256SOL     OW31666   4.601   0.293   0.017
10256SOL    HW131667   4.659   0.374   0.021
10256SOL    HW231668   4.568   0.271   0.109
10257SOL     OW31669   1.338   5.258   6.094
10257SOL    HW131670   1.401   5.209   6.155
10257SOL    HW231671   1.325   5.205   6.010
10258SOL     OW31672   4.333   6.734   3.469
10258SOL    HW131673   4.416   6.707   3.421
10258SOL    HW231674   4.257   6.740   3.403
10259SOL     OW31675   0.317   4.291   4.187
10259SOL    HW131676   0.410   4.327   4.200
10259SOL    HW231677   0.311   4.245   4.098
10260SOL     OW31678   0.774   6.618   2.549
10260SOL    HW131679   0.858   6.632   2.601
10260SOL    HW231680   0.795   6.566   2.466
10261SOL     OW31681   0.471   5.143   1.872
10261SOL    HW131682   0.476   5.086   1.791
10261SOL    HW231683   0.507   5.093   1.951
10262SOL     OW31684   3.037   4.869   4.134
10262SOL    HW131685   3.023   4.968   4.130
10262SOL    HW231686   2.949   4.823   4.119
10263SOL     OW31687   5.224   1.734   6.241
10263SOL    HW131688   5.273   1.665   6.294
10263SOL    HW231689   5.283   1.814   6.229
10264SOL     OW31690   6.108   0.822   6.297
10264SOL    HW131691   6.125   0.920   6.302
10264SOL    HW231692   6.100   0.794   6.202
10265SOL     OW31693   3.439   1.182   3.257
10265SOL    HW131694   3.412   1.274   3.227
10265SOL    HW231695   3.379   1.115   3.215
10266SOL     OW31696   3.382   3.533   6.231
10266SOL    HW131697   3.455   3.562   6.170
10266SOL    HW231698   3.361   3.436   6.216
10267SOL     OW31699   6.828   1.629   6.891
10267SOL    HW131700   6.770   1.711   6.901
10267SOL    HW231701   6.772   1.553   6.860
10268SOL     OW31702   5.521   5.370   1.362
10268SOL    HW131703   5.427   5.338   1.352
10268SOL    HW231704   5.547   5.368   1.459
10269SOL     OW31705   1.848   2.389   6.049
10269SOL    HW131706   1.867   2.457   6.121
10269SOL    HW231707   1.920   2.394   5.980
10270SOL     OW31708   2.023   6.098   0.582
10270SOL    HW131709   2.078   6.071   0.661
10270SOL    HW231710   2.071   6.169   0.531
10271SOL     OW31711   4.047   3.414   1.487
10271SOL    HW131712   3.975   3.380   1.547
10271SOL    HW231713   4.110   3.339   1.465
10272SOL     OW31714   0.334   0.627   4.320
10272SOL    HW131715   0.321   0.722   4.348
10272SOL    HW231716   0.432   0.607   4.312
10273SOL     OW31717   3.813   5.712   4.559
10273SOL    HW131718   3.855   5.720   4.649
10273SOL    HW231719   3.718   5.744   4.564
10274SOL     OW31720   1.029   5.230   5.864
10274SOL    HW131721   0.997   5.217   5.958
10274SOL    HW231722   0.999   5.319   5.830
10275SOL     OW31723   0.972   6.307   3.001
10275SOL    HW131724   1.005   6.222   3.042
10275SOL    HW231725   1.050   6.360   2.968
10276SOL     OW31726   0.068   5.526   5.523
10276SOL    HW131727   0.082   5.436   5.483
10276SOL    HW231728   0.012   5.582   5.461
10277SOL     OW31729   3.362   6.610   4.079
10277SOL    HW131730   3.306   6.632   4.159
10277SOL    HW231731   3.302   6.590   4.002
10278SOL     OW31732   6.163   0.356   6.804
10278SOL    HW131733   6.068   0.387   6.808
10278SOL    HW231734   6.183   0.301   6.886
10279SOL     OW31735   2.847   0.247   4.630
10279SOL    HW131736   2.831   0.344   4.651
10279SOL    HW231737   2.806   0.225   4.542
10280SOL     OW31738   1.725   4.053   1.057
10280SOL    HW131739   1.669   4.030   1.137
10280SOL    HW231740   1.707   3.988   0.984
10281SOL     OW31741   4.443   1.322   2.119
10281SOL    HW131742   4.360   1.377   2.129
10281SOL    HW231743   4.453   1.262   2.198
10282SOL     OW31744   0.752   1.925   3.831
10282SOL    HW131745   0.771   1.952   3.737
10282SOL    HW231746   0.657   1.896   3.840
10283SOL     OW31747   1.055   3.184   0.854
10283SOL    HW131748   1.125   3.163   0.785
10283SOL    HW231749   1.064   3.120   0.930
10284SOL     OW31750   5.471   3.588   4.938
10284SOL    HW131751   5.394   3.545   4.890
10284SOL    HW231752   5.540   3.519   4.958
10285SOL     OW31753   4.630   0.799   0.785
10285SOL    HW131754   4.698   0.850   0.837
10285SOL    HW231755   4.539   0.837   0.802
10286SOL     OW31756   4.268   0.728   2.858
10286SOL    HW131757   4.238   0.761   2.948
10286SOL    HW231758   4.358   0.766   2.837
10287SOL     OW31759   1.661   0.071   1.416
10287SOL    HW131760   1.575   0.064   1.365
10287SOL    HW231761   1.651   0.025   1.505
10288SOL     OW31762   5.673   5.617   2.952
10288SOL    HW131763   5.650   5.542   2.890
10288SOL    HW231764   5.746   5.672   2.912
10289SOL     OW31765   2.892   1.466   1.626
10289SOL    HW131766   2.851   1.556   1.619
10289SOL    HW231767   2.857   1.407   1.553
10290SOL     OW31768   4.041   3.831   2.537
10290SOL    HW131769   4.017   3.927   2.552
10290SOL    HW231770   4.098   3.799   2.613
10291SOL     OW31771   3.449   0.538   3.928
10291SOL    HW131772   3.445   0.441   3.904
10291SOL    HW231773   3.448   0.548   4.027
10292SOL     OW31774   0.217   2.211   4.946
10292SOL    HW131775   0.220   2.308   4.972
10292SOL    HW231776   0.283   2.160   5.001
10293SOL     OW31777   2.148   5.924   3.150
10293SOL    HW131778   2.215   5.930   3.224
10293SOL    HW231779   2.056   5.922   3.189
10294SOL     OW31780   4.422   1.691   2.534
10294SOL    HW131781   4.431   1.768   2.597
10294SOL    HW231782   4.425   1.606   2.586
10295SOL     OW31783   0.080   4.863   5.384
10295SOL    HW131784   0.008   4.844   5.317
10295SOL    HW231785   0.040   4.863   5.476
10296SOL     OW31786   6.114   4.040   6.164
10296SOL    HW131787   6.023   4.015   6.198
10296SOL    HW231788   6.151   3.965   6.109
10297SOL     OW31789   1.496   5.980   3.842
10297SOL    HW131790   1.501   5.891   3.888
10297SOL    HW231791   1.476   6.050   3.910
10298SOL     OW31792   4.841   3.786   3.760
10298SOL    HW131793   4.795   3.809   3.846
10298SOL    HW231794   4.940   3.790   3.772
10299SOL     OW31795   4.228   4.722   3.535
10299SOL    HW131796   4.263   4.779   3.608
10299SOL    HW231797   4.275   4.633   3.536
10300SOL     OW31798   0.963   3.550   1.790
10300SOL    HW131799   0.998   3.466   1.748
10300SOL    HW231800   0.889   3.527   1.854
10301SOL     OW31801   5.782   1.617   3.331
10301SOL    HW131802   5.698   1.566   3.348
10301SOL    HW231803   5.798   1.623   3.232
10302SOL     OW31804   1.448   5.914   2.534
10302SOL    HW131805   1.419   6.010   2.538
10302SOL    HW231806   1.376   5.859   2.491
10303SOL     OW31807   3.672   3.372   1.167
10303SOL    HW131808   3.632   3.464   1.165
10303SOL    HW231809   3.713   3.355   1.257
10304SOL     OW31810   6.939   6.692   3.494
10304SOL    HW131811   6.993   6.642   3.427
10304SOL    HW231812   6.990   6.772   3.525
10305SOL     OW31813   2.031   6.017   0.059
10305SOL    HW131814   1.960   5.948   0.068
10305SOL    HW231815   2.120   5.972   0.045
10306SOL     OW31816   4.397   5.831   0.618
10306SOL    HW131817   4.370   5.750   0.670
10306SOL    HW231818   4.423   5.804   0.525
10307SOL     OW31819   1.057   1.282   6.417
10307SOL    HW131820   0.999   1.363   6.422
10307SOL    HW231821   1.146   1.307   6.377
10308SOL     OW31822   3.394   5.520   4.170
10308SOL    HW131823   3.475   5.578   4.179
10308SOL    HW231824   3.342   5.548   4.089
10309SOL     OW31825   6.154   6.290   3.151
10309SOL    HW131826   6.250   6.265   3.154
10309SOL    HW231827   6.145   6.389   3.160
10310SOL     OW31828   2.988   3.765   2.644
10310SOL    HW131829   2.961   3.672   2.669
10310SOL    HW231830   3.007   3.769   2.546
10311SOL     OW31831   0.382   5.575   0.516
10311SOL    HW131832   0.482   5.577   0.521
10311SOL    HW231833   0.345   5.657   0.558
10312SOL     OW31834   3.238   4.826   0.859
10312SOL    HW131835   3.246   4.838   0.760
10312SOL    HW231836   3.279   4.904   0.906
10313SOL     OW31837   4.810   0.043   2.498
10313SOL    HW131838   4.804   0.104   2.418
10313SOL    HW231839   4.874   6.988   2.479
10314SOL     OW31840   6.384   0.006   0.583
10314SOL    HW131841   6.359   0.099   0.556
10314SOL    HW231842   6.302   6.969   0.590
10315SOL     OW31843   6.287   5.867   5.083
10315SOL    HW131844   6.211   5.913   5.038
10315SOL    HW231845   6.321   5.924   5.158
10316SOL     OW31846   0.602   3.605   4.788
10316SOL    HW131847   0.675   3.594   4.720
10316SOL    HW231848   0.640   3.592   4.880
10317SOL     OW31849   4.464   4.998   6.228
10317SOL    HW131850   4.464   4.968   6.133
10317SOL    HW231851   4.489   5.095   6.233
10318SOL     OW31852   6.275   5.382   1.453
10318SOL    HW131853   6.242   5.476   1.446
10318SOL    HW231854   6.366   5.382   1.494
10319SOL     OW31855   6.994   5.289   3.524
10319SOL    HW131856   6.963   5.257   3.614
10319SOL    HW231857   6.931   5.359   3.491
10320SOL     OW31858   0.373   6.079   0.717
10320SOL    HW131859   0.373   6.108   0.813
10320SOL    HW231860   0.280   6.087   0.680
10321SOL     OW31861   4.578   5.322   4.618
10321SOL    HW131862   4.605   5.361   4.530
10321SOL    HW231863   4.497   5.265   4.605
10322SOL     OW31864   6.744   4.643   0.670
10322SOL    HW131865   6.800   4.567   0.703
10322SOL    HW231866   6.652   4.636   0.709
10323SOL     OW31867   5.394   3.197   6.285
10323SOL    HW131868   5.323   3.216   6.218
10323SOL    HW231869   5.356   3.207   6.377
10324SOL     OW31870   3.270   4.108   3.768
10324SOL    HW131871   3.341   4.176   3.749
10324SOL    HW231872   3.272   4.037   3.698
10325SOL     OW31873   0.297   3.069   3.054
10325SOL    HW131874   0.340   3.143   3.106
10325SOL    HW231875   0.227   3.025   3.110
10326SOL     OW31876   5.078   2.546   0.375
10326SOL    HW131877   4.988   2.571   0.340
10326SOL    HW231878   5.084   2.569   0.472
10327SOL     OW31879   0.496   0.710   2.991
10327SOL    HW131880   0.415   0.678   2.941
10327SOL    HW231881   0.514   0.805   2.967
10328SOL     OW31882   6.285   3.568   2.657
10328SOL    HW131883   6.314   3.540   2.749
10328SOL    HW231884   6.188   3.546   2.644
10329SOL     OW31885   2.701   0.256   2.858
10329SOL    HW131886   2.731   0.267   2.763
10329SOL    HW231887   2.737   0.170   2.895
10330SOL     OW31888   4.106   5.021   2.324
10330SOL    HW131889   4.013   5.050   2.348
10330SOL    HW231890   4.123   5.038   2.227
10331SOL     OW31891   5.374   1.044   3.814
10331SOL    HW131892   5.379   1.140   3.843
10331SOL    HW231893   5.445   1.026   3.746
10332SOL     OW31894   0.026   1.900   6.909
10332SOL    HW131895   0.120   1.897   6.943
10332SOL    HW231896   7.009   1.807   6.899
10333SOL     OW31897   5.981   5.436   4.462
10333SOL    HW131898   5.910   5.415   4.529
10333SOL    HW231899   6.003   5.534   4.466
10334SOL     OW31900   2.073   4.775   4.296
10334SOL    HW131901   1.995   4.754   4.238
10334SOL    HW231902   2.150   4.802   4.240
10335SOL     OW31903   2.391   5.404   1.114
10335SOL    HW131904   2.405   5.310   1.082
10335SOL    HW231905   2.318   5.446   1.060
10336SOL     OW31906   4.177   0.016   2.064
10336SOL    HW131907   4.264   0.064   2.076
10336SOL    HW231908   4.103   0.073   2.099
10337SOL     OW31909   0.250   5.432   5.078
10337SOL    HW131910   0.215   5.354   5.131
10337SOL    HW231911   0.257   5.406   4.982
10338SOL     OW31912   2.604   6.704   2.485
10338SOL    HW131913   2.630   6.792   2.524
10338SOL    HW231914   2.590   6.638   2.559
10339SOL     OW31915   2.536   6.341   1.465
10339SOL    HW131916   2.579   6.263   1.418
10339SOL    HW231917   2.448   6.360   1.422
10340SOL     OW31918   2.255   5.877   0.044
10340SOL    HW131919   2.307   5.843   0.122
10340SOL    HW231920   2.269   5.816   6.984
10341SOL     OW31921   2.329   1.460   2.335
10341SOL    HW131922   2.399   1.518   2.376
10341SOL    HW231923   2.373   1.387   2.282
10342SOL     OW31924   2.064   0.642   5.778
10342SOL    HW131925   2.136   0.594   5.728
10342SOL    HW231926   2.084   0.740   5.778
10343SOL     OW31927   2.889   3.996   5.850
10343SOL    HW131928   2.810   4.053   5.829
10343SOL    HW231929   2.872   3.946   5.936
10344SOL     OW31930   4.099   3.630   4.777
10344SOL    HW131931   4.071   3.549   4.725
10344SOL    HW231932   4.067   3.712   4.730
10345SOL     OW31933   2.077   1.564   6.758
10345SOL    HW131934   2.176   1.576   6.772
10345SOL    HW231935   2.048   1.618   6.679
10346SOL     OW31936   5.056   0.065   6.927
10346SOL    HW131937   4.964   0.083   6.890
10346SOL    HW231938   5.088   0.144   6.978
10347SOL     OW31939   5.309   1.746   1.588
10347SOL    HW131940   5.323   1.651   1.613
10347SOL    HW231941   5.217   1.775   1.617
10348SOL     OW31942   6.383   0.970   6.035
10348SOL    HW131943   6.418   0.878   6.053
10348SOL    HW231944   6.307   0.989   6.098
10349SOL     OW31945   6.301   1.438   1.387
10349SOL    HW131946   6.353   1.398   1.462
10349SOL    HW231947   6.364   1.490   1.328
10350SOL     OW31948   2.716   5.837   3.750
10350SOL    HW131949   2.787   5.767   3.759
10350SOL    HW231950   2.750   5.924   3.787
10351SOL     OW31951   5.599   5.170   5.465
10351SOL    HW131952   5.612   5.269   5.472
10351SOL    HW231953   5.528   5.142   5.528
10352SOL     OW31954   5.956   1.951   0.192
10352SOL    HW131955   6.022   2.006   0.141
10352SOL    HW231956   5.927   1.874   0.135
10353SOL     OW31957   0.129   2.546   3.169
10353SOL    HW131958   0.223   2.578   3.184
10353SOL    HW231959   0.132   2.458   3.120
10354SOL     OW31960   0.588   3.789   0.499
10354SOL    HW131961   0.547   3.720   0.559
10354SOL    HW231962   0.623   3.745   0.417
10355SOL     OW31963   1.328   0.183   0.707
10355SOL    HW131964   1.296   0.090   0.722
10355SOL    HW231965   1.298   0.215   0.617
10356SOL     OW31966   0.108   4.089   6.761
10356SOL    HW131967   0.198   4.126   6.784
10356SOL    HW231968   0.037   4.143   6.806
10357SOL     OW31969   1.011   3.199   6.130
10357SOL    HW131970   0.976   3.225   6.220
10357SOL    HW231971   1.032   3.281   6.077
10358SOL     OW31972   0.764   2.206   3.071
10358SOL    HW131973   0.732   2.128   3.125
10358SOL    HW231974   0.784   2.177   2.978
10359SOL     OW31975   5.169   2.101   2.325
10359SOL    HW131976   5.166   2.094   2.225
10359SOL    HW231977   5.262   2.081   2.357
10360SOL     OW31978   6.001   4.660   2.719
10360SOL    HW131979   5.905   4.674   2.746
10360SOL    HW231980   6.043   4.749   2.702
10361SOL     OW31981   0.379   1.320   1.391
10361SOL    HW131982   0.334   1.395   1.438
10361SOL    HW231983   0.397   1.245   1.455
10362SOL     OW31984   1.593   4.560   2.857
10362SOL    HW131985   1.614   4.626   2.929
10362SOL    HW231986   1.504   4.582   2.816
10363SOL     OW31987   5.221   4.031   0.832
10363SOL    HW131988   5.313   4.003   0.802
10363SOL    HW231989   5.162   3.951   0.836
10364SOL     OW31990   5.310   4.492   2.154
10364SOL    HW131991   5.324   4.588   2.178
10364SOL    HW231992   5.291   4.485   2.056
10365SOL     OW31993   6.188   5.538   0.487
10365SOL    HW131994   6.227   5.595   0.415
10365SOL    HW231995   6.089   5.550   0.490
10366SOL     OW31996   3.454   6.237   2.826
10366SOL    HW131997   3.385   6.218   2.895
10366SOL    HW231998   3.518   6.161   2.821
10367SOL     OW31999   6.095   2.101   0.804
10367SOL    HW132000   6.095   2.159   0.724
10367SOL    HW232001   6.170   2.128   0.865
10368SOL     OW32002   1.940   0.478   2.238
10368SOL    HW132003   1.901   0.461   2.328
10368SOL    HW232004   1.930   0.396   2.181
10369SOL     OW32005   3.097   6.406   5.484
10369SOL    HW132006   3.112   6.494   5.437
10369SOL    HW232007   3.074   6.336   5.416
10370SOL     OW32008   0.377   1.708   4.506
10370SOL    HW132009   0.297   1.670   4.554
10370SOL    HW232010   0.347   1.760   4.427
10371SOL     OW32011   3.465   5.966   3.264
10371SOL    HW132012   3.393   5.929   3.205
10371SOL    HW232013   3.425   6.001   3.348
10372SOL     OW32014   2.668   0.120   1.452
10372SOL    HW132015   2.677   0.164   1.363
10372SOL    HW232016   2.583   0.151   1.496
10373SOL     OW32017   0.130   1.805   5.683
10373SOL    HW132018   0.176   1.891   5.660
10373SOL    HW232019   0.112   1.801   5.781
10374SOL     OW32020   3.446   6.974   4.526
10374SOL    HW132021   3.524   6.920   4.493
10374SOL    HW232022   3.425   6.947   4.620
10375SOL     OW32023   4.070   2.785   0.169
10375SOL    HW132024   4.163   2.774   0.203
10375SOL    HW232025   4.073   2.819   0.075
10376SOL     OW32026   1.782   5.633   2.712
10376SOL    HW132027   1.788   5.535   2.693
10376SOL    HW232028   1.874   5.670   2.728
10377SOL     OW32029   0.331   1.530   1.910
10377SOL    HW132030   0.243   1.488   1.885
10377SOL    HW232031   0.314   1.612   1.966
10378SOL     OW32032   6.979   4.701   5.195
10378SOL    HW132033   0.050   4.699   5.239
10378SOL    HW232034   6.989   4.683   5.097
10379SOL     OW32035   2.389   7.010   4.089
10379SOL    HW132036   2.457   6.983   4.158
10379SOL    HW232037   2.349   0.079   4.115
10380SOL     OW32038   1.662   2.780   4.625
10380SOL    HW132039   1.746   2.831   4.645
10380SOL    HW232040   1.584   2.826   4.668
10381SOL     OW32041   4.215   4.401   1.555
10381SOL    HW132042   4.249   4.439   1.642
10381SOL    HW232043   4.143   4.335   1.574
10382SOL     OW32044   3.312   4.772   1.763
10382SOL    HW132045   3.403   4.734   1.781
10382SOL    HW232046   3.308   4.865   1.800
10383SOL     OW32047   2.304   4.254   0.298
10383SOL    HW132048   2.383   4.194   0.312
10383SOL    HW232049   2.329   4.326   0.233
10384SOL     OW32050   5.921   6.270   1.021
10384SOL    HW132051   6.016   6.239   1.024
10384SOL    HW232052   5.897   6.296   0.927
10385SOL     OW32053   3.627   4.601   6.126
10385SOL    HW132054   3.582   4.590   6.037
10385SOL    HW232055   3.560   4.635   6.192
10386SOL     OW32056   6.587   0.943   6.324
10386SOL    HW132057   6.522   1.019   6.316
10386SOL    HW232058   6.544   0.867   6.372
10387SOL     OW32059   4.949   3.192   2.872
10387SOL    HW132060   5.049   3.189   2.865
10387SOL    HW232061   4.916   3.280   2.838
10388SOL     OW32062   3.008   0.469   5.553
10388SOL    HW132063   2.988   0.449   5.650
10388SOL    HW232064   2.956   0.407   5.495
10389SOL     OW32065   6.983   3.563   0.254
10389SOL    HW132066   0.025   3.642   0.266
10389SOL    HW232067   0.016   3.479   0.272
10390SOL     OW32068   2.485   2.052   0.958
10390SOL    HW132069   2.552   2.050   0.884
10390SOL    HW232070   2.530   2.036   1.045
10391SOL     OW32071   0.444   6.422   3.036
10391SOL    HW132072   0.398   6.495   3.086
10391SOL    HW232073   0.541   6.444   3.026
10392SOL     OW32074   0.130   5.537   4.685
10392SOL    HW132075   0.174   5.543   4.774
10392SOL    HW232076   0.181   5.590   4.618
10393SOL     OW32077   2.191   3.945   3.933
10393SOL    HW132078   2.189   4.043   3.915
10393SOL    HW232079   2.185   3.929   4.032
10394SOL     OW32080   3.190   6.074   4.380
10394SOL    HW132081   3.206   6.079   4.281
10394SOL    HW232082   3.158   5.983   4.404
10395SOL     OW32083   7.001   6.026   0.922
10395SOL    HW132084   0.052   6.005   0.854
10395SOL    HW232085   0.021   6.088   0.991
10396SOL     OW32086   3.331   2.140   3.775
10396SOL    HW132087   3.232   2.135   3.779
10396SOL    HW232088   3.361   2.138   3.679
10397SOL     OW32089   3.270   2.091   2.331
10397SOL    HW132090   3.355   2.075   2.280
10397SOL    HW232091   3.206   2.141   2.273
10398SOL     OW32092   0.195   3.547   1.399
10398SOL    HW132093   0.289   3.565   1.427
10398SOL    HW232094   0.133   3.562   1.477
10399SOL     OW32095   5.723   2.554   2.828
10399SOL    HW132096   5.770   2.579   2.743
10399SOL    HW232097   5.749   2.462   2.854
10400SOL     OW32098   4.013   6.983   0.234
10400SOL    HW132099   3.955   6.973   0.153
10400SOL    HW232100   4.051   6.894   0.258
10401SOL     OW32101   6.214   0.752   3.489
10401SOL    HW132102   6.312   0.761   3.474
10401SOL    HW232103   6.197   0.685   3.562
10402SOL     OW32104   6.404   3.187   4.872
10402SOL    HW132105   6.480   3.252   4.879
10402SOL    HW232106   6.379   3.176   4.776
10403SOL     OW32107   3.727   0.666   3.928
10403SOL    HW132108   3.785   0.628   4.000
10403SOL    HW232109   3.635   0.627   3.935
10404SOL     OW32110   5.560   0.284   4.899
10404SOL    HW132111   5.526   0.190   4.907
10404SOL    HW232112   5.618   0.292   4.818
10405SOL     OW32113   0.434   1.700   6.189
10405SOL    HW132114   0.472   1.720   6.099
10405SOL    HW232115   0.499   1.727   6.260
10406SOL     OW32116   3.474   4.961   2.542
10406SOL    HW132117   3.469   5.061   2.536
10406SOL    HW232118   3.558   4.930   2.498
10407SOL     OW32119   3.246   5.869   5.922
10407SOL    HW132120   3.216   5.853   5.828
10407SOL    HW232121   3.186   5.935   5.967
10408SOL     OW32122   4.599   1.058   0.557
10408SOL    HW132123   4.618   1.024   0.465
10408SOL    HW232124   4.578   0.982   0.618
10409SOL     OW32125   0.353   4.357   1.097
10409SOL    HW132126   0.345   4.274   1.152
10409SOL    HW232127   0.268   4.408   1.100
10410SOL     OW32128   5.705   0.732   6.972
10410SOL    HW132129   5.676   0.819   7.011
10410SOL    HW232130   5.698   0.737   6.872
10411SOL     OW32131   3.672   6.880   3.109
10411SOL    HW132132   3.666   6.980   3.107
10411SOL    HW232133   3.637   6.842   3.024
10412SOL     OW32134   6.170   0.402   0.803
10412SOL    HW132135   6.114   0.357   0.872
10412SOL    HW232136   6.267   0.387   0.824
10413SOL     OW32137   6.165   2.256   1.165
10413SOL    HW132138   6.136   2.172   1.211
10413SOL    HW232139   6.226   2.233   1.089
10414SOL     OW32140   4.394   4.239   5.306
10414SOL    HW132141   4.349   4.301   5.242
10414SOL    HW232142   4.327   4.205   5.372
10415SOL     OW32143   0.408   4.502   5.283
10415SOL    HW132144   0.472   4.567   5.324
10415SOL    HW232145   0.460   4.426   5.243
10416SOL     OW32146   6.470   1.151   3.458
10416SOL    HW132147   6.470   1.249   3.438
10416SOL    HW232148   6.407   1.132   3.533
10417SOL     OW32149   3.730   5.319   4.381
10417SOL    HW132150   3.811   5.263   4.361
10417SOL    HW232151   3.735   5.351   4.475
10418SOL     OW32152   6.874   4.786   6.215
10418SOL    HW132153   6.837   4.876   6.192
10418SOL    HW232154   6.970   4.781   6.188
10419SOL     OW32155   1.267   0.391   6.358
10419SOL    HW132156   1.361   0.364   6.336
10419SOL    HW232157   1.206   0.369   6.282
10420SOL     OW32158   6.765   3.288   2.496
10420SOL    HW132159   6.796   3.195   2.474
10420SOL    HW232160   6.684   3.309   2.442
10421SOL     OW32161   0.327   1.513   3.598
10421SOL    HW132162   0.324   1.437   3.663
10421SOL    HW232163   0.392   1.583   3.631
10422SOL     OW32164   5.967   2.544   5.623
10422SOL    HW132165   6.036   2.497   5.568
10422SOL    HW232166   5.879   2.499   5.610
10423SOL     OW32167   5.261   4.998   4.581
10423SOL    HW132168   5.361   4.989   4.576
10423SOL    HW232169   5.219   4.908   4.571
10424SOL     OW32170   5.396   3.292   0.230
10424SOL    HW132171   5.477   3.258   0.182
10424SOL    HW232172   5.315   3.275   0.175
10425SOL     OW32173   2.045   6.879   1.899
10425SOL    HW132174   1.987   6.844   1.825
10425SOL    HW232175   2.025   6.975   1.914
10426SOL     OW32176   6.467   4.175   0.595
10426SOL    HW132177   6.487   4.271   0.578
10426SOL    HW232178   6.386   4.167   0.652
10427SOL     OW32179   3.880   1.569   0.312
10427SOL    HW132180   3.797   1.576   0.258
10427SOL    HW232181   3.916   1.660   0.331
10428SOL     OW32182   3.012   1.560   4.242
10428SOL    HW132183   3.047   1.572   4.335
10428SOL    HW232184   2.968   1.644   4.212
10429SOL     OW32185   0.478   5.357   1.112
10429SOL    HW132186   0.486   5.429   1.043
10429SOL    HW232187   0.497   5.395   1.202
10430SOL     OW32188   4.625   6.567   3.804
10430SOL    HW132189   4.543   6.611   3.767
10430SOL    HW232190   4.625   6.578   3.904
10431SOL     OW32191   3.408   6.551   4.783
10431SOL    HW132192   3.492   6.581   4.739
10431SOL    HW232193   3.397   6.452   4.771
10432SOL     OW32194   6.253   0.279   4.452
10432SOL    HW132195   6.333   0.339   4.458
10432SOL    HW232196   6.187   0.304   4.522
10433SOL     OW32197   1.967   6.918   1.542
10433SOL    HW132198   1.890   6.974   1.572
10433SOL    HW232199   2.047   6.937   1.599
10434SOL     OW32200   4.307   6.758   3.008
10434SOL    HW132201   4.279   6.662   3.000
10434SOL    HW232202   4.259   6.813   2.939
10435SOL     OW32203   6.857   0.382   4.800
10435SOL    HW132204   6.860   0.300   4.858
10435SOL    HW232205   6.812   0.456   4.850
10436SOL     OW32206   0.429   5.389   5.622
10436SOL    HW132207   0.417   5.472   5.567
10436SOL    HW232208   0.443   5.415   5.718
10437SOL     OW32209   5.861   4.658   5.296
10437SOL    HW132210   5.940   4.668   5.356
10437SOL    HW232211   5.850   4.742   5.242
10438SOL     OW32212   5.421   6.772   6.664
10438SOL    HW132213   5.360   6.749   6.588
10438SOL    HW232214   5.367   6.794   6.745
10439SOL     OW32215   3.817   1.840   6.076
10439SOL    HW132216   3.824   1.742   6.057
10439SOL    HW232217   3.770   1.886   6.001
10440SOL     OW32218   1.500   6.228   0.289
10440SOL    HW132219   1.471   6.293   0.218
10440SOL    HW232220   1.577   6.266   0.339
10441SOL     OW32221   4.854   1.485   0.305
10441SOL    HW132222   4.865   1.475   0.206
10441SOL    HW232223   4.780   1.551   0.323
10442SOL     OW32224   3.000   5.706   5.464
10442SOL    HW132225   3.020   5.609   5.449
10442SOL    HW232226   2.917   5.714   5.520
10443SOL     OW32227   5.186   3.589   4.736
10443SOL    HW132228   5.216   3.685   4.730
10443SOL    HW232229   5.088   3.583   4.718
10444SOL     OW32230   4.018   6.027   4.728
10444SOL    HW132231   3.959   6.095   4.771
10444SOL    HW232232   4.083   6.073   4.668
10445SOL     OW32233   0.646   5.332   3.881
10445SOL    HW132234   0.583   5.402   3.915
10445SOL    HW232235   0.613   5.298   3.793
10446SOL     OW32236   0.904   3.517   5.986
10446SOL    HW132237   0.979   3.552   6.041
10446SOL    HW232238   0.818   3.528   6.036
10447SOL     OW32239   6.667   1.442   1.842
10447SOL    HW132240   6.713   1.531   1.838
10447SOL    HW232241   6.636   1.423   1.935
10448SOL     OW32242   4.005   2.669   1.234
10448SOL    HW132243   3.906   2.663   1.246
10448SOL    HW232244   4.029   2.754   1.188
10449SOL     OW32245   2.566   5.648   4.443
10449SOL    HW132246   2.494   5.595   4.488
10449SOL    HW232247   2.655   5.609   4.467
10450SOL     OW32248   0.444   2.464   0.307
10450SOL    HW132249   0.540   2.441   0.321
10450SOL    HW232250   0.426   2.556   0.342
10451SOL     OW32251   2.897   5.134   2.587
10451SOL    HW132252   2.838   5.198   2.637
10451SOL    HW232253   2.910   5.051   2.643
10452SOL     OW32254   6.551   3.410   3.747
10452SOL    HW132255   6.462   3.449   3.721
10452SOL    HW232256   6.621   3.443   3.684
10453SOL     OW32257   5.309   6.128   1.431
10453SOL    HW132258   5.385   6.064   1.427
10453SOL    HW232259   5.336   6.215   1.389
10454SOL     OW32260   5.431   2.788   1.662
10454SOL    HW132261   5.496   2.838   1.604
10454SOL    HW232262   5.369   2.853   1.705
10455SOL     OW32263   0.805   4.626   3.352
10455SOL    HW132264   0.751   4.709   3.336
10455SOL    HW232265   0.743   4.550   3.371
10456SOL     OW32266   3.214   6.226   1.560
10456SOL    HW132267   3.152   6.192   1.631
10456SOL    HW232268   3.269   6.301   1.597
10457SOL     OW32269   3.358   3.279   3.139
10457SOL    HW132270   3.292   3.311   3.072
10457SOL    HW232271   3.345   3.328   3.225
10458SOL     OW32272   0.432   0.271   0.172
10458SOL    HW132273   0.420   0.176   0.202
10458SOL    HW232274   0.400   0.333   0.243
10459SOL     OW32275   5.414   5.577   3.034
10459SOL    HW132276   5.495   5.636   3.039
10459SOL    HW232277   5.443   5.483   3.017
10460SOL     OW32278   1.711   5.512   1.482
10460SOL    HW132279   1.745   5.473   1.567
10460SOL    HW232280   1.770   5.586   1.452
10461SOL     OW32281   1.232   6.308   5.699
10461SOL    HW132282   1.133   6.308   5.685
10461SOL    HW232283   1.270   6.395   5.667
10462SOL     OW32284   5.413   1.405   2.515
10462SOL    HW132285   5.429   1.307   2.518
10462SOL    HW232286   5.316   1.423   2.498
10463SOL     OW32287   3.627   4.082   5.729
10463SOL    HW132288   3.720   4.115   5.709
10463SOL    HW232289   3.609   3.999   5.675
10464SOL     OW32290   4.727   0.558   0.462
10464SOL    HW132291   4.779   0.601   0.535
10464SOL    HW232292   4.732   0.459   0.471
10465SOL     OW32293   6.514   0.206   6.920
10465SOL    HW132294   6.578   0.144   6.966
10465SOL    HW232295   6.566   0.270   6.863
10466SOL     OW32296   4.933   5.361   4.947
10466SOL    HW132297   4.931   5.412   4.861
10466SOL    HW232298   5.025   5.368   4.987
10467SOL     OW32299   1.752   1.481   5.575
10467SOL    HW132300   1.780   1.570   5.611
10467SOL    HW232301   1.682   1.442   5.634
10468SOL     OW32302   3.699   5.992   3.715
10468SOL    HW132303   3.693   6.009   3.616
10468SOL    HW232304   3.621   6.035   3.761
10469SOL     OW32305   3.494   3.807   0.770
10469SOL    HW132306   3.437   3.837   0.694
10469SOL    HW232307   3.569   3.750   0.736
10470SOL     OW32308   1.910   1.940   3.032
10470SOL    HW132309   1.886   2.036   3.020
10470SOL    HW232310   1.980   1.914   2.965
10471SOL     OW32311   1.904   3.465   1.275
10471SOL    HW132312   1.830   3.406   1.309
10471SOL    HW232313   1.992   3.420   1.289
10472SOL     OW32314   4.075   6.547   1.842
10472SOL    HW132315   4.116   6.622   1.790
10472SOL    HW232316   4.048   6.474   1.779
10473SOL     OW32317   5.501   0.188   0.670
10473SOL    HW132318   5.513   0.091   0.649
10473SOL    HW232319   5.585   0.224   0.712
10474SOL     OW32320   4.256   0.401   4.739
10474SOL    HW132321   4.352   0.411   4.766
10474SOL    HW232322   4.246   0.422   4.642
10475SOL     OW32323   4.826   5.940   1.075
10475SOL    HW132324   4.793   5.852   1.109
10475SOL    HW232325   4.759   6.011   1.096
10476SOL     OW32326   6.793   5.499   6.669
10476SOL    HW132327   6.811   5.595   6.653
10476SOL    HW232328   6.876   5.445   6.652
10477SOL     OW32329   6.256   3.414   5.125
10477SOL    HW132330   6.209   3.424   5.212
10477SOL    HW232331   6.303   3.326   5.121
10478SOL     OW32332   0.802   6.939   6.604
10478SOL    HW132333   0.741   6.886   6.662
10478SOL    HW232334   0.788   0.018   6.621
10479SOL     OW32335   1.293   2.187   1.896
10479SOL    HW132336   1.279   2.190   1.797
10479SOL    HW232337   1.243   2.108   1.934
10480SOL     OW32338   5.259   6.954   1.318
10480SOL    HW132339   5.246   0.021   1.268
10480SOL    HW232340   5.335   6.903   1.276
10481SOL     OW32341   2.302   1.277   4.472
10481SOL    HW132342   2.304   1.305   4.376
10481SOL    HW232343   2.392   1.293   4.513
10482SOL     OW32344   0.681   6.335   4.261
10482SOL    HW132345   0.638   6.380   4.182
10482SOL    HW232346   0.651   6.381   4.345
10483SOL     OW32347   6.451   5.010   0.415
10483SOL    HW132348   6.428   5.035   0.321
10483SOL    HW232349   6.366   4.997   0.467
10484SOL     OW32350   6.962   0.682   1.087
10484SOL    HW132351   6.886   0.746   1.077
10484SOL    HW232352   6.989   0.678   1.183
10485SOL     OW32353   4.087   3.777   2.815
10485SOL    HW132354   4.055   3.854   2.871
10485SOL    HW232355   4.102   3.698   2.874
10486SOL     OW32356   6.447   0.230   5.709
10486SOL    HW132357   6.519   0.161   5.700
10486SOL    HW232358   6.459   0.300   5.639
10487SOL     OW32359   5.025   1.629   1.727
10487SOL    HW132360   5.085   1.548   1.724
10487SOL    HW232361   4.930   1.599   1.741
10488SOL     OW32362   0.655   2.153   5.526
10488SOL    HW132363   0.573   2.209   5.540
10488SOL    HW232364   0.725   2.207   5.478
10489SOL     OW32365   6.056   5.799   3.852
10489SOL    HW132366   6.037   5.765   3.944
10489SOL    HW232367   5.997   5.753   3.786
10490SOL     OW32368   5.615   0.488   0.388
10490SOL    HW132369   5.539   0.436   0.427
10490SOL    HW232370   5.603   0.585   0.408
10491SOL     OW32371   1.951   2.904   6.031
10491SOL    HW132372   1.857   2.936   6.015
10491SOL    HW232373   1.977   2.841   5.958
10492SOL     OW32374   4.426   6.617   0.601
10492SOL    HW132375   4.496   6.685   0.583
10492SOL    HW232376   4.357   6.654   0.663
10493SOL     OW32377   4.047   5.641   0.898
10493SOL    HW132378   3.986   5.578   0.946
10493SOL    HW232379   4.065   5.720   0.955
10494SOL     OW32380   0.743   4.696   5.889
10494SOL    HW132381   0.711   4.608   5.925
10494SOL    HW232382   0.811   4.680   5.818
10495SOL     OW32383   0.009   6.246   6.673
10495SOL    HW132384   6.980   6.315   6.728
10495SOL    HW232385   0.100   6.281   6.649
10496SOL     OW32386   6.862   4.114   5.481
10496SOL    HW132387   6.778   4.060   5.488
10496SOL    HW232388   6.934   4.071   5.536
10497SOL     OW32389   1.974   6.579   1.838
10497SOL    HW132390   1.938   6.520   1.766
10497SOL    HW232391   2.071   6.560   1.852
10498SOL     OW32392   5.250   5.524   0.781
10498SOL    HW132393   5.194   5.568   0.711
10498SOL    HW232394   5.190   5.480   0.849
10499SOL     OW32395   5.958   5.477   1.338
10499SOL    HW132396   5.904   5.469   1.422
10499SOL    HW232397   5.918   5.547   1.279
10500SOL     OW32398   5.302   3.850   4.712
10500SOL    HW132399   5.374   3.820   4.649
10500SOL    HW232400   5.299   3.950   4.714
10501SOL     OW32401   2.770   5.537   2.558
10501SOL    HW132402   2.726   5.484   2.486
10501SOL    HW232403   2.868   5.546   2.537
10502SOL     OW32404   2.967   3.206   2.460
10502SOL    HW132405   2.937   3.210   2.365
10502SOL    HW232406   3.030   3.130   2.472
10503SOL     OW32407   0.031   4.056   6.241
10503SOL    HW132408   6.958   4.059   6.203
10503SOL    HW232409   0.027   4.067   6.340
10504SOL     OW32410   1.880   3.359   6.216
10504SOL    HW132411   1.845   3.291   6.281
10504SOL    HW232412   1.820   3.438   6.216
10505SOL     OW32413   5.524   5.822   2.078
10505SOL    HW132414   5.510   5.763   1.999
10505SOL    HW232415   5.613   5.869   2.068
10506SOL     OW32416   0.548   3.155   0.011
10506SOL    HW132417   0.527   3.180   6.935
10506SOL    HW232418   0.644   3.128   0.018
10507SOL     OW32419   2.468   4.418   0.135
10507SOL    HW132420   2.519   4.340   0.097
10507SOL    HW232421   2.527   4.498   0.138
10508SOL     OW32422   0.668   5.860   4.851
10508SOL    HW132423   0.746   5.881   4.792
10508SOL    HW232424   0.645   5.764   4.844
10509SOL     OW32425   4.872   3.158   4.219
10509SOL    HW132426   4.971   3.150   4.220
10509SOL    HW232427   4.843   3.226   4.286
10510SOL     OW32428   4.970   6.600   5.397
10510SOL    HW132429   5.030   6.533   5.353
10510SOL    HW232430   5.002   6.692   5.375
10511SOL     OW32431   2.585   0.890   2.123
10511SOL    HW132432   2.620   0.825   2.056
10511SOL    HW232433   2.640   0.974   2.120
10512SOL     OW32434   4.178   0.275   6.041
10512SOL    HW132435   4.186   0.232   6.131
10512SOL    HW232436   4.143   0.368   6.052
10513SOL     OW32437   5.915   3.111   2.335
10513SOL    HW132438   5.994   3.172   2.330
10513SOL    HW232439   5.851   3.145   2.404
10514SOL     OW32440   1.512   2.434   1.719
10514SOL    HW132441   1.609   2.420   1.740
10514SOL    HW232442   1.474   2.352   1.678
10515SOL     OW32443   1.964   2.304   4.354
10515SOL    HW132444   1.930   2.390   4.393
10515SOL    HW232445   2.064   2.308   4.350
10516SOL     OW32446   3.139   1.860   0.127
10516SOL    HW132447   3.220   1.852   0.184
10516SOL    HW232448   3.129   1.954   0.097
10517SOL     OW32449   1.714   3.462   3.361
10517SOL    HW132450   1.686   3.558   3.351
10517SOL    HW232451   1.650   3.403   3.312
10518SOL     OW32452   0.621   5.408   2.203
10518SOL    HW132453   0.625   5.503   2.235
10518SOL    HW232454   0.638   5.405   2.104
10519SOL     OW32455   2.835   5.599   1.979
10519SOL    HW132456   2.901   5.631   2.047
10519SOL    HW232457   2.785   5.678   1.942
10520SOL     OW32458   6.594   1.915   6.438
10520SOL    HW132459   6.543   1.832   6.461
10520SOL    HW232460   6.660   1.894   6.365
10521SOL     OW32461   5.871   3.512   1.523
10521SOL    HW132462   5.847   3.549   1.432
10521SOL    HW232463   5.894   3.416   1.514
10522SOL     OW32464   6.361   2.589   2.931
10522SOL    HW132465   6.346   2.571   3.029
10522SOL    HW232466   6.458   2.579   2.910
10523SOL     OW32467   0.604   4.330   4.212
10523SOL    HW132468   0.676   4.335   4.144
10523SOL    HW232469   0.642   4.348   4.303
10524SOL     OW32470   0.276   5.395   3.499
10524SOL    HW132471   0.223   5.358   3.423
10524SOL    HW232472   0.283   5.494   3.490
10525SOL     OW32473   4.306   1.020   4.888
10525SOL    HW132474   4.398   1.046   4.918
10525SOL    HW232475   4.286   0.927   4.918
10526SOL     OW32476   0.561   5.887   0.706
10526SOL    HW132477   0.643   5.882   0.763
10526SOL    HW232478   0.507   5.967   0.733
10527SOL     OW32479   0.342   1.364   5.525
10527SOL    HW132480   0.349   1.461   5.504
10527SOL    HW232481   0.265   1.349   5.588
10528SOL     OW32482   0.615   4.645   6.800
10528SOL    HW132483   0.680   4.656   6.875
10528SOL    HW232484   0.647   4.697   6.721
10529SOL     OW32485   1.755   5.992   6.059
10529SOL    HW132486   1.822   5.920   6.043
10529SOL    HW232487   1.664   5.961   6.032
10530SOL     OW32488   1.229   0.160   5.515
10530SOL    HW132489   1.195   0.111   5.595
10530SOL    HW232490   1.224   0.101   5.434
10531SOL     OW32491   3.224   2.331   5.719
10531SOL    HW132492   3.198   2.292   5.631
10531SOL    HW232493   3.221   2.260   5.789
10532SOL     OW32494   6.023   6.799   6.152
10532SOL    HW132495   6.035   6.701   6.172
10532SOL    HW232496   5.952   6.809   6.082
10533SOL     OW32497   3.534   5.751   4.318
10533SOL    HW132498   3.506   5.823   4.255
10533SOL    HW232499   3.628   5.725   4.299
10534SOL     OW32500   0.654   5.442   2.661
10534SOL    HW132501   0.635   5.533   2.699
10534SOL    HW232502   0.750   5.437   2.634
10535SOL     OW32503   2.924   1.473   2.185
10535SOL    HW132504   3.004   1.533   2.182
10535SOL    HW232505   2.881   1.480   2.275
10536SOL     OW32506   4.737   0.612   3.659
10536SOL    HW132507   4.761   0.552   3.583
10536SOL    HW232508   4.693   0.695   3.624
10537SOL     OW32509   4.826   6.705   3.295
10537SOL    HW132510   4.864   6.725   3.205
10537SOL    HW232511   4.758   6.774   3.319
10538SOL     OW32512   5.918   3.746   2.572
10538SOL    HW132513   5.961   3.656   2.571
10538SOL    HW232514   5.888   3.770   2.479
10539SOL     OW32515   5.850   5.799   2.443
10539SOL    HW132516   5.915   5.825   2.372
10539SOL    HW232517   5.892   5.730   2.503
10540SOL     OW32518   2.129   4.104   6.265
10540SOL    HW132519   2.145   4.005   6.254
10540SOL    HW232520   2.171   4.153   6.188
10541SOL     OW32521   3.089   3.182   4.656
10541SOL    HW132522   3.048   3.274   4.654
10541SOL    HW232523   3.083   3.140   4.566
10542SOL     OW32524   5.976   0.121   4.704
10542SOL    HW132525   6.037   0.127   4.784
10542SOL    HW232526   5.986   0.031   4.662
10543SOL     OW32527   6.907   2.562   5.811
10543SOL    HW132528   6.940   2.469   5.795
10543SOL    HW232529   6.808   2.565   5.799
10544SOL     OW32530   1.191   0.888   4.430
10544SOL    HW132531   1.272   0.837   4.457
10544SOL    HW232532   1.215   0.953   4.357
10545SOL     OW32533   1.592   2.659   2.555
10545SOL    HW132534   1.622   2.754   2.554
10545SOL    HW232535   1.495   2.655   2.580
10546SOL     OW32536   2.863   6.511   1.041
10546SOL    HW132537   2.909   6.499   1.129
10546SOL    HW232538   2.892   6.597   0.999
10547SOL     OW32539   4.856   6.999   4.811
10547SOL    HW132540   4.832   0.066   4.766
10547SOL    HW232541   4.944   6.967   4.777
10548SOL     OW32542   0.921   4.572   4.716
10548SOL    HW132543   0.930   4.584   4.617
10548SOL    HW232544   0.838   4.617   4.748
10549SOL     OW32545   0.477   1.497   0.627
10549SOL    HW132546   0.466   1.551   0.710
10549SOL    HW232547   0.387   1.474   0.590
10550SOL     OW32548   3.714   6.186   3.030
10550SOL    HW132549   3.802   6.139   3.025
10550SOL    HW232550   3.721   6.275   2.986
10551SOL     OW32551   2.880   2.005   5.919
10551SOL    HW132552   2.793   2.051   5.901
10551SOL    HW232553   2.934   2.001   5.835
10552SOL     OW32554   3.345   0.873   4.082
10552SOL    HW132555   3.421   0.857   4.144
10552SOL    HW232556   3.368   0.946   4.018
10553SOL     OW32557   0.202   5.094   0.544
10553SOL    HW132558   0.103   5.090   0.532
10553SOL    HW232559   0.247   5.065   0.459
10554SOL     OW32560   6.491   4.862   2.889
10554SOL    HW132561   6.507   4.901   2.980
10554SOL    HW232562   6.396   4.834   2.880
10555SOL     OW32563   3.071   1.839   0.601
10555SOL    HW132564   3.003   1.793   0.543
10555SOL    HW232565   3.051   1.937   0.603
10556SOL     OW32566   2.344   1.452   2.873
10556SOL    HW132567   2.267   1.430   2.934
10556SOL    HW232568   2.308   1.485   2.786
10557SOL     OW32569   1.770   3.811   4.340
10557SOL    HW132570   1.761   3.718   4.375
10557SOL    HW232571   1.683   3.860   4.353
10558SOL     OW32572   3.203   4.855   4.962
10558SOL    HW132573   3.206   4.762   4.926
10558SOL    HW232574   3.108   4.884   4.970
10559SOL     OW32575   3.541   0.085   0.683
10559SOL    HW132576   3.506   0.027   0.609
10559SOL    HW232577   3.573   0.027   0.758
10560SOL     OW32578   4.444   5.997   1.775
10560SOL    HW132579   4.390   6.081   1.773
10560SOL    HW232580   4.500   5.992   1.692
10561SOL     OW32581   4.894   4.453   1.930
10561SOL    HW132582   4.931   4.536   1.889
10561SOL    HW232583   4.799   4.440   1.901
10562SOL     OW32584   3.177   6.753   1.283
10562SOL    HW132585   3.178   6.737   1.382
10562SOL    HW232586   3.258   6.806   1.257
10563SOL     OW32587   0.438   0.032   0.950
10563SOL    HW132588   0.389   0.072   1.028
10563SOL    HW232589   0.527   7.016   0.982
10564SOL     OW32590   6.830   5.773   4.157
10564SOL    HW132591   6.806   5.739   4.066
10564SOL    HW232592   6.786   5.716   4.227
10565SOL     OW32593   6.616   0.003   5.586
10565SOL    HW132594   6.539   0.019   5.525
10565SOL    HW232595   6.672   6.947   5.550
10566SOL     OW32596   2.658   2.618   6.479
10566SOL    HW132597   2.558   2.610   6.481
10566SOL    HW232598   2.698   2.527   6.483
10567SOL     OW32599   1.839   2.126   6.137
10567SOL    HW132600   1.800   2.217   6.122
10567SOL    HW232601   1.844   2.077   6.050
10568SOL     OW32602   5.251   2.945   6.701
10568SOL    HW132603   5.317   2.956   6.775
10568SOL    HW232604   5.254   3.026   6.642
10569SOL     OW32605   5.536   0.042   1.986
10569SOL    HW132606   5.581   6.988   2.039
10569SOL    HW232607   5.479   0.000   1.915
10570SOL     OW32608   0.815   5.108   3.457
10570SOL    HW132609   0.902   5.148   3.486
10570SOL    HW232610   0.790   5.146   3.368
10571SOL     OW32611   6.653   4.677   6.311
10571SOL    HW132612   6.731   4.702   6.254
10571SOL    HW232613   6.654   4.579   6.329
10572SOL     OW32614   6.320   4.259   1.653
10572SOL    HW132615   6.407   4.255   1.604
10572SOL    HW232616   6.262   4.330   1.613
10573SOL     OW32617   5.764   0.480   4.101
10573SOL    HW132618   5.717   0.547   4.158
10573SOL    HW232619   5.822   0.528   4.035
10574SOL     OW32620   6.285   0.606   3.730
10574SOL    HW132621   6.247   0.537   3.791
10574SOL    HW232622   6.381   0.624   3.754
10575SOL     OW32623   5.367   0.873   2.924
10575SOL    HW132624   5.288   0.934   2.934
10575SOL    HW232625   5.451   0.924   2.944
10576SOL     OW32626   2.058   4.911   3.089
10576SOL    HW132627   2.034   4.888   2.995
10576SOL    HW232628   2.157   4.903   3.101
10577SOL     OW32629   3.185   6.281   0.428
10577SOL    HW132630   3.124   6.264   0.505
10577SOL    HW232631   3.274   6.237   0.444
10578SOL     OW32632   6.041   2.487   3.729
10578SOL    HW132633   6.118   2.433   3.763
10578SOL    HW232634   5.960   2.468   3.784
10579SOL     OW32635   3.088   3.686   1.092
10579SOL    HW132636   3.187   3.678   1.094
10579SOL    HW232637   3.052   3.677   1.185
10580SOL     OW32638   6.599   6.734   6.803
10580SOL    HW132639   6.530   6.754   6.873
10580SOL    HW232640   6.632   6.640   6.815
10581SOL     OW32641   5.419   6.763   3.204
10581SOL    HW132642   5.510   6.726   3.191
10581SOL    HW232643   5.406   6.843   3.144
10582SOL     OW32644   5.614   4.596   6.751
10582SOL    HW132645   5.549   4.667   6.778
10582SOL    HW232646   5.690   4.595   6.815
10583SOL     OW32647   2.904   6.507   3.547
10583SOL    HW132648   2.858   6.557   3.473
10583SOL    HW232649   2.838   6.488   3.620
10584SOL     OW32650   6.481   0.405   5.463
10584SOL    HW132651   6.499   0.498   5.431
10584SOL    HW232652   6.567   0.354   5.467
10585SOL     OW32653   0.423   2.124   6.547
10585SOL    HW132654   0.400   2.069   6.628
10585SOL    HW232655   0.351   2.193   6.532
10586SOL     OW32656   4.878   4.701   5.653
10586SOL    HW132657   4.872   4.627   5.587
10586SOL    HW232658   4.952   4.764   5.627
10587SOL     OW32659   0.598   6.001   5.393
10587SOL    HW132660   0.681   6.015   5.339
10587SOL    HW232661   0.518   6.029   5.339
10588SOL     OW32662   1.457   3.096   3.917
10588SOL    HW132663   1.517   3.017   3.931
10588SOL    HW232664   1.474   3.135   3.826
10589SOL     OW32665   5.465   6.146   5.005
10589SOL    HW132666   5.461   6.121   4.909
10589SOL    HW232667   5.372   6.156   5.041
10590SOL     OW32668   0.694   5.985   1.487
10590SOL    HW132669   0.600   5.961   1.509
10590SOL    HW232670   0.715   5.956   1.393
10591SOL     OW32671   0.876   1.316   1.626
10591SOL    HW132672   0.945   1.375   1.668
10591SOL    HW232673   0.879   1.226   1.669
10592SOL     OW32674   5.895   2.186   4.812
10592SOL    HW132675   5.901   2.256   4.741
10592SOL    HW232676   5.987   2.160   4.841
10593SOL     OW32677   2.800   6.036   0.823
10593SOL    HW132678   2.896   6.030   0.795
10593SOL    HW232679   2.775   5.951   0.870
10594SOL     OW32680   3.899   0.850   3.497
10594SOL    HW132681   3.984   0.843   3.446
10594SOL    HW232682   3.903   0.789   3.576
10595SOL     OW32683   5.770   0.511   0.840
10595SOL    HW132684   5.784   0.477   0.934
10595SOL    HW232685   5.818   0.598   0.829
10596SOL     OW32686   5.037   1.958   0.223
10596SOL    HW132687   4.942   1.959   0.253
10596SOL    HW232688   5.042   1.927   0.128
10597SOL     OW32689   2.492   0.688   6.046
10597SOL    HW132690   2.516   0.628   5.971
10597SOL    HW232691   2.570   0.696   6.109
10598SOL     OW32692   2.179   1.746   5.754
10598SOL    HW132693   2.274   1.748   5.722
10598SOL    HW232694   2.134   1.662   5.722
10599SOL     OW32695   6.360   4.499   5.794
10599SOL    HW132696   6.371   4.444   5.877
10599SOL    HW232697   6.329   4.591   5.818
10600SOL     OW32698   2.836   1.112   1.645
10600SOL    HW132699   2.901   1.091   1.718
10600SOL    HW232700   2.759   1.163   1.684
10601SOL     OW32701   0.179   6.687   6.011
10601SOL    HW132702   0.222   6.777   6.007
10601SOL    HW232703   0.203   6.642   6.097
10602SOL     OW32704   0.439   0.325   6.932
10602SOL    HW132705   0.442   0.330   0.013
10602SOL    HW232706   0.353   0.366   6.899
10603SOL     OW32707   4.389   0.012   1.542
10603SOL    HW132708   4.441   0.050   1.465
10603SOL    HW232709   4.404   6.932   1.547
10604SOL     OW32710   0.057   6.845   4.766
10604SOL    HW132711   7.005   6.786   4.727
10604SOL    HW232712   0.060   6.931   4.716
10605SOL     OW32713   2.250   0.086   0.502
10605SOL    HW132714   2.188   0.150   0.456
10605SOL    HW232715   2.323   0.060   0.439
10606SOL     OW32716   5.853   0.616   1.513
10606SOL    HW132717   5.828   0.634   1.608
10606SOL    HW232718   5.923   0.545   1.509
10607SOL     OW32719   4.404   3.945   6.768
10607SOL    HW132720   4.478   3.955   6.702
10607SOL    HW232721   4.377   3.848   6.774
10608SOL     OW32722   6.534   2.824   3.050
10608SOL    HW132723   6.485   2.739   3.032
10608SOL    HW232724   6.502   2.864   3.135
10609SOL     OW32725   4.177   6.884   0.542
10609SOL    HW132726   4.263   6.915   0.583
10609SOL    HW232727   4.193   6.861   0.446
10610SOL     OW32728   6.801   1.704   4.703
10610SOL    HW132729   6.752   1.695   4.790
10610SOL    HW232730   6.895   1.735   4.721
10611SOL     OW32731   2.779   5.285   4.704
10611SOL    HW132732   2.823   5.199   4.730
10611SOL    HW232733   2.682   5.282   4.730
10612SOL     OW32734   5.276   1.459   3.718
10612SOL    HW132735   5.201   1.404   3.683
10612SOL    HW232736   5.270   1.551   3.679
10613SOL     OW32737   6.390   6.050   4.511
10613SOL    HW132738   6.471   6.059   4.453
10613SOL    HW232739   6.309   6.078   4.459
10614SOL     OW32740   5.190   0.812   5.694
10614SOL    HW132741   5.202   0.861   5.607
10614SOL    HW232742   5.160   0.718   5.676
10615SOL     OW32743   2.771   1.765   6.064
10615SOL    HW132744   2.706   1.839   6.077
10615SOL    HW232745   2.849   1.798   6.011
10616SOL     OW32746   2.975   6.099   6.295
10616SOL    HW132747   2.974   6.176   6.231
10616SOL    HW232748   2.882   6.068   6.311
10617SOL     OW32749   2.450   3.656   1.679
10617SOL    HW132750   2.413   3.748   1.669
10617SOL    HW232751   2.389   3.602   1.738
10618SOL     OW32752   0.393   5.613   5.498
10618SOL    HW132753   0.408   5.692   5.558
10618SOL    HW232754   0.295   5.592   5.495
10619SOL     OW32755   0.333   2.062   2.941
10619SOL    HW132756   0.315   2.042   3.037
10619SOL    HW232757   0.357   1.977   2.893
10620SOL     OW32758   2.016   6.994   5.139
10620SOL    HW132759   1.983   6.939   5.062
10620SOL    HW232760   1.983   6.956   5.225
10621SOL     OW32761   1.126   3.975   2.880
10621SOL    HW132762   1.166   3.884   2.895
10621SOL    HW232763   1.199   4.039   2.855
10622SOL     OW32764   4.234   2.978   0.915
10622SOL    HW132765   4.134   2.980   0.916
10622SOL    HW232766   4.265   2.947   0.825
10623SOL     OW32767   5.734   6.171   5.673
10623SOL    HW132768   5.812   6.159   5.611
10623SOL    HW232769   5.752   6.250   5.733
10624SOL     OW32770   0.737   3.022   4.837
10624SOL    HW132771   0.685   3.100   4.800
10624SOL    HW232772   0.768   2.965   4.761
10625SOL     OW32773   0.205   3.240   6.755
10625SOL    HW132774   0.177   3.164   6.696
10625SOL    HW232775   0.245   3.312   6.698
10626SOL     OW32776   4.133   2.863   1.751
10626SOL    HW132777   4.100   2.957   1.748
10626SOL    HW232778   4.055   2.800   1.743
10627SOL     OW32779   6.265   0.474   6.251
10627SOL    HW132780   6.220   0.425   6.176
10627SOL    HW232781   6.206   0.473   6.332
10628SOL     OW32782   4.065   0.506   0.307
10628SOL    HW132783   3.981   0.483   0.355
10628SOL    HW232784   4.143   0.468   0.357
10629SOL     OW32785   3.354   5.043   5.093
10629SOL    HW132786   3.334   4.957   5.046
10629SOL    HW232787   3.451   5.064   5.085
10630SOL     OW32788   4.638   0.329   2.599
10630SOL    HW132789   4.657   0.257   2.666
10630SOL    HW232790   4.687   0.309   2.514
10631SOL     OW32791   4.593   5.143   6.555
10631SOL    HW132792   4.618   5.054   6.592
10631SOL    HW232793   4.529   5.188   6.617
10632SOL     OW32794   5.047   5.776   3.575
10632SOL    HW132795   4.996   5.860   3.559
10632SOL    HW232796   5.070   5.734   3.487
10633SOL     OW32797   2.051   2.610   1.611
10633SOL    HW132798   2.093   2.694   1.577
10633SOL    HW232799   2.013   2.626   1.702
10634SOL     OW32800   1.366   5.219   6.932
10634SOL    HW132801   1.384   5.215   6.834
10634SOL    HW232802   1.452   5.230   6.982
10635SOL     OW32803   2.068   3.567   0.472
10635SOL    HW132804   2.090   3.519   0.387
10635SOL    HW232805   1.972   3.594   0.471
10636SOL     OW32806   6.501   1.913   0.586
10636SOL    HW132807   6.458   1.823   0.582
10636SOL    HW232808   6.592   1.904   0.627
10637SOL     OW32809   2.656   5.910   6.631
10637SOL    HW132810   2.626   5.892   6.725
10637SOL    HW232811   2.589   5.969   6.586
10638SOL     OW32812   6.643   6.203   2.185
10638SOL    HW132813   6.582   6.256   2.243
10638SOL    HW232814   6.738   6.215   2.216
10639SOL     OW32815   2.135   3.708   1.740
10639SOL    HW132816   2.113   3.716   1.837
10639SOL    HW232817   2.167   3.796   1.705
10640SOL     OW32818   4.240   1.015   3.217
10640SOL    HW132819   4.158   1.064   3.247
10640SOL    HW232820   4.303   1.079   3.172
10641SOL     OW32821   1.327   1.372   3.473
10641SOL    HW132822   1.385   1.315   3.531
10641SOL    HW232823   1.368   1.380   3.382
10642SOL     OW32824   6.150   2.282   0.572
10642SOL    HW132825   6.248   2.264   0.565
10642SOL    HW232826   6.112   2.294   0.480
10643SOL     OW32827   2.318   5.856   4.964
10643SOL    HW132828   2.221   5.846   4.986
10643SOL    HW232829   2.366   5.894   5.044
10644SOL     OW32830   5.970   3.114   1.887
10644SOL    HW132831   5.907   3.170   1.834
10644SOL    HW232832   5.920   3.067   1.960
10645SOL     OW32833   2.187   2.967   3.515
10645SOL    HW132834   2.228   2.910   3.587
10645SOL    HW232835   2.178   3.061   3.548
10646SOL     OW32836   5.431   1.441   5.130
10646SOL    HW132837   5.366   1.516   5.112
10646SOL    HW232838   5.394   1.356   5.093
10647SOL     OW32839   4.425   5.352   5.511
10647SOL    HW132840   4.487   5.320   5.439
10647SOL    HW232841   4.340   5.300   5.508
10648SOL     OW32842   6.039   5.585   5.884
10648SOL    HW132843   6.015   5.502   5.933
10648SOL    HW232844   6.055   5.659   5.949
10649SOL     OW32845   1.047   3.003   3.662
10649SOL    HW132846   1.124   2.978   3.721
10649SOL    HW232847   0.983   2.926   3.657
10650SOL     OW32848   6.815   0.418   4.012
10650SOL    HW132849   6.716   0.408   4.023
10650SOL    HW232850   6.835   0.453   3.921
10651SOL     OW32851   5.266   6.270   6.059
10651SOL    HW132852   5.305   6.295   5.970
10651SOL    HW232853   5.338   6.273   6.129
10652SOL     OW32854   1.797   6.889   6.144
10652SOL    HW132855   1.813   6.968   6.203
10652SOL    HW232856   1.714   6.842   6.173
10653SOL     OW32857   3.783   6.167   4.768
10653SOL    HW132858   3.754   6.237   4.833
10653SOL    HW232859   3.777   6.077   4.811
10654SOL     OW32860   4.707   1.867   4.025
10654SOL    HW132861   4.677   1.961   4.045
10654SOL    HW232862   4.628   1.805   4.031
10655SOL     OW32863   2.229   4.756   1.254
10655SOL    HW132864   2.176   4.775   1.336
10655SOL    HW232865   2.286   4.675   1.268
10656SOL     OW32866   6.140   1.386   2.495
10656SOL    HW132867   6.086   1.461   2.533
10656SOL    HW232868   6.166   1.323   2.568
10657SOL     OW32869   5.963   1.242   4.502
10657SOL    HW132870   5.953   1.262   4.600
10657SOL    HW232871   5.939   1.323   4.449
10658SOL     OW32872   5.738   3.619   5.177
10658SOL    HW132873   5.682   3.701   5.187
10658SOL    HW232874   5.817   3.639   5.119
10659SOL     OW32875   1.421   4.667   0.870
10659SOL    HW132876   1.415   4.604   0.793
10659SOL    HW232877   1.505   4.650   0.921
10660SOL     OW32878   6.248   3.696   5.336
10660SOL    HW132879   6.241   3.602   5.371
10660SOL    HW232880   6.220   3.697   5.240
10661SOL     OW32881   1.448   4.892   0.720
10661SOL    HW132882   1.380   4.889   0.647
10661SOL    HW232883   1.447   4.805   0.769
10662SOL     OW32884   3.730   1.084   2.375
10662SOL    HW132885   3.634   1.061   2.357
10662SOL    HW232886   3.783   1.069   2.292
10663SOL     OW32887   0.664   1.634   3.520
10663SOL    HW132888   0.743   1.689   3.493
10663SOL    HW232889   0.694   1.539   3.536
10664SOL     OW32890   0.673   5.360   4.662
10664SOL    HW132891   0.689   5.262   4.647
10664SOL    HW232892   0.587   5.386   4.619
10665SOL     OW32893   2.137   2.639   6.663
10665SOL    HW132894   2.166   2.701   6.590
10665SOL    HW232895   2.173   2.548   6.646
10666SOL     OW32896   3.597   3.538   1.786
10666SOL    HW132897   3.680   3.592   1.801
10666SOL    HW232898   3.602   3.454   1.839
10667SOL     OW32899   4.690   1.537   3.350
10667SOL    HW132900   4.781   1.574   3.367
10667SOL    HW232901   4.622   1.588   3.404
10668SOL     OW32902   3.260   1.906   5.513
10668SOL    HW132903   3.251   1.987   5.457
10668SOL    HW232904   3.186   1.842   5.492
10669SOL     OW32905   5.818   0.289   0.691
10669SOL    HW132906   5.800   0.368   0.750
10669SOL    HW232907   5.860   0.321   0.606
10670SOL     OW32908   5.508   4.289   4.545
10670SOL    HW132909   5.441   4.217   4.565
10670SOL    HW232910   5.535   4.283   4.448
10671SOL     OW32911   1.073   1.315   4.556
10671SOL    HW132912   1.079   1.241   4.623
10671SOL    HW232913   1.082   1.403   4.603
10672SOL     OW32914   6.196   3.990   1.740
10672SOL    HW132915   6.222   4.074   1.691
10672SOL    HW232916   6.197   4.007   1.838
10673SOL     OW32917   1.719   6.771   0.561
10673SOL    HW132918   1.656   6.790   0.486
10673SOL    HW232919   1.805   6.736   0.524
10674SOL     OW32920   4.017   3.725   4.480
10674SOL    HW132921   4.052   3.631   4.479
10674SOL    HW232922   4.021   3.762   4.387
10675SOL     OW32923   3.191   0.724   6.234
10675SOL    HW132924   3.206   0.801   6.295
10675SOL    HW232925   3.206   0.752   6.139
10676SOL     OW32926   6.775   5.995   4.668
10676SOL    HW132927   6.702   5.948   4.618
10676SOL    HW232928   6.809   5.936   4.741
10677SOL     OW32929   1.237   0.948   1.425
10677SOL    HW132930   1.260   0.878   1.493
10677SOL    HW232931   1.247   0.909   1.333
10678SOL     OW32932   4.343   4.737   3.940
10678SOL    HW132933   4.334   4.786   3.853
10678SOL    HW232934   4.369   4.642   3.922
10679SOL     OW32935   3.904   5.454   6.621
10679SOL    HW132936   3.878   5.464   6.526
10679SOL    HW232937   3.999   5.421   6.627
10680SOL     OW32938   3.564   1.676   3.888
10680SOL    HW132939   3.494   1.616   3.850
10680SOL    HW232940   3.617   1.717   3.813
10681SOL     OW32941   0.085   3.243   6.986
10681SOL    HW132942   0.133   3.253   6.898
10681SOL    HW232943   0.152   3.241   0.041
10682SOL     OW32944   0.256   2.973   5.298
10682SOL    HW132945   0.255   2.920   5.213
10682SOL    HW232946   0.308   2.922   5.367
10683SOL     OW32947   4.403   0.749   3.500
10683SOL    HW132948   4.424   0.839   3.462
10683SOL    HW232949   4.455   0.679   3.452
10684SOL     OW32950   4.429   5.568   1.768
10684SOL    HW132951   4.493   5.598   1.839
10684SOL    HW232952   4.376   5.490   1.803
10685SOL     OW32953   0.111   5.776   0.593
10685SOL    HW132954   0.049   5.851   0.570
10685SOL    HW232955   0.115   5.711   0.517
10686SOL     OW32956   2.081   4.383   6.450
10686SOL    HW132957   2.007   4.446   6.426
10686SOL    HW232958   2.138   4.366   6.371
10687SOL     OW32959   6.768   4.262   3.929
10687SOL    HW132960   6.686   4.207   3.944
10687SOL    HW232961   6.820   4.225   3.852
10688SOL     OW32962   5.312   2.254   2.808
10688SOL    HW132963   5.275   2.247   2.716
10688SOL    HW232964   5.336   2.349   2.828
10689SOL     OW32965   7.015   6.924   1.969
10689SOL    HW132966   7.015   6.829   2.002
10689SOL    HW232967   6.931   6.969   1.998
10690SOL     OW32968   0.546   4.988   3.077
10690SOL    HW132969   0.504   5.048   3.145
10690SOL    HW232970   0.551   5.036   2.989
10691SOL     OW32971   1.909   1.483   1.605
10691SOL    HW132972   1.942   1.538   1.681
10691SOL    HW232973   1.829   1.527   1.564
10692SOL     OW32974   2.511   0.685   4.250
10692SOL    HW132975   2.461   0.663   4.166
10692SOL    HW232976   2.544   0.601   4.293
10693SOL     OW32977   1.087   5.929   1.126
10693SOL    HW132978   1.069   5.842   1.172
10693SOL    HW232979   1.046   6.003   1.180
10694SOL     OW32980   5.433   6.612   6.280
10694SOL    HW132981   5.454   6.636   6.186
10694SOL    HW232982   5.433   6.512   6.290
10695SOL     OW32983   1.403   2.219   1.580
10695SOL    HW132984   1.311   2.237   1.543
10695SOL    HW232985   1.451   2.156   1.520
10696SOL     OW32986   6.747   3.694   4.623
10696SOL    HW132987   6.783   3.623   4.682
10696SOL    HW232988   6.755   3.783   4.668
10697SOL     OW32989   6.969   0.238   5.808
10697SOL    HW132990   6.887   0.183   5.822
10697SOL    HW232991   6.984   0.252   5.710
10698SOL     OW32992   4.855   3.998   7.017
10698SOL    HW132993   4.883   4.048   6.936
10698SOL    HW232994   4.936   3.956   0.041
10699SOL     OW32995   3.916   4.928   1.200
10699SOL    HW132996   3.916   4.904   1.103
10699SOL    HW232997   3.948   4.850   1.254
10700SOL     OW32998   5.410   6.626   0.814
10700SOL    HW132999   5.319   6.603   0.780
10700SOL    HW233000   5.468   6.544   0.814
10701SOL     OW33001   3.224   6.790   6.049
10701SOL    HW133002   3.258   6.841   5.970
10701SOL    HW233003   3.183   6.704   6.018
10702SOL     OW33004   5.143   3.449   2.519
10702SOL    HW133005   5.077   3.417   2.451
10702SOL    HW233006   5.233   3.457   2.477
10703SOL     OW33007   2.493   2.873   5.610
10703SOL    HW133008   2.496   2.838   5.516
10703SOL    HW233009   2.398   2.884   5.639
10704SOL     OW33010   0.115   4.869   2.226
10704SOL    HW133011   0.078   4.842   2.137
10704SOL    HW233012   0.207   4.907   2.213
10705SOL     OW33013   5.901   5.084   1.636
10705SOL    HW133014   5.964   5.163   1.632
10705SOL    HW233015   5.954   5.000   1.639
10706SOL     OW33016   3.483   0.263   2.237
10706SOL    HW133017   3.492   0.168   2.267
10706SOL    HW233018   3.398   0.273   2.185
10707SOL     OW33019   0.866   6.820   3.651
10707SOL    HW133020   0.895   6.831   3.556
10707SOL    HW233021   0.844   6.909   3.690
10708SOL     OW33022   3.793   1.595   1.326
10708SOL    HW133023   3.713   1.588   1.386
10708SOL    HW233024   3.779   1.538   1.245
10709SOL     OW33025   5.135   5.138   4.764
10709SOL    HW133026   5.195   5.201   4.812
10709SOL    HW233027   5.188   5.087   4.696
10710SOL     OW33028   6.030   1.018   3.643
10710SOL    HW133029   5.941   0.978   3.623
10710SOL    HW233030   6.047   1.094   3.580
10711SOL     OW33031   1.945   6.684   3.713
10711SOL    HW133032   1.976   6.778   3.729
10711SOL    HW233033   1.924   6.672   3.616
10712SOL     OW33034   2.799   0.603   2.730
10712SOL    HW133035   2.796   0.574   2.826
10712SOL    HW233036   2.758   0.695   2.722
10713SOL     OW33037   0.716   3.305   0.987
10713SOL    HW133038   0.747   3.383   0.932
10713SOL    HW233039   0.655   3.248   0.933
10714SOL     OW33040   4.531   3.155   5.926
10714SOL    HW133041   4.620   3.165   5.971
10714SOL    HW233042   4.545   3.140   5.828
10715SOL     OW33043   4.494   0.491   2.146
10715SOL    HW133044   4.464   0.539   2.228
10715SOL    HW233045   4.550   0.551   2.090
10716SOL     OW33046   5.709   2.965   3.467
10716SOL    HW133047   5.629   2.906   3.456
10716SOL    HW233048   5.726   3.014   3.382
10717SOL     OW33049   1.784   2.681   1.521
10717SOL    HW133050   1.704   2.626   1.498
10717SOL    HW233051   1.845   2.687   1.443
10718SOL     OW33052   0.966   3.748   0.263
10718SOL    HW133053   0.964   3.842   0.228
10718SOL    HW233054   1.025   3.692   0.207
10719SOL     OW33055   0.121   5.583   2.514
10719SOL    HW133056   0.198   5.521   2.529
10719SOL    HW233057   0.156   5.674   2.494
10720SOL     OW33058   6.695   4.658   5.206
10720SOL    HW133059   6.675   4.579   5.265
10720SOL    HW233060   6.792   4.678   5.209
10721SOL     OW33061   5.221   3.423   5.325
10721SOL    HW133062   5.216   3.342   5.384
10721SOL    HW233063   5.129   3.458   5.308
10722SOL     OW33064   1.267   4.827   0.487
10722SOL    HW133065   1.324   4.771   0.427
10722SOL    HW233066   1.198   4.874   0.433
10723SOL     OW33067   6.972   2.654   6.572
10723SOL    HW133068   6.957   2.675   6.669
10723SOL    HW233069   7.003   2.737   6.525
10724SOL     OW33070   6.291   0.216   6.603
10724SOL    HW133071   6.239   0.275   6.666
10724SOL    HW233072   6.228   0.175   6.537
10725SOL     OW33073   1.636   5.773   5.232
10725SOL    HW133074   1.577   5.833   5.177
10725SOL    HW233075   1.655   5.689   5.180
10726SOL     OW33076   5.659   0.714   4.243
10726SOL    HW133077   5.584   0.764   4.199
10726SOL    HW233078   5.745   0.741   4.201
10727SOL     OW33079   0.424   5.849   5.626
10727SOL    HW133080   0.426   5.915   5.551
10727SOL    HW233081   0.374   5.887   5.703
10728SOL     OW33082   1.476   4.928   6.507
10728SOL    HW133083   1.548   4.909   6.440
10728SOL    HW233084   1.508   4.906   6.599
10729SOL     OW33085   4.784   1.230   2.650
10729SOL    HW133086   4.798   1.165   2.725
10729SOL    HW233087   4.696   1.210   2.605
10730SOL     OW33088   1.298   0.661   1.317
10730SOL    HW133089   1.212   0.677   1.269
10730SOL    HW233090   1.300   0.567   1.352
10731SOL     OW33091   3.243   0.872   0.886
10731SOL    HW133092   3.209   0.778   0.891
10731SOL    HW233093   3.343   0.870   0.880
10732SOL     OW33094   6.302   4.799   4.699
10732SOL    HW133095   6.381   4.796   4.637
10732SOL    HW233096   6.332   4.781   4.792
10733SOL     OW33097   6.978   1.333   6.744
10733SOL    HW133098   7.006   1.317   6.649
10733SOL    HW233099   6.907   1.404   6.746
10734SOL     OW33100   0.924   1.079   0.353
10734SOL    HW133101   0.897   1.063   0.448
10734SOL    HW233102   0.958   0.993   0.313
10735SOL     OW33103   0.272   2.933   2.398
10735SOL    HW133104   0.340   2.997   2.361
10735SOL    HW233105   0.266   2.947   2.497
10736SOL     OW33106   1.077   0.437   3.482
10736SOL    HW133107   0.990   0.485   3.492
10736SOL    HW233108   1.132   0.451   3.564
10737SOL     OW33109   1.134   1.848   0.212
10737SOL    HW133110   1.173   1.811   0.296
10737SOL    HW233111   1.082   1.776   0.166
10738SOL     OW33112   2.256   0.443   2.692
10738SOL    HW133113   2.334   0.464   2.752
10738SOL    HW233114   2.289   0.435   2.598
10739SOL     OW33115   1.632   1.089   1.115
10739SOL    HW133116   1.572   1.161   1.148
10739SOL    HW233117   1.687   1.123   1.040
10740SOL     OW33118   6.843   4.977   4.988
10740SOL    HW133119   6.868   4.958   5.083
10740SOL    HW233120   6.888   4.911   4.928
10741SOL     OW33121   4.451   0.729   1.173
10741SOL    HW133122   4.504   0.644   1.172
10741SOL    HW233123   4.463   0.776   1.085
10742SOL     OW33124   5.383   6.733   1.516
10742SOL    HW133125   5.330   6.795   1.458
10742SOL    HW233126   5.477   6.768   1.524
10743SOL     OW33127   1.334   1.809   5.651
10743SOL    HW133128   1.270   1.873   5.695
10743SOL    HW233129   1.300   1.716   5.661
10744SOL     OW33130   3.202   1.360   0.706
10744SOL    HW133131   3.171   1.275   0.748
10744SOL    HW233132   3.289   1.387   0.746
10745SOL     OW33133   0.426   6.076   6.541
10745SOL    HW133134   0.398   6.052   6.634
10745SOL    HW233135   0.517   6.118   6.544
10746SOL     OW33136   2.780   4.867   1.403
10746SOL    HW133137   2.833   4.782   1.394
10746SOL    HW233138   2.698   4.862   1.346
10747SOL     OW33139   4.427   1.485   4.688
10747SOL    HW133140   4.483   1.488   4.605
10747SOL    HW233141   4.331   1.496   4.664
10748SOL     OW33142   5.587   1.172   0.818
10748SOL    HW133143   5.511   1.149   0.757
10748SOL    HW233144   5.622   1.263   0.796
10749SOL     OW33145   0.254   5.730   3.738
10749SOL    HW133146   0.296   5.650   3.781
10749SOL    HW233147   0.156   5.732   3.758
10750SOL     OW33148   4.559   6.105   4.212
10750SOL    HW133149   4.572   6.118   4.114
10750SOL    HW233150   4.534   6.192   4.254
10751SOL     OW33151   1.824   4.777   4.633
10751SOL    HW133152   1.769   4.719   4.572
10751SOL    HW233153   1.768   4.853   4.665
10752SOL     OW33154   6.125   4.143   5.503
10752SOL    HW133155   6.124   4.228   5.555
10752SOL    HW233156   6.178   4.155   5.419
10753SOL     OW33157   5.176   4.562   4.521
10753SOL    HW133158   5.146   4.650   4.558
10753SOL    HW233159   5.273   4.550   4.539
10754SOL     OW33160   0.645   0.571   3.249
10754SOL    HW133161   0.694   0.502   3.196
10754SOL    HW233162   0.574   0.613   3.193
10755SOL     OW33163   0.182   0.860   0.282
10755SOL    HW133164   0.230   0.891   0.201
10755SOL    HW233165   0.233   0.886   0.364
10756SOL     OW33166   6.556   4.791   6.771
10756SOL    HW133167   6.533   4.766   6.865
10756SOL    HW233168   6.536   4.714   6.710
10757SOL     OW33169   1.535   2.757   0.470
10757SOL    HW133170   1.546   2.734   0.566
10757SOL    HW233171   1.485   2.684   0.423
10758SOL     OW33172   0.970   6.426   4.187
10758SOL    HW133173   1.037   6.385   4.248
10758SOL    HW233174   0.885   6.374   4.190
10759SOL     OW33175   2.242   3.077   1.551
10759SOL    HW133176   2.267   3.165   1.591
10759SOL    HW233177   2.187   3.025   1.616
10760SOL     OW33178   5.461   6.871   2.511
10760SOL    HW133179   5.559   6.888   2.508
10760SOL    HW233180   5.412   6.956   2.491
10761SOL     OW33181   1.108   6.361   6.056
10761SOL    HW133182   1.164   6.438   6.026
10761SOL    HW233183   1.130   6.281   6.000
10762SOL     OW33184   3.258   2.127   4.191
10762SOL    HW133185   3.239   2.184   4.272
10762SOL    HW233186   3.354   2.100   4.192
10763SOL     OW33187   4.759   0.189   3.142
10763SOL    HW133188   4.830   0.121   3.158
10763SOL    HW233189   4.685   0.148   3.089
10764SOL     OW33190   4.996   2.526   6.250
10764SOL    HW133191   5.087   2.500   6.218
10764SOL    HW233192   4.928   2.463   6.213
10765SOL     OW33193   4.800   2.644   1.200
10765SOL    HW133194   4.869   2.714   1.216
10765SOL    HW233195   4.809   2.571   1.268
10766SOL     OW33196   4.535   5.066   0.679
10766SOL    HW133197   4.497   4.989   0.730
10766SOL    HW233198   4.541   5.043   0.582
10767SOL     OW33199   1.851   0.259   0.797
10767SOL    HW133200   1.762   0.270   0.752
10767SOL    HW233201   1.897   0.178   0.759
10768SOL     OW33202   4.920   5.281   1.589
10768SOL    HW133203   4.885   5.228   1.666
10768SOL    HW233204   4.921   5.224   1.507
10769SOL     OW33205   2.328   4.042   5.424
10769SOL    HW133206   2.365   4.032   5.331
10769SOL    HW233207   2.256   4.111   5.424
10770SOL     OW33208   5.548   6.401   4.649
10770SOL    HW133209   5.550   6.306   4.679
10770SOL    HW233210   5.519   6.404   4.553
10771SOL     OW33211   5.391   0.308   3.278
10771SOL    HW133212   5.472   0.333   3.332
10771SOL    HW233213   5.329   0.387   3.273
10772SOL     OW33214   5.836   0.151   3.850
10772SOL    HW133215   5.921   0.099   3.861
10772SOL    HW233216   5.844   0.211   3.771
10773SOL     OW33217   5.860   5.041   6.212
10773SOL    HW133218   5.767   5.072   6.231
10773SOL    HW233219   5.912   5.116   6.171
10774SOL     OW33220   2.481   1.751   5.728
10774SOL    HW133221   2.501   1.739   5.825
10774SOL    HW233222   2.567   1.756   5.676
10775SOL     OW33223   0.375   4.491   2.201
10775SOL    HW133224   0.404   4.396   2.193
10775SOL    HW233225   0.374   4.518   2.297
10776SOL     OW33226   0.456   0.950   6.430
10776SOL    HW133227   0.540   0.907   6.396
10776SOL    HW233228   0.436   0.916   6.522
10777SOL     OW33229   4.240   5.583   2.101
10777SOL    HW133230   4.339   5.576   2.098
10777SOL    HW233231   4.202   5.505   2.150
10778SOL     OW33232   4.933   6.722   4.054
10778SOL    HW133233   4.867   6.725   4.129
10778SOL    HW233234   5.008   6.660   4.079
10779SOL     OW33235   6.531   2.771   3.470
10779SOL    HW133236   6.474   2.710   3.415
10779SOL    HW233237   6.477   2.812   3.543
10780SOL     OW33238   1.686   0.792   4.149
10780SOL    HW133239   1.668   0.890   4.147
10780SOL    HW233240   1.739   0.766   4.068
10781SOL     OW33241   4.438   1.079   4.209
10781SOL    HW133242   4.499   1.021   4.263
10781SOL    HW233243   4.455   1.065   4.112
10782SOL     OW33244   6.999   1.255   2.641
10782SOL    HW133245   0.002   1.239   2.545
10782SOL    HW233246   0.027   1.186   2.697
10783SOL     OW33247   0.794   2.128   2.796
10783SOL    HW133248   0.858   2.132   2.720
10783SOL    HW233249   0.701   2.120   2.762
10784SOL     OW33250   4.091   6.733   3.941
10784SOL    HW133251   4.090   6.634   3.952
10784SOL    HW233252   4.184   6.762   3.915
10785SOL     OW33253   0.435   4.511   0.384
10785SOL    HW133254   0.461   4.607   0.398
10785SOL    HW233255   0.348   4.507   0.336
10786SOL     OW33256   6.467   4.629   3.667
10786SOL    HW133257   6.484   4.599   3.573
10786SOL    HW233258   6.519   4.572   3.730
10787SOL     OW33259   1.392   1.472   5.960
10787SOL    HW133260   1.376   1.569   5.941
10787SOL    HW233261   1.393   1.457   6.058
10788SOL     OW33262   1.946   4.302   0.087
10788SOL    HW133263   1.951   4.222   0.146
10788SOL    HW233264   2.034   4.317   0.042
10789SOL     OW33265   6.400   3.507   6.539
10789SOL    HW133266   6.425   3.413   6.513
10789SOL    HW233267   6.321   3.505   6.601
10790SOL     OW33268   0.499   0.570   1.895
10790SOL    HW133269   0.449   0.496   1.849
10790SOL    HW233270   0.596   0.548   1.897
10791SOL     OW33271   0.159   6.520   1.705
10791SOL    HW133272   0.223   6.444   1.698
10791SOL    HW233273   0.070   6.491   1.669
10792SOL     OW33274   3.321   2.854   5.058
10792SOL    HW133275   3.260   2.919   5.013
10792SOL    HW233276   3.362   2.794   4.990
10793SOL     OW33277   6.174   2.996   5.649
10793SOL    HW133278   6.234   3.047   5.710
10793SOL    HW233279   6.103   2.950   5.702
10794SOL     OW33280   4.131   3.459   4.460
10794SOL    HW133281   4.116   3.459   4.361
10794SOL    HW233282   4.229   3.457   4.478
10795SOL     OW33283   0.328   5.398   2.622
10795SOL    HW133284   0.407   5.353   2.582
10795SOL    HW233285   0.257   5.329   2.643
10796SOL     OW33286   6.821   6.421   5.617
10796SOL    HW133287   6.838   6.469   5.531
10796SOL    HW233288   6.756   6.346   5.600
10797SOL     OW33289   2.933   2.448   1.266
10797SOL    HW133290   2.853   2.420   1.319
10797SOL    HW233291   2.935   2.548   1.259
10798SOL     OW33292   3.031   0.892   0.301
10798SOL    HW133293   3.058   0.920   0.393
10798SOL    HW233294   2.967   0.815   0.307
10799SOL     OW33295   4.118   1.416   1.989
10799SOL    HW133296   4.173   1.388   1.910
10799SOL    HW233297   4.022   1.393   1.973
10800SOL     OW33298   0.586   6.584   5.273
10800SOL    HW133299   0.579   6.484   5.282
10800SOL    HW233300   0.552   6.611   5.183
10801SOL     OW33301   1.153   0.398   0.095
10801SOL    HW133302   1.156   0.488   0.137
10801SOL    HW233303   1.060   0.377   0.066
10802SOL     OW33304   0.366   0.263   2.321
10802SOL    HW133305   0.291   0.197   2.328
10802SOL    HW233306   0.331   0.355   2.340
10803SOL     OW33307   1.860   5.462   5.769
10803SOL    HW133308   1.788   5.496   5.830
10803SOL    HW233309   1.818   5.424   5.686
10804SOL     OW33310   5.823   3.404   2.781
10804SOL    HW133311   5.774   3.426   2.866
10804SOL    HW233312   5.850   3.308   2.782
10805SOL     OW33313   4.617   0.198   5.373
10805SOL    HW133314   4.527   0.234   5.350
10805SOL    HW233315   4.674   0.195   5.291
10806SOL     OW33316   4.049   4.216   6.198
10806SOL    HW133317   4.080   4.158   6.123
10806SOL    HW233318   3.981   4.167   6.252
10807SOL     OW33319   1.806   6.749   3.419
10807SOL    HW133320   1.779   6.654   3.405
10807SOL    HW233321   1.725   6.807   3.422
10808SOL     OW33322   0.512   3.175   6.260
10808SOL    HW133323   0.567   3.119   6.323
10808SOL    HW233324   0.540   3.157   6.166
10809SOL     OW33325   2.270   4.214   3.924
10809SOL    HW133326   2.183   4.263   3.920
10809SOL    HW233327   2.344   4.274   3.892
10810SOL     OW33328   0.163   0.049   4.212
10810SOL    HW133329   0.197   6.974   4.219
10810SOL    HW233330   0.236   0.109   4.181
10811SOL     OW33331   4.736   4.678   5.905
10811SOL    HW133332   4.805   4.690   5.833
10811SOL    HW233333   4.661   4.622   5.869
10812SOL     OW33334   6.986   3.777   0.663
10812SOL    HW133335   6.900   3.798   0.616
10812SOL    HW233336   6.967   3.757   0.760
10813SOL     OW33337   0.682   3.832   5.892
10813SOL    HW133338   0.704   3.785   5.807
10813SOL    HW233339   0.584   3.826   5.909
10814SOL     OW33340   1.860   0.085   6.626
10814SOL    HW133341   1.924   0.054   6.697
10814SOL    HW233342   1.884   0.179   6.600
10815SOL     OW33343   4.822   3.039   3.054
10815SOL    HW133344   4.856   3.119   3.003
10815SOL    HW233345   4.829   3.057   3.152
10816SOL     OW33346   2.950   3.311   2.746
10816SOL    HW133347   2.960   3.399   2.699
10816SOL    HW233348   2.935   3.239   2.677
10817SOL     OW33349   3.761   0.305   3.425
10817SOL    HW133350   3.779   0.395   3.465
10817SOL    HW233351   3.815   0.236   3.472
10818SOL     OW33352   4.805   3.857   5.376
10818SOL    HW133353   4.775   3.774   5.424
10818SOL    HW233354   4.745   3.933   5.400
10819SOL     OW33355   5.915   5.130   6.761
10819SOL    HW133356   5.838   5.123   6.697
10819SOL    HW233357   6.000   5.145   6.710
10820SOL     OW33358   0.301   5.334   4.234
10820SOL    HW133359   0.247   5.360   4.154
10820SOL    HW233360   0.385   5.389   4.236
10821SOL     OW33361   4.497   6.914   3.235
10821SOL    HW133362   4.407   6.950   3.212
10821SOL    HW233363   4.500   6.816   3.214
10822SOL     OW33364   6.145   2.023   2.416
10822SOL    HW133365   6.147   2.010   2.317
10822SOL    HW233366   6.205   1.956   2.460
10823SOL     OW33367   0.924   0.588   2.423
10823SOL    HW133368   0.845   0.571   2.365
10823SOL    HW233369   1.008   0.579   2.369
10824SOL     OW33370   0.273   0.526   2.347
10824SOL    HW133371   0.321   0.559   2.428
10824SOL    HW233372   0.273   0.598   2.277
10825SOL     OW33373   2.129   1.861   0.375
10825SOL    HW133374   2.181   1.828   0.453
10825SOL    HW233375   2.173   1.830   0.290
10826SOL     OW33376   0.909   1.338   2.697
10826SOL    HW133377   0.847   1.346   2.619
10826SOL    HW233378   0.923   1.241   2.719
10827SOL     OW33379   0.358   3.504   4.837
10827SOL    HW133380   0.340   3.485   4.934
10827SOL    HW233381   0.455   3.524   4.825
10828SOL     OW33382   2.127   4.559   1.004
10828SOL    HW133383   2.128   4.481   0.940
10828SOL    HW233384   2.060   4.541   1.076
10829SOL     OW33385   5.209   2.845   0.233
10829SOL    HW133386   5.289   2.787   0.244
10829SOL    HW233387   5.136   2.793   0.190
10830SOL     OW33388   4.321   1.615   3.101
10830SOL    HW133389   4.411   1.627   3.060
10830SOL    HW233390   4.331   1.594   3.198
10831SOL     OW33391   2.863   6.154   1.949
10831SOL    HW133392   2.910   6.138   2.036
10831SOL    HW233393   2.824   6.067   1.917
10832SOL     OW33394   0.081   3.779   6.242
10832SOL    HW133395   0.169   3.741   6.272
10832SOL    HW233396   0.090   3.878   6.232
10833SOL     OW33397   0.598   1.688   1.065
10833SOL    HW133398   0.589   1.788   1.075
10833SOL    HW233399   0.607   1.647   1.156
10834SOL     OW33400   6.080   1.366   0.451
10834SOL    HW133401   6.130   1.309   0.387
10834SOL    HW233402   5.985   1.335   0.457
10835SOL     OW33403   6.050   3.502   0.216
10835SOL    HW133404   6.119   3.436   0.186
10835SOL    HW233405   5.960   3.460   0.214
10836SOL     OW33406   0.640   1.623   3.207
10836SOL    HW133407   0.724   1.607   3.155
10836SOL    HW233408   0.662   1.640   3.303
10837SOL     OW33409   6.806   4.895   1.941
10837SOL    HW133410   6.821   4.950   2.023
10837SOL    HW233411   6.708   4.887   1.924
10838SOL     OW33412   6.283   6.513   3.988
10838SOL    HW133413   6.242   6.554   3.906
10838SOL    HW233414   6.267   6.414   3.987
10839SOL     OW33415   4.271   3.871   1.120
10839SOL    HW133416   4.308   3.800   1.060
10839SOL    HW233417   4.178   3.893   1.091
10840SOL     OW33418   3.332   6.289   2.083
10840SOL    HW133419   3.243   6.331   2.102
10840SOL    HW233420   3.404   6.355   2.104
10841SOL     OW33421   5.771   4.426   4.782
10841SOL    HW133422   5.827   4.343   4.787
10841SOL    HW233423   5.760   4.453   4.686
10842SOL     OW33424   5.040   2.524   1.544
10842SOL    HW133425   5.065   2.614   1.507
10842SOL    HW233426   5.103   2.455   1.508
10843SOL     OW33427   1.431   1.143   1.420
10843SOL    HW133428   1.409   1.233   1.458
10843SOL    HW233429   1.361   1.077   1.447
10844SOL     OW33430   0.308   5.038   2.889
10844SOL    HW133431   0.254   5.120   2.907
10844SOL    HW233432   0.250   4.970   2.844
10845SOL     OW33433   3.984   6.231   5.341
10845SOL    HW133434   4.025   6.203   5.254
10845SOL    HW233435   3.947   6.323   5.332
10846SOL     OW33436   5.399   0.456   6.438
10846SOL    HW133437   5.311   0.501   6.423
10846SOL    HW233438   5.410   0.381   6.373
10847SOL     OW33439   3.218   2.412   7.002
10847SOL    HW133440   3.176   2.336   6.951
10847SOL    HW233441   3.233   2.489   6.940
10848SOL     OW33442   1.048   4.466   0.957
10848SOL    HW133443   1.094   4.475   0.869
10848SOL    HW233444   1.026   4.370   0.974
10849SOL     OW33445   2.619   4.584   4.058
10849SOL    HW133446   2.552   4.581   4.133
10849SOL    HW233447   2.636   4.491   4.026
10850SOL     OW33448   3.478   6.308   5.977
10850SOL    HW133449   3.401   6.271   6.028
10850SOL    HW233450   3.562   6.261   6.003
10851SOL     OW33451   3.259   3.905   0.544
10851SOL    HW133452   3.285   3.812   0.520
10851SOL    HW233453   3.330   3.969   0.513
10852SOL     OW33454   1.457   0.815   6.695
10852SOL    HW133455   1.362   0.785   6.690
10852SOL    HW233456   1.470   0.894   6.635
10853SOL     OW33457   2.478   3.126   5.699
10853SOL    HW133458   2.523   3.039   5.682
10853SOL    HW233459   2.392   3.111   5.748
10854SOL     OW33460   4.574   5.178   5.316
10854SOL    HW133461   4.602   5.083   5.327
10854SOL    HW233462   4.486   5.182   5.269
10855SOL     OW33463   3.994   0.886   6.984
10855SOL    HW133464   4.037   0.826   0.033
10855SOL    HW233465   4.064   0.928   6.928
10856SOL     OW33466   5.806   1.423   0.373
10856SOL    HW133467   5.737   1.445   0.442
10856SOL    HW233468   5.844   1.509   0.337
10857SOL     OW33469   0.881   2.458   2.569
10857SOL    HW133470   0.860   2.362   2.589
10857SOL    HW233471   0.855   2.514   2.647
10858SOL     OW33472   0.785   0.770   0.511
10858SOL    HW133473   0.721   0.766   0.435
10858SOL    HW233474   0.773   0.689   0.569
10859SOL     OW33475   0.576   4.742   4.352
10859SOL    HW133476   0.610   4.658   4.394
10859SOL    HW233477   0.572   4.814   4.421
10860SOL     OW33478   0.335   3.170   4.791
10860SOL    HW133479   0.304   3.229   4.716
10860SOL    HW233480   0.328   3.074   4.764
10861SOL     OW33481   3.473   3.699   3.294
10861SOL    HW133482   3.525   3.701   3.208
10861SOL    HW233483   3.376   3.714   3.274
10862SOL     OW33484   0.970   1.008   6.011
10862SOL    HW133485   0.960   1.086   6.072
10862SOL    HW233486   0.963   0.923   6.065
10863SOL     OW33487   1.902   0.401   4.740
10863SOL    HW133488   1.834   0.473   4.730
10863SOL    HW233489   1.993   0.442   4.749
10864SOL     OW33490   3.233   6.022   7.004
10864SOL    HW133491   3.240   5.958   0.062
10864SOL    HW233492   3.167   5.987   6.938
10865SOL     OW33493   6.432   1.300   0.926
10865SOL    HW133494   6.434   1.253   0.838
10865SOL    HW233495   6.338   1.307   0.958
10866SOL     OW33496   5.443   4.731   0.965
10866SOL    HW133497   5.446   4.635   0.991
10866SOL    HW233498   5.435   4.738   0.865
10867SOL     OW33499   3.246   4.219   0.673
10867SOL    HW133500   3.344   4.197   0.670
10867SOL    HW233501   3.205   4.196   0.584
10868SOL     OW33502   4.909   1.620   3.498
10868SOL    HW133503   4.975   1.679   3.452
10868SOL    HW233504   4.940   1.600   3.591
10869NA      NA33505   6.555   3.043   5.182
10870NA      NA33506   4.541   4.570   5.140
10871NA      NA33507   1.329   2.857   1.647
10872NA      NA33508   5.085   3.648   5.090
10873NA      NA33509   4.039   2.280   5.172
10874NA      NA33510   3.652   4.871   1.754
10875NA      NA33511   6.700   4.974   6.728
10876NA      NA33512   3.375   3.102   4.701
10877NA      NA33513   4.435   5.946   6.996
10878NA      NA33514   4.363   6.396   4.950
10879NA      NA33515   6.395   5.284   2.481
10880NA      NA33516   2.204   0.010   3.714
10881NA      NA33517   4.146   5.812   2.048
10882NA      NA33518   3.526   3.882   2.074
   7.01868   7.01868   7.01868
