Generated by trjconv : CNT in water t= 247.00000
33518
    1C        C    1   2.844   2.766   4.746
    1C        C    2   2.900   2.724   4.868
    1C        C    3   2.839   2.776   4.983
    1C        C    4   2.853   2.773   4.261
    1C        C    5   2.909   2.730   4.384
    1C        C    6   2.853   2.774   4.505
    1C        C    7   3.014   2.635   4.627
    1C        C    8   2.900   2.717   4.626
    1C        C    9   3.076   2.604   4.751
    1C        C   10   3.012   2.638   4.872
    1C        C   11   3.184   2.498   4.980
    1C        C   12   3.061   2.567   4.982
    1C        C   13   2.852   2.778   3.773
    1C        C   14   2.903   2.724   3.893
    1C        C   15   2.851   2.773   4.016
    1C        C   16   3.018   2.642   4.139
    1C        C   17   2.905   2.728   4.138
    1C        C   18   3.082   2.607   4.259
    1C        C   19   3.020   2.643   4.381
    1C        C   20   3.207   2.549   4.504
    1C        C   21   3.076   2.602   4.505
    1C        C   22   3.274   2.528   4.626
    1C        C   23   3.206   2.548   4.748
    1C        C   24   3.413   2.485   4.868
    1C        C   25   3.271   2.504   4.867
    1C        C   26   3.491   2.473   4.984
    1C        C   27   2.849   2.767   3.281
    1C        C   28   2.907   2.727   3.404
    1C        C   29   2.853   2.770   3.527
    1C        C   30   3.019   2.644   3.652
    1C        C   31   2.905   2.728   3.652
    1C        C   32   3.078   2.601   3.773
    1C        C   33   3.017   2.641   3.894
    1C        C   34   3.204   2.541   4.018
    1C        C   35   3.078   2.605   4.017
    1C        C   36   3.274   2.522   4.138
    1C        C   37   3.212   2.551   4.262
    1C        C   38   3.417   2.500   4.383
    1C        C   39   3.278   2.526   4.384
    1C        C   40   3.485   2.497   4.507
    1C        C   41   3.413   2.501   4.628
    1C        C   42   3.630   2.478   4.744
    1C        C   43   3.488   2.485   4.747
    1C        C   44   3.706   2.484   4.863
    1C        C   45   3.630   2.474   4.981
    1C        C   46   2.839   2.757   2.794
    1C        C   47   2.896   2.712   2.915
    1C        C   48   2.845   2.762   3.038
    1C        C   49   3.014   2.633   3.163
    1C        C   50   2.898   2.714   3.159
    1C        C   51   3.076   2.601   3.286
    1C        C   52   3.017   2.639   3.409
    1C        C   53   3.208   2.545   3.529
    1C        C   54   3.080   2.604   3.530
    1C        C   55   3.274   2.522   3.652
    1C        C   56   3.207   2.545   3.774
    1C        C   57   3.414   2.503   3.894
    1C        C   58   3.275   2.524   3.896
    1C        C   59   3.485   2.503   4.017
    1C        C   60   3.414   2.501   4.140
    1C        C   61   3.629   2.501   4.258
    1C        C   62   3.487   2.495   4.260
    1C        C   63   3.698   2.503   4.381
    1C        C   64   3.626   2.501   4.503
    1C        C   65   3.832   2.547   4.621
    1C        C   66   3.700   2.499   4.623
    1C        C   67   3.900   2.572   4.743
    1C        C   68   3.838   2.532   4.863
    1C        C   69   4.052   2.589   4.979
    1C        C   70   3.926   2.529   4.972
    1C        C   71   2.826   2.737   2.308
    1C        C   72   2.878   2.691   2.431
    1C        C   73   2.828   2.741   2.552
    1C        C   74   3.007   2.623   2.672
    1C        C   75   2.890   2.703   2.673
    1C        C   76   3.071   2.591   2.793
    1C        C   77   3.012   2.632   2.915
    1C        C   78   3.202   2.546   3.036
    1C        C   79   3.073   2.602   3.039
    1C        C   80   3.271   2.526   3.158
    1C        C   81   3.208   2.549   3.283
    1C        C   82   3.411   2.495   3.401
    1C        C   83   3.273   2.524   3.405
    1C        C   84   3.480   2.492   3.524
    1C        C   85   3.414   2.498   3.649
    1C        C   86   3.625   2.502   3.768
    1C        C   87   3.483   2.495   3.771
    1C        C   88   3.696   2.512   3.889
    1C        C   89   3.625   2.513   4.012
    1C        C   90   3.833   2.549   4.137
    1C        C   91   3.695   2.517   4.135
    1C        C   92   3.900   2.576   4.258
    1C        C   93   3.832   2.550   4.379
    1C        C   94   4.023   2.644   4.499
    1C        C   95   3.897   2.580   4.500
    1C        C   96   4.085   2.679   4.621
    1C        C   97   4.030   2.631   4.742
    1C        C   98   4.195   2.764   4.865
    1C        C   99   4.100   2.657   4.863
    1C        C  100   4.218   2.844   4.978
    1C        C  101   2.817   2.729   2.069
    1C        C  102   2.985   2.589   2.189
    1C        C  103   2.874   2.679   2.187
    1C        C  104   3.058   2.569   2.309
    1C        C  105   2.999   2.617   2.428
    1C        C  106   3.196   2.531   2.549
    1C        C  107   3.066   2.586   2.549
    1C        C  108   3.267   2.515   2.670
    1C        C  109   3.201   2.534   2.793
    1C        C  110   3.409   2.494   2.916
    1C        C  111   3.270   2.519   2.915
    1C        C  112   3.482   2.495   3.037
    1C        C  113   3.410   2.504   3.158
    1C        C  114   3.624   2.495   3.278
    1C        C  115   3.483   2.493   3.279
    1C        C  116   3.691   2.506   3.402
    1C        C  117   3.621   2.498   3.525
    1C        C  118   3.830   2.549   3.647
    1C        C  119   3.694   2.510   3.645
    1C        C  120   3.895   2.578   3.769
    1C        C  121   3.830   2.555   3.892
    1C        C  122   4.025   2.637   4.014
    1C        C  123   3.899   2.574   4.014
    1C        C  124   4.084   2.680   4.135
    1C        C  125   4.026   2.641   4.258
    1C        C  126   4.198   2.769   4.379
    1C        C  127   4.089   2.679   4.379
    1C        C  128   4.247   2.817   4.502
    1C        C  129   4.194   2.769   4.623
    1C        C  130   4.336   2.930   4.739
    1C        C  131   4.246   2.819   4.745
    1C        C  132   4.363   3.000   4.858
    1C        C  133   4.293   2.962   4.974
    1C        C  134   3.172   2.473   2.077
    1C        C  135   3.037   2.513   2.079
    1C        C  136   3.258   2.482   2.188
    1C        C  137   3.192   2.520   2.307
    1C        C  138   3.402   2.481   2.427
    1C        C  139   3.263   2.503   2.428
    1C        C  140   3.476   2.484   2.548
    1C        C  141   3.406   2.489   2.671
    1C        C  142   3.618   2.489   2.791
    1C        C  143   3.477   2.485   2.793
    1C        C  144   3.692   2.501   2.911
    1C        C  145   3.623   2.498   3.034
    1C        C  146   3.830   2.541   3.153
    1C        C  147   3.695   2.501   3.156
    1C        C  148   3.891   2.569   3.278
    1C        C  149   3.826   2.548   3.401
    1C        C  150   4.021   2.634   3.524
    1C        C  151   3.894   2.573   3.523
    1C        C  152   4.079   2.676   3.645
    1C        C  153   4.021   2.643   3.769
    1C        C  154   4.195   2.764   3.890
    1C        C  155   4.083   2.678   3.891
    1C        C  156   4.248   2.812   4.011
    1C        C  157   4.194   2.768   4.134
    1C        C  158   4.345   2.919   4.252
    1C        C  159   4.250   2.815   4.256
    1C        C  160   4.378   2.983   4.374
    1C        C  161   4.336   2.927   4.497
    1C        C  162   4.442   3.114   4.614
    1C        C  163   4.372   2.991   4.617
    1C        C  164   4.469   3.183   4.733
    1C        C  165   4.437   3.120   4.855
    1C        C  166   4.520   3.317   4.972
    1C        C  167   4.486   3.183   4.971
    1C        C  168   3.472   2.428   2.073
    1C        C  169   3.395   2.452   2.189
    1C        C  170   3.615   2.464   2.308
    1C        C  171   3.473   2.461   2.307
    1C        C  172   3.688   2.488   2.426
    1C        C  173   3.617   2.493   2.547
    1C        C  174   3.824   2.540   2.665
    1C        C  175   3.688   2.500   2.669
    1C        C  176   3.891   2.568   2.787
    1C        C  177   3.827   2.543   2.910
    1C        C  178   4.025   2.625   3.032
    1C        C  179   3.896   2.566   3.031
    1C        C  180   4.083   2.661   3.156
    1C        C  181   4.018   2.633   3.278
    1C        C  182   4.191   2.757   3.400
    1C        C  183   4.079   2.669   3.400
    1C        C  184   4.244   2.808   3.521
    1C        C  185   4.194   2.759   3.643
    1C        C  186   4.342   2.911   3.763
    1C        C  187   4.249   2.804   3.765
    1C        C  188   4.379   2.973   3.884
    1C        C  189   4.337   2.922   4.009
    1C        C  190   4.448   3.105   4.128
    1C        C  191   4.381   2.980   4.130
    1C        C  192   4.478   3.170   4.249
    1C        C  193   4.445   3.108   4.372
    1C        C  194   4.511   3.313   4.491
    1C        C  195   4.474   3.177   4.492
    1C        C  196   4.528   3.386   4.611
    1C        C  197   4.510   3.320   4.734
    1C        C  198   4.549   3.534   4.853
    1C        C  199   4.534   3.391   4.855
    1C        C  200   4.576   3.617   4.967
    1C        C  201   3.611   2.418   2.076
    1C        C  202   3.825   2.510   2.185
    1C        C  203   3.690   2.462   2.187
    1C        C  204   3.898   2.537   2.303
    1C        C  205   3.826   2.520   2.423
    1C        C  206   4.017   2.622   2.542
    1C        C  207   3.892   2.557   2.543
    1C        C  208   4.076   2.663   2.664
    1C        C  209   4.018   2.630   2.788
    1C        C  210   4.192   2.752   2.907
    1C        C  211   4.078   2.669   2.909
    1C        C  212   4.244   2.796   3.031
    1C        C  213   4.192   2.750   3.154
    1C        C  214   4.327   2.915   3.273
    1C        C  215   4.239   2.804   3.276
    1C        C  216   4.368   2.975   3.395
    1C        C  217   4.331   2.919   3.520
    1C        C  218   4.441   3.099   3.641
    1C        C  219   4.377   2.974   3.642
    1C        C  220   4.470   3.168   3.761
    1C        C  221   4.440   3.101   3.881
    1C        C  222   4.506   3.304   4.005
    1C        C  223   4.466   3.168   4.003
    1C        C  224   4.520   3.378   4.125
    1C        C  225   4.512   3.307   4.247
    1C        C  226   4.523   3.522   4.367
    1C        C  227   4.523   3.380   4.367
    1C        C  228   4.521   3.597   4.486
    1C        C  229   4.534   3.527   4.608
    1C        C  230   4.501   3.739   4.729
    1C        C  231   4.536   3.601   4.728
    1C        C  232   4.497   3.817   4.846
    1C        C  233   4.544   3.753   4.961
    1C        C  234   4.015   2.613   2.066
    1C        C  235   3.893   2.546   2.068
    1C        C  236   4.085   2.646   2.183
    1C        C  237   4.023   2.606   2.304
    1C        C  238   4.202   2.733   2.422
    1C        C  239   4.085   2.653   2.422
    1C        C  240   4.254   2.784   2.543
    1C        C  241   4.189   2.748   2.664
    1C        C  242   4.338   2.901   2.783
    1C        C  243   4.249   2.791   2.784
    1C        C  244   4.376   2.960   2.906
    1C        C  245   4.335   2.904   3.029
    1C        C  246   4.438   3.093   3.150
    1C        C  247   4.370   2.969   3.150
    1C        C  248   4.464   3.160   3.272
    1C        C  249   4.434   3.099   3.396
    1C        C  250   4.504   3.300   3.513
    1C        C  251   4.463   3.165   3.517
    1C        C  252   4.516   3.370   3.635
    1C        C  253   4.505   3.305   3.760
    1C        C  254   4.525   3.514   3.878
    1C        C  255   4.521   3.373   3.883
    1C        C  256   4.520   3.586   4.000
    1C        C  257   4.529   3.518   4.124
    1C        C  258   4.493   3.730   4.241
    1C        C  259   4.521   3.592   4.244
    1C        C  260   4.469   3.801   4.361
    1C        C  261   4.487   3.734   4.485
    1C        C  262   4.427   3.938   4.602
    1C        C  263   4.475   3.805   4.606
    1C        C  264   4.399   4.008   4.722
    1C        C  265   4.432   3.942   4.843
    1C        C  266   4.328   4.133   4.955
    1C        C  267   4.398   4.013   4.959
    1C        C  268   4.269   2.772   2.066
    1C        C  269   4.198   2.731   2.180
    1C        C  270   4.347   2.889   2.299
    1C        C  271   4.252   2.782   2.300
    1C        C  272   4.390   2.948   2.420
    1C        C  273   4.349   2.889   2.541
    1C        C  274   4.446   3.081   2.660
    1C        C  275   4.385   2.954   2.661
    1C        C  276   4.472   3.148   2.782
    1C        C  277   4.446   3.082   2.904
    1C        C  278   4.504   3.289   3.025
    1C        C  279   4.467   3.152   3.025
    1C        C  280   4.520   3.361   3.145
    1C        C  281   4.503   3.295   3.269
    1C        C  282   4.515   3.510   3.388
    1C        C  283   4.512   3.369   3.390
    1C        C  284   4.511   3.581   3.510
    1C        C  285   4.519   3.512   3.633
    1C        C  286   4.490   3.721   3.756
    1C        C  287   4.521   3.583   3.754
    1C        C  288   4.472   3.793   3.876
    1C        C  289   4.491   3.724   3.998
    1C        C  290   4.424   3.928   4.115
    1C        C  291   4.474   3.796   4.118
    1C        C  292   4.392   3.996   4.235
    1C        C  293   4.416   3.932   4.358
    1C        C  294   4.321   4.120   4.477
    1C        C  295   4.396   4.000   4.479
    1C        C  296   4.276   4.181   4.596
    1C        C  297   4.321   4.127   4.718
    1C        C  298   4.199   4.310   4.842
    1C        C  299   4.284   4.195   4.837
    1C        C  300   4.166   4.399   4.949
    1C        C  301   4.356   2.880   2.063
    1C        C  302   4.473   3.066   2.178
    1C        C  303   4.401   2.942   2.180
    1C        C  304   4.487   3.140   2.299
    1C        C  305   4.457   3.073   2.419
    1C        C  306   4.515   3.281   2.538
    1C        C  307   4.480   3.144   2.539
    1C        C  308   4.516   3.355   2.658
    1C        C  309   4.503   3.286   2.780
    1C        C  310   4.519   3.499   2.902
    1C        C  311   4.513   3.358   2.902
    1C        C  312   4.522   3.573   3.022
    1C        C  313   4.526   3.502   3.144
    1C        C  314   4.489   3.715   3.265
    1C        C  315   4.515   3.576   3.263
    1C        C  316   4.475   3.787   3.386
    1C        C  317   4.489   3.721   3.510
    1C        C  318   4.419   3.920   3.628
    1C        C  319   4.471   3.788   3.633
    1C        C  320   4.388   3.985   3.749
    1C        C  321   4.423   3.926   3.873
    1C        C  322   4.316   4.111   3.991
    1C        C  323   4.394   3.993   3.993
    1C        C  324   4.272   4.169   4.113
    1C        C  325   4.322   4.119   4.235
    1C        C  326   4.180   4.280   4.355
    1C        C  327   4.281   4.180   4.356
    1C        C  328   4.129   4.333   4.476
    1C        C  329   4.187   4.291   4.597
    1C        C  330   4.026   4.432   4.714
    1C        C  331   4.138   4.345   4.718
    1C        C  332   3.968   4.490   4.829
    1C        C  333   4.050   4.477   4.942
    1C        C  334   4.551   3.269   2.058
    1C        C  335   4.527   3.131   2.063
    1C        C  336   4.536   3.348   2.173
    1C        C  337   4.516   3.279   2.294
    1C        C  338   4.529   3.492   2.411
    1C        C  339   4.527   3.351   2.416
    1C        C  340   4.521   3.565   2.532
    1C        C  341   4.523   3.496   2.655
    1C        C  342   4.486   3.705   2.775
    1C        C  343   4.514   3.566   2.778
    1C        C  344   4.474   3.776   2.897
    1C        C  345   4.494   3.712   3.021
    1C        C  346   4.417   3.912   3.139
    1C        C  347   4.466   3.780   3.142
    1C        C  348   4.391   3.981   3.260
    1C        C  349   4.424   3.919   3.383
    1C        C  350   4.306   4.096   3.502
    1C        C  351   4.386   3.980   3.504
    1C        C  352   4.264   4.155   3.624
    1C        C  353   4.311   4.103   3.746
    1C        C  354   4.176   4.267   3.868
    1C        C  355   4.273   4.165   3.868
    1C        C  356   4.123   4.319   3.989
    1C        C  357   4.173   4.270   4.111
    1C        C  358   4.008   4.401   4.229
    1C        C  359   4.127   4.325   4.233
    1C        C  360   3.950   4.448   4.349
    1C        C  361   4.016   4.417   4.470
    1C        C  362   3.829   4.516   4.593
    1C        C  363   3.957   4.456   4.592
    1C        C  364   3.760   4.547   4.712
    1C        C  365   3.837   4.542   4.830
    1C        C  366   3.626   4.595   4.949
    1C        C  367   3.764   4.580   4.944
    1C        C  368   4.509   3.559   2.051
    1C        C  369   4.525   3.488   2.171
    1C        C  370   4.496   3.703   2.289
    1C        C  371   4.519   3.564   2.290
    1C        C  372   4.478   3.775   2.410
    1C        C  373   4.501   3.705   2.530
    1C        C  374   4.427   3.905   2.650
    1C        C  375   4.474   3.771   2.651
    1C        C  376   4.394   3.972   2.770
    1C        C  377   4.424   3.908   2.892
    1C        C  378   4.316   4.092   3.011
    1C        C  379   4.390   3.971   3.014
    1C        C  380   4.272   4.150   3.131
    1C        C  381   4.314   4.099   3.257
    1C        C  382   4.175   4.259   3.376
    1C        C  383   4.270   4.155   3.379
    1C        C  384   4.121   4.307   3.498
    1C        C  385   4.167   4.258   3.622
    1C        C  386   4.006   4.392   3.741
    1C        C  387   4.119   4.307   3.745
    1C        C  388   3.948   4.436   3.863
    1C        C  389   4.007   4.399   3.986
    1C        C  390   3.819   4.500   4.106
    1C        C  391   3.945   4.437   4.107
    1C        C  392   3.752   4.524   4.228
    1C        C  393   3.819   4.502   4.351
    1C        C  394   3.617   4.559   4.473
    1C        C  395   3.756   4.532   4.473
    1C        C  396   3.545   4.567   4.595
    1C        C  397   3.620   4.560   4.715
    1C        C  398   3.408   4.553   4.836
    1C        C  399   3.548   4.571   4.836
    1C        C  400   3.343   4.517   4.955
    1C        C  401   4.495   3.697   2.050
    1C        C  402   4.450   3.910   2.166
    1C        C  403   4.489   3.774   2.167
    1C        C  404   4.415   3.976   2.286
    1C        C  405   4.439   3.910   2.408
    1C        C  406   4.321   4.090   2.527
    1C        C  407   4.400   3.973   2.529
    1C        C  408   4.278   4.150   2.648
    1C        C  409   4.315   4.089   2.770
    1C        C  410   4.174   4.251   2.887
    1C        C  411   4.273   4.150   2.890
    1C        C  412   4.120   4.297   3.010
    1C        C  413   4.173   4.250   3.132
    1C        C  414   4.001   4.378   3.252
    1C        C  415   4.120   4.302   3.253
    1C        C  416   3.940   4.414   3.374
    1C        C  417   4.003   4.385   3.497
    1C        C  418   3.816   4.484   3.619
    1C        C  419   3.944   4.425   3.619
    1C        C  420   3.749   4.513   3.740
    1C        C  421   3.818   4.491   3.862
    1C        C  422   3.611   4.542   3.988
    1C        C  423   3.749   4.512   3.983
    1C        C  424   3.540   4.546   4.110
    1C        C  425   3.613   4.547   4.232
    1C        C  426   3.403   4.553   4.356
    1C        C  427   3.544   4.566   4.353
    1C        C  428   3.332   4.543   4.478
    1C        C  429   3.404   4.555   4.599
    1C        C  430   3.191   4.519   4.724
    1C        C  431   3.330   4.549   4.719
    1C        C  432   3.121   4.498   4.846
    1C        C  433   3.205   4.499   4.958
    1C        C  434   4.392   4.124   2.056
    1C        C  435   4.449   3.996   2.056
    1C        C  436   4.308   4.165   2.164
    1C        C  437   4.339   4.097   2.285
    1C        C  438   4.182   4.246   2.401
    1C        C  439   4.280   4.144   2.404
    1C        C  440   4.126   4.296   2.520
    1C        C  441   4.176   4.248   2.643
    1C        C  442   4.008   4.378   2.765
    1C        C  443   4.124   4.298   2.764
    1C        C  444   3.946   4.417   2.886
    1C        C  445   4.004   4.378   3.008
    1C        C  446   3.813   4.475   3.129
    1C        C  447   3.940   4.413   3.129
    1C        C  448   3.748   4.501   3.252
    1C        C  449   3.812   4.473   3.375
    1C        C  450   3.607   4.526   3.497
    1C        C  451   3.745   4.497   3.497
    1C        C  452   3.540   4.537   3.621
    1C        C  453   3.611   4.540   3.744
    1C        C  454   3.399   4.548   3.866
    1C        C  455   3.541   4.551   3.866
    1C        C  456   3.331   4.526   3.987
    1C        C  457   3.399   4.537   4.111
    1C        C  458   3.195   4.503   4.237
    1C        C  459   3.333   4.534   4.235
    1C        C  460   3.127   4.485   4.360
    1C        C  461   3.194   4.512   4.482
    1C        C  462   2.995   4.433   4.601
    1C        C  463   3.124   4.491   4.603
    1C        C  464   2.934   4.400   4.724
    1C        C  465   2.989   4.443   4.848
    1C        C  466   2.801   4.334   4.957
    1C        C  467   2.908   4.425   4.964
    1C        C  468   4.128   4.285   2.042
    1C        C  469   4.190   4.246   2.162
    1C        C  470   4.010   4.374   2.279
    1C        C  471   4.129   4.297   2.280
    1C        C  472   3.945   4.408   2.400
    1C        C  473   4.006   4.370   2.522
    1C        C  474   3.815   4.467   2.644
    1C        C  475   3.943   4.407   2.643
    1C        C  476   3.747   4.496   2.765
    1C        C  477   3.817   4.476   2.886
    1C        C  478   3.607   4.519   3.009
    1C        C  479   3.746   4.495   3.006
    1C        C  480   3.537   4.531   3.132
    1C        C  481   3.609   4.525   3.253
    1C        C  482   3.396   4.526   3.378
    1C        C  483   3.537   4.529   3.375
    1C        C  484   3.326   4.527   3.500
    1C        C  485   3.399   4.537   3.620
    1C        C  486   3.193   4.498   3.745
    1C        C  487   3.330   4.532   3.744
    1C        C  488   3.127   4.472   3.867
    1C        C  489   3.194   4.492   3.990
    1C        C  490   3.004   4.412   4.115
    1C        C  491   3.130   4.475   4.115
    1C        C  492   2.942   4.381   4.238
    1C        C  493   2.999   4.425   4.360
    1C        C  494   2.828   4.300   4.485
    1C        C  495   2.932   4.395   4.480
    1C        C  496   2.774   4.252   4.606
    1C        C  497   2.821   4.313   4.725
    1C        C  498   2.658   4.168   4.845
    1C        C  499   2.750   4.275   4.841
    1C        C  500   2.603   4.111   4.961
    1C        C  501   4.005   4.349   2.041
    1C        C  502   3.816   4.459   2.158
    1C        C  503   3.945   4.402   2.156
    1C        C  504   3.748   4.483   2.280
    1C        C  505   3.815   4.461   2.402
    1C        C  506   3.605   4.509   2.520
    1C        C  507   3.744   4.483   2.523
    1C        C  508   3.535   4.515   2.643
    1C        C  509   3.608   4.515   2.764
    1C        C  510   3.397   4.520   2.887
    1C        C  511   3.538   4.527   2.886
    1C        C  512   3.326   4.516   3.009
    1C        C  513   3.396   4.529   3.131
    1C        C  514   3.189   4.492   3.255
    1C        C  515   3.327   4.521   3.255
    1C        C  516   3.121   4.472   3.377
    1C        C  517   3.187   4.500   3.499
    1C        C  518   3.001   4.407   3.624
    1C        C  519   3.125   4.475   3.623
    1C        C  520   2.942   4.369   3.747
    1C        C  521   3.004   4.403   3.870
    1C        C  522   2.835   4.281   3.997
    1C        C  523   2.944   4.371   3.994
    1C        C  524   2.784   4.237   4.121
    1C        C  525   2.831   4.294   4.241
    1C        C  526   2.694   4.133   4.363
    1C        C  527   2.782   4.244   4.363
    1C        C  528   2.654   4.074   4.486
    1C        C  529   2.688   4.140   4.606
    1C        C  530   2.578   3.961   4.730
    1C        C  531   2.638   4.091   4.728
    1C        C  532   2.536   3.900   4.851
    1C        C  533   2.528   3.992   4.960
    1C        C  534   3.620   4.551   2.042
    1C        C  535   3.755   4.513   2.044
    1C        C  536   3.536   4.532   2.156
    1C        C  537   3.610   4.514   2.276
    1C        C  538   3.395   4.517   2.400
    1C        C  539   3.536   4.519   2.397
    1C        C  540   3.323   4.510   2.521
    1C        C  541   3.394   4.516   2.644
    1C        C  542   3.186   4.483   2.766
    1C        C  543   3.324   4.512   2.766
    1C        C  544   3.119   4.464   2.889
    1C        C  545   3.187   4.489   3.010
    1C        C  546   2.997   4.399   3.134
    1C        C  547   3.122   4.466   3.133
    1C        C  548   2.937   4.362   3.257
    1C        C  549   2.997   4.404   3.378
    1C        C  550   2.834   4.276   3.507
    1C        C  551   2.942   4.366   3.502
    1C        C  552   2.783   4.226   3.629
    1C        C  553   2.836   4.277   3.749
    1C        C  554   2.703   4.117   3.875
    1C        C  555   2.792   4.227   3.874
    1C        C  556   2.658   4.063   3.998
    1C        C  557   2.700   4.123   4.119
    1C        C  558   2.593   3.944   4.245
    1C        C  559   2.656   4.071   4.242
    1C        C  560   2.565   3.881   4.368
    1C        C  561   2.587   3.950   4.489
    1C        C  562   2.532   3.748   4.615
    1C        C  563   2.558   3.887   4.612
    1C        C  564   2.517   3.681   4.739
    1C        C  565   2.518   3.758   4.858
    1C        C  566   2.532   3.545   4.978
    1C        C  567   2.517   3.683   4.977
    1C        C  568   3.327   4.479   2.040
    1C        C  569   3.395   4.512   2.158
    1C        C  570   3.184   4.478   2.281
    1C        C  571   3.322   4.514   2.280
    1C        C  572   3.117   4.455   2.403
    1C        C  573   3.185   4.482   2.524
    1C        C  574   2.987   4.402   2.645
    1C        C  575   3.115   4.463   2.645
    1C        C  576   2.931   4.359   2.768
    1C        C  577   2.994   4.398   2.888
    1C        C  578   2.827   4.273   3.016
    1C        C  579   2.938   4.360   3.012
    1C        C  580   2.776   4.225   3.138
    1C        C  581   2.826   4.275   3.260
    1C        C  582   2.696   4.113   3.384
    1C        C  583   2.782   4.225   3.385
    1C        C  584   2.655   4.056   3.507
    1C        C  585   2.694   4.116   3.628
    1C        C  586   2.596   3.934   3.753
    1C        C  587   2.661   4.059   3.753
    1C        C  588   2.568   3.872   3.877
    1C        C  589   2.602   3.934   4.000
    1C        C  590   2.532   3.739   4.126
    1C        C  591   2.572   3.874   4.124
    1C        C  592   2.517   3.674   4.251
    1C        C  593   2.523   3.746   4.372
    1C        C  594   2.520   3.534   4.497
    1C        C  595   2.522   3.676   4.495
    1C        C  596   2.525   3.465   4.620
    1C        C  597   2.515   3.539   4.740
    1C        C  598   2.538   3.327   4.864
    1C        C  599   2.530   3.468   4.861
    1C        C  600   2.536   3.247   4.979
    1C        C  601   3.195   4.439   2.043
    1C        C  602   2.986   4.388   2.159
    1C        C  603   3.118   4.442   2.160
    1C        C  604   2.927   4.354   2.284
    1C        C  605   2.990   4.393   2.404
    1C        C  606   2.816   4.272   2.529
    1C        C  607   2.925   4.362   2.525
    1C        C  608   2.768   4.221   2.652
    1C        C  609   2.822   4.270   2.773
    1C        C  610   2.688   4.108   2.894
    1C        C  611   2.771   4.222   2.896
    1C        C  612   2.649   4.052   3.018
    1C        C  613   2.687   4.115   3.139
    1C        C  614   2.587   3.931   3.264
    1C        C  615   2.651   4.057   3.263
    1C        C  616   2.560   3.867   3.387
    1C        C  617   2.590   3.930   3.510
    1C        C  618   2.526   3.730   3.637
    1C        C  619   2.562   3.867   3.633
    1C        C  620   2.514   3.663   3.761
    1C        C  621   2.523   3.738   3.880
    1C        C  622   2.509   3.529   4.009
    1C        C  623   2.515   3.670   4.004
    1C        C  624   2.512   3.462   4.133
    1C        C  625   2.512   3.533   4.255
    1C        C  626   2.544   3.322   4.377
    1C        C  627   2.520   3.461   4.377
    1C        C  628   2.558   3.253   4.500
    1C        C  629   2.539   3.324   4.621
    1C        C  630   2.600   3.121   4.744
    1C        C  631   2.555   3.256   4.743
    1C        C  632   2.621   3.051   4.866
    1C        C  633   2.555   3.108   4.979
    1C        C  634   2.786   4.298   2.053
    1C        C  635   2.896   4.386   2.047
    1C        C  636   2.752   4.225   2.167
    1C        C  637   2.812   4.270   2.286
    1C        C  638   2.676   4.108   2.409
    1C        C  639   2.765   4.218   2.409
    1C        C  640   2.642   4.047   2.531
    1C        C  641   2.683   4.109   2.651
    1C        C  642   2.586   3.921   2.776
    1C        C  643   2.648   4.048   2.773
    1C        C  644   2.561   3.857   2.900
    1C        C  645   2.591   3.924   3.021
    1C        C  646   2.528   3.723   3.145
    1C        C  647   2.566   3.859   3.144
    1C        C  648   2.515   3.657   3.270
    1C        C  649   2.529   3.729   3.391
    1C        C  650   2.509   3.521   3.518
    1C        C  651   2.515   3.662   3.514
    1C        C  652   2.511   3.453   3.642
    1C        C  653   2.503   3.522   3.765
    1C        C  654   2.542   3.317   3.889
    1C        C  655   2.511   3.455   3.889
    1C        C  656   2.560   3.252   4.013
    1C        C  657   2.545   3.324   4.133
    1C        C  658   2.610   3.121   4.259
    1C        C  659   2.563   3.254   4.255
    1C        C  660   2.638   3.054   4.380
    1C        C  661   2.605   3.120   4.500
    1C        C  662   2.714   2.940   4.625
    1C        C  663   2.635   3.056   4.623
    1C        C  664   2.762   2.882   4.745
    1C        C  665   2.707   2.937   4.864
    1C        C  666   2.738   2.871   4.984
    1C        C  667   2.679   4.021   2.053
    1C        C  668   2.685   4.101   2.168
    1C        C  669   2.588   3.910   2.291
    1C        C  670   2.644   4.040   2.289
    1C        C  671   2.550   3.849   2.413
    1C        C  672   2.582   3.918   2.532
    1C        C  673   2.523   3.716   2.659
    1C        C  674   2.562   3.852   2.655
    1C        C  675   2.509   3.647   2.781
    1C        C  676   2.522   3.722   2.900
    1C        C  677   2.511   3.511   3.029
    1C        C  678   2.520   3.652   3.023
    1C        C  679   2.512   3.444   3.153
    1C        C  680   2.508   3.516   3.275
    1C        C  681   2.535   3.308   3.399
    1C        C  682   2.509   3.447   3.398
    1C        C  683   2.555   3.243   3.523
    1C        C  684   2.538   3.314   3.644
    1C        C  685   2.609   3.115   3.771
    1C        C  686   2.560   3.248   3.767
    1C        C  687   2.635   3.052   3.894
    1C        C  688   2.603   3.117   4.016
    1C        C  689   2.718   2.937   4.140
    1C        C  690   2.639   3.055   4.137
    1C        C  691   2.760   2.879   4.262
    1C        C  692   2.716   2.936   4.383
    1C        C  693   2.759   2.880   4.505
    1C        C  694   2.621   3.893   2.052
    1C        C  695   2.524   3.704   2.173
    1C        C  696   2.574   3.836   2.171
    1C        C  697   2.509   3.638   2.297
    1C        C  698   2.519   3.712   2.417
    1C        C  699   2.492   3.502   2.543
    1C        C  700   2.503   3.643   2.539
    1C        C  701   2.490   3.433   2.666
    1C        C  702   2.496   3.506   2.787
    1C        C  703   2.516   3.295   2.912
    1C        C  704   2.506   3.436   2.909
    1C        C  705   2.538   3.229   3.035
    1C        C  706   2.534   3.304   3.154
    1C        C  707   2.602   3.106   3.277
    1C        C  708   2.552   3.238   3.278
    1C        C  709   2.639   3.050   3.401
    1C        C  710   2.605   3.111   3.524
    1C        C  711   2.716   2.934   3.648
    1C        C  712   2.636   3.051   3.648
    1C        C  713   2.755   2.880   3.773
    1C        C  714   2.711   2.933   3.896
    1C        C  715   2.757   2.879   4.018
    1C        C  716   2.451   3.498   2.058
    1C        C  717   2.488   3.633   2.058
    1C        C  718   2.464   3.425   2.180
    1C        C  719   2.491   3.497   2.300
    1C        C  720   2.515   3.288   2.424
    1C        C  721   2.491   3.427   2.423
    1C        C  722   2.540   3.224   2.548
    1C        C  723   2.515   3.294   2.668
    1C        C  724   2.589   3.097   2.791
    1C        C  725   2.529   3.225   2.790
    1C        C  726   2.619   3.032   2.913
    1C        C  727   2.576   3.092   3.034
    1C        C  728   2.708   2.924   3.160
    1C        C  729   2.626   3.039   3.154
    1C        C  730   2.758   2.875   3.282
    1C        C  731   2.715   2.931   3.405
    1C        C  732   2.759   2.875   3.527
    1C        C  733   2.497   3.200   2.072
    1C        C  734   2.487   3.284   2.183
    1C        C  735   2.583   3.087   2.305
    1C        C  736   2.527   3.218   2.303
    1C        C  737   2.614   3.022   2.427
    1C        C  738   2.589   3.092   2.547
    1C        C  739   2.697   2.913   2.671
    1C        C  740   2.618   3.030   2.670
    1C        C  741   2.739   2.856   2.794
    1C        C  742   2.701   2.917   2.915
    1C        C  743   2.748   2.865   3.038
    1C        C  744   2.548   3.070   2.070
    1C        C  745   2.684   2.899   2.187
    1C        C  746   2.611   3.020   2.184
    1C        C  747   2.732   2.843   2.308
    1C        C  748   2.691   2.904   2.429
    1C        C  749   2.736   2.849   2.551
    1C        C  750   2.735   2.841   2.070
    1C        C  751   3.651   2.306   1.988
    1C        O  752   3.611   2.193   2.027
    1C        O  753   3.653   2.317   1.849
    1C        C  754   4.621   3.051   1.979
    1C        O  755   4.610   3.045   1.854
    1C        O  756   4.731   2.987   2.036
    1C        C  757   4.450   4.228   1.967
    1C        O  758   4.555   4.285   2.006
    1C        O  759   4.436   4.229   1.828
    1C        C  760   3.582   4.652   1.940
    1C        O  761   3.583   4.774   1.973
    1C        O  762   3.587   4.621   1.804
    1C        C  763   2.883   4.492   1.945
    1C        O  764   2.927   4.475   1.829
    1C        O  765   2.830   4.619   1.973
    1C        C  766   2.328   3.474   1.979
    1C        O  767   2.325   3.460   1.853
    1C        O  768   2.199   3.501   2.026
    1C        C  769   4.704   3.592   5.037
    1C        O  770   4.725   3.649   5.147
    1C        O  771   4.830   3.582   4.977
    1C        C  772   4.273   4.459   5.033
    1C        O  773   4.284   4.436   5.156
    1C        O  774   4.349   4.566   4.985
    1C        C  775   4.133   2.510   5.074
    1C        O  776   4.205   2.410   5.045
    1C        O  777   4.105   2.502   5.211
    1C        C  778   2.898   4.528   5.070
    1C        O  779   2.829   4.632   5.053
    1C        O  780   2.985   4.533   5.180
    1C        C  781   2.445   3.033   5.043
    1C        O  782   2.338   3.009   4.980
    1C        O  783   2.428   3.042   5.181
    1C        C  784   2.416   3.995   5.056
    1C        O  785   2.309   3.946   5.011
    1C        O  786   2.436   3.959   5.190
    1C        C  787   2.944   2.448   1.984
    1C        O  788   2.958   2.455   1.859
    1C        O  789   2.891   2.326   2.025
    1C        C  790   3.182   2.369   5.052
    1C        O  791   3.110   2.271   5.019
    1C        O  792   3.232   2.359   5.183
    1C        H  793   4.322   3.000   5.069
    1C        H  794   4.174   2.819   5.072
    1C        H  795   4.478   3.133   5.065
    1C        H  796   4.495   3.374   5.060
    1C        H  797   4.548   3.807   5.054
    1C        H  798   4.458   3.997   5.046
    1C        H  799   4.268   4.161   5.040
    1C        H  800   4.013   4.518   5.034
    1C        H  801   3.817   4.638   5.016
    1C        H  802   3.582   4.646   5.032
    1C        H  803   3.394   4.536   5.047
    1C        H  804   3.161   4.476   5.053
    1C        H  805   3.902   2.449   5.039
    1C        H  806   3.683   2.483   5.074
    1C        H  807   2.998   2.552   5.067
    1C        H  808   3.441   2.457   5.077
    1C        H  809   2.827   2.702   5.059
    1C        H  810   2.673   2.878   5.069
    1C        H  811   2.521   3.291   5.075
    1C        H  812   2.519   3.497   5.073
    1C        H  813   2.562   3.734   5.059
    1C        H  814   2.630   4.147   5.058
    1C        H  815   2.743   4.325   5.047
    1C        H  816   2.683   2.861   1.979
    1C        H  817   2.857   2.687   1.979
    1C        H  818   3.212   2.434   1.986
    1C        H  819   3.433   2.458   1.978
    1C        H  820   3.867   2.491   1.980
    1C        H  821   4.030   2.679   1.984
    1C        H  822   4.273   2.703   1.984
    1C        H  823   4.330   2.948   1.985
    1C        H  824   4.588   3.306   1.965
    1C        H  825   4.560   3.522   1.964
    1C        H  826   4.490   3.748   1.956
    1C        H  827   3.817   4.539   1.960
    1C        H  828   3.937   4.306   1.971
    1C        H  829   4.182   4.267   1.952
    1C        H  830   4.501   3.964   1.968
    1C        H  831   2.637   3.833   1.964
    1C        H  832   2.735   4.047   1.966
    1C        H  833   2.713   4.308   1.976
    1C        H  834   3.350   4.539   1.954
    1C        H  835   3.152   4.413   1.948
    1C        H  836   2.503   3.001   2.002
    1C        H  837   2.443   3.227   1.984
    1C        H  838   2.513   3.669   1.960
    2V3OU   H29  839   2.804   3.547   2.541
    2V3OU   C27  840   2.790   3.503   2.643
    2V3OU   H27  841   2.733   3.566   2.716
    2V3OU   H28  842   2.738   3.405   2.631
    2V3OU   O11  843   2.913   3.477   2.711
    2V3OU   C15  844   2.927   3.401   2.825
    2V3OU   C13  845   3.055   3.366   2.873
    2V3OU   C14  846   3.081   3.270   2.971
    2V3OU   C16  847   2.979   3.185   3.013
    2V3OU    H6  848   2.997   3.099   3.079
    2V3OU   C12  849   3.215   3.234   3.021
    2V3OU    O2  850   3.240   3.126   3.080
    2V3OU   C10  851   3.329   3.315   2.974
    2V3OU    C8  852   3.457   3.274   3.008
    2V3OU   O10  853   3.489   3.162   3.078
    2V3OU   H26  854   3.405   3.119   3.099
    2V3OU    C6  855   3.565   3.355   2.957
    2V3OU    C5  856   3.539   3.471   2.885
    2V3OU    C4  857   3.702   3.297   2.961
    2V3OU    H4  858   3.723   3.229   3.049
    2V3OU    H5  859   3.710   3.230   2.869
    2V3OU    C2  860   3.815   3.399   2.955
    2V3OU    O6  861   3.811   3.476   3.076
    2V3OU   H21  862   3.765   3.554   3.041
    2V3OU    C3  863   3.782   3.494   2.840
    2V3OU    H2  864   3.865   3.569   2.834
    2V3OU    H3  865   3.781   3.440   2.741
    2V3OU   C25  866   3.948   3.326   2.935
    2V3OU    O7  867   3.998   3.296   2.827
    2V3OU   C26  868   4.027   3.290   3.060
    2V3OU   H22  869   4.060   3.386   3.108
    2V3OU   H23  870   4.119   3.233   3.032
    2V3OU    O8  871   3.959   3.209   3.153
    2V3OU   H24  872   3.928   3.267   3.224
    2V3OU    C1  873   3.649   3.567   2.850
    2V3OU    H1  874   3.621   3.613   2.751
    2V3OU    O3  875   3.661   3.652   2.964
    2V3OU   C19  876   3.618   3.788   2.949
    2V3OU    H9  877   3.523   3.800   2.890
    2V3OU    O4  878   3.722   3.843   2.871
    2V3OU   C20  879   3.849   3.877   2.926
    2V3OU   H10  880   3.904   3.779   2.943
    2V3OU   C24  881   3.610   3.850   3.088
    2V3OU   H16  882   3.536   3.787   3.145
    2V3OU   H17  883   3.569   3.953   3.069
    2V3OU   C23  884   3.748   3.874   3.151
    2V3OU   H15  885   3.793   3.771   3.173
    2V3OU    N1  886   3.731   3.959   3.267
    2V3OU   H19  887   3.807   3.937   3.329
    2V3OU   H20  888   3.645   3.928   3.308
    2V3OU   C21  889   3.852   3.947   3.062
    2V3OU   H11  890   3.954   3.929   3.107
    2V3OU    O5  891   3.827   4.087   3.054
    2V3OU   H18  892   3.780   4.111   3.135
    2V3OU   C22  893   3.915   3.949   2.809
    2V3OU   H12  894   3.857   4.043   2.790
    2V3OU   H13  895   3.899   3.888   2.717
    2V3OU   H14  896   4.025   3.959   2.827
    2V3OU   C11  897   3.160   3.469   2.868
    2V3OU    O1  898   3.136   3.586   2.831
    2V3OU    C9  899   3.300   3.431   2.897
    2V3OU    C7  900   3.405   3.509   2.852
    2V3OU    O9  901   3.385   3.619   2.771
    2V3OU   H25  902   3.289   3.636   2.772
    2V3OU   C17  903   2.824   3.320   2.878
    2V3OU    H7  904   2.725   3.352   2.847
    2V3OU   C18  905   2.852   3.215   2.965
    2V3OU    H8  906   2.780   3.166   3.032
    3SOL     OW  907   2.520   5.517   0.209
    3SOL    HW1  908   2.589   5.541   0.277
    3SOL    HW2  909   2.560   5.522   0.118
    4SOL     OW  910   6.805   6.911   2.342
    4SOL    HW1  911   6.747   6.970   2.285
    4SOL    HW2  912   6.888   6.887   2.292
    5SOL     OW  913   4.063   1.918   2.749
    5SOL    HW1  914   4.120   1.846   2.788
    5SOL    HW2  915   4.015   1.884   2.668
    6SOL     OW  916   3.980   1.045   2.014
    6SOL    HW1  917   3.938   1.135   2.019
    6SOL    HW2  918   3.930   0.989   1.948
    7SOL     OW  919   0.193   3.869   3.027
    7SOL    HW1  920   0.223   3.775   3.015
    7SOL    HW2  921   0.143   3.900   2.946
    8SOL     OW  922   3.437   0.760   0.261
    8SOL    HW1  923   3.353   0.722   0.222
    8SOL    HW2  924   3.481   0.692   0.319
    9SOL     OW  925   5.016   0.990   6.148
    9SOL    HW1  926   4.923   0.988   6.114
    9SOL    HW2  927   5.079   0.956   6.078
   10SOL     OW  928   1.728   4.956   6.002
   10SOL    HW1  929   1.676   4.877   6.034
   10SOL    HW2  930   1.749   4.946   5.905
   11SOL     OW  931   2.756   0.688   5.789
   11SOL    HW1  932   2.758   0.596   5.827
   11SOL    HW2  933   2.849   0.723   5.779
   12SOL     OW  934   3.521   5.602   3.554
   12SOL    HW1  935   3.526   5.661   3.635
   12SOL    HW2  936   3.435   5.617   3.506
   13SOL     OW  937   4.104   6.331   4.007
   13SOL    HW1  938   4.202   6.351   4.008
   13SOL    HW2  939   4.075   6.302   4.098
   14SOL     OW  940   3.572   5.657   5.841
   14SOL    HW1  941   3.545   5.625   5.750
   14SOL    HW2  942   3.524   5.743   5.861
   15SOL     OW  943   0.338   6.651   2.164
   15SOL    HW1  944   0.304   6.662   2.258
   15SOL    HW2  945   0.434   6.679   2.160
   16SOL     OW  946   5.432   2.673   5.962
   16SOL    HW1  947   5.395   2.695   6.052
   16SOL    HW2  948   5.529   2.652   5.969
   17SOL     OW  949   5.478   6.450   6.272
   17SOL    HW1  950   5.386   6.429   6.241
   17SOL    HW2  951   5.507   6.384   6.341
   18SOL     OW  952   3.203   0.916   5.472
   18SOL    HW1  953   3.129   0.912   5.405
   18SOL    HW2  954   3.256   0.831   5.468
   19SOL     OW  955   0.258   1.546   3.041
   19SOL    HW1  956   0.160   1.534   3.058
   19SOL    HW2  957   0.309   1.526   3.125
   20SOL     OW  958   5.631   1.371   4.136
   20SOL    HW1  959   5.554   1.377   4.200
   20SOL    HW2  960   5.605   1.410   4.048
   21SOL     OW  961   3.509   1.545   2.736
   21SOL    HW1  962   3.463   1.630   2.709
   21SOL    HW2  963   3.467   1.468   2.688
   22SOL     OW  964   2.125   6.628   6.635
   22SOL    HW1  965   2.104   6.536   6.601
   22SOL    HW2  966   2.155   6.622   6.730
   23SOL     OW  967   5.471   5.667   3.320
   23SOL    HW1  968   5.517   5.587   3.282
   23SOL    HW2  969   5.392   5.690   3.263
   24SOL     OW  970   4.352   0.146   3.527
   24SOL    HW1  971   4.370   0.116   3.620
   24SOL    HW2  972   4.307   0.073   3.476
   25SOL     OW  973   3.569   0.804   4.551
   25SOL    HW1  974   3.604   0.714   4.575
   25SOL    HW2  975   3.502   0.834   4.618
   26SOL     OW  976   0.006   0.548   0.679
   26SOL    HW1  977   6.957   0.527   0.745
   26SOL    HW2  978   0.090   0.501   0.706
   27SOL     OW  979   1.452   2.415   2.825
   27SOL    HW1  980   1.449   2.509   2.790
   27SOL    HW2  981   1.500   2.357   2.759
   28SOL     OW  982   2.911   1.491   6.331
   28SOL    HW1  983   2.917   1.484   6.231
   28SOL    HW2  984   2.836   1.554   6.355
   29SOL     OW  985   6.289   1.827   1.960
   29SOL    HW1  986   6.200   1.866   1.982
   29SOL    HW2  987   6.360   1.875   2.011
   30SOL     OW  988   4.402   0.918   3.677
   30SOL    HW1  989   4.390   1.016   3.662
   30SOL    HW2  990   4.421   0.901   3.774
   31SOL     OW  991   0.791   2.721   6.270
   31SOL    HW1  992   0.862   2.709   6.339
   31SOL    HW2  993   0.771   2.633   6.227
   32SOL     OW  994   0.500   1.815   2.740
   32SOL    HW1  995   0.577   1.752   2.728
   32SOL    HW2  996   0.422   1.766   2.778
   33SOL     OW  997   1.400   4.747   5.713
   33SOL    HW1  998   1.391   4.660   5.663
   33SOL    HW2  999   1.312   4.795   5.712
   34SOL     OW 1000   3.020   0.311   4.474
   34SOL    HW1 1001   3.001   0.222   4.515
   34SOL    HW2 1002   2.966   0.323   4.391
   35SOL     OW 1003   4.053   3.341   6.631
   35SOL    HW1 1004   4.071   3.395   6.549
   35SOL    HW2 1005   3.959   3.308   6.630
   36SOL     OW 1006   5.963   1.238   4.786
   36SOL    HW1 1007   5.909   1.219   4.705
   36SOL    HW2 1008   6.061   1.232   4.763
   37SOL     OW 1009   1.125   2.006   0.429
   37SOL    HW1 1010   1.084   1.956   0.352
   37SOL    HW2 1011   1.192   2.071   0.394
   38SOL     OW 1012   0.808   4.933   1.714
   38SOL    HW1 1013   0.880   4.882   1.762
   38SOL    HW2 1014   0.745   4.972   1.781
   39SOL     OW 1015   6.874   4.343   6.669
   39SOL    HW1 1016   6.853   4.439   6.652
   39SOL    HW2 1017   6.804   4.304   6.729
   40SOL     OW 1018   4.925   1.528   0.297
   40SOL    HW1 1019   4.838   1.505   0.252
   40SOL    HW2 1020   4.916   1.618   0.341
   41SOL     OW 1021   6.603   5.117   3.505
   41SOL    HW1 1022   6.693   5.159   3.505
   41SOL    HW2 1023   6.604   5.036   3.563
   42SOL     OW 1024   2.828   4.916   4.635
   42SOL    HW1 1025   2.823   4.918   4.735
   42SOL    HW2 1026   2.773   4.839   4.601
   43SOL     OW 1027   5.369   6.748   5.439
   43SOL    HW1 1028   5.421   6.830   5.414
   43SOL    HW2 1029   5.430   6.670   5.447
   44SOL     OW 1030   4.146   1.355   6.153
   44SOL    HW1 1031   4.202   1.401   6.085
   44SOL    HW2 1032   4.055   1.336   6.115
   45SOL     OW 1033   4.493   6.045   1.905
   45SOL    HW1 1034   4.570   6.097   1.943
   45SOL    HW2 1035   4.527   5.971   1.848
   46SOL     OW 1036   0.411   3.362   2.901
   46SOL    HW1 1037   0.348   3.360   2.979
   46SOL    HW2 1038   0.371   3.312   2.824
   47SOL     OW 1039   4.762   3.825   0.862
   47SOL    HW1 1040   4.705   3.906   0.880
   47SOL    HW2 1041   4.856   3.844   0.887
   48SOL     OW 1042   6.895   3.180   5.884
   48SOL    HW1 1043   6.874   3.275   5.858
   48SOL    HW2 1044   6.993   3.164   5.874
   49SOL     OW 1045   5.091   3.713   1.529
   49SOL    HW1 1046   5.170   3.696   1.587
   49SOL    HW2 1047   5.110   3.790   1.468
   50SOL     OW 1048   5.537   1.117   5.277
   50SOL    HW1 1049   5.444   1.150   5.267
   50SOL    HW2 1050   5.582   1.116   5.187
   51SOL     OW 1051   2.419   6.696   3.345
   51SOL    HW1 1052   2.458   6.622   3.399
   51SOL    HW2 1053   2.320   6.688   3.342
   52SOL     OW 1054   6.289   3.540   2.924
   52SOL    HW1 1055   6.346   3.620   2.943
   52SOL    HW2 1056   6.331   3.486   2.851
   53SOL     OW 1057   4.383   6.002   3.749
   53SOL    HW1 1058   4.405   6.020   3.845
   53SOL    HW2 1059   4.375   6.089   3.700
   54SOL     OW 1060   4.202   5.055   1.137
   54SOL    HW1 1061   4.212   5.140   1.084
   54SOL    HW2 1062   4.106   5.027   1.136
   55SOL     OW 1063   2.113   2.789   6.336
   55SOL    HW1 1064   2.162   2.872   6.364
   55SOL    HW2 1065   2.087   2.736   6.417
   56SOL     OW 1066   6.998   0.924   1.213
   56SOL    HW1 1067   6.974   0.835   1.174
   56SOL    HW2 1068   0.025   0.977   1.145
   57SOL     OW 1069   4.705   0.913   1.581
   57SOL    HW1 1070   4.659   0.941   1.497
   57SOL    HW2 1071   4.658   0.835   1.621
   58SOL     OW 1072   0.441   6.462   5.684
   58SOL    HW1 1073   0.429   6.559   5.667
   58SOL    HW2 1074   0.505   6.449   5.761
   59SOL     OW 1075   1.312   2.195   5.736
   59SOL    HW1 1076   1.266   2.130   5.676
   59SOL    HW2 1077   1.364   2.144   5.805
   60SOL     OW 1078   5.411   2.803   4.589
   60SOL    HW1 1079   5.421   2.807   4.688
   60SOL    HW2 1080   5.358   2.882   4.557
   61SOL     OW 1081   6.557   2.280   4.816
   61SOL    HW1 1082   6.595   2.299   4.725
   61SOL    HW2 1083   6.619   2.314   4.886
   62SOL     OW 1084   1.163   1.159   1.558
   62SOL    HW1 1085   1.224   1.108   1.618
   62SOL    HW2 1086   1.167   1.256   1.581
   63SOL     OW 1087   5.469   1.269   3.291
   63SOL    HW1 1088   5.397   1.237   3.230
   63SOL    HW2 1089   5.428   1.311   3.372
   64SOL     OW 1090   0.605   3.447   5.770
   64SOL    HW1 1091   0.524   3.395   5.799
   64SOL    HW2 1092   0.609   3.449   5.670
   65SOL     OW 1093   0.928   5.024   6.919
   65SOL    HW1 1094   0.889   4.934   6.898
   65SOL    HW2 1095   0.912   5.086   6.841
   66SOL     OW 1096   4.372   0.921   5.231
   66SOL    HW1 1097   4.340   0.950   5.321
   66SOL    HW2 1098   4.466   0.953   5.216
   67SOL     OW 1099   6.297   3.592   6.025
   67SOL    HW1 1100   6.249   3.550   6.101
   67SOL    HW2 1101   6.288   3.535   5.943
   68SOL     OW 1102   6.351   0.932   6.571
   68SOL    HW1 1103   6.337   1.006   6.505
   68SOL    HW2 1104   6.288   0.943   6.647
   69SOL     OW 1105   0.886   3.659   6.472
   69SOL    HW1 1106   0.917   3.754   6.479
   69SOL    HW2 1107   0.842   3.632   6.558
   70SOL     OW 1108   5.506   4.237   4.982
   70SOL    HW1 1109   5.447   4.236   5.063
   70SOL    HW2 1110   5.504   4.328   4.941
   71SOL     OW 1111   4.311   1.784   3.871
   71SOL    HW1 1112   4.257   1.719   3.817
   71SOL    HW2 1113   4.408   1.769   3.852
   72SOL     OW 1114   1.696   0.295   4.060
   72SOL    HW1 1115   1.666   0.368   4.123
   72SOL    HW2 1116   1.646   0.211   4.081
   73SOL     OW 1117   3.790   0.669   1.607
   73SOL    HW1 1118   3.791   0.571   1.629
   73SOL    HW2 1119   3.745   0.719   1.681
   74SOL     OW 1120   3.794   0.723   0.370
   74SOL    HW1 1121   3.889   0.715   0.401
   74SOL    HW2 1122   3.789   0.706   0.272
   75SOL     OW 1123   4.454   0.726   1.051
   75SOL    HW1 1124   4.522   0.742   0.980
   75SOL    HW2 1125   4.415   0.814   1.079
   76SOL     OW 1126   2.972   3.446   1.592
   76SOL    HW1 1127   3.043   3.500   1.637
   76SOL    HW2 1128   2.916   3.400   1.662
   77SOL     OW 1129   0.924   0.011   3.637
   77SOL    HW1 1130   0.897   0.074   3.710
   77SOL    HW2 1131   1.018   7.004   3.652
   78SOL     OW 1132   5.517   1.389   0.078
   78SOL    HW1 1133   5.534   1.477   0.033
   78SOL    HW2 1134   5.475   1.406   0.168
   79SOL     OW 1135   2.793   5.781   1.143
   79SOL    HW1 1136   2.764   5.685   1.134
   79SOL    HW2 1137   2.892   5.784   1.158
   80SOL     OW 1138   4.627   1.223   4.331
   80SOL    HW1 1139   4.603   1.320   4.329
   80SOL    HW2 1140   4.674   1.199   4.246
   81SOL     OW 1141   2.415   0.168   2.284
   81SOL    HW1 1142   2.474   0.224   2.226
   81SOL    HW2 1143   2.385   0.087   2.234
   82SOL     OW 1144   5.626   5.104   0.401
   82SOL    HW1 1145   5.643   5.063   0.311
   82SOL    HW2 1146   5.691   5.068   0.467
   83SOL     OW 1147   0.536   0.361   6.858
   83SOL    HW1 1148   0.478   0.293   6.903
   83SOL    HW2 1149   0.577   0.421   6.926
   84SOL     OW 1150   6.486   2.959   3.196
   84SOL    HW1 1151   6.583   2.934   3.199
   84SOL    HW2 1152   6.439   2.918   3.274
   85SOL     OW 1153   1.780   1.233   3.932
   85SOL    HW1 1154   1.804   1.324   3.899
   85SOL    HW2 1155   1.807   1.165   3.864
   86SOL     OW 1156   0.613   1.459   6.325
   86SOL    HW1 1157   0.523   1.419   6.338
   86SOL    HW2 1158   0.605   1.544   6.273
   87SOL     OW 1159   4.860   4.637   0.967
   87SOL    HW1 1160   4.919   4.712   0.996
   87SOL    HW2 1161   4.906   4.550   0.985
   88SOL     OW 1162   3.694   1.910   5.940
   88SOL    HW1 1163   3.693   1.810   5.945
   88SOL    HW2 1164   3.619   1.946   5.996
   89SOL     OW 1165   2.502   2.609   6.406
   89SOL    HW1 1166   2.479   2.618   6.309
   89SOL    HW2 1167   2.548   2.522   6.421
   90SOL     OW 1168   4.379   5.028   2.349
   90SOL    HW1 1169   4.299   4.983   2.308
   90SOL    HW2 1170   4.416   5.096   2.285
   91SOL     OW 1171   6.409   3.848   5.996
   91SOL    HW1 1172   6.365   3.764   6.027
   91SOL    HW2 1173   6.343   3.904   5.945
   92SOL     OW 1174   4.481   4.743   0.788
   92SOL    HW1 1175   4.490   4.803   0.709
   92SOL    HW2 1176   4.420   4.785   0.855
   93SOL     OW 1177   3.244   3.369   0.512
   93SOL    HW1 1178   3.291   3.394   0.428
   93SOL    HW2 1179   3.230   3.270   0.514
   94SOL     OW 1180   2.339   6.071   6.273
   94SOL    HW1 1181   2.384   5.981   6.270
   94SOL    HW2 1182   2.354   6.119   6.187
   95SOL     OW 1183   0.734   6.791   2.726
   95SOL    HW1 1184   0.776   6.855   2.661
   95SOL    HW2 1185   0.794   6.778   2.804
   96SOL     OW 1186   3.362   0.078   4.841
   96SOL    HW1 1187   3.334   0.098   4.935
   96SOL    HW2 1188   3.386   7.005   4.834
   97SOL     OW 1189   2.448   3.445   6.225
   97SOL    HW1 1190   2.349   3.453   6.231
   97SOL    HW2 1191   2.472   3.392   6.144
   98SOL     OW 1192   0.738   3.210   0.821
   98SOL    HW1 1193   0.744   3.230   0.918
   98SOL    HW2 1194   0.730   3.112   0.806
   99SOL     OW 1195   3.824   2.450   1.285
   99SOL    HW1 1196   3.900   2.510   1.311
   99SOL    HW2 1197   3.757   2.447   1.359
  100SOL     OW 1198   0.836   6.460   4.880
  100SOL    HW1 1199   0.881   6.371   4.876
  100SOL    HW2 1200   0.892   6.524   4.931
  101SOL     OW 1201   1.927   4.909   2.394
  101SOL    HW1 1202   1.952   4.942   2.303
  101SOL    HW2 1203   1.828   4.912   2.404
  102SOL     OW 1204   3.620   5.351   1.581
  102SOL    HW1 1205   3.535   5.384   1.621
  102SOL    HW2 1206   3.629   5.253   1.597
  103SOL     OW 1207   2.314   2.116   1.675
  103SOL    HW1 1208   2.371   2.056   1.731
  103SOL    HW2 1209   2.366   2.198   1.651
  104SOL     OW 1210   1.278   5.935   2.919
  104SOL    HW1 1211   1.213   5.986   2.974
  104SOL    HW2 1212   1.248   5.935   2.823
  105SOL     OW 1213   6.967   1.242   5.770
  105SOL    HW1 1214   6.992   1.193   5.853
  105SOL    HW2 1215   6.869   1.232   5.754
  106SOL     OW 1216   3.704   6.600   4.430
  106SOL    HW1 1217   3.774   6.538   4.464
  106SOL    HW2 1218   3.616   6.553   4.427
  107SOL     OW 1219   0.909   1.017   0.930
  107SOL    HW1 1220   0.830   0.974   0.885
  107SOL    HW2 1221   0.921   0.977   1.021
  108SOL     OW 1222   2.995   6.699   5.602
  108SOL    HW1 1223   3.074   6.653   5.643
  108SOL    HW2 1224   2.956   6.640   5.531
  109SOL     OW 1225   1.185   1.077   2.267
  109SOL    HW1 1226   1.212   0.981   2.261
  109SOL    HW2 1227   1.215   1.126   2.185
  110SOL     OW 1228   3.158   5.358   4.145
  110SOL    HW1 1229   3.084   5.342   4.210
  110SOL    HW2 1230   3.226   5.419   4.186
  111SOL     OW 1231   1.689   1.300   4.201
  111SOL    HW1 1232   1.695   1.231   4.273
  111SOL    HW2 1233   1.701   1.256   4.112
  112SOL     OW 1234   3.093   5.755   6.598
  112SOL    HW1 1235   3.165   5.713   6.543
  112SOL    HW2 1236   3.095   5.718   6.690
  113SOL     OW 1237   1.152   5.238   2.462
  113SOL    HW1 1238   1.170   5.310   2.394
  113SOL    HW2 1239   1.178   5.271   2.553
  114SOL     OW 1240   1.293   6.999   2.341
  114SOL    HW1 1241   1.320   6.904   2.358
  114SOL    HW2 1242   1.322   0.032   2.418
  115SOL     OW 1243   4.919   1.119   3.267
  115SOL    HW1 1244   4.888   1.093   3.175
  115SOL    HW2 1245   4.976   1.047   3.305
  116SOL     OW 1246   6.335   5.888   1.671
  116SOL    HW1 1247   6.381   5.870   1.757
  116SOL    HW2 1248   6.354   5.981   1.641
  117SOL     OW 1249   1.618   1.639   0.985
  117SOL    HW1 1250   1.619   1.736   0.961
  117SOL    HW2 1251   1.541   1.620   1.045
  118SOL     OW 1252   1.702   0.719   2.394
  118SOL    HW1 1253   1.705   0.818   2.408
  118SOL    HW2 1254   1.711   0.700   2.296
  119SOL     OW 1255   0.695   0.595   7.007
  119SOL    HW1 1256   0.651   0.662   0.044
  119SOL    HW2 1257   0.767   0.547   0.032
  120SOL     OW 1258   5.808   0.483   6.458
  120SOL    HW1 1259   5.716   0.445   6.469
  120SOL    HW2 1260   5.847   0.450   6.372
  121SOL     OW 1261   1.872   3.192   6.716
  121SOL    HW1 1262   1.947   3.141   6.673
  121SOL    HW2 1263   1.795   3.130   6.732
  122SOL     OW 1264   1.231   3.677   6.776
  122SOL    HW1 1265   1.245   3.626   6.691
  122SOL    HW2 1266   1.309   3.737   6.792
  123SOL     OW 1267   0.820   1.274   2.673
  123SOL    HW1 1268   0.809   1.175   2.664
  123SOL    HW2 1269   0.741   1.313   2.720
  124SOL     OW 1270   3.463   2.608   0.865
  124SOL    HW1 1271   3.559   2.598   0.838
  124SOL    HW2 1272   3.450   2.566   0.955
  125SOL     OW 1273   3.482   2.093   0.238
  125SOL    HW1 1274   3.473   2.057   0.145
  125SOL    HW2 1275   3.390   2.105   0.277
  126SOL     OW 1276   2.410   4.227   0.918
  126SOL    HW1 1277   2.440   4.274   0.835
  126SOL    HW2 1278   2.311   4.216   0.916
  127SOL     OW 1279   0.813   4.581   7.023
  127SOL    HW1 1280   0.881   4.538   0.059
  127SOL    HW2 1281   0.722   4.567   0.038
  128SOL     OW 1282   5.144   2.187   1.372
  128SOL    HW1 1283   5.211   2.173   1.299
  128SOL    HW2 1284   5.191   2.200   1.459
  129SOL     OW 1285   3.152   3.740   6.420
  129SOL    HW1 1286   3.187   3.784   6.337
  129SOL    HW2 1287   3.073   3.790   6.454
  130SOL     OW 1288   1.444   2.017   4.194
  130SOL    HW1 1289   1.462   2.066   4.280
  130SOL    HW2 1290   1.353   1.976   4.198
  131SOL     OW 1291   4.840   0.187   3.266
  131SOL    HW1 1292   4.818   0.168   3.170
  131SOL    HW2 1293   4.766   0.155   3.324
  132SOL     OW 1294   3.161   3.174   1.701
  132SOL    HW1 1295   3.071   3.137   1.679
  132SOL    HW2 1296   3.231   3.111   1.668
  133SOL     OW 1297   5.455   1.174   4.459
  133SOL    HW1 1298   5.504   1.119   4.391
  133SOL    HW2 1299   5.418   1.256   4.415
  134SOL     OW 1300   6.881   1.016   2.347
  134SOL    HW1 1301   6.801   0.977   2.301
  134SOL    HW2 1302   6.853   1.096   2.400
  135SOL     OW 1303   5.658   4.067   3.618
  135SOL    HW1 1304   5.578   4.050   3.676
  135SOL    HW2 1305   5.689   3.981   3.578
  136SOL     OW 1306   2.041   5.370   5.258
  136SOL    HW1 1307   2.003   5.462   5.251
  136SOL    HW2 1308   2.009   5.326   5.342
  137SOL     OW 1309   5.471   1.331   2.800
  137SOL    HW1 1310   5.558   1.296   2.833
  137SOL    HW2 1311   5.395   1.283   2.845
  138SOL     OW 1312   1.239   3.813   2.795
  138SOL    HW1 1313   1.275   3.776   2.710
  138SOL    HW2 1314   1.271   3.907   2.807
  139SOL     OW 1315   1.604   6.953   5.238
  139SOL    HW1 1316   1.686   6.949   5.295
  139SOL    HW2 1317   1.525   6.923   5.291
  140SOL     OW 1318   1.181   6.667   3.965
  140SOL    HW1 1319   1.103   6.715   3.923
  140SOL    HW2 1320   1.196   6.703   4.057
  141SOL     OW 1321   6.940   2.573   5.100
  141SOL    HW1 1322   0.014   2.554   5.085
  141SOL    HW2 1323   6.927   2.672   5.109
  142SOL     OW 1324   1.233   4.212   1.205
  142SOL    HW1 1325   1.244   4.289   1.268
  142SOL    HW2 1326   1.312   4.150   1.215
  143SOL     OW 1327   5.791   4.154   0.446
  143SOL    HW1 1328   5.717   4.207   0.488
  143SOL    HW2 1329   5.766   4.132   0.351
  144SOL     OW 1330   1.104   4.623   5.719
  144SOL    HW1 1331   1.197   4.608   5.686
  144SOL    HW2 1332   1.106   4.658   5.812
  145SOL     OW 1333   0.747   5.255   0.988
  145SOL    HW1 1334   0.665   5.287   1.034
  145SOL    HW2 1335   0.791   5.331   0.940
  146SOL     OW 1336   4.787   0.955   6.008
  146SOL    HW1 1337   4.708   1.016   6.012
  146SOL    HW2 1338   4.764   0.875   5.952
  147SOL     OW 1339   5.323   2.733   6.216
  147SOL    HW1 1340   5.303   2.831   6.211
  147SOL    HW2 1341   5.238   2.682   6.203
  148SOL     OW 1342   0.032   5.549   0.664
  148SOL    HW1 1343   0.063   5.619   0.728
  148SOL    HW2 1344   0.008   5.592   0.577
  149SOL     OW 1345   3.822   2.121   3.936
  149SOL    HW1 1346   3.725   2.136   3.918
  149SOL    HW2 1347   3.876   2.170   3.868
  150SOL     OW 1348   5.793   6.929   0.731
  150SOL    HW1 1349   5.856   6.932   0.653
  150SOL    HW2 1350   5.702   6.957   0.701
  151SOL     OW 1351   3.288   1.551   1.414
  151SOL    HW1 1352   3.387   1.538   1.405
  151SOL    HW2 1353   3.251   1.587   1.328
  152SOL     OW 1354   0.059   0.891   1.609
  152SOL    HW1 1355   7.017   0.821   1.640
  152SOL    HW2 1356   0.012   0.957   1.551
  153SOL     OW 1357   2.936   0.714   3.511
  153SOL    HW1 1358   3.035   0.732   3.511
  153SOL    HW2 1359   2.919   0.625   3.468
  154SOL     OW 1360   0.665   3.188   1.599
  154SOL    HW1 1361   0.743   3.250   1.594
  154SOL    HW2 1362   0.694   3.102   1.642
  155SOL     OW 1363   0.701   1.634   5.151
  155SOL    HW1 1364   0.630   1.639   5.221
  155SOL    HW2 1365   0.729   1.727   5.125
  156SOL     OW 1366   0.050   0.674   1.029
  156SOL    HW1 1367   0.103   0.591   1.046
  156SOL    HW2 1368   0.106   0.740   0.978
  157SOL     OW 1369   5.460   2.863   1.321
  157SOL    HW1 1370   5.444   2.864   1.419
  157SOL    HW2 1371   5.385   2.909   1.274
  158SOL     OW 1372   1.757   3.538   1.816
  158SOL    HW1 1373   1.718   3.546   1.725
  158SOL    HW2 1374   1.721   3.456   1.860
  159SOL     OW 1375   4.638   4.698   2.533
  159SOL    HW1 1376   4.545   4.666   2.548
  159SOL    HW2 1377   4.678   4.650   2.455
  160SOL     OW 1378   5.600   6.215   0.477
  160SOL    HW1 1379   5.646   6.278   0.540
  160SOL    HW2 1380   5.511   6.191   0.514
  161SOL     OW 1381   1.536   6.269   3.193
  161SOL    HW1 1382   1.572   6.316   3.112
  161SOL    HW2 1383   1.580   6.180   3.203
  162SOL     OW 1384   3.572   6.683   0.232
  162SOL    HW1 1385   3.592   6.757   0.167
  162SOL    HW2 1386   3.650   6.670   0.293
  163SOL     OW 1387   6.303   5.415   1.560
  163SOL    HW1 1388   6.338   5.484   1.625
  163SOL    HW2 1389   6.371   5.399   1.488
  164SOL     OW 1390   0.791   4.760   2.067
  164SOL    HW1 1391   0.749   4.710   2.143
  164SOL    HW2 1392   0.781   4.858   2.083
  165SOL     OW 1393   4.723   3.579   1.334
  165SOL    HW1 1394   4.651   3.628   1.286
  165SOL    HW2 1395   4.733   3.487   1.294
  166SOL     OW 1396   1.438   3.571   2.032
  166SOL    HW1 1397   1.359   3.593   2.088
  166SOL    HW2 1398   1.475   3.655   1.993
  167SOL     OW 1399   4.569   3.698   6.780
  167SOL    HW1 1400   4.554   3.727   6.874
  167SOL    HW2 1401   4.667   3.704   6.759
  168SOL     OW 1402   3.324   2.952   1.046
  168SOL    HW1 1403   3.288   2.859   1.059
  168SOL    HW2 1404   3.366   2.983   1.132
  169SOL     OW 1405   5.717   1.949   1.820
  169SOL    HW1 1406   5.626   1.953   1.777
  169SOL    HW2 1407   5.714   1.999   1.907
  170SOL     OW 1408   0.296   6.994   2.730
  170SOL    HW1 1409   0.222   6.930   2.748
  170SOL    HW2 1410   0.380   6.961   2.773
  171SOL     OW 1411   2.105   4.164   6.615
  171SOL    HW1 1412   2.110   4.240   6.551
  171SOL    HW2 1413   2.197   4.138   6.644
  172SOL     OW 1414   6.355   1.182   2.669
  172SOL    HW1 1415   6.319   1.273   2.690
  172SOL    HW2 1416   6.379   1.177   2.572
  173SOL     OW 1417   6.630   1.126   4.142
  173SOL    HW1 1418   6.595   1.152   4.053
  173SOL    HW2 1419   6.729   1.110   4.136
  174SOL     OW 1420   3.841   5.583   3.708
  174SOL    HW1 1421   3.888   5.590   3.620
  174SOL    HW2 1422   3.823   5.487   3.729
  175SOL     OW 1423   2.944   6.933   1.704
  175SOL    HW1 1424   2.932   7.002   1.775
  175SOL    HW2 1425   3.022   6.956   1.647
  176SOL     OW 1426   6.559   4.157   0.912
  176SOL    HW1 1427   6.584   4.224   0.842
  176SOL    HW2 1428   6.641   4.111   0.945
  177SOL     OW 1429   6.100   2.982   3.531
  177SOL    HW1 1430   6.042   3.029   3.463
  177SOL    HW2 1431   6.073   3.011   3.623
  178SOL     OW 1432   3.250   4.107   6.348
  178SOL    HW1 1433   3.282   4.012   6.350
  178SOL    HW2 1434   3.150   4.108   6.346
  179SOL     OW 1435   4.368   1.286   5.904
  179SOL    HW1 1436   4.303   1.271   5.830
  179SOL    HW2 1437   4.409   1.377   5.895
  180SOL     OW 1438   2.259   6.530   0.238
  180SOL    HW1 1439   2.330   6.588   0.199
  180SOL    HW2 1440   2.184   6.588   0.272
  181SOL     OW 1441   3.600   3.476   5.774
  181SOL    HW1 1442   3.657   3.412   5.723
  181SOL    HW2 1443   3.633   3.481   5.869
  182SOL     OW 1444   3.553   1.953   5.320
  182SOL    HW1 1445   3.549   2.020   5.247
  182SOL    HW2 1446   3.527   1.996   5.406
  183SOL     OW 1447   3.760   2.122   3.220
  183SOL    HW1 1448   3.679   2.160   3.263
  183SOL    HW2 1449   3.741   2.029   3.188
  184SOL     OW 1450   0.981   6.587   4.558
  184SOL    HW1 1451   0.889   6.558   4.585
  184SOL    HW2 1452   1.002   6.554   4.466
  185SOL     OW 1453   0.713   0.923   5.862
  185SOL    HW1 1454   0.732   1.019   5.882
  185SOL    HW2 1455   0.701   0.873   5.948
  186SOL     OW 1456   5.920   0.828   4.073
  186SOL    HW1 1457   5.874   0.742   4.050
  186SOL    HW2 1458   5.957   0.823   4.166
  187SOL     OW 1459   5.257   6.864   2.437
  187SOL    HW1 1460   5.323   6.804   2.392
  187SOL    HW2 1461   5.170   6.815   2.447
  188SOL     OW 1462   0.880   3.137   3.038
  188SOL    HW1 1463   0.899   3.215   3.098
  188SOL    HW2 1464   0.790   3.147   2.997
  189SOL     OW 1465   2.720   5.168   1.153
  189SOL    HW1 1466   2.641   5.123   1.113
  189SOL    HW2 1467   2.697   5.202   1.244
  190SOL     OW 1468   5.236   3.106   5.457
  190SOL    HW1 1469   5.313   3.096   5.520
  190SOL    HW2 1470   5.172   3.031   5.472
  191SOL     OW 1471   6.014   0.310   6.617
  191SOL    HW1 1472   5.948   0.379   6.587
  191SOL    HW2 1473   6.061   0.271   6.538
  192SOL     OW 1474   0.917   5.235   1.623
  192SOL    HW1 1475   0.887   5.144   1.652
  192SOL    HW2 1476   1.017   5.241   1.633
  193SOL     OW 1477   4.521   3.714   5.314
  193SOL    HW1 1478   4.451   3.644   5.299
  193SOL    HW2 1479   4.603   3.692   5.261
  194SOL     OW 1480   3.949   0.764   2.896
  194SOL    HW1 1481   3.997   0.783   2.982
  194SOL    HW2 1482   4.014   0.769   2.820
  195SOL     OW 1483   1.561   0.103   4.201
  195SOL    HW1 1484   1.539   0.005   4.207
  195SOL    HW2 1485   1.581   0.138   4.292
  196SOL     OW 1486   3.148   0.643   0.718
  196SOL    HW1 1487   3.146   0.596   0.807
  196SOL    HW2 1488   3.100   0.587   0.650
  197SOL     OW 1489   2.342   0.191   1.262
  197SOL    HW1 1490   2.361   0.102   1.221
  197SOL    HW2 1491   2.307   0.253   1.192
  198SOL     OW 1492   5.432   6.916   1.488
  198SOL    HW1 1493   5.471   7.003   1.455
  198SOL    HW2 1494   5.404   6.861   1.409
  199SOL     OW 1495   6.740   1.422   3.087
  199SOL    HW1 1496   6.697   1.345   3.040
  199SOL    HW2 1497   6.750   1.400   3.185
  200SOL     OW 1498   1.279   4.550   1.700
  200SOL    HW1 1499   1.275   4.455   1.670
  200SOL    HW2 1500   1.187   4.584   1.719
  201SOL     OW 1501   6.553   6.699   6.229
  201SOL    HW1 1502   6.636   6.740   6.191
  201SOL    HW2 1503   6.475   6.723   6.170
  202SOL     OW 1504   4.720   0.468   6.338
  202SOL    HW1 1505   4.789   0.513   6.282
  202SOL    HW2 1506   4.718   0.371   6.316
  203SOL     OW 1507   4.386   2.401   4.300
  203SOL    HW1 1508   4.395   2.303   4.286
  203SOL    HW2 1509   4.406   2.424   4.395
  204SOL     OW 1510   0.694   0.920   6.563
  204SOL    HW1 1511   0.703   0.889   6.657
  204SOL    HW2 1512   0.598   0.911   6.534
  205SOL     OW 1513   0.541   1.326   3.079
  205SOL    HW1 1514   0.472   1.363   3.142
  205SOL    HW2 1515   0.580   1.243   3.118
  206SOL     OW 1516   6.952   4.973   1.441
  206SOL    HW1 1517   6.985   4.887   1.480
  206SOL    HW2 1518   6.918   4.957   1.349
  207SOL     OW 1519   5.255   1.092   3.549
  207SOL    HW1 1520   5.250   1.188   3.522
  207SOL    HW2 1521   5.326   1.080   3.618
  208SOL     OW 1522   5.785   2.424   5.097
  208SOL    HW1 1523   5.719   2.375   5.155
  208SOL    HW2 1524   5.735   2.473   5.025
  209SOL     OW 1525   0.195   4.729   3.934
  209SOL    HW1 1526   0.263   4.795   3.901
  209SOL    HW2 1527   0.212   4.710   4.031
  210SOL     OW 1528   3.669   1.497   0.506
  210SOL    HW1 1529   3.628   1.520   0.418
  210SOL    HW2 1530   3.758   1.543   0.515
  211SOL     OW 1531   2.569   6.008   3.343
  211SOL    HW1 1532   2.486   6.063   3.335
  211SOL    HW2 1533   2.612   5.999   3.253
  212SOL     OW 1534   1.348   4.178   1.696
  212SOL    HW1 1535   1.332   4.216   1.787
  212SOL    HW2 1536   1.265   4.188   1.640
  213SOL     OW 1537   3.268   0.449   6.712
  213SOL    HW1 1538   3.293   0.546   6.716
  213SOL    HW2 1539   3.205   0.433   6.636
  214SOL     OW 1540   4.570   5.082   1.288
  214SOL    HW1 1541   4.493   5.139   1.259
  214SOL    HW2 1542   4.622   5.129   1.359
  215SOL     OW 1543   1.983   3.769   0.852
  215SOL    HW1 1544   2.076   3.772   0.887
  215SOL    HW2 1545   1.951   3.675   0.846
  216SOL     OW 1546   2.260   5.942   3.983
  216SOL    HW1 1547   2.278   5.854   3.939
  216SOL    HW2 1548   2.326   5.956   4.057
  217SOL     OW 1549   1.929   2.504   3.888
  217SOL    HW1 1550   1.930   2.435   3.961
  217SOL    HW2 1551   1.913   2.459   3.800
  218SOL     OW 1552   0.953   3.114   4.309
  218SOL    HW1 1553   0.915   3.205   4.327
  218SOL    HW2 1554   0.878   3.049   4.294
  219SOL     OW 1555   4.552   6.382   5.888
  219SOL    HW1 1556   4.527   6.392   5.984
  219SOL    HW2 1557   4.573   6.286   5.868
  220SOL     OW 1558   3.807   6.947   0.842
  220SOL    HW1 1559   3.737   6.900   0.790
  220SOL    HW2 1560   3.874   6.988   0.780
  221SOL     OW 1561   6.313   2.832   1.324
  221SOL    HW1 1562   6.348   2.882   1.404
  221SOL    HW2 1563   6.359   2.743   1.318
  222SOL     OW 1564   2.750   4.832   5.288
  222SOL    HW1 1565   2.716   4.777   5.365
  222SOL    HW2 1566   2.728   4.785   5.203
  223SOL     OW 1567   5.580   2.549   0.664
  223SOL    HW1 1568   5.537   2.516   0.748
  223SOL    HW2 1569   5.579   2.477   0.595
  224SOL     OW 1570   2.159   2.407   4.772
  224SOL    HW1 1571   2.129   2.359   4.690
  224SOL    HW2 1572   2.168   2.342   4.847
  225SOL     OW 1573   4.620   2.599   6.173
  225SOL    HW1 1574   4.649   2.581   6.079
  225SOL    HW2 1575   4.690   2.654   6.220
  226SOL     OW 1576   1.070   0.768   6.284
  226SOL    HW1 1577   1.073   0.683   6.337
  226SOL    HW2 1578   0.979   0.808   6.292
  227SOL     OW 1579   1.479   3.239   3.254
  227SOL    HW1 1580   1.556   3.226   3.317
  227SOL    HW2 1581   1.393   3.220   3.302
  228SOL     OW 1582   3.052   6.056   3.824
  228SOL    HW1 1583   3.083   5.979   3.768
  228SOL    HW2 1584   3.071   6.142   3.777
  229SOL     OW 1585   4.797   5.871   6.763
  229SOL    HW1 1586   4.870   5.809   6.792
  229SOL    HW2 1587   4.835   5.943   6.706
  230SOL     OW 1588   3.168   5.039   3.733
  230SOL    HW1 1589   3.130   4.987   3.656
  230SOL    HW2 1590   3.132   5.132   3.731
  231SOL     OW 1591   5.938   1.863   0.005
  231SOL    HW1 1592   5.986   1.858   6.941
  231SOL    HW2 1593   5.937   1.958   0.037
  232SOL     OW 1594   0.954   3.812   6.760
  232SOL    HW1 1595   1.032   3.750   6.766
  232SOL    HW2 1596   0.946   3.845   6.666
  233SOL     OW 1597   2.171   2.110   3.814
  233SOL    HW1 1598   2.073   2.125   3.805
  233SOL    HW2 1599   2.207   2.170   3.886
  234SOL     OW 1600   4.575   0.085   5.041
  234SOL    HW1 1601   4.539   0.049   5.126
  234SOL    HW2 1602   4.659   0.136   5.059
  235SOL     OW 1603   3.592   3.150   1.841
  235SOL    HW1 1604   3.603   3.235   1.791
  235SOL    HW2 1605   3.680   3.121   1.878
  236SOL     OW 1606   4.571   3.219   6.955
  236SOL    HW1 1607   4.533   3.255   0.016
  236SOL    HW2 1608   4.575   3.291   6.886
  237SOL     OW 1609   5.906   5.084   1.896
  237SOL    HW1 1610   5.858   5.084   1.809
  237SOL    HW2 1611   5.926   4.989   1.923
  238SOL     OW 1612   5.105   1.856   0.350
  238SOL    HW1 1613   5.076   1.837   0.256
  238SOL    HW2 1614   5.109   1.955   0.364
  239SOL     OW 1615   0.417   5.465   5.734
  239SOL    HW1 1616   0.444   5.393   5.799
  239SOL    HW2 1617   0.318   5.461   5.720
  240SOL     OW 1618   0.276   2.791   3.855
  240SOL    HW1 1619   0.338   2.755   3.925
  240SOL    HW2 1620   0.290   2.740   3.770
  241SOL     OW 1621   1.694   0.383   5.058
  241SOL    HW1 1622   1.623   0.393   5.128
  241SOL    HW2 1623   1.708   0.286   5.039
  242SOL     OW 1624   3.456   3.286   5.397
  242SOL    HW1 1625   3.429   3.346   5.473
  242SOL    HW2 1626   3.391   3.296   5.322
  243SOL     OW 1627   4.264   0.337   5.933
  243SOL    HW1 1628   4.262   0.386   5.846
  243SOL    HW2 1629   4.248   0.401   6.008
  244SOL     OW 1630   5.589   2.311   4.604
  244SOL    HW1 1631   5.621   2.218   4.591
  244SOL    HW2 1632   5.530   2.337   4.527
  245SOL     OW 1633   6.420   3.525   4.492
  245SOL    HW1 1634   6.415   3.622   4.515
  245SOL    HW2 1635   6.367   3.508   4.409
  246SOL     OW 1636   4.897   2.449   3.247
  246SOL    HW1 1637   4.799   2.436   3.262
  246SOL    HW2 1638   4.947   2.419   3.328
  247SOL     OW 1639   3.030   1.869   1.781
  247SOL    HW1 1640   3.113   1.856   1.726
  247SOL    HW2 1641   3.026   1.963   1.815
  248SOL     OW 1642   3.661   2.056   2.600
  248SOL    HW1 1643   3.562   2.047   2.596
  248SOL    HW2 1644   3.693   2.029   2.690
  249SOL     OW 1645   3.777   0.183   5.344
  249SOL    HW1 1646   3.690   0.229   5.360
  249SOL    HW2 1647   3.760   0.096   5.296
  250SOL     OW 1648   5.152   2.660   0.827
  250SOL    HW1 1649   5.213   2.581   0.829
  250SOL    HW2 1650   5.146   2.700   0.918
  251SOL     OW 1651   4.437   3.951   5.439
  251SOL    HW1 1652   4.441   3.863   5.390
  251SOL    HW2 1653   4.499   3.948   5.517
  252SOL     OW 1654   6.548   6.969   6.634
  252SOL    HW1 1655   6.648   6.965   6.626
  252SOL    HW2 1656   6.513   0.022   6.580
  253SOL     OW 1657   2.436   4.704   6.791
  253SOL    HW1 1658   2.504   4.636   6.820
  253SOL    HW2 1659   2.470   4.795   6.812
  254SOL     OW 1660   4.962   3.194   3.408
  254SOL    HW1 1661   4.970   3.109   3.356
  254SOL    HW2 1662   4.870   3.231   3.396
  255SOL     OW 1663   1.874   3.178   4.735
  255SOL    HW1 1664   1.974   3.180   4.737
  255SOL    HW2 1665   1.843   3.083   4.732
  256SOL     OW 1666   6.689   4.235   6.483
  256SOL    HW1 1667   6.679   4.135   6.485
  256SOL    HW2 1668   6.776   4.261   6.523
  257SOL     OW 1669   4.864   6.708   3.805
  257SOL    HW1 1670   4.942   6.645   3.805
  257SOL    HW2 1671   4.858   6.754   3.893
  258SOL     OW 1672   0.835   4.842   4.955
  258SOL    HW1 1673   0.930   4.855   4.981
  258SOL    HW2 1674   0.807   4.911   4.889
  259SOL     OW 1675   1.368   1.707   2.598
  259SOL    HW1 1676   1.339   1.655   2.678
  259SOL    HW2 1677   1.403   1.796   2.627
  260SOL     OW 1678   4.628   0.762   0.821
  260SOL    HW1 1679   4.599   0.836   0.761
  260SOL    HW2 1680   4.717   0.785   0.862
  261SOL     OW 1681   6.304   3.544   0.075
  261SOL    HW1 1682   6.388   3.539   0.020
  261SOL    HW2 1683   6.291   3.637   0.108
  262SOL     OW 1684   6.680   4.304   0.661
  262SOL    HW1 1685   6.695   4.211   0.629
  262SOL    HW2 1686   6.584   4.329   0.647
  263SOL     OW 1687   0.597   1.230   3.732
  263SOL    HW1 1688   0.546   1.288   3.796
  263SOL    HW2 1689   0.548   1.144   3.720
  264SOL     OW 1690   4.688   3.141   6.151
  264SOL    HW1 1691   4.611   3.196   6.118
  264SOL    HW2 1692   4.675   3.121   6.248
  265SOL     OW 1693   4.527   5.316   2.900
  265SOL    HW1 1694   4.508   5.219   2.881
  265SOL    HW2 1695   4.564   5.359   2.818
  266SOL     OW 1696   3.534   2.969   5.813
  266SOL    HW1 1697   3.481   3.053   5.821
  266SOL    HW2 1698   3.632   2.991   5.814
  267SOL     OW 1699   6.763   2.036   6.219
  267SOL    HW1 1700   6.740   2.018   6.124
  267SOL    HW2 1701   6.813   2.123   6.226
  268SOL     OW 1702   4.286   0.399   4.873
  268SOL    HW1 1703   4.308   0.496   4.878
  268SOL    HW2 1704   4.206   0.380   4.930
  269SOL     OW 1705   1.446   3.229   0.935
  269SOL    HW1 1706   1.375   3.172   0.978
  269SOL    HW2 1707   1.471   3.303   0.998
  270SOL     OW 1708   0.039   0.539   0.146
  270SOL    HW1 1709   0.014   0.588   0.229
  270SOL    HW2 1710   0.004   0.589   0.066
  271SOL     OW 1711   1.719   1.770   0.719
  271SOL    HW1 1712   1.739   1.680   0.682
  271SOL    HW2 1713   1.805   1.816   0.743
  272SOL     OW 1714   3.158   4.883   4.237
  272SOL    HW1 1715   3.123   4.861   4.146
  272SOL    HW2 1716   3.219   4.962   4.231
  273SOL     OW 1717   1.782   4.374   5.139
  273SOL    HW1 1718   1.878   4.387   5.117
  273SOL    HW2 1719   1.773   4.353   5.237
  274SOL     OW 1720   4.742   2.088   3.487
  274SOL    HW1 1721   4.799   2.117   3.563
  274SOL    HW2 1722   4.800   2.053   3.413
  275SOL     OW 1723   6.274   4.548   5.665
  275SOL    HW1 1724   6.192   4.561   5.608
  275SOL    HW2 1725   6.351   4.521   5.607
  276SOL     OW 1726   6.987   5.440   2.550
  276SOL    HW1 1727   0.020   5.485   2.619
  276SOL    HW2 1728   6.895   5.426   2.588
  277SOL     OW 1729   1.679   3.895   0.559
  277SOL    HW1 1730   1.603   3.890   0.624
  277SOL    HW2 1731   1.658   3.840   0.478
  278SOL     OW 1732   0.038   5.204   1.544
  278SOL    HW1 1733   7.015   5.120   1.516
  278SOL    HW2 1734   7.018   5.239   1.627
  279SOL     OW 1735   6.147   2.932   4.888
  279SOL    HW1 1736   6.121   2.840   4.860
  279SOL    HW2 1737   6.125   2.997   4.815
  280SOL     OW 1738   2.294   6.568   3.013
  280SOL    HW1 1739   2.240   6.619   2.947
  280SOL    HW2 1740   2.386   6.608   3.019
  281SOL     OW 1741   3.422   4.895   2.223
  281SOL    HW1 1742   3.430   4.893   2.322
  281SOL    HW2 1743   3.497   4.842   2.182
  282SOL     OW 1744   3.505   1.470   5.170
  282SOL    HW1 1745   3.497   1.561   5.210
  282SOL    HW2 1746   3.601   1.440   5.175
  283SOL     OW 1747   6.921   0.986   5.573
  283SOL    HW1 1748   6.873   1.064   5.614
  283SOL    HW2 1749   6.901   0.983   5.475
  284SOL     OW 1750   0.885   4.508   4.547
  284SOL    HW1 1751   0.896   4.530   4.644
  284SOL    HW2 1752   0.956   4.443   4.520
  285SOL     OW 1753   5.922   5.230   5.878
  285SOL    HW1 1754   5.934   5.269   5.969
  285SOL    HW2 1755   5.861   5.152   5.883
  286SOL     OW 1756   3.284   5.649   5.063
  286SOL    HW1 1757   3.191   5.615   5.048
  286SOL    HW2 1758   3.333   5.584   5.121
  287SOL     OW 1759   0.501   4.539   0.122
  287SOL    HW1 1760   0.426   4.493   0.074
  287SOL    HW2 1761   0.517   4.629   0.080
  288SOL     OW 1762   4.067   1.991   6.238
  288SOL    HW1 1763   4.013   1.913   6.208
  288SOL    HW2 1764   4.006   2.066   6.263
  289SOL     OW 1765   7.024   5.288   5.089
  289SOL    HW1 1766   6.943   5.344   5.069
  289SOL    HW2 1767   6.995   5.197   5.120
  290SOL     OW 1768   5.831   1.610   4.294
  290SOL    HW1 1769   5.838   1.511   4.306
  290SOL    HW2 1770   5.777   1.630   4.213
  291SOL     OW 1771   2.357   2.000   4.705
  291SOL    HW1 1772   2.264   1.998   4.670
  291SOL    HW2 1773   2.358   2.041   4.796
  292SOL     OW 1774   1.827   1.990   2.913
  292SOL    HW1 1775   1.864   1.919   2.973
  292SOL    HW2 1776   1.882   2.073   2.923
  293SOL     OW 1777   4.851   4.913   1.849
  293SOL    HW1 1778   4.912   4.870   1.783
  293SOL    HW2 1779   4.772   4.853   1.866
  294SOL     OW 1780   6.579   5.675   6.267
  294SOL    HW1 1781   6.516   5.603   6.294
  294SOL    HW2 1782   6.586   5.743   6.340
  295SOL     OW 1783   3.497   1.651   4.434
  295SOL    HW1 1784   3.589   1.618   4.456
  295SOL    HW2 1785   3.489   1.660   4.334
  296SOL     OW 1786   5.692   2.094   2.137
  296SOL    HW1 1787   5.727   2.079   2.229
  296SOL    HW2 1788   5.752   2.158   2.089
  297SOL     OW 1789   2.869   4.847   3.085
  297SOL    HW1 1790   2.834   4.755   3.102
  297SOL    HW2 1791   2.894   4.857   2.989
  298SOL     OW 1792   3.374   5.699   0.747
  298SOL    HW1 1793   3.377   5.603   0.775
  298SOL    HW2 1794   3.331   5.753   0.819
  299SOL     OW 1795   3.621   3.676   6.293
  299SOL    HW1 1796   3.640   3.729   6.210
  299SOL    HW2 1797   3.707   3.642   6.330
  300SOL     OW 1798   5.740   0.656   1.994
  300SOL    HW1 1799   5.726   0.669   2.092
  300SOL    HW2 1800   5.805   0.581   1.980
  301SOL     OW 1801   5.653   3.177   0.702
  301SOL    HW1 1802   5.666   3.079   0.689
  301SOL    HW2 1803   5.571   3.207   0.651
  302SOL     OW 1804   0.470   1.099   3.419
  302SOL    HW1 1805   0.391   1.150   3.387
  302SOL    HW2 1806   0.547   1.116   3.358
  303SOL     OW 1807   6.473   6.682   1.690
  303SOL    HW1 1808   6.533   6.682   1.611
  303SOL    HW2 1809   6.411   6.761   1.685
  304SOL     OW 1810   1.938   0.320   5.453
  304SOL    HW1 1811   1.954   0.270   5.368
  304SOL    HW2 1812   1.912   0.256   5.525
  305SOL     OW 1813   0.908   3.315   0.363
  305SOL    HW1 1814   0.818   3.328   0.321
  305SOL    HW2 1815   0.897   3.293   0.460
  306SOL     OW 1816   2.101   0.174   3.688
  306SOL    HW1 1817   2.172   0.208   3.626
  306SOL    HW2 1818   2.106   0.222   3.775
  307SOL     OW 1819   4.797   5.997   7.023
  307SOL    HW1 1820   4.779   5.983   0.097
  307SOL    HW2 1821   4.832   5.913   6.983
  308SOL     OW 1822   6.286   3.275   4.650
  308SOL    HW1 1823   6.187   3.277   4.662
  308SOL    HW2 1824   6.309   3.290   4.554
  309SOL     OW 1825   2.819   5.842   6.851
  309SOL    HW1 1826   2.830   5.746   6.875
  309SOL    HW2 1827   2.766   5.850   6.767
  310SOL     OW 1828   6.075   6.588   5.238
  310SOL    HW1 1829   5.985   6.572   5.197
  310SOL    HW2 1830   6.138   6.622   5.167
  311SOL     OW 1831   4.721   4.677   2.815
  311SOL    HW1 1832   4.785   4.741   2.858
  311SOL    HW2 1833   4.674   4.723   2.739
  312SOL     OW 1834   4.375   1.297   4.661
  312SOL    HW1 1835   4.291   1.340   4.628
  312SOL    HW2 1836   4.359   1.201   4.680
  313SOL     OW 1837   3.009   3.945   2.492
  313SOL    HW1 1838   3.011   3.856   2.537
  313SOL    HW2 1839   2.915   3.966   2.465
  314SOL     OW 1840   3.111   5.650   6.861
  314SOL    HW1 1841   3.082   5.620   6.953
  314SOL    HW2 1842   3.205   5.620   6.845
  315SOL     OW 1843   1.253   2.550   3.978
  315SOL    HW1 1844   1.267   2.468   3.922
  315SOL    HW2 1845   1.240   2.629   3.918
  316SOL     OW 1846   3.312   1.585   4.087
  316SOL    HW1 1847   3.400   1.631   4.076
  316SOL    HW2 1848   3.326   1.492   4.120
  317SOL     OW 1849   0.267   1.203   0.881
  317SOL    HW1 1850   0.307   1.196   0.972
  317SOL    HW2 1851   0.272   1.298   0.850
  318SOL     OW 1852   1.151   5.723   6.518
  318SOL    HW1 1853   1.094   5.724   6.436
  318SOL    HW2 1854   1.188   5.814   6.534
  319SOL     OW 1855   6.677   0.807   3.379
  319SOL    HW1 1856   6.755   0.750   3.354
  319SOL    HW2 1857   6.603   0.793   3.314
  320SOL     OW 1858   6.372   2.454   1.086
  320SOL    HW1 1859   6.463   2.423   1.057
  320SOL    HW2 1860   6.339   2.524   1.023
  321SOL     OW 1861   3.793   1.889   6.823
  321SOL    HW1 1862   3.744   1.974   6.800
  321SOL    HW2 1863   3.875   1.911   6.875
  322SOL     OW 1864   4.077   3.177   4.351
  322SOL    HW1 1865   4.169   3.153   4.380
  322SOL    HW2 1866   4.010   3.126   4.406
  323SOL     OW 1867   1.236   3.055   6.443
  323SOL    HW1 1868   1.143   3.081   6.471
  323SOL    HW2 1869   1.233   3.011   6.354
  324SOL     OW 1870   2.553   1.500   5.101
  324SOL    HW1 1871   2.647   1.502   5.136
  324SOL    HW2 1872   2.546   1.561   5.022
  325SOL     OW 1873   0.933   3.074   2.382
  325SOL    HW1 1874   0.987   3.059   2.299
  325SOL    HW2 1875   0.840   3.103   2.357
  326SOL     OW 1876   1.276   5.017   6.857
  326SOL    HW1 1877   1.299   5.114   6.854
  326SOL    HW2 1878   1.350   4.967   6.903
  327SOL     OW 1879   1.608   5.023   3.572
  327SOL    HW1 1880   1.600   4.924   3.580
  327SOL    HW2 1881   1.608   5.049   3.475
  328SOL     OW 1882   1.566   5.481   2.174
  328SOL    HW1 1883   1.604   5.452   2.086
  328SOL    HW2 1884   1.577   5.407   2.241
  329SOL     OW 1885   3.933   3.721   4.609
  329SOL    HW1 1886   4.000   3.653   4.640
  329SOL    HW2 1887   3.918   3.788   4.681
  330SOL     OW 1888   3.688   6.933   1.684
  330SOL    HW1 1889   3.651   6.952   1.775
  330SOL    HW2 1890   3.726   6.840   1.681
  331SOL     OW 1891   3.612   4.846   0.775
  331SOL    HW1 1892   3.627   4.930   0.827
  331SOL    HW2 1893   3.612   4.868   0.677
  332SOL     OW 1894   4.427   1.757   5.018
  332SOL    HW1 1895   4.375   1.675   5.040
  332SOL    HW2 1896   4.458   1.753   4.923
  333SOL     OW 1897   2.928   0.483   5.966
  333SOL    HW1 1898   2.903   0.387   5.977
  333SOL    HW2 1899   3.023   0.490   5.935
  334SOL     OW 1900   3.167   0.329   1.811
  334SOL    HW1 1901   3.099   0.387   1.855
  334SOL    HW2 1902   3.259   0.355   1.842
  335SOL     OW 1903   3.812   6.905   5.321
  335SOL    HW1 1904   3.863   6.848   5.386
  335SOL    HW2 1905   3.854   6.898   5.231
  336SOL     OW 1906   1.639   0.725   3.227
  336SOL    HW1 1907   1.699   0.738   3.148
  336SOL    HW2 1908   1.693   0.694   3.305
  337SOL     OW 1909   0.545   2.877   0.117
  337SOL    HW1 1910   0.492   2.931   0.183
  337SOL    HW2 1911   0.607   2.816   0.167
  338SOL     OW 1912   2.673   2.253   1.431
  338SOL    HW1 1913   2.733   2.221   1.504
  338SOL    HW2 1914   2.653   2.177   1.369
  339SOL     OW 1915   2.869   6.468   3.783
  339SOL    HW1 1916   2.848   6.375   3.751
  339SOL    HW2 1917   2.967   6.484   3.778
  340SOL     OW 1918   4.863   4.408   5.298
  340SOL    HW1 1919   4.802   4.487   5.296
  340SOL    HW2 1920   4.834   4.345   5.370
  341SOL     OW 1921   6.555   0.623   4.779
  341SOL    HW1 1922   6.539   0.686   4.855
  341SOL    HW2 1923   6.607   0.670   4.708
  342SOL     OW 1924   5.848   3.437   6.850
  342SOL    HW1 1925   5.801   3.351   6.870
  342SOL    HW2 1926   5.933   3.443   6.903
  343SOL     OW 1927   2.395   5.578   0.524
  343SOL    HW1 1928   2.422   5.627   0.441
  343SOL    HW2 1929   2.297   5.587   0.538
  344SOL     OW 1930   1.386   4.704   2.090
  344SOL    HW1 1931   1.380   4.608   2.118
  344SOL    HW2 1932   1.377   4.710   1.991
  345SOL     OW 1933   5.011   1.372   3.666
  345SOL    HW1 1934   5.099   1.365   3.621
  345SOL    HW2 1935   4.973   1.281   3.682
  346SOL     OW 1936   2.128   0.850   2.786
  346SOL    HW1 1937   2.183   0.889   2.860
  346SOL    HW2 1938   2.178   0.774   2.744
  347SOL     OW 1939   3.321   5.323   6.383
  347SOL    HW1 1940   3.358   5.231   6.373
  347SOL    HW2 1941   3.328   5.372   6.295
  348SOL     OW 1942   5.401   3.734   2.406
  348SOL    HW1 1943   5.473   3.773   2.463
  348SOL    HW2 1944   5.351   3.665   2.458
  349SOL     OW 1945   6.965   4.942   0.875
  349SOL    HW1 1946   6.933   4.848   0.873
  349SOL    HW2 1947   6.983   4.974   0.782
  350SOL     OW 1948   3.574   3.685   1.022
  350SOL    HW1 1949   3.479   3.715   1.008
  350SOL    HW2 1950   3.584   3.652   1.115
  351SOL     OW 1951   2.013   2.969   0.774
  351SOL    HW1 1952   1.921   2.984   0.739
  351SOL    HW2 1953   2.059   2.899   0.719
  352SOL     OW 1954   2.855   1.269   4.628
  352SOL    HW1 1955   2.896   1.353   4.664
  352SOL    HW2 1956   2.761   1.287   4.600
  353SOL     OW 1957   2.393   6.671   0.648
  353SOL    HW1 1958   2.401   6.711   0.739
  353SOL    HW2 1959   2.424   6.576   0.650
  354SOL     OW 1960   3.505   2.881   0.433
  354SOL    HW1 1961   3.490   2.806   0.369
  354SOL    HW2 1962   3.598   2.877   0.468
  355SOL     OW 1963   1.041   3.598   2.513
  355SOL    HW1 1964   0.994   3.528   2.460
  355SOL    HW2 1965   1.062   3.561   2.604
  356SOL     OW 1966   3.064   0.194   5.584
  356SOL    HW1 1967   3.060   0.179   5.683
  356SOL    HW2 1968   3.016   0.279   5.562
  357SOL     OW 1969   0.421   6.682   5.306
  357SOL    HW1 1970   0.360   6.691   5.228
  357SOL    HW2 1971   0.508   6.642   5.276
  358SOL     OW 1972   4.496   0.434   1.140
  358SOL    HW1 1973   4.458   0.523   1.113
  358SOL    HW2 1974   4.443   0.396   1.216
  359SOL     OW 1975   1.689   2.878   2.177
  359SOL    HW1 1976   1.732   2.873   2.268
  359SOL    HW2 1977   1.720   2.802   2.121
  360SOL     OW 1978   0.814   5.468   6.732
  360SOL    HW1 1979   0.844   5.376   6.758
  360SOL    HW2 1980   0.840   5.485   6.637
  361SOL     OW 1981   5.795   5.640   2.876
  361SOL    HW1 1982   5.737   5.707   2.829
  361SOL    HW2 1983   5.820   5.675   2.966
  362SOL     OW 1984   3.825   3.728   1.720
  362SOL    HW1 1985   3.809   3.690   1.812
  362SOL    HW2 1986   3.754   3.695   1.658
  363SOL     OW 1987   5.481   4.707   3.672
  363SOL    HW1 1988   5.557   4.767   3.698
  363SOL    HW2 1989   5.516   4.627   3.625
  364SOL     OW 1990   5.815   5.547   6.056
  364SOL    HW1 1991   5.762   5.486   6.115
  364SOL    HW2 1992   5.793   5.642   6.079
  365SOL     OW 1993   5.611   5.926   2.253
  365SOL    HW1 1994   5.531   5.968   2.211
  365SOL    HW2 1995   5.582   5.853   2.315
  366SOL     OW 1996   6.852   0.998   6.123
  366SOL    HW1 1997   6.805   0.960   6.202
  366SOL    HW2 1998   6.796   1.070   6.082
  367SOL     OW 1999   4.511   2.973   1.210
  367SOL    HW1 2000   4.537   2.930   1.124
  367SOL    HW2 2001   4.592   3.013   1.252
  368SOL     OW 2002   0.092   3.823   5.035
  368SOL    HW1 2003   0.149   3.843   5.114
  368SOL    HW2 2004   0.126   3.873   4.955
  369SOL     OW 2005   6.489   5.678   1.391
  369SOL    HW1 2006   6.491   5.588   1.347
  369SOL    HW2 2007   6.560   5.682   1.462
  370SOL     OW 2008   2.499   1.391   6.052
  370SOL    HW1 2009   2.537   1.368   5.962
  370SOL    HW2 2010   2.479   1.488   6.056
  371SOL     OW 2011   2.455   3.950   6.357
  371SOL    HW1 2012   2.486   3.865   6.314
  371SOL    HW2 2013   2.356   3.956   6.353
  372SOL     OW 2014   1.430   6.416   6.160
  372SOL    HW1 2015   1.378   6.347   6.110
  372SOL    HW2 2016   1.526   6.415   6.130
  373SOL     OW 2017   6.789   6.442   4.501
  373SOL    HW1 2018   6.845   6.483   4.430
  373SOL    HW2 2019   6.701   6.489   4.506
  374SOL     OW 2020   2.701   1.697   3.018
  374SOL    HW1 2021   2.718   1.763   2.945
  374SOL    HW2 2022   2.633   1.734   3.081
  375SOL     OW 2023   1.025   5.093   3.861
  375SOL    HW1 2024   1.066   5.027   3.799
  375SOL    HW2 2025   0.979   5.164   3.809
  376SOL     OW 2026   2.160   1.628   4.896
  376SOL    HW1 2027   2.160   1.530   4.916
  376SOL    HW2 2028   2.141   1.643   4.799
  377SOL     OW 2029   0.838   2.106   1.384
  377SOL    HW1 2030   0.884   2.058   1.309
  377SOL    HW2 2031   0.882   2.080   1.470
  378SOL     OW 2032   3.435   2.183   5.561
  378SOL    HW1 2033   3.507   2.155   5.625
  378SOL    HW2 2034   3.455   2.274   5.527
  379SOL     OW 2035   5.935   4.116   0.854
  379SOL    HW1 2036   5.855   4.174   0.870
  379SOL    HW2 2037   5.986   4.152   0.776
  380SOL     OW 2038   2.712   0.899   1.095
  380SOL    HW1 2039   2.707   0.995   1.066
  380SOL    HW2 2040   2.773   0.849   1.034
  381SOL     OW 2041   1.616   4.313   2.549
  381SOL    HW1 2042   1.649   4.229   2.505
  381SOL    HW2 2043   1.584   4.293   2.641
  382SOL     OW 2044   5.308   6.363   5.889
  382SOL    HW1 2045   5.273   6.453   5.861
  382SOL    HW2 2046   5.244   6.292   5.860
  383SOL     OW 2047   4.816   3.168   5.657
  383SOL    HW1 2048   4.736   3.229   5.650
  383SOL    HW2 2049   4.832   3.146   5.753
  384SOL     OW 2050   6.574   5.586   4.468
  384SOL    HW1 2051   6.498   5.621   4.413
  384SOL    HW2 2052   6.648   5.653   4.470
  385SOL     OW 2053   4.189   5.912   5.593
  385SOL    HW1 2054   4.130   5.993   5.591
  385SOL    HW2 2055   4.255   5.918   5.517
  386SOL     OW 2056   2.537   6.436   5.434
  386SOL    HW1 2057   2.496   6.502   5.497
  386SOL    HW2 2058   2.511   6.343   5.461
  387SOL     OW 2059   1.149   6.422   3.510
  387SOL    HW1 2060   1.248   6.410   3.508
  387SOL    HW2 2061   1.118   6.459   3.423
  388SOL     OW 2062   1.518   1.827   3.919
  388SOL    HW1 2063   1.459   1.864   3.991
  388SOL    HW2 2064   1.588   1.894   3.894
  389SOL     OW 2065   4.314   4.589   1.370
  389SOL    HW1 2066   4.274   4.528   1.303
  389SOL    HW2 2067   4.384   4.541   1.422
  390SOL     OW 2068   3.165   1.119   0.034
  390SOL    HW1 2069   3.260   1.137   0.059
  390SOL    HW2 2070   3.155   1.022   0.013
  391SOL     OW 2071   1.948   3.541   5.474
  391SOL    HW1 2072   1.889   3.501   5.404
  391SOL    HW2 2073   2.034   3.489   5.478
  392SOL     OW 2074   1.931   4.346   1.511
  392SOL    HW1 2075   1.912   4.386   1.601
  392SOL    HW2 2076   1.874   4.265   1.498
  393SOL     OW 2077   1.348   4.799   7.016
  393SOL    HW1 2078   1.446   4.780   0.000
  393SOL    HW2 2079   1.301   4.719   6.979
  394SOL     OW 2080   6.988   2.799   0.413
  394SOL    HW1 2081   0.056   2.822   0.445
  394SOL    HW2 2082   6.969   2.847   0.328
  395SOL     OW 2083   4.808   4.593   3.522
  395SOL    HW1 2084   4.836   4.499   3.541
  395SOL    HW2 2085   4.799   4.606   3.424
  396SOL     OW 2086   3.129   3.186   2.289
  396SOL    HW1 2087   3.173   3.102   2.319
  396SOL    HW2 2088   3.071   3.167   2.210
  397SOL     OW 2089   5.959   1.380   6.019
  397SOL    HW1 2090   5.921   1.289   6.035
  397SOL    HW2 2091   5.885   1.448   6.015
  398SOL     OW 2092   1.457   0.063   3.468
  398SOL    HW1 2093   1.512   0.098   3.544
  398SOL    HW2 2094   1.373   0.118   3.459
  399SOL     OW 2095   5.468   6.323   4.142
  399SOL    HW1 2096   5.494   6.247   4.202
  399SOL    HW2 2097   5.541   6.391   4.141
  400SOL     OW 2098   6.539   6.622   5.648
  400SOL    HW1 2099   6.594   6.542   5.669
  400SOL    HW2 2100   6.591   6.705   5.666
  401SOL     OW 2101   5.110   0.290   6.375
  401SOL    HW1 2102   5.037   0.308   6.440
  401SOL    HW2 2103   5.074   0.235   6.299
  402SOL     OW 2104   6.673   0.948   3.776
  402SOL    HW1 2105   6.686   1.006   3.695
  402SOL    HW2 2106   6.649   0.855   3.746
  403SOL     OW 2107   4.149   1.043   5.102
  403SOL    HW1 2108   4.109   0.963   5.147
  403SOL    HW2 2109   4.239   1.019   5.066
  404SOL     OW 2110   1.435   4.805   4.252
  404SOL    HW1 2111   1.518   4.818   4.197
  404SOL    HW2 2112   1.373   4.882   4.236
  405SOL     OW 2113   2.237   3.019   3.212
  405SOL    HW1 2114   2.216   2.970   3.127
  405SOL    HW2 2115   2.240   3.118   3.193
  406SOL     OW 2116   0.510   3.998   4.717
  406SOL    HW1 2117   0.580   4.028   4.782
  406SOL    HW2 2118   0.508   4.060   4.639
  407SOL     OW 2119   1.284   2.449   5.180
  407SOL    HW1 2120   1.383   2.453   5.173
  407SOL    HW2 2121   1.244   2.519   5.121
  408SOL     OW 2122   3.428   2.109   3.169
  408SOL    HW1 2123   3.402   2.128   3.264
  408SOL    HW2 2124   3.359   2.147   3.108
  409SOL     OW 2125   6.411   2.997   1.556
  409SOL    HW1 2126   6.507   3.023   1.559
  409SOL    HW2 2127   6.355   3.072   1.592
  410SOL     OW 2128   0.864   1.662   1.312
  410SOL    HW1 2129   0.846   1.564   1.319
  410SOL    HW2 2130   0.850   1.692   1.218
  411SOL     OW 2131   6.493   0.993   1.731
  411SOL    HW1 2132   6.455   1.078   1.767
  411SOL    HW2 2133   6.427   0.918   1.746
  412SOL     OW 2134   3.619   5.084   2.471
  412SOL    HW1 2135   3.689   5.087   2.542
  412SOL    HW2 2136   3.572   4.996   2.475
  413SOL     OW 2137   5.683   4.098   1.550
  413SOL    HW1 2138   5.591   4.128   1.576
  413SOL    HW2 2139   5.740   4.178   1.531
  414SOL     OW 2140   3.406   6.219   3.966
  414SOL    HW1 2141   3.337   6.149   3.982
  414SOL    HW2 2142   3.450   6.203   3.877
  415SOL     OW 2143   0.266   0.388   6.833
  415SOL    HW1 2144   0.242   0.377   6.929
  415SOL    HW2 2145   0.365   0.401   6.824
  416SOL     OW 2146   4.927   5.226   5.631
  416SOL    HW1 2147   4.879   5.140   5.614
  416SOL    HW2 2148   4.864   5.303   5.618
  417SOL     OW 2149   2.176   6.998   5.758
  417SOL    HW1 2150   2.199   6.952   5.844
  417SOL    HW2 2151   2.088   6.963   5.725
  418SOL     OW 2152   3.272   6.726   6.784
  418SOL    HW1 2153   3.199   6.659   6.795
  418SOL    HW2 2154   3.360   6.682   6.802
  419SOL     OW 2155   1.057   6.854   2.896
  419SOL    HW1 2156   1.146   6.844   2.851
  419SOL    HW2 2157   1.052   6.945   2.938
  420SOL     OW 2158   5.811   1.449   6.644
  420SOL    HW1 2159   5.763   1.437   6.731
  420SOL    HW2 2160   5.748   1.489   6.577
  421SOL     OW 2161   5.732   3.865   4.498
  421SOL    HW1 2162   5.748   3.786   4.440
  421SOL    HW2 2163   5.734   3.948   4.442
  422SOL     OW 2164   4.832   3.298   0.998
  422SOL    HW1 2165   4.782   3.381   0.971
  422SOL    HW2 2166   4.822   3.285   1.097
  423SOL     OW 2167   1.463   2.276   0.083
  423SOL    HW1 2168   1.525   2.258   0.006
  423SOL    HW2 2169   1.417   2.191   0.109
  424SOL     OW 2170   2.048   4.635   2.305
  424SOL    HW1 2171   2.019   4.726   2.336
  424SOL    HW2 2172   1.985   4.602   2.234
  425SOL     OW 2173   5.150   1.458   3.972
  425SOL    HW1 2174   5.231   1.517   3.962
  425SOL    HW2 2175   5.094   1.464   3.889
  426SOL     OW 2176   2.515   2.322   4.752
  426SOL    HW1 2177   2.511   2.421   4.763
  426SOL    HW2 2178   2.491   2.278   4.839
  427SOL     OW 2179   6.439   6.799   4.028
  427SOL    HW1 2180   6.367   6.766   3.967
  427SOL    HW2 2181   6.405   6.876   4.082
  428SOL     OW 2182   3.995   0.393   3.520
  428SOL    HW1 2183   4.094   0.387   3.506
  428SOL    HW2 2184   3.961   0.480   3.484
  429SOL     OW 2185   0.304   4.768   3.628
  429SOL    HW1 2186   0.402   4.752   3.641
  429SOL    HW2 2187   0.256   4.680   3.623
  430SOL     OW 2188   1.239   6.512   4.630
  430SOL    HW1 2189   1.143   6.521   4.602
  430SOL    HW2 2190   1.244   6.511   4.730
  431SOL     OW 2191   2.624   0.720   0.800
  431SOL    HW1 2192   2.670   0.709   0.712
  431SOL    HW2 2193   2.572   0.806   0.800
  432SOL     OW 2194   6.291   2.257   0.681
  432SOL    HW1 2195   6.362   2.292   0.619
  432SOL    HW2 2196   6.216   2.323   0.686
  433SOL     OW 2197   2.179   6.648   5.794
  433SOL    HW1 2198   2.194   6.708   5.715
  433SOL    HW2 2199   2.187   6.701   5.878
  434SOL     OW 2200   4.595   6.192   3.828
  434SOL    HW1 2201   4.623   6.103   3.792
  434SOL    HW2 2202   4.672   6.256   3.823
  435SOL     OW 2203   3.845   1.968   5.401
  435SOL    HW1 2204   3.856   1.982   5.499
  435SOL    HW2 2205   3.750   1.943   5.381
  436SOL     OW 2206   2.773   5.621   1.901
  436SOL    HW1 2207   2.791   5.535   1.950
  436SOL    HW2 2208   2.848   5.685   1.918
  437SOL     OW 2209   0.651   1.127   6.077
  437SOL    HW1 2210   0.575   1.104   6.138
  437SOL    HW2 2211   0.735   1.137   6.130
  438SOL     OW 2212   1.283   3.905   3.971
  438SOL    HW1 2213   1.280   3.947   4.061
  438SOL    HW2 2214   1.286   3.805   3.981
  439SOL     OW 2215   5.824   6.415   2.191
  439SOL    HW1 2216   5.734   6.458   2.184
  439SOL    HW2 2217   5.815   6.317   2.177
  440SOL     OW 2218   2.884   1.401   6.044
  440SOL    HW1 2219   2.843   1.320   6.003
  440SOL    HW2 2220   2.824   1.480   6.028
  441SOL     OW 2221   6.516   3.146   3.801
  441SOL    HW1 2222   6.542   3.066   3.748
  441SOL    HW2 2223   6.577   3.154   3.880
  442SOL     OW 2224   4.942   5.392   5.904
  442SOL    HW1 2225   4.847   5.364   5.918
  442SOL    HW2 2226   4.998   5.313   5.883
  443SOL     OW 2227   5.670   3.854   4.108
  443SOL    HW1 2228   5.608   3.930   4.088
  443SOL    HW2 2229   5.756   3.890   4.144
  444SOL     OW 2230   4.777   0.206   5.983
  444SOL    HW1 2231   4.813   0.297   5.966
  444SOL    HW2 2232   4.807   0.144   5.910
  445SOL     OW 2233   2.579   6.104   2.865
  445SOL    HW1 2234   2.554   6.078   2.772
  445SOL    HW2 2235   2.551   6.198   2.882
  446SOL     OW 2236   4.148   5.979   2.564
  446SOL    HW1 2237   4.160   5.947   2.658
  446SOL    HW2 2238   4.194   5.917   2.501
  447SOL     OW 2239   6.392   4.031   5.058
  447SOL    HW1 2240   6.400   3.968   5.135
  447SOL    HW2 2241   6.299   4.068   5.054
  448SOL     OW 2242   2.673   1.005   2.764
  448SOL    HW1 2243   2.604   0.932   2.767
  448SOL    HW2 2244   2.717   1.005   2.674
  449SOL     OW 2245   3.337   1.341   4.253
  449SOL    HW1 2246   3.325   1.285   4.171
  449SOL    HW2 2247   3.420   1.311   4.301
  450SOL     OW 2248   1.646   4.747   3.561
  450SOL    HW1 2249   1.616   4.722   3.469
  450SOL    HW2 2250   1.615   4.677   3.626
  451SOL     OW 2251   1.946   2.386   4.328
  451SOL    HW1 2252   1.880   2.459   4.348
  451SOL    HW2 2253   2.027   2.425   4.285
  452SOL     OW 2254   4.519   6.502   1.938
  452SOL    HW1 2255   4.536   6.595   1.906
  452SOL    HW2 2256   4.538   6.437   1.864
  453SOL     OW 2257   3.511   6.560   6.511
  453SOL    HW1 2258   3.602   6.601   6.508
  453SOL    HW2 2259   3.447   6.616   6.458
  454SOL     OW 2260   0.276   3.485   6.702
  454SOL    HW1 2261   0.353   3.519   6.756
  454SOL    HW2 2262   0.206   3.447   6.763
  455SOL     OW 2263   5.637   2.700   5.139
  455SOL    HW1 2264   5.669   2.693   5.233
  455SOL    HW2 2265   5.713   2.726   5.080
  456SOL     OW 2266   1.391   0.583   4.366
  456SOL    HW1 2267   1.350   0.511   4.420
  456SOL    HW2 2268   1.357   0.672   4.396
  457SOL     OW 2269   2.202   4.012   4.365
  457SOL    HW1 2270   2.203   4.100   4.316
  457SOL    HW2 2271   2.259   4.019   4.447
  458SOL     OW 2272   2.935   0.291   3.196
  458SOL    HW1 2273   2.988   0.226   3.250
  458SOL    HW2 2274   2.998   0.349   3.144
  459SOL     OW 2275   1.728   0.498   5.430
  459SOL    HW1 2276   1.814   0.454   5.404
  459SOL    HW2 2277   1.718   0.584   5.380
  460SOL     OW 2278   1.370   0.291   5.017
  460SOL    HW1 2279   1.404   0.340   5.097
  460SOL    HW2 2280   1.375   0.193   5.033
  461SOL     OW 2281   6.504   4.653   6.103
  461SOL    HW1 2282   6.419   4.649   6.050
  461SOL    HW2 2283   6.576   4.602   6.054
  462SOL     OW 2284   4.107   3.494   5.429
  462SOL    HW1 2285   4.056   3.580   5.437
  462SOL    HW2 2286   4.046   3.423   5.396
  463SOL     OW 2287   0.531   0.466   3.741
  463SOL    HW1 2288   0.514   0.489   3.837
  463SOL    HW2 2289   0.447   0.476   3.689
  464SOL     OW 2290   3.031   0.782   5.742
  464SOL    HW1 2291   3.025   0.795   5.643
  464SOL    HW2 2292   3.095   0.847   5.781
  465SOL     OW 2293   0.426   2.471   0.022
  465SOL    HW1 2294   0.374   2.532   6.986
  465SOL    HW2 2295   0.374   2.388   0.039
  466SOL     OW 2296   2.642   6.465   4.147
  466SOL    HW1 2297   2.579   6.393   4.116
  466SOL    HW2 2298   2.735   6.441   4.120
  467SOL     OW 2299   1.535   1.508   2.503
  467SOL    HW1 2300   1.469   1.577   2.533
  467SOL    HW2 2301   1.628   1.543   2.515
  468SOL     OW 2302   4.094   5.633   5.178
  468SOL    HW1 2303   4.137   5.695   5.112
  468SOL    HW2 2304   4.164   5.595   5.238
  469SOL     OW 2305   2.947   3.862   5.844
  469SOL    HW1 2306   3.001   3.939   5.810
  469SOL    HW2 2307   2.961   3.782   5.785
  470SOL     OW 2308   3.895   6.104   1.364
  470SOL    HW1 2309   3.896   6.004   1.362
  470SOL    HW2 2310   3.845   6.135   1.445
  471SOL     OW 2311   2.935   2.276   4.055
  471SOL    HW1 2312   2.965   2.240   4.144
  471SOL    HW2 2313   2.888   2.363   4.069
  472SOL     OW 2314   5.728   4.353   0.123
  472SOL    HW1 2315   5.632   4.342   0.098
  472SOL    HW2 2316   5.734   4.416   0.201
  473SOL     OW 2317   0.994   1.866   2.034
  473SOL    HW1 2318   0.990   1.925   1.954
  473SOL    HW2 2319   1.023   1.774   2.007
  474SOL     OW 2320   5.399   5.549   5.313
  474SOL    HW1 2321   5.446   5.470   5.353
  474SOL    HW2 2322   5.462   5.597   5.251
  475SOL     OW 2323   6.122   3.066   0.445
  475SOL    HW1 2324   6.068   3.067   0.361
  475SOL    HW2 2325   6.077   3.009   0.513
  476SOL     OW 2326   0.064   3.796   2.130
  476SOL    HW1 2327   0.152   3.772   2.090
  476SOL    HW2 2328   0.055   3.896   2.131
  477SOL     OW 2329   2.723   5.772   3.369
  477SOL    HW1 2330   2.726   5.733   3.461
  477SOL    HW2 2331   2.702   5.870   3.374
  478SOL     OW 2332   3.723   6.288   3.522
  478SOL    HW1 2333   3.698   6.325   3.432
  478SOL    HW2 2334   3.808   6.331   3.553
  479SOL     OW 2335   3.830   2.946   4.983
  479SOL    HW1 2336   3.897   3.011   4.946
  479SOL    HW2 2337   3.762   2.996   5.037
  480SOL     OW 2338   2.862   0.125   1.417
  480SOL    HW1 2339   2.788   0.192   1.411
  480SOL    HW2 2340   2.922   0.148   1.494
  481SOL     OW 2341   0.695   6.545   1.663
  481SOL    HW1 2342   0.624   6.488   1.622
  481SOL    HW2 2343   0.706   6.629   1.610
  482SOL     OW 2344   4.465   5.091   2.754
  482SOL    HW1 2345   4.538   5.043   2.704
  482SOL    HW2 2346   4.377   5.072   2.710
  483SOL     OW 2347   6.848   2.178   2.770
  483SOL    HW1 2348   6.914   2.133   2.831
  483SOL    HW2 2349   6.767   2.121   2.761
  484SOL     OW 2350   1.689   4.123   4.645
  484SOL    HW1 2351   1.693   4.156   4.551
  484SOL    HW2 2352   1.598   4.086   4.663
  485SOL     OW 2353   4.671   4.943   2.656
  485SOL    HW1 2354   4.757   4.989   2.632
  485SOL    HW2 2355   4.665   4.856   2.606
  486SOL     OW 2356   5.998   1.485   6.971
  486SOL    HW1 2357   5.909   1.443   6.956
  486SOL    HW2 2358   6.044   1.499   6.884
  487SOL     OW 2359   0.923   0.750   3.003
  487SOL    HW1 2360   1.010   0.797   2.984
  487SOL    HW2 2361   0.942   0.660   3.041
  488SOL     OW 2362   0.636   6.673   2.141
  488SOL    HW1 2363   0.702   6.748   2.139
  488SOL    HW2 2364   0.641   6.620   2.056
  489SOL     OW 2365   5.829   5.772   5.168
  489SOL    HW1 2366   5.824   5.719   5.083
  489SOL    HW2 2367   5.899   5.842   5.159
  490SOL     OW 2368   1.741   6.000   3.723
  490SOL    HW1 2369   1.706   5.934   3.657
  490SOL    HW2 2370   1.821   6.046   3.684
  491SOL     OW 2371   1.320   3.470   1.061
  491SOL    HW1 2372   1.297   3.442   1.154
  491SOL    HW2 2373   1.402   3.528   1.062
  492SOL     OW 2374   1.308   0.997   5.760
  492SOL    HW1 2375   1.393   0.960   5.797
  492SOL    HW2 2376   1.296   0.963   5.667
  493SOL     OW 2377   2.684   0.279   5.595
  493SOL    HW1 2378   2.744   0.356   5.618
  493SOL    HW2 2379   2.592   0.313   5.575
  494SOL     OW 2380   1.507   1.266   6.665
  494SOL    HW1 2381   1.558   1.207   6.727
  494SOL    HW2 2382   1.551   1.356   6.660
  495SOL     OW 2383   3.618   6.504   4.081
  495SOL    HW1 2384   3.704   6.541   4.117
  495SOL    HW2 2385   3.605   6.411   4.116
  496SOL     OW 2386   6.543   2.015   2.045
  496SOL    HW1 2387   6.594   2.061   2.117
  496SOL    HW2 2388   6.459   2.066   2.025
  497SOL     OW 2389   3.286   1.426   4.631
  497SOL    HW1 2390   3.343   1.490   4.683
  497SOL    HW2 2391   3.239   1.475   4.558
  498SOL     OW 2392   0.933   4.588   2.418
  498SOL    HW1 2393   0.975   4.671   2.380
  498SOL    HW2 2394   0.925   4.598   2.517
  499SOL     OW 2395   1.959   5.215   4.921
  499SOL    HW1 2396   1.908   5.296   4.949
  499SOL    HW2 2397   2.022   5.238   4.847
  500SOL     OW 2398   5.479   2.679   6.896
  500SOL    HW1 2399   5.561   2.622   6.893
  500SOL    HW2 2400   5.505   2.775   6.888
  501SOL     OW 2401   4.216   6.970   1.317
  501SOL    HW1 2402   4.135   0.001   1.295
  501SOL    HW2 2403   4.245   6.919   1.236
  502SOL     OW 2404   0.668   4.849   6.514
  502SOL    HW1 2405   0.611   4.843   6.433
  502SOL    HW2 2406   0.764   4.837   6.488
  503SOL     OW 2407   1.921   5.040   6.219
  503SOL    HW1 2408   1.995   5.002   6.165
  503SOL    HW2 2409   1.834   5.026   6.172
  504SOL     OW 2410   1.324   5.529   1.667
  504SOL    HW1 2411   1.287   5.612   1.625
  504SOL    HW2 2412   1.258   5.454   1.656
  505SOL     OW 2413   4.323   6.526   4.642
  505SOL    HW1 2414   4.269   6.551   4.722
  505SOL    HW2 2415   4.262   6.494   4.569
  506SOL     OW 2416   2.950   6.019   2.207
  506SOL    HW1 2417   2.929   5.959   2.130
  506SOL    HW2 2418   3.049   6.025   2.218
  507SOL     OW 2419   3.714   6.434   2.881
  507SOL    HW1 2420   3.731   6.522   2.926
  507SOL    HW2 2421   3.770   6.426   2.799
  508SOL     OW 2422   0.211   2.647   2.722
  508SOL    HW1 2423   0.175   2.639   2.629
  508SOL    HW2 2424   0.240   2.557   2.754
  509SOL     OW 2425   3.323   1.242   0.643
  509SOL    HW1 2426   3.390   1.169   0.634
  509SOL    HW2 2427   3.232   1.206   0.621
  510SOL     OW 2428   6.744   4.445   6.247
  510SOL    HW1 2429   6.729   4.514   6.318
  510SOL    HW2 2430   6.719   4.355   6.283
  511SOL     OW 2431   0.625   2.425   6.866
  511SOL    HW1 2432   0.542   2.428   6.922
  511SOL    HW2 2433   0.687   2.498   6.895
  512SOL     OW 2434   6.396   2.547   7.004
  512SOL    HW1 2435   6.362   2.467   6.955
  512SOL    HW2 2436   6.482   2.524   0.025
  513SOL     OW 2437   5.265   6.804   3.035
  513SOL    HW1 2438   5.196   6.839   3.098
  513SOL    HW2 2439   5.340   6.870   3.028
  514SOL     OW 2440   6.687   0.281   4.295
  514SOL    HW1 2441   6.642   0.246   4.377
  514SOL    HW2 2442   6.676   0.380   4.292
  515SOL     OW 2443   1.819   0.554   0.390
  515SOL    HW1 2444   1.916   0.548   0.412
  515SOL    HW2 2445   1.769   0.484   0.440
  516SOL     OW 2446   2.972   4.806   2.554
  516SOL    HW1 2447   3.053   4.866   2.550
  516SOL    HW2 2448   2.983   4.731   2.489
  517SOL     OW 2449   3.375   4.531   1.666
  517SOL    HW1 2450   3.449   4.581   1.710
  517SOL    HW2 2451   3.287   4.563   1.703
  518SOL     OW 2452   2.718   1.993   3.510
  518SOL    HW1 2453   2.778   1.927   3.555
  518SOL    HW2 2454   2.774   2.066   3.469
  519SOL     OW 2455   0.106   6.301   3.644
  519SOL    HW1 2456   0.080   6.398   3.638
  519SOL    HW2 2457   0.042   6.247   3.590
  520SOL     OW 2458   0.107   3.342   6.870
  520SOL    HW1 2459   0.123   3.250   6.907
  520SOL    HW2 2460   0.011   3.352   6.847
  521SOL     OW 2461   5.399   5.467   4.972
  521SOL    HW1 2462   5.442   5.448   5.061
  521SOL    HW2 2463   5.348   5.552   4.977
  522SOL     OW 2464   4.097   3.606   2.928
  522SOL    HW1 2465   4.106   3.705   2.933
  522SOL    HW2 2466   4.084   3.569   3.020
  523SOL     OW 2467   0.059   5.727   1.776
  523SOL    HW1 2468   0.020   5.715   1.685
  523SOL    HW2 2469   0.150   5.686   1.779
  524SOL     OW 2470   1.810   2.915   2.416
  524SOL    HW1 2471   1.860   2.996   2.446
  524SOL    HW2 2472   1.850   2.833   2.458
  525SOL     OW 2473   1.809   3.891   6.085
  525SOL    HW1 2474   1.816   3.973   6.143
  525SOL    HW2 2475   1.897   3.872   6.043
  526SOL     OW 2476   3.122   6.532   3.835
  526SOL    HW1 2477   3.147   6.617   3.789
  526SOL    HW2 2478   3.189   6.512   3.906
  527SOL     OW 2479   0.223   2.217   0.875
  527SOL    HW1 2480   0.237   2.124   0.842
  527SOL    HW2 2481   0.154   2.262   0.818
  528SOL     OW 2482   1.742   2.877   3.927
  528SOL    HW1 2483   1.692   2.791   3.923
  528SOL    HW2 2484   1.751   2.907   4.022
  529SOL     OW 2485   1.732   6.590   5.068
  529SOL    HW1 2486   1.727   6.689   5.053
  529SOL    HW2 2487   1.827   6.561   5.064
  530SOL     OW 2488   4.077   3.568   2.646
  530SOL    HW1 2489   4.091   3.470   2.661
  530SOL    HW2 2490   4.103   3.619   2.727
  531SOL     OW 2491   1.325   1.158   2.892
  531SOL    HW1 2492   1.245   1.171   2.833
  531SOL    HW2 2493   1.375   1.076   2.863
  532SOL     OW 2494   1.290   3.189   0.596
  532SOL    HW1 2495   1.218   3.209   0.531
  532SOL    HW2 2496   1.319   3.273   0.641
  533SOL     OW 2497   4.740   6.868   3.306
  533SOL    HW1 2498   4.761   6.906   3.396
  533SOL    HW2 2499   4.782   6.925   3.235
  534SOL     OW 2500   6.081   5.908   2.473
  534SOL    HW1 2501   6.180   5.895   2.482
  534SOL    HW2 2502   6.036   5.819   2.479
  535SOL     OW 2503   0.115   4.114   2.739
  535SOL    HW1 2504   0.190   4.150   2.683
  535SOL    HW2 2505   0.028   4.127   2.690
  536SOL     OW 2506   6.101   4.738   2.346
  536SOL    HW1 2507   6.170   4.738   2.418
  536SOL    HW2 2508   6.145   4.715   2.259
  537SOL     OW 2509   3.815   0.422   4.518
  537SOL    HW1 2510   3.881   0.493   4.543
  537SOL    HW2 2511   3.738   0.464   4.468
  538SOL     OW 2512   0.800   4.599   4.105
  538SOL    HW1 2513   0.738   4.659   4.055
  538SOL    HW2 2514   0.877   4.652   4.140
  539SOL     OW 2515   1.933   5.191   1.951
  539SOL    HW1 2516   1.838   5.221   1.959
  539SOL    HW2 2517   1.981   5.248   1.885
  540SOL     OW 2518   1.605   1.261   3.384
  540SOL    HW1 2519   1.571   1.239   3.292
  540SOL    HW2 2520   1.599   1.180   3.442
  541SOL     OW 2521   4.876   5.696   3.710
  541SOL    HW1 2522   4.805   5.688   3.780
  541SOL    HW2 2523   4.903   5.605   3.678
  542SOL     OW 2524   4.396   6.316   7.023
  542SOL    HW1 2525   4.397   6.349   0.094
  542SOL    HW2 2526   4.447   6.381   6.966
  543SOL     OW 2527   6.128   3.597   3.638
  543SOL    HW1 2528   6.153   3.530   3.569
  543SOL    HW2 2529   6.029   3.594   3.653
  544SOL     OW 2530   0.737   5.030   0.099
  544SOL    HW1 2531   0.818   5.019   0.042
  544SOL    HW2 2532   0.732   5.124   0.133
  545SOL     OW 2533   3.556   0.913   1.685
  545SOL    HW1 2534   3.586   0.985   1.624
  545SOL    HW2 2535   3.524   0.953   1.771
  546SOL     OW 2536   1.529   4.038   1.536
  546SOL    HW1 2537   1.479   4.059   1.452
  546SOL    HW2 2538   1.484   4.080   1.614
  547SOL     OW 2539   3.186   2.463   1.241
  547SOL    HW1 2540   3.100   2.501   1.276
  547SOL    HW2 2541   3.195   2.368   1.271
  548SOL     OW 2542   3.253   3.438   1.712
  548SOL    HW1 2543   3.238   3.340   1.720
  548SOL    HW2 2544   3.213   3.485   1.791
  549SOL     OW 2545   5.265   2.176   1.620
  549SOL    HW1 2546   5.288   2.263   1.663
  549SOL    HW2 2547   5.193   2.130   1.672
  550SOL     OW 2548   1.023   5.479   3.394
  550SOL    HW1 2549   1.059   5.568   3.368
  550SOL    HW2 2550   1.093   5.426   3.441
  551SOL     OW 2551   0.434   6.928   1.628
  551SOL    HW1 2552   0.529   6.920   1.658
  551SOL    HW2 2553   0.412   0.000   1.612
  552SOL     OW 2554   5.947   4.352   6.621
  552SOL    HW1 2555   5.916   4.423   6.685
  552SOL    HW2 2556   5.870   4.293   6.597
  553SOL     OW 2557   2.683   6.733   4.203
  553SOL    HW1 2558   2.674   6.635   4.215
  553SOL    HW2 2559   2.729   6.773   4.282
  554SOL     OW 2560   5.973   6.965   0.504
  554SOL    HW1 2561   6.014   0.007   0.441
  554SOL    HW2 2562   5.921   6.897   0.452
  555SOL     OW 2563   3.074   4.893   4.951
  555SOL    HW1 2564   3.008   4.848   4.891
  555SOL    HW2 2565   3.085   4.840   5.035
  556SOL     OW 2566   4.926   1.746   3.970
  556SOL    HW1 2567   5.021   1.774   3.986
  556SOL    HW2 2568   4.907   1.745   3.872
  557SOL     OW 2569   6.275   5.239   0.234
  557SOL    HW1 2570   6.326   5.325   0.240
  557SOL    HW2 2571   6.212   5.232   0.311
  558SOL     OW 2572   3.610   3.069   3.584
  558SOL    HW1 2573   3.644   3.035   3.672
  558SOL    HW2 2574   3.561   2.996   3.536
  559SOL     OW 2575   6.972   5.661   5.554
  559SOL    HW1 2576   6.876   5.635   5.553
  559SOL    HW2 2577   0.004   5.585   5.587
  560SOL     OW 2578   6.286   3.545   3.857
  560SOL    HW1 2579   6.250   3.562   3.766
  560SOL    HW2 2580   6.215   3.504   3.914
  561SOL     OW 2581   0.307   1.846   1.028
  561SOL    HW1 2582   0.315   1.859   0.929
  561SOL    HW2 2583   0.318   1.933   1.074
  562SOL     OW 2584   4.163   0.362   6.191
  562SOL    HW1 2585   4.121   0.446   6.224
  562SOL    HW2 2586   4.262   0.366   6.204
  563SOL     OW 2587   2.993   1.257   4.060
  563SOL    HW1 2588   3.051   1.202   4.120
  563SOL    HW2 2589   2.900   1.221   4.061
  564SOL     OW 2590   0.999   3.503   6.917
  564SOL    HW1 2591   1.012   3.475   6.822
  564SOL    HW2 2592   1.057   3.583   6.937
  565SOL     OW 2593   3.280   3.649   4.431
  565SOL    HW1 2594   3.214   3.596   4.379
  565SOL    HW2 2595   3.254   3.745   4.430
  566SOL     OW 2596   0.773   3.448   3.284
  566SOL    HW1 2597   0.678   3.476   3.277
  566SOL    HW2 2598   0.811   3.479   3.372
  567SOL     OW 2599   3.033   2.819   1.238
  567SOL    HW1 2600   3.091   2.792   1.161
  567SOL    HW2 2601   3.087   2.819   1.322
  568SOL     OW 2602   4.364   0.099   0.380
  568SOL    HW1 2603   4.393   0.027   0.318
  568SOL    HW2 2604   4.434   0.113   0.451
  569SOL     OW 2605   1.107   3.555   0.434
  569SOL    HW1 2606   1.014   3.559   0.397
  569SOL    HW2 2607   1.156   3.478   0.392
  570SOL     OW 2608   3.558   0.197   6.364
  570SOL    HW1 2609   3.603   0.259   6.428
  570SOL    HW2 2610   3.553   0.105   6.403
  571SOL     OW 2611   3.182   4.903   3.153
  571SOL    HW1 2612   3.117   4.966   3.196
  571SOL    HW2 2613   3.136   4.816   3.134
  572SOL     OW 2614   2.621   5.271   5.071
  572SOL    HW1 2615   2.533   5.282   5.026
  572SOL    HW2 2616   2.693   5.260   5.001
  573SOL     OW 2617   5.780   0.933   5.770
  573SOL    HW1 2618   5.719   0.876   5.716
  573SOL    HW2 2619   5.815   1.008   5.714
  574SOL     OW 2620   3.808   1.310   4.529
  574SOL    HW1 2621   3.802   1.397   4.479
  574SOL    HW2 2622   3.847   1.240   4.470
  575SOL     OW 2623   4.703   3.445   1.732
  575SOL    HW1 2624   4.760   3.512   1.684
  575SOL    HW2 2625   4.731   3.353   1.706
  576SOL     OW 2626   1.459   2.826   2.957
  576SOL    HW1 2627   1.487   2.754   3.021
  576SOL    HW2 2628   1.367   2.806   2.923
  577SOL     OW 2629   1.606   0.982   2.438
  577SOL    HW1 2630   1.541   1.030   2.495
  577SOL    HW2 2631   1.567   0.968   2.347
  578SOL     OW 2632   6.991   4.978   4.444
  578SOL    HW1 2633   6.893   4.980   4.460
  578SOL    HW2 2634   7.013   4.902   4.383
  579SOL     OW 2635   1.786   3.302   3.786
  579SOL    HW1 2636   1.840   3.365   3.731
  579SOL    HW2 2637   1.689   3.313   3.764
  580SOL     OW 2638   4.447   4.859   5.335
  580SOL    HW1 2639   4.397   4.772   5.327
  580SOL    HW2 2640   4.473   4.891   5.244
  581SOL     OW 2641   1.488   2.719   1.910
  581SOL    HW1 2642   1.577   2.765   1.899
  581SOL    HW2 2643   1.420   2.786   1.939
  582SOL     OW 2644   5.098   5.717   2.760
  582SOL    HW1 2645   5.012   5.740   2.714
  582SOL    HW2 2646   5.134   5.799   2.805
  583SOL     OW 2647   2.704   6.566   4.866
  583SOL    HW1 2648   2.608   6.541   4.857
  583SOL    HW2 2649   2.722   6.650   4.814
  584SOL     OW 2650   2.960   6.171   6.873
  584SOL    HW1 2651   2.990   6.076   6.879
  584SOL    HW2 2652   3.033   6.231   6.908
  585SOL     OW 2653   4.073   1.552   6.789
  585SOL    HW1 2654   4.123   1.466   6.781
  585SOL    HW2 2655   3.987   1.536   6.837
  586SOL     OW 2656   3.307   0.180   6.238
  586SOL    HW1 2657   3.394   0.196   6.285
  586SOL    HW2 2658   3.231   0.206   6.298
  587SOL     OW 2659   4.779   2.381   4.102
  587SOL    HW1 2660   4.771   2.308   4.033
  587SOL    HW2 2661   4.690   2.426   4.113
  588SOL     OW 2662   2.444   5.023   1.723
  588SOL    HW1 2663   2.405   4.962   1.654
  588SOL    HW2 2664   2.543   5.011   1.727
  589SOL     OW 2665   3.639   5.070   1.595
  589SOL    HW1 2666   3.616   5.078   1.692
  589SOL    HW2 2667   3.670   4.977   1.575
  590SOL     OW 2668   5.455   2.547   1.713
  590SOL    HW1 2669   5.468   2.456   1.752
  590SOL    HW2 2670   5.374   2.547   1.655
  591SOL     OW 2671   3.685   5.828   3.321
  591SOL    HW1 2672   3.703   5.862   3.413
  591SOL    HW2 2673   3.586   5.828   3.305
  592SOL     OW 2674   4.470   1.000   1.211
  592SOL    HW1 2675   4.534   1.020   1.285
  592SOL    HW2 2676   4.378   0.987   1.250
  593SOL     OW 2677   4.502   2.478   3.791
  593SOL    HW1 2678   4.574   2.547   3.800
  593SOL    HW2 2679   4.464   2.457   3.881
  594SOL     OW 2680   5.235   0.901   0.796
  594SOL    HW1 2681   5.222   0.802   0.794
  594SOL    HW2 2682   5.331   0.922   0.816
  595SOL     OW 2683   5.722   0.383   3.437
  595SOL    HW1 2684   5.818   0.364   3.459
  595SOL    HW2 2685   5.685   0.308   3.381
  596SOL     OW 2686   0.245   5.235   3.609
  596SOL    HW1 2687   0.313   5.175   3.566
  596SOL    HW2 2688   0.155   5.218   3.570
  597SOL     OW 2689   2.117   0.445   6.828
  597SOL    HW1 2690   2.078   0.357   6.802
  597SOL    HW2 2691   2.212   0.432   6.857
  598SOL     OW 2692   3.922   3.917   4.789
  598SOL    HW1 2693   3.842   3.910   4.849
  598SOL    HW2 2694   3.995   3.966   4.835
  599SOL     OW 2695   2.893   6.165   2.843
  599SOL    HW1 2696   2.913   6.247   2.897
  599SOL    HW2 2697   2.898   6.186   2.746
  600SOL     OW 2698   6.008   1.866   6.767
  600SOL    HW1 2699   6.057   1.805   6.704
  600SOL    HW2 2700   6.009   1.959   6.732
  601SOL     OW 2701   1.441   0.808   4.012
  601SOL    HW1 2702   1.531   0.827   4.052
  601SOL    HW2 2703   1.370   0.851   4.067
  602SOL     OW 2704   1.134   1.150   6.579
  602SOL    HW1 2705   1.124   1.063   6.626
  602SOL    HW2 2706   1.077   1.219   6.623
  603SOL     OW 2707   3.003   2.915   5.372
  603SOL    HW1 2708   3.085   2.876   5.330
  603SOL    HW2 2709   2.930   2.848   5.371
  604SOL     OW 2710   0.828   1.737   1.570
  604SOL    HW1 2711   0.856   1.733   1.474
  604SOL    HW2 2712   0.763   1.663   1.589
  605SOL     OW 2713   6.649   5.105   7.005
  605SOL    HW1 2714   6.626   5.195   6.968
  605SOL    HW2 2715   6.658   5.111   0.081
  606SOL     OW 2716   4.967   6.300   5.655
  606SOL    HW1 2717   4.967   6.276   5.558
  606SOL    HW2 2718   5.020   6.232   5.706
  607SOL     OW 2719   6.406   4.720   5.424
  607SOL    HW1 2720   6.459   4.747   5.504
  607SOL    HW2 2721   6.352   4.798   5.392
  608SOL     OW 2722   4.030   6.528   6.540
  608SOL    HW1 2723   4.123   6.495   6.559
  608SOL    HW2 2724   3.964   6.463   6.576
  609SOL     OW 2725   3.926   3.197   2.580
  609SOL    HW1 2726   3.948   3.259   2.654
  609SOL    HW2 2727   3.902   3.107   2.617
  610SOL     OW 2728   6.101   3.309   0.953
  610SOL    HW1 2729   6.126   3.267   0.866
  610SOL    HW2 2730   6.159   3.388   0.971
  611SOL     OW 2731   4.924   0.064   1.825
  611SOL    HW1 2732   5.013   0.053   1.869
  611SOL    HW2 2733   4.856   0.009   1.874
  612SOL     OW 2734   3.874   5.874   4.592
  612SOL    HW1 2735   3.864   5.871   4.493
  612SOL    HW2 2736   3.903   5.785   4.626
  613SOL     OW 2737   4.930   5.422   5.149
  613SOL    HW1 2738   4.931   5.522   5.146
  613SOL    HW2 2739   4.978   5.390   5.230
  614SOL     OW 2740   5.188   5.267   6.535
  614SOL    HW1 2741   5.170   5.284   6.632
  614SOL    HW2 2742   5.134   5.330   6.479
  615SOL     OW 2743   6.919   2.092   1.749
  615SOL    HW1 2744   6.863   2.012   1.773
  615SOL    HW2 2745   7.015   2.072   1.767
  616SOL     OW 2746   0.419   3.470   2.556
  616SOL    HW1 2747   0.398   3.377   2.587
  616SOL    HW2 2748   0.449   3.525   2.634
  617SOL     OW 2749   0.230   4.454   6.290
  617SOL    HW1 2750   0.307   4.441   6.228
  617SOL    HW2 2751   0.145   4.463   6.238
  618SOL     OW 2752   0.007   2.677   0.701
  618SOL    HW1 2753   6.976   2.624   0.636
  618SOL    HW2 2754   0.086   2.718   0.654
  619SOL     OW 2755   3.783   1.377   0.151
  619SOL    HW1 2756   3.811   1.441   0.222
  619SOL    HW2 2757   3.806   1.414   0.061
  620SOL     OW 2758   4.070   2.415   1.699
  620SOL    HW1 2759   4.157   2.376   1.728
  620SOL    HW2 2760   3.995   2.362   1.739
  621SOL     OW 2761   2.505   6.642   6.640
  621SOL    HW1 2762   2.443   6.698   6.694
  621SOL    HW2 2763   2.579   6.608   6.699
  622SOL     OW 2764   1.348   0.885   6.228
  622SOL    HW1 2765   1.382   0.925   6.312
  622SOL    HW2 2766   1.252   0.858   6.240
  623SOL     OW 2767   0.675   5.375   5.861
  623SOL    HW1 2768   0.635   5.429   5.788
  623SOL    HW2 2769   0.770   5.403   5.875
  624SOL     OW 2770   6.922   2.480   0.992
  624SOL    HW1 2771   6.851   2.550   0.996
  624SOL    HW2 2772   6.922   2.438   0.901
  625SOL     OW 2773   2.098   0.984   1.497
  625SOL    HW1 2774   2.129   1.079   1.488
  625SOL    HW2 2775   2.005   0.975   1.461
  626SOL     OW 2776   2.270   5.927   3.465
  626SOL    HW1 2777   2.255   5.869   3.384
  626SOL    HW2 2778   2.307   6.015   3.436
  627SOL     OW 2779   4.961   6.674   0.294
  627SOL    HW1 2780   4.909   6.678   0.209
  627SOL    HW2 2781   5.049   6.720   0.282
  628SOL     OW 2782   6.144   5.592   6.044
  628SOL    HW1 2783   6.136   5.677   6.096
  628SOL    HW2 2784   6.065   5.582   5.984
  629SOL     OW 2785   6.986   6.825   0.210
  629SOL    HW1 2786   0.036   6.860   0.267
  629SOL    HW2 2787   6.991   6.866   0.119
  630SOL     OW 2788   6.630   1.687   2.230
  630SOL    HW1 2789   6.562   1.760   2.243
  630SOL    HW2 2790   6.721   1.728   2.219
  631SOL     OW 2791   3.209   6.601   5.332
  631SOL    HW1 2792   3.277   6.536   5.366
  631SOL    HW2 2793   3.243   6.694   5.346
  632SOL     OW 2794   2.492   1.520   0.389
  632SOL    HW1 2795   2.465   1.588   0.321
  632SOL    HW2 2796   2.411   1.476   0.427
  633SOL     OW 2797   4.849   4.355   7.010
  633SOL    HW1 2798   4.809   4.378   6.921
  633SOL    HW2 2799   4.949   4.359   7.003
  634SOL     OW 2800   4.711   4.477   1.903
  634SOL    HW1 2801   4.641   4.411   1.927
  634SOL    HW2 2802   4.699   4.506   1.808
  635SOL     OW 2803   4.349   4.907   0.935
  635SOL    HW1 2804   4.427   4.957   0.896
  635SOL    HW2 2805   4.330   4.941   1.027
  636SOL     OW 2806   4.430   5.454   6.270
  636SOL    HW1 2807   4.499   5.494   6.210
  636SOL    HW2 2808   4.383   5.527   6.320
  637SOL     OW 2809   6.319   3.588   2.186
  637SOL    HW1 2810   6.356   3.547   2.102
  637SOL    HW2 2811   6.357   3.541   2.265
  638SOL     OW 2812   5.624   2.275   2.571
  638SOL    HW1 2813   5.646   2.358   2.519
  638SOL    HW2 2814   5.532   2.283   2.608
  639SOL     OW 2815   5.497   4.103   2.786
  639SOL    HW1 2816   5.429   4.104   2.859
  639SOL    HW2 2817   5.457   4.067   2.702
  640SOL     OW 2818   0.685   5.073   4.059
  640SOL    HW1 2819   0.678   5.136   4.137
  640SOL    HW2 2820   0.666   4.980   4.089
  641SOL     OW 2821   0.177   6.104   4.466
  641SOL    HW1 2822   0.105   6.036   4.447
  641SOL    HW2 2823   0.251   6.061   4.517
  642SOL     OW 2824   0.266   3.488   4.711
  642SOL    HW1 2825   0.196   3.549   4.747
  642SOL    HW2 2826   0.348   3.541   4.688
  643SOL     OW 2827   4.852   5.180   5.077
  643SOL    HW1 2828   4.811   5.140   5.159
  643SOL    HW2 2829   4.893   5.268   5.100
  644SOL     OW 2830   1.574   6.100   4.505
  644SOL    HW1 2831   1.663   6.086   4.549
  644SOL    HW2 2832   1.505   6.122   4.575
  645SOL     OW 2833   5.317   1.396   4.634
  645SOL    HW1 2834   5.416   1.403   4.623
  645SOL    HW2 2835   5.296   1.350   4.721
  646SOL     OW 2836   3.179   1.401   3.356
  646SOL    HW1 2837   3.184   1.389   3.455
  646SOL    HW2 2838   3.271   1.408   3.318
  647SOL     OW 2839   5.264   2.015   5.097
  647SOL    HW1 2840   5.188   1.962   5.059
  647SOL    HW2 2841   5.227   2.084   5.160
  648SOL     OW 2842   6.873   3.986   3.641
  648SOL    HW1 2843   6.956   4.037   3.618
  648SOL    HW2 2844   6.793   4.044   3.627
  649SOL     OW 2845   3.782   3.786   0.350
  649SOL    HW1 2846   3.880   3.771   0.361
  649SOL    HW2 2847   3.739   3.798   0.440
  650SOL     OW 2848   5.760   4.795   0.760
  650SOL    HW1 2849   5.807   4.826   0.842
  650SOL    HW2 2850   5.769   4.695   0.752
  651SOL     OW 2851   6.611   6.553   6.657
  651SOL    HW1 2852   6.657   6.549   6.746
  651SOL    HW2 2853   6.657   6.620   6.599
  652SOL     OW 2854   5.491   6.461   3.825
  652SOL    HW1 2855   5.526   6.393   3.762
  652SOL    HW2 2856   5.423   6.518   3.779
  653SOL     OW 2857   3.190   6.606   4.674
  653SOL    HW1 2858   3.230   6.519   4.646
  653SOL    HW2 2859   3.144   6.648   4.596
  654SOL     OW 2860   0.263   3.843   5.258
  654SOL    HW1 2861   0.193   3.831   5.329
  654SOL    HW2 2862   0.340   3.782   5.278
  655SOL     OW 2863   0.975   6.591   1.800
  655SOL    HW1 2864   0.887   6.547   1.779
  655SOL    HW2 2865   1.014   6.549   1.882
  656SOL     OW 2866   1.794   5.940   1.977
  656SOL    HW1 2867   1.828   6.002   1.907
  656SOL    HW2 2868   1.754   5.859   1.933
  657SOL     OW 2869   1.403   2.278   2.004
  657SOL    HW1 2870   1.323   2.272   2.063
  657SOL    HW2 2871   1.409   2.195   1.948
  658SOL     OW 2872   2.749   3.679   6.452
  658SOL    HW1 2873   2.793   3.592   6.471
  658SOL    HW2 2874   2.680   3.698   6.521
  659SOL     OW 2875   2.412   6.096   6.007
  659SOL    HW1 2876   2.365   6.012   5.981
  659SOL    HW2 2877   2.509   6.076   6.023
  660SOL     OW 2878   4.945   4.464   2.068
  660SOL    HW1 2879   4.879   4.436   1.999
  660SOL    HW2 2880   4.952   4.564   2.070
  661SOL     OW 2881   4.103   5.983   3.670
  661SOL    HW1 2882   4.023   5.983   3.730
  661SOL    HW2 2883   4.186   5.978   3.726
  662SOL     OW 2884   3.948   0.434   5.505
  662SOL    HW1 2885   3.978   0.495   5.431
  662SOL    HW2 2886   3.886   0.483   5.566
  663SOL     OW 2887   2.364   4.243   6.281
  663SOL    HW1 2888   2.414   4.156   6.281
  663SOL    HW2 2889   2.341   4.268   6.187
  664SOL     OW 2890   0.000   5.889   6.181
  664SOL    HW1 2891   6.971   5.972   6.199
  664SOL    HW2 2892   7.002   5.820   6.250
  665SOL     OW 2893   4.988   5.398   1.926
  665SOL    HW1 2894   5.051   5.400   1.848
  665SOL    HW2 2895   4.932   5.315   1.921
  666SOL     OW 2896   5.470   2.004   2.447
  666SOL    HW1 2897   5.434   2.094   2.423
  666SOL    HW2 2898   5.453   1.939   2.373
  667SOL     OW 2899   1.259   4.812   3.296
  667SOL    HW1 2900   1.259   4.758   3.212
  667SOL    HW2 2901   1.168   4.810   3.337
  668SOL     OW 2902   4.971   6.590   5.566
  668SOL    HW1 2903   4.923   6.621   5.483
  668SOL    HW2 2904   4.996   6.494   5.556
  669SOL     OW 2905   4.502   0.616   2.785
  669SOL    HW1 2906   4.487   0.521   2.761
  669SOL    HW2 2907   4.424   0.650   2.839
  670SOL     OW 2908   3.287   2.613   1.619
  670SOL    HW1 2909   3.273   2.698   1.670
  670SOL    HW2 2910   3.357   2.558   1.664
  671SOL     OW 2911   2.166   6.804   0.549
  671SOL    HW1 2912   2.247   6.755   0.581
  671SOL    HW2 2913   2.147   6.780   0.454
  672SOL     OW 2914   0.315   5.723   2.083
  672SOL    HW1 2915   0.308   5.666   2.001
  672SOL    HW2 2916   0.407   5.713   2.122
  673SOL     OW 2917   6.859   6.919   1.464
  673SOL    HW1 2918   6.779   6.963   1.424
  673SOL    HW2 2919   6.930   6.908   1.393
  674SOL     OW 2920   1.084   1.453   5.042
  674SOL    HW1 2921   1.022   1.456   5.121
  674SOL    HW2 2922   1.177   1.435   5.074
  675SOL     OW 2923   0.350   1.008   2.696
  675SOL    HW1 2924   0.429   1.002   2.635
  675SOL    HW2 2925   0.360   1.087   2.756
  676SOL     OW 2926   3.472   5.746   2.476
  676SOL    HW1 2927   3.380   5.749   2.514
  676SOL    HW2 2928   3.538   5.774   2.546
  677SOL     OW 2929   5.337   1.690   0.719
  677SOL    HW1 2930   5.322   1.781   0.757
  677SOL    HW2 2931   5.297   1.685   0.628
  678SOL     OW 2932   2.486   0.252   5.210
  678SOL    HW1 2933   2.544   0.188   5.260
  678SOL    HW2 2934   2.397   0.209   5.192
  679SOL     OW 2935   4.673   2.337   3.358
  679SOL    HW1 2936   4.597   2.331   3.293
  679SOL    HW2 2937   4.679   2.253   3.410
  680SOL     OW 2938   5.492   5.337   5.462
  680SOL    HW1 2939   5.575   5.282   5.464
  680SOL    HW2 2940   5.468   5.365   5.555
  681SOL     OW 2941   4.994   4.781   1.652
  681SOL    HW1 2942   5.030   4.699   1.698
  681SOL    HW2 2943   5.070   4.842   1.631
  682SOL     OW 2944   6.359   1.107   1.367
  682SOL    HW1 2945   6.289   1.172   1.337
  682SOL    HW2 2946   6.340   1.017   1.328
  683SOL     OW 2947   5.057   3.118   0.411
  683SOL    HW1 2948   5.111   3.066   0.344
  683SOL    HW2 2949   4.960   3.111   0.388
  684SOL     OW 2950   6.602   0.947   0.472
  684SOL    HW1 2951   6.620   0.896   0.388
  684SOL    HW2 2952   6.673   0.927   0.539
  685SOL     OW 2953   4.466   1.475   3.631
  685SOL    HW1 2954   4.464   1.526   3.545
  685SOL    HW2 2955   4.539   1.511   3.690
  686SOL     OW 2956   5.128   2.545   3.791
  686SOL    HW1 2957   5.077   2.588   3.866
  686SOL    HW2 2958   5.161   2.455   3.820
  687SOL     OW 2959   0.229   2.391   4.823
  687SOL    HW1 2960   0.250   2.482   4.787
  687SOL    HW2 2961   0.137   2.365   4.796
  688SOL     OW 2962   0.101   1.600   0.292
  688SOL    HW1 2963   0.141   1.556   0.212
  688SOL    HW2 2964   0.004   1.615   0.277
  689SOL     OW 2965   0.953   5.005   6.304
  689SOL    HW1 2966   1.010   4.951   6.366
  689SOL    HW2 2967   0.867   4.958   6.288
  690SOL     OW 2968   0.514   3.657   2.751
  690SOL    HW1 2969   0.470   3.620   2.832
  690SOL    HW2 2970   0.498   3.756   2.747
  691SOL     OW 2971   2.733   0.721   0.550
  691SOL    HW1 2972   2.705   0.788   0.481
  691SOL    HW2 2973   2.800   0.659   0.510
  692SOL     OW 2974   3.780   0.811   3.759
  692SOL    HW1 2975   3.744   0.724   3.794
  692SOL    HW2 2976   3.844   0.849   3.826
  693SOL     OW 2977   5.656   0.613   4.225
  693SOL    HW1 2978   5.750   0.615   4.190
  693SOL    HW2 2979   5.592   0.623   4.149
  694SOL     OW 2980   4.613   6.536   3.854
  694SOL    HW1 2981   4.632   6.610   3.918
  694SOL    HW2 2982   4.648   6.560   3.763
  695SOL     OW 2983   4.904   6.557   4.092
  695SOL    HW1 2984   4.994   6.515   4.098
  695SOL    HW2 2985   4.835   6.495   4.131
  696SOL     OW 2986   4.770   4.822   3.189
  696SOL    HW1 2987   4.788   4.729   3.223
  696SOL    HW2 2988   4.837   4.844   3.118
  697SOL     OW 2989   1.294   3.953   3.406
  697SOL    HW1 2990   1.279   4.043   3.445
  697SOL    HW2 2991   1.236   3.886   3.451
  698SOL     OW 2992   4.605   6.473   1.024
  698SOL    HW1 2993   4.643   6.450   1.114
  698SOL    HW2 2994   4.550   6.397   0.990
  699SOL     OW 2995   2.071   3.895   6.765
  699SOL    HW1 2996   2.089   3.928   6.858
  699SOL    HW2 2997   2.013   3.961   6.717
  700SOL     OW 2998   2.543   0.903   1.958
  700SOL    HW1 2999   2.640   0.885   1.971
  700SOL    HW2 3000   2.531   0.972   1.887
  701SOL     OW 3001   6.628   3.708   6.555
  701SOL    HW1 3002   6.723   3.709   6.523
  701SOL    HW2 3003   6.570   3.665   6.485
  702SOL     OW 3004   1.576   6.384   4.963
  702SOL    HW1 3005   1.615   6.473   4.985
  702SOL    HW2 3006   1.508   6.360   5.032
  703SOL     OW 3007   3.537   3.275   6.602
  703SOL    HW1 3008   3.481   3.317   6.530
  703SOL    HW2 3009   3.492   3.286   6.690
  704SOL     OW 3010   1.520   2.699   0.180
  704SOL    HW1 3011   1.533   2.754   0.098
  704SOL    HW2 3012   1.427   2.714   0.215
  705SOL     OW 3013   6.028   4.938   2.983
  705SOL    HW1 3014   6.100   5.003   2.960
  705SOL    HW2 3015   5.945   4.987   3.007
  706SOL     OW 3016   4.435   2.393   5.321
  706SOL    HW1 3017   4.495   2.435   5.253
  706SOL    HW2 3018   4.487   2.375   5.405
  707SOL     OW 3019   4.257   4.659   3.174
  707SOL    HW1 3020   4.322   4.619   3.109
  707SOL    HW2 3021   4.286   4.638   3.267
  708SOL     OW 3022   3.548   0.420   2.358
  708SOL    HW1 3023   3.538   0.396   2.455
  708SOL    HW2 3024   3.620   0.364   2.317
  709SOL     OW 3025   0.439   5.750   0.812
  709SOL    HW1 3026   0.397   5.820   0.870
  709SOL    HW2 3027   0.474   5.793   0.729
  710SOL     OW 3028   3.377   2.723   1.394
  710SOL    HW1 3029   3.381   2.655   1.322
  710SOL    HW2 3030   3.334   2.684   1.475
  711SOL     OW 3031   0.137   3.151   5.879
  711SOL    HW1 3032   0.129   3.054   5.905
  711SOL    HW2 3033   0.142   3.207   5.962
  712SOL     OW 3034   4.008   2.022   1.095
  712SOL    HW1 3035   4.099   1.991   1.125
  712SOL    HW2 3036   3.964   2.072   1.169
  713SOL     OW 3037   3.950   2.786   6.149
  713SOL    HW1 3038   3.866   2.830   6.117
  713SOL    HW2 3039   3.941   2.687   6.138
  714SOL     OW 3040   0.423   4.373   3.407
  714SOL    HW1 3041   0.346   4.426   3.373
  714SOL    HW2 3042   0.452   4.307   3.337
  715SOL     OW 3043   5.028   6.139   6.861
  715SOL    HW1 3044   4.978   6.110   6.943
  715SOL    HW2 3045   5.062   6.059   6.812
  716SOL     OW 3046   0.425   0.951   2.257
  716SOL    HW1 3047   0.449   0.953   2.160
  716SOL    HW2 3048   0.361   1.025   2.278
  717SOL     OW 3049   6.696   4.177   3.676
  717SOL    HW1 3050   6.644   4.190   3.761
  717SOL    HW2 3051   6.754   4.257   3.660
  718SOL     OW 3052   4.175   3.389   5.885
  718SOL    HW1 3053   4.242   3.316   5.867
  718SOL    HW2 3054   4.196   3.468   5.827
  719SOL     OW 3055   6.831   0.537   2.843
  719SOL    HW1 3056   6.889   0.476   2.788
  719SOL    HW2 3057   6.888   0.588   2.907
  720SOL     OW 3058   2.310   0.316   5.967
  720SOL    HW1 3059   2.288   0.283   5.875
  720SOL    HW2 3060   2.344   0.240   6.023
  721SOL     OW 3061   2.783   1.944   2.555
  721SOL    HW1 3062   2.702   1.967   2.502
  721SOL    HW2 3063   2.831   1.868   2.512
  722SOL     OW 3064   2.607   0.503   5.202
  722SOL    HW1 3065   2.584   0.406   5.195
  722SOL    HW2 3066   2.633   0.539   5.113
  723SOL     OW 3067   1.314   4.691   3.633
  723SOL    HW1 3068   1.310   4.633   3.552
  723SOL    HW2 3069   1.361   4.642   3.707
  724SOL     OW 3070   1.189   1.925   4.158
  724SOL    HW1 3071   1.172   2.024   4.160
  724SOL    HW2 3072   1.125   1.879   4.218
  725SOL     OW 3073   2.010   5.446   2.139
  725SOL    HW1 3074   1.942   5.374   2.155
  725SOL    HW2 3075   1.983   5.500   2.059
  726SOL     OW 3076   3.599   4.345   1.405
  726SOL    HW1 3077   3.657   4.318   1.328
  726SOL    HW2 3078   3.612   4.442   1.424
  727SOL     OW 3079   6.541   4.333   5.621
  727SOL    HW1 3080   6.576   4.306   5.710
  727SOL    HW2 3081   6.609   4.388   5.573
  728SOL     OW 3082   6.269   2.854   3.367
  728SOL    HW1 3083   6.231   2.814   3.283
  728SOL    HW2 3084   6.196   2.892   3.422
  729SOL     OW 3085   0.412   1.760   1.344
  729SOL    HW1 3086   0.472   1.831   1.379
  729SOL    HW2 3087   0.322   1.767   1.387
  730SOL     OW 3088   6.545   0.016   4.415
  730SOL    HW1 3089   6.450   7.010   4.410
  730SOL    HW2 3090   6.582   0.027   4.323
  731SOL     OW 3091   4.707   5.178   6.648
  731SOL    HW1 3092   4.737   5.214   6.736
  731SOL    HW2 3093   4.608   5.192   6.638
  732SOL     OW 3094   5.233   2.530   1.531
  732SOL    HW1 3095   5.272   2.609   1.485
  732SOL    HW2 3096   5.146   2.556   1.574
  733SOL     OW 3097   5.289   0.462   4.376
  733SOL    HW1 3098   5.236   0.417   4.448
  733SOL    HW2 3099   5.278   0.561   4.383
  734SOL     OW 3100   6.033   4.536   2.889
  734SOL    HW1 3101   6.034   4.632   2.860
  734SOL    HW2 3102   6.073   4.528   2.981
  735SOL     OW 3103   3.866   1.607   0.265
  735SOL    HW1 3104   3.868   1.656   0.351
  735SOL    HW2 3105   3.806   1.655   0.200
  736SOL     OW 3106   0.214   2.180   3.663
  736SOL    HW1 3107   0.290   2.225   3.710
  736SOL    HW2 3108   0.247   2.098   3.617
  737SOL     OW 3109   5.469   1.990   5.301
  737SOL    HW1 3110   5.405   1.967   5.228
  737SOL    HW2 3111   5.422   2.045   5.370
  738SOL     OW 3112   2.534   3.905   1.242
  738SOL    HW1 3113   2.511   3.959   1.161
  738SOL    HW2 3114   2.604   3.838   1.219
  739SOL     OW 3115   5.352   0.891   4.770
  739SOL    HW1 3116   5.272   0.846   4.811
  739SOL    HW2 3117   5.325   0.938   4.686
  740SOL     OW 3118   6.026   1.346   1.582
  740SOL    HW1 3119   6.018   1.388   1.491
  740SOL    HW2 3120   6.100   1.278   1.581
  741SOL     OW 3121   2.026   0.085   3.188
  741SOL    HW1 3122   2.035   0.115   3.283
  741SOL    HW2 3123   2.105   0.117   3.136
  742SOL     OW 3124   2.345   6.608   2.049
  742SOL    HW1 3125   2.378   6.679   2.111
  742SOL    HW2 3126   2.250   6.586   2.072
  743SOL     OW 3127   1.039   5.286   3.607
  743SOL    HW1 3128   1.018   5.366   3.663
  743SOL    HW2 3129   0.962   5.267   3.546
  744SOL     OW 3130   5.649   0.398   1.235
  744SOL    HW1 3131   5.685   0.336   1.166
  744SOL    HW2 3132   5.722   0.458   1.267
  745SOL     OW 3133   1.703   5.400   5.058
  745SOL    HW1 3134   1.689   5.457   4.977
  745SOL    HW2 3135   1.761   5.448   5.123
  746SOL     OW 3136   6.248   4.455   6.356
  746SOL    HW1 3137   6.231   4.553   6.351
  746SOL    HW2 3138   6.324   4.437   6.418
  747SOL     OW 3139   3.663   6.868   4.379
  747SOL    HW1 3140   3.719   6.906   4.305
  747SOL    HW2 3141   3.662   6.769   4.373
  748SOL     OW 3142   3.966   5.181   2.405
  748SOL    HW1 3143   3.919   5.117   2.344
  748SOL    HW2 3144   4.003   5.131   2.483
  749SOL     OW 3145   6.061   3.446   3.975
  749SOL    HW1 3146   5.972   3.490   3.987
  749SOL    HW2 3147   6.052   3.367   3.914
  750SOL     OW 3148   2.499   1.250   1.344
  750SOL    HW1 3149   2.400   1.239   1.351
  750SOL    HW2 3150   2.545   1.164   1.366
  751SOL     OW 3151   4.644   1.634   6.762
  751SOL    HW1 3152   4.616   1.728   6.744
  751SOL    HW2 3153   4.569   1.572   6.740
  752SOL     OW 3154   3.004   1.754   1.265
  752SOL    HW1 3155   2.956   1.808   1.334
  752SOL    HW2 3156   2.969   1.779   1.174
  753SOL     OW 3157   1.058   3.735   6.186
  753SOL    HW1 3158   0.992   3.694   6.249
  753SOL    HW2 3159   1.146   3.745   6.232
  754SOL     OW 3160   4.708   2.151   5.771
  754SOL    HW1 3161   4.717   2.056   5.801
  754SOL    HW2 3162   4.647   2.200   5.833
  755SOL     OW 3163   1.600   4.451   4.730
  755SOL    HW1 3164   1.552   4.382   4.675
  755SOL    HW2 3165   1.698   4.444   4.712
  756SOL     OW 3166   2.907   6.248   6.447
  756SOL    HW1 3167   2.972   6.318   6.478
  756SOL    HW2 3168   2.926   6.162   6.494
  757SOL     OW 3169   0.337   0.089   3.901
  757SOL    HW1 3170   0.403   0.073   3.975
  757SOL    HW2 3171   0.245   0.065   3.932
  758SOL     OW 3172   3.963   0.583   3.227
  758SOL    HW1 3173   4.029   0.603   3.300
  758SOL    HW2 3174   3.890   0.652   3.227
  759SOL     OW 3175   0.687   2.735   1.915
  759SOL    HW1 3176   0.671   2.650   1.864
  759SOL    HW2 3177   0.603   2.762   1.961
  760SOL     OW 3178   6.651   6.640   4.088
  760SOL    HW1 3179   6.572   6.696   4.065
  760SOL    HW2 3180   6.734   6.682   4.051
  761SOL     OW 3181   5.628   3.773   6.190
  761SOL    HW1 3182   5.702   3.731   6.242
  761SOL    HW2 3183   5.546   3.778   6.248
  762SOL     OW 3184   2.573   0.217   4.948
  762SOL    HW1 3185   2.509   0.205   5.023
  762SOL    HW2 3186   2.533   0.279   4.880
  763SOL     OW 3187   3.558   5.725   6.381
  763SOL    HW1 3188   3.593   5.654   6.319
  763SOL    HW2 3189   3.560   5.813   6.335
  764SOL     OW 3190   5.671   0.751   5.610
  764SOL    HW1 3191   5.607   0.776   5.537
  764SOL    HW2 3192   5.629   0.682   5.669
  765SOL     OW 3193   1.524   5.661   1.269
  765SOL    HW1 3194   1.497   5.755   1.293
  765SOL    HW2 3195   1.607   5.664   1.214
  766SOL     OW 3196   2.579   1.983   6.045
  766SOL    HW1 3197   2.610   2.011   5.954
  766SOL    HW2 3198   2.557   1.885   6.043
  767SOL     OW 3199   6.504   5.954   3.488
  767SOL    HW1 3200   6.478   6.008   3.568
  767SOL    HW2 3201   6.564   6.008   3.429
  768SOL     OW 3202   2.252   5.268   2.899
  768SOL    HW1 3203   2.160   5.299   2.875
  768SOL    HW2 3204   2.312   5.282   2.820
  769SOL     OW 3205   2.450   1.068   5.430
  769SOL    HW1 3206   2.513   1.121   5.486
  769SOL    HW2 3207   2.500   1.024   5.355
  770SOL     OW 3208   1.831   5.222   3.617
  770SOL    HW1 3209   1.760   5.153   3.603
  770SOL    HW2 3210   1.832   5.250   3.713
  771SOL     OW 3211   1.312   5.150   2.801
  771SOL    HW1 3212   1.282   5.120   2.892
  771SOL    HW2 3213   1.277   5.242   2.784
  772SOL     OW 3214   5.731   4.866   6.090
  772SOL    HW1 3215   5.675   4.895   6.167
  772SOL    HW2 3216   5.687   4.893   6.004
  773SOL     OW 3217   0.068   4.198   3.702
  773SOL    HW1 3218   0.084   4.255   3.622
  773SOL    HW2 3219   0.155   4.174   3.745
  774SOL     OW 3220   1.741   1.050   1.402
  774SOL    HW1 3221   1.779   1.057   1.495
  774SOL    HW2 3222   1.652   1.005   1.406
  775SOL     OW 3223   2.452   2.245   4.196
  775SOL    HW1 3224   2.438   2.231   4.294
  775SOL    HW2 3225   2.502   2.167   4.159
  776SOL     OW 3226   0.243   0.225   5.224
  776SOL    HW1 3227   0.340   0.243   5.210
  776SOL    HW2 3228   0.228   0.126   5.225
  777SOL     OW 3229   1.643   4.852   1.095
  777SOL    HW1 3230   1.677   4.865   1.188
  777SOL    HW2 3231   1.652   4.756   1.069
  778SOL     OW 3232   2.301   0.457   1.733
  778SOL    HW1 3233   2.343   0.440   1.645
  778SOL    HW2 3234   2.360   0.516   1.788
  779SOL     OW 3235   6.822   2.563   2.628
  779SOL    HW1 3236   6.881   2.630   2.674
  779SOL    HW2 3237   6.736   2.607   2.603
  780SOL     OW 3238   0.835   2.647   4.344
  780SOL    HW1 3239   0.883   2.596   4.273
  780SOL    HW2 3240   0.805   2.735   4.308
  781SOL     OW 3241   6.177   6.821   0.555
  781SOL    HW1 3242   6.103   6.888   0.569
  781SOL    HW2 3243   6.151   6.759   0.481
  782SOL     OW 3244   1.081   3.419   5.918
  782SOL    HW1 3245   1.077   3.349   5.989
  782SOL    HW2 3246   1.152   3.395   5.852
  783SOL     OW 3247   5.148   4.810   1.929
  783SOL    HW1 3248   5.199   4.883   1.883
  783SOL    HW2 3249   5.190   4.722   1.906
  784SOL     OW 3250   4.190   5.075   0.495
  784SOL    HW1 3251   4.176   4.976   0.493
  784SOL    HW2 3252   4.270   5.099   0.440
  785SOL     OW 3253   0.310   2.082   3.334
  785SOL    HW1 3254   0.305   2.021   3.254
  785SOL    HW2 3255   0.253   2.162   3.318
  786SOL     OW 3256   0.766   6.856   3.251
  786SOL    HW1 3257   0.803   6.948   3.236
  786SOL    HW2 3258   0.703   6.859   3.329
  787SOL     OW 3259   1.340   0.526   7.023
  787SOL    HW1 3260   1.390   0.484   0.075
  787SOL    HW2 3261   1.390   0.512   6.938
  788SOL     OW 3262   3.690   1.246   0.618
  788SOL    HW1 3263   3.675   1.339   0.584
  788SOL    HW2 3264   3.666   1.180   0.547
  789SOL     OW 3265   4.148   4.394   1.650
  789SOL    HW1 3266   4.080   4.467   1.648
  789SOL    HW2 3267   4.216   4.413   1.720
  790SOL     OW 3268   1.579   1.636   2.906
  790SOL    HW1 3269   1.630   1.632   2.993
  790SOL    HW2 3270   1.550   1.544   2.880
  791SOL     OW 3271   1.566   6.042   5.008
  791SOL    HW1 3272   1.666   6.049   4.999
  791SOL    HW2 3273   1.523   6.074   4.923
  792SOL     OW 3274   0.718   0.680   1.683
  792SOL    HW1 3275   0.695   0.583   1.687
  792SOL    HW2 3276   0.653   0.728   1.624
  793SOL     OW 3277   5.167   5.445   4.376
  793SOL    HW1 3278   5.096   5.471   4.441
  793SOL    HW2 3279   5.255   5.439   4.423
  794SOL     OW 3280   2.717   4.018   5.931
  794SOL    HW1 3281   2.629   3.971   5.937
  794SOL    HW2 3282   2.783   3.958   5.886
  795SOL     OW 3283   4.178   0.123   4.875
  795SOL    HW1 3284   4.200   0.125   4.777
  795SOL    HW2 3285   4.156   0.215   4.906
  796SOL     OW 3286   1.190   2.213   6.494
  796SOL    HW1 3287   1.173   2.228   6.396
  796SOL    HW2 3288   1.255   2.281   6.527
  797SOL     OW 3289   5.115   0.816   1.139
  797SOL    HW1 3290   5.033   0.809   1.082
  797SOL    HW2 3291   5.119   0.906   1.182
  798SOL     OW 3292   3.640   6.492   1.995
  798SOL    HW1 3293   3.659   6.543   1.912
  798SOL    HW2 3294   3.548   6.515   2.028
  799SOL     OW 3295   0.030   6.922   6.156
  799SOL    HW1 3296   0.071   6.994   6.100
  799SOL    HW2 3297   0.062   6.931   6.250
  800SOL     OW 3298   5.703   1.271   2.404
  800SOL    HW1 3299   5.609   1.265   2.368
  800SOL    HW2 3300   5.746   1.181   2.400
  801SOL     OW 3301   2.467   4.467   4.460
  801SOL    HW1 3302   2.538   4.396   4.453
  801SOL    HW2 3303   2.510   4.557   4.456
  802SOL     OW 3304   2.869   1.803   0.981
  802SOL    HW1 3305   2.822   1.722   0.946
  802SOL    HW2 3306   2.957   1.813   0.935
  803SOL     OW 3307   1.512   0.406   5.835
  803SOL    HW1 3308   1.454   0.327   5.817
  803SOL    HW2 3309   1.459   0.476   5.882
  804SOL     OW 3310   5.882   6.687   0.865
  804SOL    HW1 3311   5.839   6.769   0.827
  804SOL    HW2 3312   5.975   6.710   0.896
  805SOL     OW 3313   2.709   0.946   4.403
  805SOL    HW1 3314   2.719   0.986   4.494
  805SOL    HW2 3315   2.612   0.944   4.378
  806SOL     OW 3316   5.322   1.047   4.988
  806SOL    HW1 3317   5.332   1.147   4.981
  806SOL    HW2 3318   5.327   1.007   4.897
  807SOL     OW 3319   0.427   0.567   5.045
  807SOL    HW1 3320   0.503   0.569   5.109
  807SOL    HW2 3321   0.358   0.501   5.076
  808SOL     OW 3322   3.868   4.395   6.489
  808SOL    HW1 3323   3.769   4.391   6.476
  808SOL    HW2 3324   3.892   4.355   6.577
  809SOL     OW 3325   0.812   4.978   0.856
  809SOL    HW1 3326   0.864   4.992   0.772
  809SOL    HW2 3327   0.770   5.065   0.884
  810SOL     OW 3328   3.649   4.203   0.413
  810SOL    HW1 3329   3.744   4.173   0.411
  810SOL    HW2 3330   3.613   4.207   0.319
  811SOL     OW 3331   5.344   6.163   5.459
  811SOL    HW1 3332   5.364   6.254   5.425
  811SOL    HW2 3333   5.246   6.155   5.480
  812SOL     OW 3334   6.941   0.737   3.041
  812SOL    HW1 3335   6.974   0.757   3.133
  812SOL    HW2 3336   6.953   0.818   2.983
  813SOL     OW 3337   3.846   6.655   4.190
  813SOL    HW1 3338   3.889   6.746   4.194
  813SOL    HW2 3339   3.811   6.632   4.281
  814SOL     OW 3340   6.267   6.070   2.807
  814SOL    HW1 3341   6.282   6.131   2.729
  814SOL    HW2 3342   6.174   6.032   2.802
  815SOL     OW 3343   6.664   3.387   3.451
  815SOL    HW1 3344   6.579   3.353   3.491
  815SOL    HW2 3345   6.660   3.378   3.351
  816SOL     OW 3346   5.932   5.658   0.669
  816SOL    HW1 3347   6.024   5.622   0.650
  816SOL    HW2 3348   5.865   5.584   0.658
  817SOL     OW 3349   1.303   5.718   1.446
  817SOL    HW1 3350   1.383   5.778   1.457
  817SOL    HW2 3351   1.327   5.641   1.387
  818SOL     OW 3352   6.102   2.542   3.425
  818SOL    HW1 3353   6.086   2.584   3.514
  818SOL    HW2 3354   6.123   2.445   3.438
  819SOL     OW 3355   5.978   3.015   1.548
  819SOL    HW1 3356   6.019   3.015   1.639
  819SOL    HW2 3357   5.884   2.981   1.553
  820SOL     OW 3358   3.175   2.081   4.854
  820SOL    HW1 3359   3.174   2.151   4.924
  820SOL    HW2 3360   3.136   2.117   4.769
  821SOL     OW 3361   6.559   3.951   7.020
  821SOL    HW1 3362   6.610   4.024   0.042
  821SOL    HW2 3363   6.517   3.987   6.936
  822SOL     OW 3364   0.464   3.552   3.297
  822SOL    HW1 3365   0.365   3.564   3.311
  822SOL    HW2 3366   0.510   3.550   3.385
  823SOL     OW 3367   6.262   4.388   6.054
  823SOL    HW1 3368   6.164   4.368   6.054
  823SOL    HW2 3369   6.296   4.383   6.148
  824SOL     OW 3370   3.954   0.747   5.861
  824SOL    HW1 3371   4.011   0.800   5.923
  824SOL    HW2 3372   3.941   0.655   5.898
  825SOL     OW 3373   6.927   5.734   1.518
  825SOL    HW1 3374   6.942   5.663   1.448
  825SOL    HW2 3375   6.869   5.806   1.480
  826SOL     OW 3376   3.963   1.992   5.869
  826SOL    HW1 3377   3.875   1.980   5.913
  826SOL    HW2 3378   3.955   2.060   5.796
  827SOL     OW 3379   2.550   4.462   5.311
  827SOL    HW1 3380   2.555   4.522   5.231
  827SOL    HW2 3381   2.467   4.407   5.306
  828SOL     OW 3382   5.221   6.350   6.221
  828SOL    HW1 3383   5.261   6.301   6.143
  828SOL    HW2 3384   5.178   6.434   6.189
  829SOL     OW 3385   4.143   3.560   2.253
  829SOL    HW1 3386   4.065   3.607   2.295
  829SOL    HW2 3387   4.220   3.558   2.317
  830SOL     OW 3388   5.339   5.188   6.845
  830SOL    HW1 3389   5.358   5.208   6.941
  830SOL    HW2 3390   5.414   5.222   6.789
  831SOL     OW 3391   6.056   6.789   0.017
  831SOL    HW1 3392   6.100   6.704   7.013
  831SOL    HW2 3393   6.035   6.844   6.959
  832SOL     OW 3394   4.145   1.376   2.702
  832SOL    HW1 3395   4.055   1.410   2.677
  832SOL    HW2 3396   4.144   1.276   2.701
  833SOL     OW 3397   1.513   3.408   6.449
  833SOL    HW1 3398   1.554   3.436   6.535
  833SOL    HW2 3399   1.487   3.311   6.454
  834SOL     OW 3400   4.573   3.944   1.031
  834SOL    HW1 3401   4.493   3.983   0.986
  834SOL    HW2 3402   4.544   3.868   1.090
  835SOL     OW 3403   3.429   0.572   5.689
  835SOL    HW1 3404   3.483   0.648   5.653
  835SOL    HW2 3405   3.490   0.496   5.714
  836SOL     OW 3406   3.906   0.032   4.776
  836SOL    HW1 3407   3.880   0.095   4.703
  836SOL    HW2 3408   3.986   0.067   4.824
  837SOL     OW 3409   6.695   0.367   0.984
  837SOL    HW1 3410   6.704   0.451   0.930
  837SOL    HW2 3411   6.743   0.292   0.937
  838SOL     OW 3412   2.436   0.482   4.550
  838SOL    HW1 3413   2.387   0.396   4.533
  838SOL    HW2 3414   2.509   0.493   4.482
  839SOL     OW 3415   1.844   1.457   1.896
  839SOL    HW1 3416   1.854   1.369   1.850
  839SOL    HW2 3417   1.794   1.445   1.982
  840SOL     OW 3418   6.028   6.025   6.798
  840SOL    HW1 3419   6.048   5.927   6.806
  840SOL    HW2 3420   6.102   6.078   6.839
  841SOL     OW 3421   3.272   5.197   5.989
  841SOL    HW1 3422   3.363   5.157   6.002
  841SOL    HW2 3423   3.250   5.255   6.068
  842SOL     OW 3424   3.503   0.272   5.352
  842SOL    HW1 3425   3.467   0.270   5.259
  842SOL    HW2 3426   3.437   0.229   5.414
  843SOL     OW 3427   0.920   1.465   1.631
  843SOL    HW1 3428   0.966   1.550   1.607
  843SOL    HW2 3429   0.989   1.394   1.650
  844SOL     OW 3430   6.240   7.016   7.015
  844SOL    HW1 3431   6.212   6.920   0.004
  844SOL    HW2 3432   6.228   0.018   6.920
  845SOL     OW 3433   4.864   3.763   3.677
  845SOL    HW1 3434   4.795   3.691   3.668
  845SOL    HW2 3435   4.892   3.771   3.772
  846SOL     OW 3436   2.235   1.112   5.827
  846SOL    HW1 3437   2.302   1.079   5.893
  846SOL    HW2 3438   2.208   1.037   5.766
  847SOL     OW 3439   1.557   3.592   1.082
  847SOL    HW1 3440   1.560   3.640   0.995
  847SOL    HW2 3441   1.596   3.650   1.153
  848SOL     OW 3442   6.891   6.767   6.017
  848SOL    HW1 3443   6.929   6.676   6.035
  848SOL    HW2 3444   6.942   6.835   6.069
  849SOL     OW 3445   6.461   4.068   6.804
  849SOL    HW1 3446   6.395   4.118   6.859
  849SOL    HW2 3447   6.426   4.057   6.711
  850SOL     OW 3448   5.041   1.174   4.681
  850SOL    HW1 3449   5.067   1.228   4.760
  850SOL    HW2 3450   4.960   1.214   4.638
  851SOL     OW 3451   0.088   2.675   1.120
  851SOL    HW1 3452   0.034   2.759   1.118
  851SOL    HW2 3453   0.049   2.609   1.055
  852SOL     OW 3454   1.014   3.955   0.689
  852SOL    HW1 3455   0.984   3.874   0.739
  852SOL    HW2 3456   0.999   3.940   0.591
  853SOL     OW 3457   0.738   4.800   1.089
  853SOL    HW1 3458   0.798   4.848   1.152
  853SOL    HW2 3459   0.749   4.837   0.996
  854SOL     OW 3460   4.866   5.262   0.664
  854SOL    HW1 3461   4.828   5.193   0.603
  854SOL    HW2 3462   4.960   5.236   0.689
  855SOL     OW 3463   6.831   0.336   1.555
  855SOL    HW1 3464   6.743   0.383   1.567
  855SOL    HW2 3465   6.816   0.251   1.505
  856SOL     OW 3466   1.108   2.008   0.004
  856SOL    HW1 3467   1.038   2.079   0.009
  856SOL    HW2 3468   1.131   1.990   6.932
  857SOL     OW 3469   6.213   4.900   1.914
  857SOL    HW1 3470   6.153   4.931   1.841
  857SOL    HW2 3471   6.203   4.960   1.993
  858SOL     OW 3472   2.822   3.949   1.139
  858SOL    HW1 3473   2.786   3.942   1.046
  858SOL    HW2 3474   2.791   3.870   1.192
  859SOL     OW 3475   5.833   0.050   4.995
  859SOL    HW1 3476   5.801   0.041   4.901
  859SOL    HW2 3477   5.762   0.019   5.058
  860SOL     OW 3478   6.446   2.737   0.497
  860SOL    HW1 3479   6.359   2.743   0.547
  860SOL    HW2 3480   6.433   2.681   0.415
  861SOL     OW 3481   2.516   5.205   4.109
  861SOL    HW1 3482   2.598   5.148   4.097
  861SOL    HW2 3483   2.492   5.208   4.206
  862SOL     OW 3484   1.281   4.214   3.509
  862SOL    HW1 3485   1.297   4.205   3.607
  862SOL    HW2 3486   1.185   4.235   3.492
  863SOL     OW 3487   6.138   0.874   6.749
  863SOL    HW1 3488   6.060   0.933   6.725
  863SOL    HW2 3489   6.117   0.780   6.723
  864SOL     OW 3490   3.958   5.510   3.996
  864SOL    HW1 3491   3.973   5.452   3.916
  864SOL    HW2 3492   3.871   5.558   3.987
  865SOL     OW 3493   1.526   6.975   6.058
  865SOL    HW1 3494   1.517   7.003   6.154
  865SOL    HW2 3495   1.624   6.967   6.036
  866SOL     OW 3496   2.173   1.143   1.153
  866SOL    HW1 3497   2.207   1.182   1.068
  866SOL    HW2 3498   2.158   1.045   1.141
  867SOL     OW 3499   5.275   3.786   0.278
  867SOL    HW1 3500   5.284   3.796   0.179
  867SOL    HW2 3501   5.357   3.820   0.323
  868SOL     OW 3502   6.303   1.261   0.828
  868SOL    HW1 3503   6.272   1.167   0.815
  868SOL    HW2 3504   6.295   1.286   0.924
  869SOL     OW 3505   0.486   4.581   2.915
  869SOL    HW1 3506   0.457   4.584   2.820
  869SOL    HW2 3507   0.559   4.648   2.930
  870SOL     OW 3508   3.779   3.526   0.127
  870SOL    HW1 3509   3.818   3.575   0.049
  870SOL    HW2 3510   3.845   3.523   0.202
  871SOL     OW 3511   4.897   2.457   2.766
  871SOL    HW1 3512   4.896   2.501   2.856
  871SOL    HW2 3513   4.822   2.390   2.762
  872SOL     OW 3514   5.738   3.353   3.902
  872SOL    HW1 3515   5.712   3.264   3.939
  872SOL    HW2 3516   5.768   3.342   3.807
  873SOL     OW 3517   5.767   6.451   5.495
  873SOL    HW1 3518   5.757   6.550   5.491
  873SOL    HW2 3519   5.685   6.410   5.534
  874SOL     OW 3520   0.188   3.699   6.291
  874SOL    HW1 3521   0.107   3.648   6.318
  874SOL    HW2 3522   0.231   3.739   6.373
  875SOL     OW 3523   5.242   4.560   0.458
  875SOL    HW1 3524   5.240   4.463   0.484
  875SOL    HW2 3525   5.171   4.610   0.507
  876SOL     OW 3526   1.054   4.856   2.363
  876SOL    HW1 3527   1.014   4.938   2.404
  876SOL    HW2 3528   1.113   4.882   2.287
  877SOL     OW 3529   3.626   4.663   5.792
  877SOL    HW1 3530   3.662   4.635   5.881
  877SOL    HW2 3531   3.680   4.620   5.719
  878SOL     OW 3532   4.042   6.027   4.772
  878SOL    HW1 3533   3.995   5.967   4.706
  878SOL    HW2 3534   4.141   6.017   4.761
  879SOL     OW 3535   4.274   1.583   1.270
  879SOL    HW1 3536   4.283   1.647   1.194
  879SOL    HW2 3537   4.186   1.599   1.316
  880SOL     OW 3538   2.872   3.865   4.966
  880SOL    HW1 3539   2.924   3.817   4.896
  880SOL    HW2 3540   2.784   3.893   4.929
  881SOL     OW 3541   5.992   3.606   5.834
  881SOL    HW1 3542   6.081   3.575   5.802
  881SOL    HW2 3543   5.938   3.639   5.756
  882SOL     OW 3544   1.212   2.446   4.228
  882SOL    HW1 3545   1.200   2.502   4.310
  882SOL    HW2 3546   1.268   2.496   4.162
  883SOL     OW 3547   3.564   0.589   0.499
  883SOL    HW1 3548   3.552   0.493   0.472
  883SOL    HW2 3549   3.637   0.629   0.443
  884SOL     OW 3550   6.863   4.633   0.024
  884SOL    HW1 3551   6.960   4.632   0.048
  884SOL    HW2 3552   6.845   4.708   6.984
  885SOL     OW 3553   4.420   6.699   5.273
  885SOL    HW1 3554   4.470   6.656   5.198
  885SOL    HW2 3555   4.329   6.657   5.282
  886SOL     OW 3556   4.351   0.441   0.685
  886SOL    HW1 3557   4.333   0.533   0.719
  886SOL    HW2 3558   4.341   0.374   0.759
  887SOL     OW 3559   3.832   5.854   3.766
  887SOL    HW1 3560   3.818   5.758   3.744
  887SOL    HW2 3561   3.835   5.865   3.865
  888SOL     OW 3562   6.693   6.234   3.506
  888SOL    HW1 3563   6.793   6.230   3.504
  888SOL    HW2 3564   6.658   6.215   3.415
  889SOL     OW 3565   6.921   1.225   6.400
  889SOL    HW1 3566   6.946   1.293   6.468
  889SOL    HW2 3567   6.922   1.267   6.309
  890SOL     OW 3568   3.111   5.053   2.895
  890SOL    HW1 3569   3.138   5.050   2.991
  890SOL    HW2 3570   3.027   5.000   2.883
  891SOL     OW 3571   6.442   3.481   0.712
  891SOL    HW1 3572   6.512   3.476   0.783
  891SOL    HW2 3573   6.468   3.550   0.644
  892SOL     OW 3574   3.619   3.085   5.080
  892SOL    HW1 3575   3.578   3.045   5.162
  892SOL    HW2 3576   3.547   3.100   5.012
  893SOL     OW 3577   2.077   6.622   2.597
  893SOL    HW1 3578   2.051   6.715   2.571
  893SOL    HW2 3579   2.001   6.560   2.579
  894SOL     OW 3580   1.239   2.796   2.824
  894SOL    HW1 3581   1.230   2.884   2.777
  894SOL    HW2 3582   1.163   2.785   2.889
  895SOL     OW 3583   1.308   5.316   4.250
  895SOL    HW1 3584   1.306   5.239   4.185
  895SOL    HW2 3585   1.337   5.399   4.203
  896SOL     OW 3586   6.060   5.076   1.396
  896SOL    HW1 3587   5.985   5.142   1.396
  896SOL    HW2 3588   6.023   4.983   1.392
  897SOL     OW 3589   4.015   0.421   6.693
  897SOL    HW1 3590   3.993   0.490   6.624
  897SOL    HW2 3591   3.966   0.337   6.672
  898SOL     OW 3592   4.113   6.223   2.456
  898SOL    HW1 3593   4.139   6.128   2.471
  898SOL    HW2 3594   4.054   6.229   2.376
  899SOL     OW 3595   0.344   6.043   0.263
  899SOL    HW1 3596   0.304   6.018   0.351
  899SOL    HW2 3597   0.333   5.967   0.199
  900SOL     OW 3598   4.756   6.405   6.491
  900SOL    HW1 3599   4.814   6.379   6.568
  900SOL    HW2 3600   4.801   6.381   6.405
  901SOL     OW 3601   1.010   0.967   4.034
  901SOL    HW1 3602   0.990   1.060   4.003
  901SOL    HW2 3603   1.094   0.967   4.088
  902SOL     OW 3604   1.165   3.118   1.107
  902SOL    HW1 3605   1.163   3.018   1.111
  902SOL    HW2 3606   1.155   3.155   1.200
  903SOL     OW 3607   0.427   3.556   0.114
  903SOL    HW1 3608   0.437   3.479   0.052
  903SOL    HW2 3609   0.331   3.584   0.117
  904SOL     OW 3610   2.187   3.004   2.682
  904SOL    HW1 3611   2.233   2.921   2.711
  904SOL    HW2 3612   2.211   3.025   2.587
  905SOL     OW 3613   4.940   4.421   6.189
  905SOL    HW1 3614   4.958   4.391   6.095
  905SOL    HW2 3615   5.024   4.411   6.243
  906SOL     OW 3616   0.609   2.293   6.654
  906SOL    HW1 3617   0.611   2.348   6.737
  906SOL    HW2 3618   0.514   2.275   6.629
  907SOL     OW 3619   5.044   2.390   1.222
  907SOL    HW1 3620   5.057   2.302   1.269
  907SOL    HW2 3621   4.990   2.376   1.139
  908SOL     OW 3622   2.318   4.738   3.172
  908SOL    HW1 3623   2.228   4.694   3.180
  908SOL    HW2 3624   2.359   4.747   3.263
  909SOL     OW 3625   4.106   5.756   1.853
  909SOL    HW1 3626   4.165   5.836   1.857
  909SOL    HW2 3627   4.010   5.785   1.854
  910SOL     OW 3628   3.376   1.216   1.152
  910SOL    HW1 3629   3.426   1.182   1.073
  910SOL    HW2 3630   3.291   1.260   1.123
  911SOL     OW 3631   0.848   5.982   6.470
  911SOL    HW1 3632   0.900   5.949   6.549
  911SOL    HW2 3633   0.832   6.080   6.479
  912SOL     OW 3634   5.150   0.980   3.321
  912SOL    HW1 3635   5.136   0.883   3.342
  912SOL    HW2 3636   5.187   1.026   3.401
  913SOL     OW 3637   2.611   0.908   3.863
  913SOL    HW1 3638   2.555   0.827   3.848
  913SOL    HW2 3639   2.661   0.898   3.949
  914SOL     OW 3640   2.806   6.519   5.102
  914SOL    HW1 3641   2.815   6.425   5.133
  914SOL    HW2 3642   2.772   6.520   5.008
  915SOL     OW 3643   6.830   3.098   0.901
  915SOL    HW1 3644   6.781   3.144   0.827
  915SOL    HW2 3645   6.772   3.028   0.942
  916SOL     OW 3646   2.156   3.228   2.886
  916SOL    HW1 3647   2.204   3.157   2.835
  916SOL    HW2 3648   2.074   3.256   2.836
  917SOL     OW 3649   6.896   0.043   2.095
  917SOL    HW1 3650   6.975   0.064   2.038
  917SOL    HW2 3651   6.820   0.103   2.071
  918SOL     OW 3652   3.390   0.717   1.584
  918SOL    HW1 3653   3.457   0.790   1.597
  918SOL    HW2 3654   3.373   0.671   1.671
  919SOL     OW 3655   6.652   7.023   3.374
  919SOL    HW1 3656   6.714   6.958   3.330
  919SOL    HW2 3657   6.682   0.016   3.468
  920SOL     OW 3658   2.559   4.623   2.839
  920SOL    HW1 3659   2.611   4.660   2.761
  920SOL    HW2 3660   2.603   4.651   2.924
  921SOL     OW 3661   4.026   5.491   3.491
  921SOL    HW1 3662   3.993   5.399   3.469
  921SOL    HW2 3663   4.120   5.485   3.526
  922SOL     OW 3664   2.921   3.417   4.758
  922SOL    HW1 3665   2.936   3.508   4.796
  922SOL    HW2 3666   2.899   3.353   4.832
  923SOL     OW 3667   2.323   3.968   5.857
  923SOL    HW1 3668   2.253   3.902   5.830
  923SOL    HW2 3669   2.407   3.918   5.881
  924SOL     OW 3670   6.483   3.219   2.768
  924SOL    HW1 3671   6.439   3.309   2.764
  924SOL    HW2 3672   6.447   3.167   2.845
  925SOL     OW 3673   6.937   2.374   6.972
  925SOL    HW1 3674   6.980   2.288   7.000
  925SOL    HW2 3675   6.843   2.356   6.942
  926SOL     OW 3676   6.235   0.963   0.958
  926SOL    HW1 3677   6.156   0.920   1.002
  926SOL    HW2 3678   6.219   0.968   0.860
  927SOL     OW 3679   5.590   4.005   3.125
  927SOL    HW1 3680   5.562   3.976   3.033
  927SOL    HW2 3681   5.677   3.963   3.148
  928SOL     OW 3682   1.408   6.359   0.127
  928SOL    HW1 3683   1.371   6.275   0.166
  928SOL    HW2 3684   1.508   6.357   0.130
  929SOL     OW 3685   0.788   0.024   0.016
  929SOL    HW1 3686   0.825   7.006   6.957
  929SOL    HW2 3687   0.694   7.015   0.030
  930SOL     OW 3688   5.033   6.264   4.821
  930SOL    HW1 3689   5.117   6.288   4.870
  930SOL    HW2 3690   5.041   6.172   4.784
  931SOL     OW 3691   5.883   1.472   4.876
  931SOL    HW1 3692   5.843   1.519   4.797
  931SOL    HW2 3693   5.936   1.393   4.844
  932SOL     OW 3694   3.082   0.332   3.896
  932SOL    HW1 3695   2.993   0.297   3.866
  932SOL    HW2 3696   3.128   0.263   3.952
  933SOL     OW 3697   2.019   5.872   3.576
  933SOL    HW1 3698   1.973   5.866   3.488
  933SOL    HW2 3699   2.112   5.906   3.562
  934SOL     OW 3700   1.780   6.902   6.863
  934SOL    HW1 3701   1.875   6.924   6.841
  934SOL    HW2 3702   1.725   6.985   6.857
  935SOL     OW 3703   5.103   4.433   3.953
  935SOL    HW1 3704   5.100   4.398   4.047
  935SOL    HW2 3705   5.023   4.491   3.937
  936SOL     OW 3706   0.328   0.692   6.456
  936SOL    HW1 3707   0.240   0.679   6.503
  936SOL    HW2 3708   0.387   0.614   6.475
  937SOL     OW 3709   5.244   1.747   5.673
  937SOL    HW1 3710   5.151   1.779   5.657
  937SOL    HW2 3711   5.241   1.655   5.713
  938SOL     OW 3712   5.918   5.252   6.173
  938SOL    HW1 3713   5.960   5.161   6.174
  938SOL    HW2 3714   5.822   5.245   6.201
  939SOL     OW 3715   6.939   6.820   4.719
  939SOL    HW1 3716   6.918   6.917   4.709
  939SOL    HW2 3717   6.982   6.786   4.635
  940SOL     OW 3718   1.445   3.583   1.509
  940SOL    HW1 3719   1.392   3.602   1.426
  940SOL    HW2 3720   1.481   3.668   1.545
  941SOL     OW 3721   5.566   1.212   6.354
  941SOL    HW1 3722   5.657   1.253   6.365
  941SOL    HW2 3723   5.505   1.247   6.426
  942SOL     OW 3724   5.662   0.369   3.153
  942SOL    HW1 3725   5.588   0.313   3.190
  942SOL    HW2 3726   5.728   0.311   3.106
  943SOL     OW 3727   1.925   3.443   3.580
  943SOL    HW1 3728   1.993   3.484   3.641
  943SOL    HW2 3729   1.970   3.374   3.523
  944SOL     OW 3730   0.119   4.767   6.291
  944SOL    HW1 3731   0.049   4.740   6.224
  944SOL    HW2 3732   0.154   4.685   6.336
  945SOL     OW 3733   6.657   3.319   6.177
  945SOL    HW1 3734   6.608   3.327   6.090
  945SOL    HW2 3735   6.735   3.381   6.177
  946SOL     OW 3736   5.262   3.812   5.597
  946SOL    HW1 3737   5.206   3.814   5.514
  946SOL    HW2 3738   5.273   3.717   5.627
  947SOL     OW 3739   3.915   3.012   3.402
  947SOL    HW1 3740   3.978   3.048   3.470
  947SOL    HW2 3741   3.943   3.043   3.311
  948SOL     OW 3742   4.725   0.836   2.827
  948SOL    HW1 3743   4.638   0.788   2.842
  948SOL    HW2 3744   4.721   0.885   2.740
  949SOL     OW 3745   1.681   5.605   0.458
  949SOL    HW1 3746   1.684   5.697   0.499
  949SOL    HW2 3747   1.593   5.562   0.479
  950SOL     OW 3748   4.916   5.503   2.167
  950SOL    HW1 3749   4.943   5.484   2.072
  950SOL    HW2 3750   4.883   5.597   2.173
  951SOL     OW 3751   1.633   0.531   4.222
  951SOL    HW1 3752   1.556   0.584   4.257
  951SOL    HW2 3753   1.694   0.508   4.298
  952SOL     OW 3754   4.450   2.121   3.376
  952SOL    HW1 3755   4.533   2.126   3.432
  952SOL    HW2 3756   4.376   2.169   3.422
  953SOL     OW 3757   5.660   5.271   4.196
  953SOL    HW1 3758   5.691   5.184   4.235
  953SOL    HW2 3759   5.613   5.254   4.110
  954SOL     OW 3760   4.154   5.679   1.475
  954SOL    HW1 3761   4.169   5.636   1.564
  954SOL    HW2 3762   4.058   5.708   1.467
  955SOL     OW 3763   0.032   4.090   2.038
  955SOL    HW1 3764   0.117   4.143   2.036
  955SOL    HW2 3765   0.000   4.075   1.944
  956SOL     OW 3766   6.465   7.017   2.100
  956SOL    HW1 3767   6.449   0.042   2.014
  956SOL    HW2 3768   6.402   0.027   2.170
  957SOL     OW 3769   5.842   3.275   3.658
  957SOL    HW1 3770   5.927   3.223   3.666
  957SOL    HW2 3771   5.793   3.246   3.576
  958SOL     OW 3772   4.060   1.424   1.676
  958SOL    HW1 3773   3.996   1.362   1.630
  958SOL    HW2 3774   4.119   1.371   1.737
  959SOL     OW 3775   3.934   6.130   3.949
  959SOL    HW1 3776   3.847   6.172   3.923
  959SOL    HW2 3777   4.006   6.199   3.949
  960SOL     OW 3778   0.785   6.476   2.747
  960SOL    HW1 3779   0.802   6.539   2.823
  960SOL    HW2 3780   0.771   6.528   2.663
  961SOL     OW 3781   4.091   6.106   3.396
  961SOL    HW1 3782   4.185   6.108   3.361
  961SOL    HW2 3783   4.087   6.050   3.479
  962SOL     OW 3784   0.360   1.439   5.494
  962SOL    HW1 3785   0.329   1.366   5.433
  962SOL    HW2 3786   0.338   1.415   5.589
  963SOL     OW 3787   5.491   1.438   6.518
  963SOL    HW1 3788   5.405   1.461   6.473
  963SOL    HW2 3789   5.568   1.466   6.459
  964SOL     OW 3790   5.463   4.927   0.128
  964SOL    HW1 3791   5.552   4.964   0.156
  964SOL    HW2 3792   5.447   4.840   0.175
  965SOL     OW 3793   5.463   1.974   1.745
  965SOL    HW1 3794   5.410   1.953   1.827
  965SOL    HW2 3795   5.436   2.064   1.710
  966SOL     OW 3796   5.743   3.266   2.084
  966SOL    HW1 3797   5.643   3.267   2.083
  966SOL    HW2 3798   5.774   3.235   2.174
  967SOL     OW 3799   2.679   4.383   1.412
  967SOL    HW1 3800   2.708   4.323   1.338
  967SOL    HW2 3801   2.579   4.381   1.420
  968SOL     OW 3802   3.699   0.187   2.266
  968SOL    HW1 3803   3.798   0.182   2.268
  968SOL    HW2 3804   3.662   0.154   2.353
  969SOL     OW 3805   2.139   5.118   5.572
  969SOL    HW1 3806   2.061   5.182   5.578
  969SOL    HW2 3807   2.210   5.158   5.514
  970SOL     OW 3808   5.887   0.970   6.701
  970SOL    HW1 3809   5.808   1.031   6.706
  970SOL    HW2 3810   5.870   0.888   6.756
  971SOL     OW 3811   0.242   2.707   2.461
  971SOL    HW1 3812   0.340   2.726   2.466
  971SOL    HW2 3813   0.202   2.757   2.384
  972SOL     OW 3814   5.820   2.263   1.364
  972SOL    HW1 3815   5.898   2.234   1.308
  972SOL    HW2 3816   5.805   2.196   1.436
  973SOL     OW 3817   0.410   5.312   6.424
  973SOL    HW1 3818   0.367   5.400   6.445
  973SOL    HW2 3819   0.358   5.239   6.469
  974SOL     OW 3820   5.219   6.566   2.666
  974SOL    HW1 3821   5.270   6.644   2.705
  974SOL    HW2 3822   5.273   6.483   2.677
  975SOL     OW 3823   2.003   0.729   6.511
  975SOL    HW1 3824   1.935   0.727   6.438
  975SOL    HW2 3825   2.093   0.706   6.473
  976SOL     OW 3826   6.869   3.688   2.251
  976SOL    HW1 3827   6.950   3.717   2.201
  976SOL    HW2 3828   6.869   3.589   2.261
  977SOL     OW 3829   0.701   6.949   1.711
  977SOL    HW1 3830   0.753   6.975   1.630
  977SOL    HW2 3831   0.761   6.899   1.774
  978SOL     OW 3832   5.555   3.142   5.534
  978SOL    HW1 3833   5.515   3.143   5.626
  978SOL    HW2 3834   5.550   3.050   5.496
  979SOL     OW 3835   7.019   2.510   0.167
  979SOL    HW1 3836   6.983   2.452   0.094
  979SOL    HW2 3837   0.063   2.573   0.129
  980SOL     OW 3838   4.540   1.875   3.616
  980SOL    HW1 3839   4.545   1.975   3.615
  980SOL    HW2 3840   4.604   1.838   3.549
  981SOL     OW 3841   0.298   1.879   5.102
  981SOL    HW1 3842   0.211   1.876   5.053
  981SOL    HW2 3843   0.370   1.838   5.046
  982SOL     OW 3844   1.554   1.821   4.856
  982SOL    HW1 3845   1.558   1.857   4.763
  982SOL    HW2 3846   1.459   1.803   4.881
  983SOL     OW 3847   5.846   2.982   3.724
  983SOL    HW1 3848   5.802   2.916   3.663
  983SOL    HW2 3849   5.776   3.030   3.777
  984SOL     OW 3850   2.710   2.353   4.536
  984SOL    HW1 3851   2.698   2.284   4.608
  984SOL    HW2 3852   2.807   2.359   4.513
  985SOL     OW 3853   6.180   2.900   5.334
  985SOL    HW1 3854   6.201   2.831   5.265
  985SOL    HW2 3855   6.204   2.866   5.424
  986SOL     OW 3856   4.467   4.827   1.240
  986SOL    HW1 3857   4.383   4.802   1.289
  986SOL    HW2 3858   4.495   4.918   1.269
  987SOL     OW 3859   4.765   6.692   2.782
  987SOL    HW1 3860   4.677   6.688   2.735
  987SOL    HW2 3861   4.771   6.775   2.837
  988SOL     OW 3862   3.593   4.011   2.165
  988SOL    HW1 3863   3.653   4.026   2.244
  988SOL    HW2 3864   3.513   4.070   2.173
  989SOL     OW 3865   6.612   2.256   6.466
  989SOL    HW1 3866   6.655   2.346   6.460
  989SOL    HW2 3867   6.576   2.230   6.376
  990SOL     OW 3868   4.340   1.409   2.345
  990SOL    HW1 3869   4.272   1.346   2.308
  990SOL    HW2 3870   4.372   1.376   2.434
  991SOL     OW 3871   1.082   3.837   4.525
  991SOL    HW1 3872   1.124   3.769   4.464
  991SOL    HW2 3873   0.986   3.811   4.542
  992SOL     OW 3874   0.089   3.442   1.107
  992SOL    HW1 3875   0.124   3.377   1.175
  992SOL    HW2 3876   0.152   3.520   1.100
  993SOL     OW 3877   6.705   4.598   0.301
  993SOL    HW1 3878   6.748   4.511   0.326
  993SOL    HW2 3879   6.767   4.649   0.242
  994SOL     OW 3880   3.940   5.099   1.839
  994SOL    HW1 3881   4.010   5.112   1.769
  994SOL    HW2 3882   3.911   5.003   1.839
  995SOL     OW 3883   4.236   2.900   5.944
  995SOL    HW1 3884   4.219   2.857   6.033
  995SOL    HW2 3885   4.291   2.839   5.888
  996SOL     OW 3886   3.037   5.201   4.688
  996SOL    HW1 3887   3.033   5.107   4.721
  996SOL    HW2 3888   3.131   5.225   4.666
  997SOL     OW 3889   1.191   0.271   3.423
  997SOL    HW1 3890   1.248   0.278   3.504
  997SOL    HW2 3891   1.094   0.278   3.449
  998SOL     OW 3892   5.373   0.674   5.315
  998SOL    HW1 3893   5.417   0.722   5.238
  998SOL    HW2 3894   5.370   0.576   5.295
  999SOL     OW 3895   5.115   4.258   2.645
  999SOL    HW1 3896   5.151   4.165   2.660
  999SOL    HW2 3897   5.190   4.324   2.653
 1000SOL     OW 3898   3.605   1.563   1.388
 1000SOL    HW1 3899   3.665   1.522   1.319
 1000SOL    HW2 3900   3.614   1.663   1.384
 1001SOL     OW 3901   5.146   5.939   1.161
 1001SOL    HW1 3902   5.051   5.936   1.131
 1001SOL    HW2 3903   5.163   6.025   1.209
 1002SOL     OW 3904   5.708   1.944   1.145
 1002SOL    HW1 3905   5.613   1.928   1.173
 1002SOL    HW2 3906   5.767   1.940   1.226
 1003SOL     OW 3907   2.172   6.754   2.852
 1003SOL    HW1 3908   2.167   6.715   2.760
 1003SOL    HW2 3909   2.082   6.747   2.896
 1004SOL     OW 3910   0.426   0.931   1.976
 1004SOL    HW1 3911   0.480   0.992   1.919
 1004SOL    HW2 3912   0.345   0.901   1.926
 1005SOL     OW 3913   2.273   2.311   3.996
 1005SOL    HW1 3914   2.197   2.374   4.016
 1005SOL    HW2 3915   2.318   2.286   4.082
 1006SOL     OW 3916   1.320   4.625   0.226
 1006SOL    HW1 3917   1.381   4.684   0.173
 1006SOL    HW2 3918   1.368   4.593   0.308
 1007SOL     OW 3919   4.708   0.632   5.266
 1007SOL    HW1 3920   4.689   0.534   5.277
 1007SOL    HW2 3921   4.626   0.678   5.231
 1008SOL     OW 3922   0.645   2.926   6.025
 1008SOL    HW1 3923   0.688   2.863   6.089
 1008SOL    HW2 3924   0.550   2.943   6.054
 1009SOL     OW 3925   0.318   4.889   5.218
 1009SOL    HW1 3926   0.405   4.858   5.181
 1009SOL    HW2 3927   0.334   4.935   5.305
 1010SOL     OW 3928   2.923   1.572   6.991
 1010SOL    HW1 3929   2.831   1.533   6.995
 1010SOL    HW2 3930   2.924   1.660   0.015
 1011SOL     OW 3931   1.718   5.356   2.889
 1011SOL    HW1 3932   1.778   5.275   2.885
 1011SOL    HW2 3933   1.770   5.437   2.865
 1012SOL     OW 3934   0.051   6.825   3.081
 1012SOL    HW1 3935   0.031   6.735   3.041
 1012SOL    HW2 3936   0.017   6.896   3.019
 1013SOL     OW 3937   0.776   1.879   6.834
 1013SOL    HW1 3938   0.754   1.965   6.788
 1013SOL    HW2 3939   0.695   1.845   6.883
 1014SOL     OW 3940   6.872   4.611   5.824
 1014SOL    HW1 3941   6.940   4.662   5.771
 1014SOL    HW2 3942   6.888   4.513   5.813
 1015SOL     OW 3943   2.895   6.914   6.248
 1015SOL    HW1 3944   2.835   6.939   6.324
 1015SOL    HW2 3945   2.840   6.894   6.167
 1016SOL     OW 3946   3.968   3.999   0.087
 1016SOL    HW1 3947   3.995   4.071   0.023
 1016SOL    HW2 3948   3.885   3.955   0.055
 1017SOL     OW 3949   4.450   2.729   1.403
 1017SOL    HW1 3950   4.444   2.811   1.346
 1017SOL    HW2 3951   4.384   2.735   1.477
 1018SOL     OW 3952   0.763   4.723   4.403
 1018SOL    HW1 3953   0.788   4.631   4.432
 1018SOL    HW2 3954   0.805   4.790   4.464
 1019SOL     OW 3955   6.853   6.440   0.965
 1019SOL    HW1 3956   6.807   6.490   0.891
 1019SOL    HW2 3957   6.785   6.390   1.019
 1020SOL     OW 3958   6.329   0.878   1.243
 1020SOL    HW1 3959   6.420   0.866   1.205
 1020SOL    HW2 3960   6.261   0.846   1.177
 1021SOL     OW 3961   5.857   6.732   1.499
 1021SOL    HW1 3962   5.888   6.786   1.577
 1021SOL    HW2 3963   5.802   6.790   1.438
 1022SOL     OW 3964   2.823   4.442   5.385
 1022SOL    HW1 3965   2.724   4.451   5.388
 1022SOL    HW2 3966   2.860   4.500   5.312
 1023SOL     OW 3967   0.083   0.966   2.627
 1023SOL    HW1 3968   0.068   0.936   2.533
 1023SOL    HW2 3969   0.181   0.974   2.644
 1024SOL     OW 3970   0.700   2.928   4.269
 1024SOL    HW1 3971   0.644   2.979   4.335
 1024SOL    HW2 3972   0.679   2.959   4.177
 1025SOL     OW 3973   3.774   3.876   1.350
 1025SOL    HW1 3974   3.782   3.891   1.251
 1025SOL    HW2 3975   3.727   3.789   1.366
 1026SOL     OW 3976   2.412   2.733   1.732
 1026SOL    HW1 3977   2.482   2.772   1.672
 1026SOL    HW2 3978   2.336   2.797   1.742
 1027SOL     OW 3979   3.353   6.917   2.170
 1027SOL    HW1 3980   3.267   6.922   2.221
 1027SOL    HW2 3981   3.428   6.896   2.233
 1028SOL     OW 3982   1.719   0.108   2.594
 1028SOL    HW1 3983   1.655   0.087   2.520
 1028SOL    HW2 3984   1.749   0.022   2.637
 1029SOL     OW 3985   1.453   1.094   6.432
 1029SOL    HW1 3986   1.468   1.177   6.379
 1029SOL    HW2 3987   1.429   1.117   6.526
 1030SOL     OW 3988   3.359   3.253   2.031
 1030SOL    HW1 3989   3.390   3.159   2.046
 1030SOL    HW2 3990   3.438   3.313   2.021
 1031SOL     OW 3991   4.488   4.157   1.400
 1031SOL    HW1 3992   4.542   4.075   1.383
 1031SOL    HW2 3993   4.479   4.172   1.499
 1032SOL     OW 3994   1.569   1.616   6.026
 1032SOL    HW1 3995   1.568   1.680   5.949
 1032SOL    HW2 3996   1.505   1.646   6.096
 1033SOL     OW 3997   1.203   5.993   1.234
 1033SOL    HW1 3998   1.109   5.975   1.206
 1033SOL    HW2 3999   1.203   6.050   1.316
 1034SOL     OW 4000   0.816   5.099   4.517
 1034SOL    HW1 4001   0.887   5.030   4.525
 1034SOL    HW2 4002   0.833   5.155   4.435
 1035SOL     OW 4003   0.177   1.049   4.824
 1035SOL    HW1 4004   0.197   0.950   4.828
 1035SOL    HW2 4005   0.226   1.089   4.747
 1036SOL     OW 4006   3.791   0.635   2.117
 1036SOL    HW1 4007   3.735   0.567   2.069
 1036SOL    HW2 4008   3.876   0.593   2.149
 1037SOL     OW 4009   1.319   1.400   2.624
 1037SOL    HW1 4010   1.258   1.396   2.545
 1037SOL    HW2 4011   1.413   1.411   2.593
 1038SOL     OW 4012   2.119   1.115   5.478
 1038SOL    HW1 4013   2.120   1.214   5.490
 1038SOL    HW2 4014   2.211   1.079   5.489
 1039SOL     OW 4015   3.630   3.689   4.566
 1039SOL    HW1 4016   3.600   3.612   4.509
 1039SOL    HW2 4017   3.726   3.708   4.548
 1040SOL     OW 4018   5.182   1.486   2.081
 1040SOL    HW1 4019   5.097   1.508   2.033
 1040SOL    HW2 4020   5.206   1.390   2.064
 1041SOL     OW 4021   0.317   6.651   3.606
 1041SOL    HW1 4022   0.301   6.746   3.631
 1041SOL    HW2 4023   0.270   6.591   3.671
 1042SOL     OW 4024   4.162   5.430   2.638
 1042SOL    HW1 4025   4.127   5.340   2.612
 1042SOL    HW2 4026   4.162   5.439   2.738
 1043SOL     OW 4027   3.374   2.157   3.755
 1043SOL    HW1 4028   3.314   2.230   3.790
 1043SOL    HW2 4029   3.365   2.151   3.656
 1044SOL     OW 4030   5.977   5.008   2.319
 1044SOL    HW1 4031   5.986   5.084   2.384
 1044SOL    HW2 4032   6.020   4.926   2.356
 1045SOL     OW 4033   3.835   0.176   2.685
 1045SOL    HW1 4034   3.931   0.187   2.712
 1045SOL    HW2 4035   3.820   0.083   2.652
 1046SOL     OW 4036   1.550   1.481   0.693
 1046SOL    HW1 4037   1.568   1.456   0.597
 1046SOL    HW2 4038   1.543   1.580   0.701
 1047SOL     OW 4039   1.964   0.297   4.152
 1047SOL    HW1 4040   1.968   0.394   4.176
 1047SOL    HW2 4041   1.877   0.278   4.107
 1048SOL     OW 4042   4.292   6.116   3.168
 1048SOL    HW1 4043   4.361   6.100   3.238
 1048SOL    HW2 4044   4.306   6.206   3.127
 1049SOL     OW 4045   6.687   6.381   3.870
 1049SOL    HW1 4046   6.588   6.368   3.867
 1049SOL    HW2 4047   6.713   6.455   3.808
 1050SOL     OW 4048   3.305   5.189   1.872
 1050SOL    HW1 4049   3.338   5.098   1.847
 1050SOL    HW2 4050   3.206   5.187   1.886
 1051SOL     OW 4051   0.464   5.213   0.250
 1051SOL    HW1 4052   0.447   5.296   0.304
 1051SOL    HW2 4053   0.431   5.133   0.301
 1052SOL     OW 4054   4.437   0.671   5.168
 1052SOL    HW1 4055   4.413   0.590   5.222
 1052SOL    HW2 4056   4.395   0.752   5.209
 1053SOL     OW 4057   5.824   4.556   3.262
 1053SOL    HW1 4058   5.822   4.629   3.194
 1053SOL    HW2 4059   5.767   4.480   3.231
 1054SOL     OW 4060   3.136   3.619   0.602
 1054SOL    HW1 4061   3.050   3.607   0.651
 1054SOL    HW2 4062   3.181   3.530   0.592
 1055SOL     OW 4063   4.369   6.470   5.045
 1055SOL    HW1 4064   4.465   6.459   5.021
 1055SOL    HW2 4065   4.329   6.545   4.992
 1056SOL     OW 4066   2.352   3.860   7.002
 1056SOL    HW1 4067   2.394   3.875   0.067
 1056SOL    HW2 4068   2.257   3.892   7.004
 1057SOL     OW 4069   3.469   3.614   1.788
 1057SOL    HW1 4070   3.548   3.583   1.842
 1057SOL    HW2 4071   3.405   3.538   1.775
 1058SOL     OW 4072   5.038   2.315   3.446
 1058SOL    HW1 4073   5.005   2.221   3.438
 1058SOL    HW2 4074   5.131   2.320   3.409
 1059SOL     OW 4075   2.829   0.700   1.827
 1059SOL    HW1 4076   2.770   0.734   1.754
 1059SOL    HW2 4077   2.831   0.765   1.902
 1060SOL     OW 4078   0.313   4.960   4.548
 1060SOL    HW1 4079   0.319   5.059   4.562
 1060SOL    HW2 4080   0.218   4.930   4.561
 1061SOL     OW 4081   6.679   3.098   0.132
 1061SOL    HW1 4082   6.609   3.083   0.202
 1061SOL    HW2 4083   6.737   3.176   0.160
 1062SOL     OW 4084   5.509   5.167   5.727
 1062SOL    HW1 4085   5.450   5.105   5.675
 1062SOL    HW2 4086   5.601   5.165   5.690
 1063SOL     OW 4087   0.723   5.668   0.797
 1063SOL    HW1 4088   0.627   5.697   0.790
 1063SOL    HW2 4089   0.782   5.740   0.762
 1064SOL     OW 4090   1.646   4.553   3.087
 1064SOL    HW1 4091   1.676   4.583   2.997
 1064SOL    HW2 4092   1.585   4.474   3.078
 1065SOL     OW 4093   4.566   0.641   3.765
 1065SOL    HW1 4094   4.532   0.662   3.674
 1065SOL    HW2 4095   4.642   0.701   3.788
 1066SOL     OW 4096   4.986   6.506   2.788
 1066SOL    HW1 4097   4.930   6.588   2.797
 1066SOL    HW2 4098   5.074   6.530   2.746
 1067SOL     OW 4099   0.713   2.941   0.718
 1067SOL    HW1 4100   0.692   2.883   0.639
 1067SOL    HW2 4101   0.811   2.938   0.737
 1068SOL     OW 4102   6.209   5.055   2.152
 1068SOL    HW1 4103   6.288   5.016   2.199
 1068SOL    HW2 4104   6.127   5.041   2.208
 1069SOL     OW 4105   4.660   5.778   0.770
 1069SOL    HW1 4106   4.600   5.700   0.756
 1069SOL    HW2 4107   4.635   5.853   0.709
 1070SOL     OW 4108   0.372   0.531   1.510
 1070SOL    HW1 4109   0.408   0.624   1.498
 1070SOL    HW2 4110   0.412   0.491   1.593
 1071SOL     OW 4111   1.239   0.925   4.177
 1071SOL    HW1 4112   1.292   1.005   4.205
 1071SOL    HW2 4113   1.237   0.859   4.252
 1072SOL     OW 4114   1.585   0.942   0.989
 1072SOL    HW1 4115   1.581   1.023   1.047
 1072SOL    HW2 4116   1.584   0.969   0.893
 1073SOL     OW 4117   4.995   0.406   3.012
 1073SOL    HW1 4118   5.014   0.446   3.101
 1073SOL    HW2 4119   4.968   0.310   3.023
 1074SOL     OW 4120   2.361   5.493   1.850
 1074SOL    HW1 4121   2.377   5.455   1.759
 1074SOL    HW2 4122   2.407   5.437   1.919
 1075SOL     OW 4123   5.612   0.087   3.484
 1075SOL    HW1 4124   5.539   0.055   3.544
 1075SOL    HW2 4125   5.696   0.038   3.504
 1076SOL     OW 4126   0.646   2.541   5.679
 1076SOL    HW1 4127   0.566   2.494   5.716
 1076SOL    HW2 4128   0.721   2.476   5.667
 1077SOL     OW 4129   5.959   0.117   0.820
 1077SOL    HW1 4130   6.052   0.093   0.793
 1077SOL    HW2 4131   5.896   0.044   0.792
 1078SOL     OW 4132   0.544   0.540   2.334
 1078SOL    HW1 4133   0.597   0.536   2.250
 1078SOL    HW2 4134   0.457   0.588   2.317
 1079SOL     OW 4135   1.360   6.163   2.075
 1079SOL    HW1 4136   1.413   6.082   2.050
 1079SOL    HW2 4137   1.324   6.205   1.991
 1080SOL     OW 4138   2.232   5.477   3.314
 1080SOL    HW1 4139   2.252   5.381   3.293
 1080SOL    HW2 4140   2.149   5.482   3.370
 1081SOL     OW 4141   6.627   5.033   5.554
 1081SOL    HW1 4142   6.667   5.101   5.615
 1081SOL    HW2 4143   6.623   4.944   5.600
 1082SOL     OW 4144   5.379   2.474   5.200
 1082SOL    HW1 4145   5.437   2.504   5.276
 1082SOL    HW2 4146   5.427   2.404   5.147
 1083SOL     OW 4147   4.643   4.327   0.542
 1083SOL    HW1 4148   4.586   4.303   0.464
 1083SOL    HW2 4149   4.701   4.405   0.518
 1084SOL     OW 4150   5.970   6.163   6.508
 1084SOL    HW1 4151   6.001   6.120   6.423
 1084SOL    HW2 4152   5.997   6.106   6.585
 1085SOL     OW 4153   1.876   3.541   4.771
 1085SOL    HW1 4154   1.933   3.493   4.837
 1085SOL    HW2 4155   1.780   3.530   4.795
 1086SOL     OW 4156   0.022   4.827   0.472
 1086SOL    HW1 4157   0.034   4.786   0.563
 1086SOL    HW2 4158   0.089   4.788   0.409
 1087SOL     OW 4159   6.683   2.071   5.261
 1087SOL    HW1 4160   6.699   2.169   5.247
 1087SOL    HW2 4161   6.619   2.058   5.337
 1088SOL     OW 4162   0.340   3.721   2.458
 1088SOL    HW1 4163   0.240   3.711   2.463
 1088SOL    HW2 4164   0.383   3.637   2.490
 1089SOL     OW 4165   0.425   5.948   4.611
 1089SOL    HW1 4166   0.439   6.015   4.684
 1089SOL    HW2 4167   0.381   5.866   4.648
 1090SOL     OW 4168   2.892   1.897   3.229
 1090SOL    HW1 4169   2.961   1.829   3.203
 1090SOL    HW2 4170   2.931   1.961   3.294
 1091SOL     OW 4171   2.977   1.837   4.534
 1091SOL    HW1 4172   2.895   1.845   4.478
 1091SOL    HW2 4173   3.057   1.827   4.475
 1092SOL     OW 4174   0.562   4.608   0.846
 1092SOL    HW1 4175   0.477   4.559   0.867
 1092SOL    HW2 4176   0.575   4.682   0.912
 1093SOL     OW 4177   2.379   0.369   1.473
 1093SOL    HW1 4178   2.357   0.297   1.408
 1093SOL    HW2 4179   2.389   0.456   1.425
 1094SOL     OW 4180   0.932   6.926   2.535
 1094SOL    HW1 4181   0.980   6.895   2.454
 1094SOL    HW2 4182   0.941   0.002   2.543
 1095SOL     OW 4183   1.059   3.203   6.128
 1095SOL    HW1 4184   1.113   3.134   6.177
 1095SOL    HW2 4185   0.974   3.162   6.096
 1096SOL     OW 4186   3.436   4.278   1.709
 1096SOL    HW1 4187   3.400   4.370   1.690
 1096SOL    HW2 4188   3.402   4.246   1.797
 1097SOL     OW 4189   2.571   4.628   3.567
 1097SOL    HW1 4190   2.606   4.557   3.628
 1097SOL    HW2 4191   2.471   4.627   3.568
 1098SOL     OW 4192   4.407   3.551   6.641
 1098SOL    HW1 4193   4.362   3.480   6.694
 1098SOL    HW2 4194   4.471   3.601   6.699
 1099SOL     OW 4195   3.369   1.141   5.990
 1099SOL    HW1 4196   3.445   1.200   5.963
 1099SOL    HW2 4197   3.335   1.170   6.080
 1100SOL     OW 4198   4.353   1.697   4.591
 1100SOL    HW1 4199   4.260   1.678   4.625
 1100SOL    HW2 4200   4.380   1.624   4.528
 1101SOL     OW 4201   5.633   2.971   5.879
 1101SOL    HW1 4202   5.614   2.955   5.975
 1101SOL    HW2 4203   5.668   3.064   5.867
 1102SOL     OW 4204   0.941   0.381   4.612
 1102SOL    HW1 4205   1.017   0.354   4.552
 1102SOL    HW2 4206   0.863   0.320   4.596
 1103SOL     OW 4207   4.100   1.511   0.193
 1103SOL    HW1 4208   4.017   1.553   0.229
 1103SOL    HW2 4209   4.173   1.520   0.261
 1104SOL     OW 4210   1.590   2.961   5.637
 1104SOL    HW1 4211   1.620   2.974   5.732
 1104SOL    HW2 4212   1.637   2.881   5.598
 1105SOL     OW 4213   5.922   3.589   4.907
 1105SOL    HW1 4214   5.996   3.539   4.951
 1105SOL    HW2 4215   5.836   3.570   4.954
 1106SOL     OW 4216   6.857   2.283   1.154
 1106SOL    HW1 4217   6.917   2.209   1.182
 1106SOL    HW2 4218   6.902   2.338   1.083
 1107SOL     OW 4219   1.043   0.773   6.981
 1107SOL    HW1 4220   1.059   0.696   6.920
 1107SOL    HW2 4221   1.074   0.749   0.050
 1108SOL     OW 4222   3.269   6.849   5.379
 1108SOL    HW1 4223   3.367   6.854   5.360
 1108SOL    HW2 4224   3.252   6.884   5.471
 1109SOL     OW 4225   5.675   1.097   3.394
 1109SOL    HW1 4226   5.602   1.159   3.367
 1109SOL    HW2 4227   5.637   1.022   3.449
 1110SOL     OW 4228   4.065   2.033   3.006
 1110SOL    HW1 4229   4.084   2.005   2.911
 1110SOL    HW2 4230   4.124   2.110   3.030
 1111SOL     OW 4231   4.150   5.328   6.672
 1111SOL    HW1 4232   4.240   5.317   6.714
 1111SOL    HW2 4233   4.143   5.418   6.630
 1112SOL     OW 4234   5.853   1.056   2.406
 1112SOL    HW1 4235   5.904   1.013   2.331
 1112SOL    HW2 4236   5.867   1.003   2.490
 1113SOL     OW 4237   5.865   4.293   1.483
 1113SOL    HW1 4238   5.900   4.285   1.390
 1113SOL    HW2 4239   5.827   4.385   1.497
 1114SOL     OW 4240   3.400   1.469   5.783
 1114SOL    HW1 4241   3.437   1.553   5.824
 1114SOL    HW2 4242   3.300   1.468   5.793
 1115SOL     OW 4243   3.908   3.459   5.846
 1115SOL    HW1 4244   3.868   3.435   5.757
 1115SOL    HW2 4245   3.993   3.408   5.859
 1116SOL     OW 4246   4.694   6.399   5.636
 1116SOL    HW1 4247   4.784   6.356   5.644
 1116SOL    HW2 4248   4.647   6.393   5.724
 1117SOL     OW 4249   1.810   2.695   2.017
 1117SOL    HW1 4250   1.846   2.763   1.953
 1117SOL    HW2 4251   1.883   2.632   2.044
 1118SOL     OW 4252   3.258   4.524   0.803
 1118SOL    HW1 4253   3.258   4.623   0.813
 1118SOL    HW2 4254   3.231   4.481   0.889
 1119SOL     OW 4255   4.391   4.495   1.804
 1119SOL    HW1 4256   4.427   4.402   1.799
 1119SOL    HW2 4257   4.402   4.531   1.896
 1120SOL     OW 4258   5.912   6.558   0.548
 1120SOL    HW1 4259   5.948   6.573   0.640
 1120SOL    HW2 4260   5.986   6.568   0.482
 1121SOL     OW 4261   6.348   4.524   4.837
 1121SOL    HW1 4262   6.295   4.605   4.860
 1121SOL    HW2 4263   6.360   4.518   4.738
 1122SOL     OW 4264   4.975   2.429   1.659
 1122SOL    HW1 4265   5.025   2.392   1.580
 1122SOL    HW2 4266   4.882   2.394   1.659
 1123SOL     OW 4267   4.928   1.611   2.767
 1123SOL    HW1 4268   4.948   1.539   2.700
 1123SOL    HW2 4269   4.838   1.651   2.746
 1124SOL     OW 4270   0.011   3.541   5.305
 1124SOL    HW1 4271   6.984   3.603   5.246
 1124SOL    HW2 4272   0.109   3.548   5.286
 1125SOL     OW 4273   2.774   2.101   3.896
 1125SOL    HW1 4274   2.853   2.116   3.955
 1125SOL    HW2 4275   2.745   2.188   3.855
 1126SOL     OW 4276   5.193   5.702   0.031
 1126SOL    HW1 4277   5.158   5.754   0.109
 1126SOL    HW2 4278   5.195   5.605   0.055
 1127SOL     OW 4279   5.120   5.740   4.492
 1127SOL    HW1 4280   5.066   5.686   4.428
 1127SOL    HW2 4281   5.143   5.828   4.450
 1128SOL     OW 4282   6.265   1.175   4.690
 1128SOL    HW1 4283   6.323   1.192   4.770
 1128SOL    HW2 4284   6.296   1.091   4.645
 1129SOL     OW 4285   1.359   0.300   0.835
 1129SOL    HW1 4286   1.357   0.232   0.908
 1129SOL    HW2 4287   1.328   0.258   0.750
 1130SOL     OW 4288   2.449   4.852   0.528
 1130SOL    HW1 4289   2.355   4.820   0.518
 1130SOL    HW2 4290   2.473   4.910   0.450
 1131SOL     OW 4291   1.386   5.973   5.879
 1131SOL    HW1 4292   1.321   6.037   5.839
 1131SOL    HW2 4293   1.451   6.023   5.936
 1132SOL     OW 4294   5.447   0.294   2.671
 1132SOL    HW1 4295   5.468   0.326   2.579
 1132SOL    HW2 4296   5.493   0.351   2.738
 1133SOL     OW 4297   0.561   1.063   0.410
 1133SOL    HW1 4298   0.635   1.064   0.342
 1133SOL    HW2 4299   0.545   0.969   0.440
 1134SOL     OW 4300   5.302   6.834   2.709
 1134SOL    HW1 4301   5.342   6.909   2.762
 1134SOL    HW2 4302   5.278   6.867   2.617
 1135SOL     OW 4303   2.728   6.723   3.431
 1135SOL    HW1 4304   2.633   6.731   3.401
 1135SOL    HW2 4305   2.732   6.722   3.531
 1136SOL     OW 4306   4.400   4.901   3.470
 1136SOL    HW1 4307   4.387   4.803   3.480
 1136SOL    HW2 4308   4.464   4.919   3.395
 1137SOL     OW 4309   1.188   6.108   6.862
 1137SOL    HW1 4310   1.239   6.193   6.849
 1137SOL    HW2 4311   1.125   6.118   6.939
 1138SOL     OW 4312   0.401   0.921   6.032
 1138SOL    HW1 4313   0.499   0.921   6.012
 1138SOL    HW2 4314   0.351   0.884   5.953
 1139SOL     OW 4315   3.321   4.914   2.771
 1139SOL    HW1 4316   3.296   4.818   2.758
 1139SOL    HW2 4317   3.241   4.965   2.803
 1140SOL     OW 4318   2.813   1.154   2.242
 1140SOL    HW1 4319   2.890   1.112   2.290
 1140SOL    HW2 4320   2.849   1.215   2.171
 1141SOL     OW 4321   0.886   6.261   6.862
 1141SOL    HW1 4322   0.885   6.162   6.850
 1141SOL    HW2 4323   0.795   6.292   6.889
 1142SOL     OW 4324   3.271   0.163   4.042
 1142SOL    HW1 4325   3.260   0.131   4.135
 1142SOL    HW2 4326   3.351   0.223   4.036
 1143SOL     OW 4327   2.402   2.691   3.430
 1143SOL    HW1 4328   2.412   2.683   3.529
 1143SOL    HW2 4329   2.470   2.756   3.394
 1144SOL     OW 4330   6.115   4.423   4.020
 1144SOL    HW1 4331   6.209   4.392   4.002
 1144SOL    HW2 4332   6.068   4.438   3.933
 1145SOL     OW 4333   6.449   3.852   1.412
 1145SOL    HW1 4334   6.363   3.802   1.410
 1145SOL    HW2 4335   6.484   3.855   1.506
 1146SOL     OW 4336   6.820   0.849   2.585
 1146SOL    HW1 4337   6.846   0.904   2.507
 1146SOL    HW2 4338   6.893   0.851   2.654
 1147SOL     OW 4339   2.976   5.625   1.538
 1147SOL    HW1 4340   2.982   5.711   1.589
 1147SOL    HW2 4341   3.017   5.551   1.592
 1148SOL     OW 4342   4.450   5.832   0.180
 1148SOL    HW1 4343   4.363   5.782   0.171
 1148SOL    HW2 4344   4.512   5.806   0.106
 1149SOL     OW 4345   6.053   3.162   2.772
 1149SOL    HW1 4346   6.138   3.211   2.789
 1149SOL    HW2 4347   6.060   3.069   2.807
 1150SOL     OW 4348   0.676   3.963   0.281
 1150SOL    HW1 4349   0.655   3.870   0.250
 1150SOL    HW2 4350   0.677   3.965   0.381
 1151SOL     OW 4351   6.048   4.316   6.244
 1151SOL    HW1 4352   6.027   4.222   6.270
 1151SOL    HW2 4353   6.129   4.347   6.294
 1152SOL     OW 4354   4.769   5.120   0.289
 1152SOL    HW1 4355   4.754   5.055   0.215
 1152SOL    HW2 4356   4.703   5.105   0.362
 1153SOL     OW 4357   0.463   0.289   2.101
 1153SOL    HW1 4358   0.526   0.364   2.124
 1153SOL    HW2 4359   0.495   0.205   2.145
 1154SOL     OW 4360   6.879   4.355   1.434
 1154SOL    HW1 4361   6.926   4.278   1.390
 1154SOL    HW2 4362   6.810   4.391   1.371
 1155SOL     OW 4363   2.335   4.607   6.160
 1155SOL    HW1 4364   2.257   4.547   6.144
 1155SOL    HW2 4365   2.416   4.570   6.115
 1156SOL     OW 4366   4.418   2.024   4.995
 1156SOL    HW1 4367   4.415   2.035   4.896
 1156SOL    HW2 4368   4.412   1.927   5.018
 1157SOL     OW 4369   5.230   1.245   6.250
 1157SOL    HW1 4370   5.299   1.173   6.257
 1157SOL    HW2 4371   5.139   1.207   6.267
 1158SOL     OW 4372   6.886   5.063   5.165
 1158SOL    HW1 4373   6.795   5.033   5.192
 1158SOL    HW2 4374   6.949   4.985   5.168
 1159SOL     OW 4375   6.524   0.276   3.557
 1159SOL    HW1 4376   6.467   0.283   3.476
 1159SOL    HW2 4377   6.611   0.231   3.533
 1160SOL     OW 4378   5.202   4.458   0.898
 1160SOL    HW1 4379   5.218   4.534   0.961
 1160SOL    HW2 4380   5.186   4.374   0.951
 1161SOL     OW 4381   6.299   5.660   5.682
 1161SOL    HW1 4382   6.213   5.677   5.730
 1161SOL    HW2 4383   6.302   5.564   5.652
 1162SOL     OW 4384   2.417   2.533   6.922
 1162SOL    HW1 4385   2.461   2.457   6.970
 1162SOL    HW2 4386   2.416   2.514   6.823
 1163SOL     OW 4387   6.689   3.759   1.837
 1163SOL    HW1 4388   6.786   3.765   1.862
 1163SOL    HW2 4389   6.653   3.670   1.863
 1164SOL     OW 4390   5.441   2.608   3.712
 1164SOL    HW1 4391   5.364   2.544   3.718
 1164SOL    HW2 4392   5.456   2.649   3.802
 1165SOL     OW 4393   4.196   5.171   3.718
 1165SOL    HW1 4394   4.110   5.141   3.759
 1165SOL    HW2 4395   4.195   5.150   3.620
 1166SOL     OW 4396   3.673   0.059   0.176
 1166SOL    HW1 4397   3.756   0.020   0.216
 1166SOL    HW2 4398   3.610   7.009   0.154
 1167SOL     OW 4399   4.126   6.717   0.594
 1167SOL    HW1 4400   4.063   6.639   0.594
 1167SOL    HW2 4401   4.217   6.688   0.624
 1168SOL     OW 4402   5.451   2.729   2.143
 1168SOL    HW1 4403   5.468   2.827   2.142
 1168SOL    HW2 4404   5.367   2.710   2.194
 1169SOL     OW 4405   5.048   2.804   6.060
 1169SOL    HW1 4406   4.998   2.768   6.139
 1169SOL    HW2 4407   5.107   2.879   6.090
 1170SOL     OW 4408   5.410   0.053   2.775
 1170SOL    HW1 4409   5.444   0.127   2.716
 1170SOL    HW2 4410   5.320   0.079   2.811
 1171SOL     OW 4411   2.460   6.462   6.904
 1171SOL    HW1 4412   2.418   6.541   6.860
 1171SOL    HW2 4413   2.556   6.454   6.877
 1172SOL     OW 4414   3.173   3.816   1.629
 1172SOL    HW1 4415   3.079   3.824   1.663
 1172SOL    HW2 4416   3.236   3.807   1.706
 1173SOL     OW 4417   3.305   1.828   0.688
 1173SOL    HW1 4418   3.355   1.909   0.719
 1173SOL    HW2 4419   3.355   1.746   0.715
 1174SOL     OW 4420   2.421   4.777   2.017
 1174SOL    HW1 4421   2.378   4.688   2.032
 1174SOL    HW2 4422   2.448   4.816   2.106
 1175SOL     OW 4423   4.300   4.895   6.586
 1175SOL    HW1 4424   4.217   4.846   6.562
 1175SOL    HW2 4425   4.371   4.877   6.517
 1176SOL     OW 4426   5.735   3.394   6.373
 1176SOL    HW1 4427   5.772   3.472   6.323
 1176SOL    HW2 4428   5.712   3.422   6.466
 1177SOL     OW 4429   0.172   3.426   4.456
 1177SOL    HW1 4430   0.249   3.476   4.418
 1177SOL    HW2 4431   0.171   3.437   4.556
 1178SOL     OW 4432   4.017   4.245   0.682
 1178SOL    HW1 4433   3.954   4.167   0.680
 1178SOL    HW2 4434   3.976   4.323   0.636
 1179SOL     OW 4435   2.080   6.098   1.195
 1179SOL    HW1 4436   1.991   6.143   1.204
 1179SOL    HW2 4437   2.153   6.164   1.211
 1180SOL     OW 4438   2.883   5.639   4.324
 1180SOL    HW1 4439   2.913   5.546   4.347
 1180SOL    HW2 4440   2.802   5.634   4.265
 1181SOL     OW 4441   0.108   4.806   5.608
 1181SOL    HW1 4442   0.052   4.831   5.529
 1181SOL    HW2 4443   0.124   4.708   5.607
 1182SOL     OW 4444   4.302   5.015   3.920
 1182SOL    HW1 4445   4.263   5.044   4.008
 1182SOL    HW2 4446   4.296   5.089   3.854
 1183SOL     OW 4447   2.729   4.364   1.677
 1183SOL    HW1 4448   2.798   4.412   1.731
 1183SOL    HW2 4449   2.744   4.382   1.580
 1184SOL     OW 4450   6.961   1.534   5.435
 1184SOL    HW1 4451   6.921   1.481   5.360
 1184SOL    HW2 4452   6.977   1.628   5.404
 1185SOL     OW 4453   0.947   1.040   0.520
 1185SOL    HW1 4454   0.886   0.963   0.504
 1185SOL    HW2 4455   1.023   1.037   0.456
 1186SOL     OW 4456   4.706   6.321   5.247
 1186SOL    HW1 4457   4.658   6.395   5.294
 1186SOL    HW2 4458   4.773   6.361   5.184
 1187SOL     OW 4459   5.125   0.411   5.036
 1187SOL    HW1 4460   5.071   0.492   5.060
 1187SOL    HW2 4461   5.094   0.376   4.947
 1188SOL     OW 4462   2.910   5.370   6.044
 1188SOL    HW1 4463   2.823   5.367   5.995
 1188SOL    HW2 4464   2.939   5.276   6.064
 1189SOL     OW 4465   6.183   2.294   1.629
 1189SOL    HW1 4466   6.088   2.325   1.633
 1189SOL    HW2 4467   6.213   2.292   1.533
 1190SOL     OW 4468   3.197   6.081   2.927
 1190SOL    HW1 4469   3.104   6.046   2.937
 1190SOL    HW2 4470   3.258   6.005   2.901
 1191SOL     OW 4471   4.401   4.923   4.561
 1191SOL    HW1 4472   4.378   5.002   4.504
 1191SOL    HW2 4473   4.344   4.845   4.534
 1192SOL     OW 4474   5.137   4.803   3.214
 1192SOL    HW1 4475   5.170   4.709   3.213
 1192SOL    HW2 4476   5.085   4.820   3.130
 1193SOL     OW 4477   0.494   2.333   5.778
 1193SOL    HW1 4478   0.450   2.313   5.865
 1193SOL    HW2 4479   0.555   2.258   5.753
 1194SOL     OW 4480   6.036   1.065   1.455
 1194SOL    HW1 4481   6.125   1.089   1.493
 1194SOL    HW2 4482   6.005   1.137   1.394
 1195SOL     OW 4483   6.996   3.685   0.472
 1195SOL    HW1 4484   6.934   3.639   0.536
 1195SOL    HW2 4485   7.023   3.774   0.509
 1196SOL     OW 4486   6.712   4.660   3.648
 1196SOL    HW1 4487   6.780   4.683   3.579
 1196SOL    HW2 4488   6.757   4.624   3.729
 1197SOL     OW 4489   4.394   6.925   4.599
 1197SOL    HW1 4490   4.329   6.851   4.581
 1197SOL    HW2 4491   4.440   6.950   4.515
 1198SOL     OW 4492   1.776   3.557   2.836
 1198SOL    HW1 4493   1.709   3.553   2.762
 1198SOL    HW2 4494   1.773   3.472   2.888
 1199SOL     OW 4495   3.735   3.584   2.432
 1199SOL    HW1 4496   3.747   3.628   2.343
 1199SOL    HW2 4497   3.638   3.588   2.458
 1200SOL     OW 4498   3.082   4.075   5.007
 1200SOL    HW1 4499   3.071   4.175   5.006
 1200SOL    HW2 4500   2.992   4.032   5.015
 1201SOL     OW 4501   1.280   1.335   4.313
 1201SOL    HW1 4502   1.318   1.425   4.331
 1201SOL    HW2 4503   1.184   1.343   4.286
 1202SOL     OW 4504   0.302   5.337   5.360
 1202SOL    HW1 4505   0.336   5.412   5.417
 1202SOL    HW2 4506   0.242   5.373   5.290
 1203SOL     OW 4507   0.382   5.423   0.410
 1203SOL    HW1 4508   0.445   5.454   0.482
 1203SOL    HW2 4509   0.317   5.497   0.389
 1204SOL     OW 4510   4.595   1.171   1.378
 1204SOL    HW1 4511   4.583   1.242   1.309
 1204SOL    HW2 4512   4.529   1.185   1.452
 1205SOL     OW 4513   3.880   3.378   0.556
 1205SOL    HW1 4514   3.786   3.357   0.529
 1205SOL    HW2 4515   3.928   3.292   0.579
 1206SOL     OW 4516   2.515   2.607   5.554
 1206SOL    HW1 4517   2.475   2.646   5.636
 1206SOL    HW2 4518   2.493   2.665   5.475
 1207SOL     OW 4519   1.256   0.145   1.023
 1207SOL    HW1 4520   1.184   0.167   1.089
 1207SOL    HW2 4521   1.318   0.077   1.063
 1208SOL     OW 4522   3.606   3.648   1.283
 1208SOL    HW1 4523   3.646   3.567   1.325
 1208SOL    HW2 4524   3.538   3.688   1.344
 1209SOL     OW 4525   5.272   0.497   3.624
 1209SOL    HW1 4526   5.190   0.452   3.589
 1209SOL    HW2 4527   5.259   0.521   3.720
 1210SOL     OW 4528   4.539   6.846   3.655
 1210SOL    HW1 4529   4.450   6.808   3.631
 1210SOL    HW2 4530   4.536   6.880   3.749
 1211SOL     OW 4531   1.137   3.022   3.082
 1211SOL    HW1 4532   1.047   3.059   3.059
 1211SOL    HW2 4533   1.204   3.053   3.014
 1212SOL     OW 4534   6.697   0.625   6.089
 1212SOL    HW1 4535   6.660   0.705   6.042
 1212SOL    HW2 4536   6.793   0.614   6.066
 1213SOL     OW 4537   6.141   2.847   0.853
 1213SOL    HW1 4538   6.092   2.817   0.934
 1213SOL    HW2 4539   6.084   2.912   0.802
 1214SOL     OW 4540   0.627   3.710   0.158
 1214SOL    HW1 4541   0.637   3.748   0.065
 1214SOL    HW2 4542   0.558   3.638   0.156
 1215SOL     OW 4543   0.681   4.468   3.290
 1215SOL    HW1 4544   0.604   4.422   3.244
 1215SOL    HW2 4545   0.703   4.419   3.374
 1216SOL     OW 4546   4.983   0.312   0.765
 1216SOL    HW1 4547   4.905   0.254   0.787
 1216SOL    HW2 4548   4.955   0.382   0.699
 1217SOL     OW 4549   2.517   4.386   0.740
 1217SOL    HW1 4550   2.456   4.415   0.667
 1217SOL    HW2 4551   2.561   4.467   0.780
 1218SOL     OW 4552   1.135   3.144   4.753
 1218SOL    HW1 4553   1.061   3.205   4.780
 1218SOL    HW2 4554   1.220   3.174   4.796
 1219SOL     OW 4555   5.545   6.147   1.809
 1219SOL    HW1 4556   5.472   6.080   1.822
 1219SOL    HW2 4557   5.634   6.102   1.813
 1220SOL     OW 4558   1.035   4.765   3.017
 1220SOL    HW1 4559   0.963   4.806   3.073
 1220SOL    HW2 4560   0.999   4.687   2.967
 1221SOL     OW 4561   4.208   4.455   6.372
 1221SOL    HW1 4562   4.133   4.521   6.369
 1221SOL    HW2 4563   4.183   4.372   6.322
 1222SOL     OW 4564   6.614   1.012   6.725
 1222SOL    HW1 4565   6.657   0.925   6.700
 1222SOL    HW2 4566   6.542   1.033   6.659
 1223SOL     OW 4567   3.902   2.090   0.412
 1223SOL    HW1 4568   3.873   2.165   0.354
 1223SOL    HW2 4569   3.827   2.024   0.422
 1224SOL     OW 4570   3.841   5.774   0.636
 1224SOL    HW1 4571   3.839   5.685   0.682
 1224SOL    HW2 4572   3.877   5.764   0.544
 1225SOL     OW 4573   3.108   3.280   6.588
 1225SOL    HW1 4574   3.038   3.291   6.517
 1225SOL    HW2 4575   3.084   3.201   6.645
 1226SOL     OW 4576   2.279   6.622   1.203
 1226SOL    HW1 4577   2.221   6.699   1.175
 1226SOL    HW2 4578   2.328   6.587   1.123
 1227SOL     OW 4579   5.975   4.520   6.072
 1227SOL    HW1 4580   5.984   4.448   6.141
 1227SOL    HW2 4581   5.931   4.481   5.990
 1228SOL     OW 4582   2.870   1.911   6.064
 1228SOL    HW1 4583   2.856   2.008   6.044
 1228SOL    HW2 4584   2.963   1.885   6.039
 1229SOL     OW 4585   3.468   5.103   6.362
 1229SOL    HW1 4586   3.452   5.105   6.263
 1229SOL    HW2 4587   3.562   5.133   6.381
 1230SOL     OW 4588   4.905   6.868   2.504
 1230SOL    HW1 4589   4.877   6.959   2.471
 1230SOL    HW2 4590   4.904   6.804   2.427
 1231SOL     OW 4591   1.697   2.437   4.732
 1231SOL    HW1 4592   1.604   2.418   4.763
 1231SOL    HW2 4593   1.755   2.460   4.810
 1232SOL     OW 4594   0.212   2.236   5.554
 1232SOL    HW1 4595   0.306   2.223   5.583
 1232SOL    HW2 4596   0.160   2.281   5.626
 1233SOL     OW 4597   1.081   5.183   5.173
 1233SOL    HW1 4598   1.036   5.261   5.216
 1233SOL    HW2 4599   1.174   5.175   5.209
 1234SOL     OW 4600   6.346   2.812   5.982
 1234SOL    HW1 4601   6.259   2.763   5.975
 1234SOL    HW2 4602   6.343   2.894   5.925
 1235SOL     OW 4603   6.224   5.478   3.046
 1235SOL    HW1 4604   6.306   5.526   3.076
 1235SOL    HW2 4605   6.194   5.515   2.958
 1236SOL     OW 4606   5.028   0.872   6.887
 1236SOL    HW1 4607   4.957   0.803   6.872
 1236SOL    HW2 4608   5.011   0.919   6.974
 1237SOL     OW 4609   2.047   4.517   6.134
 1237SOL    HW1 4610   2.071   4.558   6.046
 1237SOL    HW2 4611   1.996   4.582   6.189
 1238SOL     OW 4612   1.162   1.363   1.039
 1238SOL    HW1 4613   1.099   1.439   1.022
 1238SOL    HW2 4614   1.253   1.388   1.006
 1239SOL     OW 4615   6.905   6.381   6.303
 1239SOL    HW1 4616   6.951   6.430   6.377
 1239SOL    HW2 4617   6.807   6.400   6.306
 1240SOL     OW 4618   5.401   6.332   1.470
 1240SOL    HW1 4619   5.459   6.251   1.472
 1240SOL    HW2 4620   5.457   6.414   1.480
 1241SOL     OW 4621   5.254   2.957   4.240
 1241SOL    HW1 4622   5.213   2.942   4.330
 1241SOL    HW2 4623   5.326   2.890   4.224
 1242SOL     OW 4624   0.788   3.643   1.461
 1242SOL    HW1 4625   0.692   3.647   1.492
 1242SOL    HW2 4626   0.790   3.637   1.361
 1243SOL     OW 4627   0.210   6.696   5.107
 1243SOL    HW1 4628   0.136   6.720   5.170
 1243SOL    HW2 4629   0.197   6.746   5.021
 1244SOL     OW 4630   5.757   6.896   4.749
 1244SOL    HW1 4631   5.661   6.919   4.732
 1244SOL    HW2 4632   5.801   6.870   4.663
 1245SOL     OW 4633   5.366   4.738   0.283
 1245SOL    HW1 4634   5.328   4.657   0.328
 1245SOL    HW2 4635   5.371   4.814   0.348
 1246SOL     OW 4636   2.932   0.094   0.865
 1246SOL    HW1 4637   2.901   0.158   0.935
 1246SOL    HW2 4638   2.861   0.025   0.850
 1247SOL     OW 4639   1.081   6.598   6.325
 1247SOL    HW1 4640   1.015   6.624   6.254
 1247SOL    HW2 4641   1.168   6.641   6.306
 1248SOL     OW 4642   1.930   6.919   5.000
 1248SOL    HW1 4643   1.889   6.845   4.946
 1248SOL    HW2 4644   1.990   6.880   5.069
 1249SOL     OW 4645   6.405   1.829   2.306
 1249SOL    HW1 4646   6.376   1.922   2.287
 1249SOL    HW2 4647   6.331   1.765   2.285
 1250SOL     OW 4648   5.784   5.342   3.928
 1250SOL    HW1 4649   5.827   5.263   3.971
 1250SOL    HW2 4650   5.685   5.328   3.924
 1251SOL     OW 4651   2.830   0.945   3.409
 1251SOL    HW1 4652   2.900   0.875   3.421
 1251SOL    HW2 4653   2.772   0.949   3.490
 1252SOL     OW 4654   4.598   3.278   6.397
 1252SOL    HW1 4655   4.672   3.221   6.431
 1252SOL    HW2 4656   4.514   3.257   6.448
 1253SOL     OW 4657   2.915   5.896   2.830
 1253SOL    HW1 4658   2.914   5.993   2.856
 1253SOL    HW2 4659   2.898   5.888   2.732
 1254SOL     OW 4660   0.949   2.944   2.621
 1254SOL    HW1 4661   0.941   2.999   2.537
 1254SOL    HW2 4662   0.886   2.867   2.616
 1255SOL     OW 4663   6.074   1.884   5.453
 1255SOL    HW1 4664   6.145   1.854   5.390
 1255SOL    HW2 4665   6.056   1.813   5.521
 1256SOL     OW 4666   0.007   6.710   3.383
 1256SOL    HW1 4667   0.005   6.677   3.478
 1256SOL    HW2 4668   0.092   6.680   3.340
 1257SOL     OW 4669   7.005   6.349   5.257
 1257SOL    HW1 4670   0.021   6.267   5.299
 1257SOL    HW2 4671   6.952   6.323   5.176
 1258SOL     OW 4672   2.000   5.104   2.568
 1258SOL    HW1 4673   1.980   5.031   2.502
 1258SOL    HW2 4674   2.094   5.095   2.600
 1259SOL     OW 4675   4.324   0.679   3.932
 1259SOL    HW1 4676   4.234   0.644   3.907
 1259SOL    HW2 4677   4.392   0.650   3.865
 1260SOL     OW 4678   1.830   1.566   0.576
 1260SOL    HW1 4679   1.789   1.569   0.484
 1260SOL    HW2 4680   1.832   1.472   0.609
 1261SOL     OW 4681   0.128   5.847   6.593
 1261SOL    HW1 4682   0.223   5.865   6.618
 1261SOL    HW2 4683   0.125   5.788   6.512
 1262SOL     OW 4684   5.227   5.005   1.185
 1262SOL    HW1 4685   5.238   4.941   1.109
 1262SOL    HW2 4686   5.173   4.961   1.257
 1263SOL     OW 4687   0.224   2.262   2.071
 1263SOL    HW1 4688   0.173   2.314   2.140
 1263SOL    HW2 4689   0.281   2.194   2.116
 1264SOL     OW 4690   6.384   4.634   0.775
 1264SOL    HW1 4691   6.464   4.692   0.758
 1264SOL    HW2 4692   6.376   4.618   0.873
 1265SOL     OW 4693   5.573   5.594   4.572
 1265SOL    HW1 4694   5.522   5.679   4.575
 1265SOL    HW2 4695   5.559   5.550   4.483
 1266SOL     OW 4696   0.637   1.460   3.986
 1266SOL    HW1 4697   0.716   1.510   3.951
 1266SOL    HW2 4698   0.654   1.361   3.980
 1267SOL     OW 4699   4.781   0.693   1.256
 1267SOL    HW1 4700   4.816   0.649   1.174
 1267SOL    HW2 4701   4.818   0.649   1.338
 1268SOL     OW 4702   2.756   2.627   0.317
 1268SOL    HW1 4703   2.656   2.628   0.311
 1268SOL    HW2 4704   2.791   2.543   0.276
 1269SOL     OW 4705   6.060   3.909   4.455
 1269SOL    HW1 4706   6.084   3.999   4.419
 1269SOL    HW2 4707   6.025   3.919   4.548
 1270SOL     OW 4708   1.402   3.718   3.328
 1270SOL    HW1 4709   1.343   3.796   3.307
 1270SOL    HW2 4710   1.432   3.676   3.242
 1271SOL     OW 4711   2.734   1.906   2.844
 1271SOL    HW1 4712   2.754   1.910   2.746
 1271SOL    HW2 4713   2.791   1.972   2.893
 1272SOL     OW 4714   5.755   4.066   0.191
 1272SOL    HW1 4715   5.774   4.146   0.134
 1272SOL    HW2 4716   5.706   3.997   0.138
 1273SOL     OW 4717   0.583   3.125   6.836
 1273SOL    HW1 4718   0.589   3.174   6.923
 1273SOL    HW2 4719   0.511   3.165   6.779
 1274SOL     OW 4720   6.816   4.448   1.694
 1274SOL    HW1 4721   6.883   4.488   1.757
 1274SOL    HW2 4722   6.863   4.393   1.626
 1275SOL     OW 4723   4.203   1.247   4.315
 1275SOL    HW1 4724   4.265   1.169   4.305
 1275SOL    HW2 4725   4.198   1.296   4.227
 1276SOL     OW 4726   6.598   5.037   5.285
 1276SOL    HW1 4727   6.603   4.937   5.287
 1276SOL    HW2 4728   6.610   5.073   5.377
 1277SOL     OW 4729   1.867   5.778   5.874
 1277SOL    HW1 4730   1.824   5.744   5.791
 1277SOL    HW2 4731   1.894   5.874   5.862
 1278SOL     OW 4732   1.113   0.117   5.060
 1278SOL    HW1 4733   1.111   0.172   4.976
 1278SOL    HW2 4734   1.207   0.112   5.094
 1279SOL     OW 4735   1.822   4.783   0.472
 1279SOL    HW1 4736   1.782   4.717   0.408
 1279SOL    HW2 4737   1.890   4.838   0.425
 1280SOL     OW 4738   4.757   6.390   4.278
 1280SOL    HW1 4739   4.805   6.400   4.365
 1280SOL    HW2 4740   4.671   6.440   4.281
 1281SOL     OW 4741   2.588   6.306   3.143
 1281SOL    HW1 4742   2.583   6.335   3.239
 1281SOL    HW2 4743   2.642   6.223   3.137
 1282SOL     OW 4744   6.624   2.572   0.365
 1282SOL    HW1 4745   6.695   2.621   0.415
 1282SOL    HW2 4746   6.562   2.528   0.430
 1283SOL     OW 4747   6.897   3.724   5.157
 1283SOL    HW1 4748   6.987   3.751   5.125
 1283SOL    HW2 4749   6.828   3.754   5.091
 1284SOL     OW 4750   4.683   1.869   1.747
 1284SOL    HW1 4751   4.760   1.914   1.793
 1284SOL    HW2 4752   4.628   1.820   1.815
 1285SOL     OW 4753   4.350   1.696   6.072
 1285SOL    HW1 4754   4.414   1.736   6.007
 1285SOL    HW2 4755   4.294   1.627   6.026
 1286SOL     OW 4756   4.344   3.800   1.403
 1286SOL    HW1 4757   4.441   3.822   1.406
 1286SOL    HW2 4758   4.303   3.817   1.493
 1287SOL     OW 4759   5.290   4.754   4.994
 1287SOL    HW1 4760   5.352   4.832   4.989
 1287SOL    HW2 4761   5.316   4.695   5.070
 1288SOL     OW 4762   3.795   3.247   6.627
 1288SOL    HW1 4763   3.699   3.252   6.601
 1288SOL    HW2 4764   3.818   3.154   6.654
 1289SOL     OW 4765   6.966   6.934   0.732
 1289SOL    HW1 4766   7.007   7.020   0.763
 1289SOL    HW2 4767   6.867   6.938   0.745
 1290SOL     OW 4768   1.018   6.155   0.086
 1290SOL    HW1 4769   0.938   6.095   0.080
 1290SOL    HW2 4770   0.989   6.250   0.085
 1291SOL     OW 4771   0.620   4.233   3.793
 1291SOL    HW1 4772   0.658   4.289   3.867
 1291SOL    HW2 4773   0.673   4.148   3.785
 1292SOL     OW 4774   0.470   5.974   2.441
 1292SOL    HW1 4775   0.553   5.970   2.495
 1292SOL    HW2 4776   0.493   5.965   2.344
 1293SOL     OW 4777   1.908   2.518   0.100
 1293SOL    HW1 4778   1.876   2.547   0.191
 1293SOL    HW2 4779   1.989   2.461   0.110
 1294SOL     OW 4780   0.439   3.616   6.167
 1294SOL    HW1 4781   0.397   3.572   6.088
 1294SOL    HW2 4782   0.368   3.657   6.224
 1295SOL     OW 4783   0.064   3.272   1.354
 1295SOL    HW1 4784   0.019   3.220   1.426
 1295SOL    HW2 4785   0.029   3.242   1.265
 1296SOL     OW 4786   3.726   6.765   5.029
 1296SOL    HW1 4787   3.634   6.786   5.063
 1296SOL    HW2 4788   3.777   6.850   5.016
 1297SOL     OW 4789   0.394   0.381   1.266
 1297SOL    HW1 4790   0.385   0.414   1.360
 1297SOL    HW2 4791   0.479   0.416   1.226
 1298SOL     OW 4792   5.163   5.827   3.496
 1298SOL    HW1 4793   5.105   5.845   3.417
 1298SOL    HW2 4794   5.117   5.857   3.579
 1299SOL     OW 4795   2.449   2.602   3.687
 1299SOL    HW1 4796   2.397   2.671   3.737
 1299SOL    HW2 4797   2.457   2.519   3.743
 1300SOL     OW 4798   1.610   3.343   0.715
 1300SOL    HW1 4799   1.514   3.371   0.724
 1300SOL    HW2 4800   1.615   3.243   0.710
 1301SOL     OW 4801   0.700   6.240   1.287
 1301SOL    HW1 4802   0.660   6.172   1.349
 1301SOL    HW2 4803   0.780   6.281   1.329
 1302SOL     OW 4804   4.887   6.628   5.303
 1302SOL    HW1 4805   4.904   6.660   5.210
 1302SOL    HW2 4806   4.789   6.613   5.317
 1303SOL     OW 4807   3.704   2.005   1.851
 1303SOL    HW1 4808   3.798   2.020   1.819
 1303SOL    HW2 4809   3.670   2.087   1.896
 1304SOL     OW 4810   1.584   0.780   0.379
 1304SOL    HW1 4811   1.631   0.702   0.337
 1304SOL    HW2 4812   1.637   0.812   0.458
 1305SOL     OW 4813   5.470   3.523   0.347
 1305SOL    HW1 4814   5.550   3.561   0.302
 1305SOL    HW2 4815   5.471   3.547   0.444
 1306SOL     OW 4816   1.233   5.477   3.929
 1306SOL    HW1 4817   1.158   5.470   3.996
 1306SOL    HW2 4818   1.215   5.553   3.867
 1307SOL     OW 4819   1.596   4.190   3.894
 1307SOL    HW1 4820   1.561   4.232   3.978
 1307SOL    HW2 4821   1.662   4.118   3.918
 1308SOL     OW 4822   6.638   0.038   5.523
 1308SOL    HW1 4823   6.608   6.972   5.488
 1308SOL    HW2 4824   6.580   0.110   5.485
 1309SOL     OW 4825   5.517   4.969   4.997
 1309SOL    HW1 4826   5.499   5.020   5.081
 1309SOL    HW2 4827   5.614   4.972   4.976
 1310SOL     OW 4828   6.475   3.937   3.614
 1310SOL    HW1 4829   6.449   3.842   3.631
 1310SOL    HW2 4830   6.467   3.957   3.516
 1311SOL     OW 4831   6.736   5.558   5.568
 1311SOL    HW1 4832   6.715   5.583   5.662
 1311SOL    HW2 4833   6.650   5.548   5.517
 1312SOL     OW 4834   1.319   6.718   6.538
 1312SOL    HW1 4835   1.238   6.768   6.506
 1312SOL    HW2 4836   1.299   6.676   6.627
 1313SOL     OW 4837   0.259   4.747   2.722
 1313SOL    HW1 4838   0.338   4.695   2.689
 1313SOL    HW2 4839   0.227   4.708   2.808
 1314SOL     OW 4840   4.107   1.611   4.664
 1314SOL    HW1 4841   4.125   1.519   4.628
 1314SOL    HW2 4842   4.099   1.608   4.763
 1315SOL     OW 4843   0.626   1.919   2.515
 1315SOL    HW1 4844   0.688   1.842   2.497
 1315SOL    HW2 4845   0.573   1.900   2.597
 1316SOL     OW 4846   3.198   6.873   6.099
 1316SOL    HW1 4847   3.107   6.886   6.059
 1316SOL    HW2 4848   3.199   6.908   6.193
 1317SOL     OW 4849   1.792   4.223   5.679
 1317SOL    HW1 4850   1.846   4.141   5.659
 1317SOL    HW2 4851   1.835   4.274   5.754
 1318SOL     OW 4852   0.656   2.686   1.087
 1318SOL    HW1 4853   0.752   2.668   1.069
 1318SOL    HW2 4854   0.638   2.784   1.081
 1319SOL     OW 4855   6.668   6.199   0.768
 1319SOL    HW1 4856   6.570   6.195   0.748
 1319SOL    HW2 4857   6.682   6.238   0.859
 1320SOL     OW 4858   3.800   4.820   6.728
 1320SOL    HW1 4859   3.711   4.851   6.695
 1320SOL    HW2 4860   3.787   4.763   6.809
 1321SOL     OW 4861   4.924   2.695   6.654
 1321SOL    HW1 4862   4.930   2.613   6.597
 1321SOL    HW2 4863   4.997   2.694   6.722
 1322SOL     OW 4864   4.277   1.899   4.096
 1322SOL    HW1 4865   4.268   1.826   4.164
 1322SOL    HW2 4866   4.279   1.858   4.004
 1323SOL     OW 4867   4.295   6.971   6.030
 1323SOL    HW1 4868   4.378   7.017   5.999
 1323SOL    HW2 4869   4.299   6.875   6.005
 1324SOL     OW 4870   0.406   3.918   0.176
 1324SOL    HW1 4871   0.402   4.004   0.126
 1324SOL    HW2 4872   0.489   3.868   0.149
 1325SOL     OW 4873   2.593   6.406   4.414
 1325SOL    HW1 4874   2.506   6.360   4.430
 1325SOL    HW2 4875   2.604   6.424   4.316
 1326SOL     OW 4876   5.224   3.501   5.646
 1326SOL    HW1 4877   5.267   3.486   5.557
 1326SOL    HW2 4878   5.129   3.469   5.642
 1327SOL     OW 4879   1.152   6.547   0.957
 1327SOL    HW1 4880   1.128   6.486   1.033
 1327SOL    HW2 4881   1.205   6.498   0.889
 1328SOL     OW 4882   2.639   3.051   1.384
 1328SOL    HW1 4883   2.607   3.035   1.291
 1328SOL    HW2 4884   2.670   3.146   1.394
 1329SOL     OW 4885   0.689   2.287   2.022
 1329SOL    HW1 4886   0.768   2.268   1.963
 1329SOL    HW2 4887   0.623   2.213   2.014
 1330SOL     OW 4888   1.321   1.213   2.046
 1330SOL    HW1 4889   1.260   1.289   2.025
 1330SOL    HW2 4890   1.322   1.149   1.970
 1331SOL     OW 4891   4.936   3.262   3.015
 1331SOL    HW1 4892   5.019   3.207   3.014
 1331SOL    HW2 4893   4.940   3.331   2.942
 1332SOL     OW 4894   2.763   6.850   6.787
 1332SOL    HW1 4895   2.778   6.821   6.881
 1332SOL    HW2 4896   2.822   6.929   6.767
 1333SOL     OW 4897   3.230   3.519   3.863
 1333SOL    HW1 4898   3.294   3.494   3.790
 1333SOL    HW2 4899   3.276   3.579   3.929
 1334SOL     OW 4900   6.197   1.409   3.783
 1334SOL    HW1 4901   6.184   1.325   3.836
 1334SOL    HW2 4902   6.275   1.397   3.721
 1335SOL     OW 4903   2.268   2.361   1.896
 1335SOL    HW1 4904   2.282   2.285   1.959
 1335SOL    HW2 4905   2.320   2.344   1.812
 1336SOL     OW 4906   2.493   2.275   5.013
 1336SOL    HW1 4907   2.561   2.207   5.039
 1336SOL    HW2 4908   2.517   2.363   5.053
 1337SOL     OW 4909   1.201   1.043   3.269
 1337SOL    HW1 4910   1.285   1.095   3.285
 1337SOL    HW2 4911   1.201   0.960   3.325
 1338SOL     OW 4912   6.318   2.305   4.660
 1338SOL    HW1 4913   6.337   2.259   4.574
 1338SOL    HW2 4914   6.393   2.287   4.724
 1339SOL     OW 4915   6.159   2.082   6.902
 1339SOL    HW1 4916   6.093   2.154   6.881
 1339SOL    HW2 4917   6.146   2.006   6.839
 1340SOL     OW 4918   5.811   2.083   2.632
 1340SOL    HW1 4919   5.740   2.128   2.579
 1340SOL    HW2 4920   5.811   2.119   2.725
 1341SOL     OW 4921   4.525   6.373   6.617
 1341SOL    HW1 4922   4.512   6.276   6.637
 1341SOL    HW2 4923   4.608   6.385   6.562
 1342SOL     OW 4924   2.881   5.681   5.927
 1342SOL    HW1 4925   2.787   5.689   5.960
 1342SOL    HW2 4926   2.898   5.587   5.898
 1343SOL     OW 4927   5.269   5.479   2.397
 1343SOL    HW1 4928   5.233   5.406   2.339
 1343SOL    HW2 4929   5.221   5.480   2.484
 1344SOL     OW 4930   0.653   5.933   4.492
 1344SOL    HW1 4931   0.559   5.928   4.526
 1344SOL    HW2 4932   0.685   6.028   4.496
 1345SOL     OW 4933   0.874   5.960   2.931
 1345SOL    HW1 4934   0.779   5.946   2.956
 1345SOL    HW2 4935   0.923   5.873   2.936
 1346SOL     OW 4936   1.087   5.594   4.470
 1346SOL    HW1 4937   0.999   5.642   4.467
 1346SOL    HW2 4938   1.093   5.531   4.393
 1347SOL     OW 4939   0.176   6.695   6.174
 1347SOL    HW1 4940   0.146   6.787   6.150
 1347SOL    HW2 4941   0.097   6.633   6.175
 1348SOL     OW 4942   6.101   6.549   4.129
 1348SOL    HW1 4943   6.015   6.500   4.113
 1348SOL    HW2 4944   6.178   6.490   4.108
 1349SOL     OW 4945   4.955   2.984   5.522
 1349SOL    HW1 4946   4.970   2.896   5.566
 1349SOL    HW2 4947   4.908   3.046   5.585
 1350SOL     OW 4948   5.477   4.933   5.908
 1350SOL    HW1 4949   5.452   4.937   5.811
 1350SOL    HW2 4950   5.487   5.025   5.944
 1351SOL     OW 4951   5.772   1.689   2.983
 1351SOL    HW1 4952   5.677   1.691   2.952
 1351SOL    HW2 4953   5.833   1.716   2.908
 1352SOL     OW 4954   6.739   5.720   3.948
 1352SOL    HW1 4955   6.817   5.672   3.987
 1352SOL    HW2 4956   6.760   5.747   3.853
 1353SOL     OW 4957   0.540   2.905   0.426
 1353SOL    HW1 4958   0.519   2.842   0.501
 1353SOL    HW2 4959   0.636   2.895   0.400
 1354SOL     OW 4960   0.846   3.382   1.539
 1354SOL    HW1 4961   0.838   3.475   1.504
 1354SOL    HW2 4962   0.925   3.375   1.600
 1355SOL     OW 4963   5.640   2.679   4.315
 1355SOL    HW1 4964   5.686   2.765   4.337
 1355SOL    HW2 4965   5.541   2.692   4.318
 1356SOL     OW 4966   3.687   3.574   1.956
 1356SOL    HW1 4967   3.696   3.634   2.035
 1356SOL    HW2 4968   3.777   3.552   1.919
 1357SOL     OW 4969   0.158   3.937   6.679
 1357SOL    HW1 4970   0.078   3.907   6.625
 1357SOL    HW2 4971   0.144   4.031   6.709
 1358SOL     OW 4972   4.248   6.663   6.019
 1358SOL    HW1 4973   4.257   6.640   6.116
 1358SOL    HW2 4974   4.290   6.591   5.964
 1359SOL     OW 4975   5.606   4.981   2.468
 1359SOL    HW1 4976   5.672   4.979   2.543
 1359SOL    HW2 4977   5.654   4.997   2.382
 1360SOL     OW 4978   2.758   3.418   0.337
 1360SOL    HW1 4979   2.729   3.418   0.433
 1360SOL    HW2 4980   2.806   3.504   0.318
 1361SOL     OW 4981   6.121   4.252   5.667
 1361SOL    HW1 4982   6.194   4.231   5.733
 1361SOL    HW2 4983   6.157   4.243   5.574
 1362SOL     OW 4984   3.422   4.060   3.940
 1362SOL    HW1 4985   3.404   4.078   3.843
 1362SOL    HW2 4986   3.520   4.049   3.954
 1363SOL     OW 4987   6.451   5.136   3.285
 1363SOL    HW1 4988   6.356   5.130   3.317
 1363SOL    HW2 4989   6.513   5.103   3.356
 1364SOL     OW 4990   5.710   4.336   1.135
 1364SOL    HW1 4991   5.745   4.426   1.158
 1364SOL    HW2 4992   5.715   4.321   1.036
 1365SOL     OW 4993   0.615   4.466   6.418
 1365SOL    HW1 4994   0.537   4.417   6.457
 1365SOL    HW2 4995   0.700   4.431   6.459
 1366SOL     OW 4996   1.486   5.487   0.027
 1366SOL    HW1 4997   1.410   5.527   7.000
 1366SOL    HW2 4998   1.551   5.558   0.052
 1367SOL     OW 4999   1.990   0.087   3.448
 1367SOL    HW1 5000   2.031   0.123   3.532
 1367SOL    HW2 5001   1.959   7.017   3.463
 1368SOL     OW 5002   5.936   0.398   3.943
 1368SOL    HW1 5003   5.889   0.432   3.862
 1368SOL    HW2 5004   5.962   0.303   3.929
 1369SOL     OW 5005   2.514   6.498   1.871
 1369SOL    HW1 5006   2.508   6.536   1.778
 1369SOL    HW2 5007   2.451   6.547   1.931
 1370SOL     OW 5008   3.682   0.681   1.352
 1370SOL    HW1 5009   3.719   0.672   1.445
 1370SOL    HW2 5010   3.699   0.596   1.302
 1371SOL     OW 5011   6.122   1.677   4.200
 1371SOL    HW1 5012   6.051   1.692   4.268
 1371SOL    HW2 5013   6.166   1.764   4.178
 1372SOL     OW 5014   1.452   3.301   0.105
 1372SOL    HW1 5015   1.397   3.367   0.054
 1372SOL    HW2 5016   1.515   3.255   0.042
 1373SOL     OW 5017   5.450   3.905   6.854
 1373SOL    HW1 5018   5.505   3.874   6.776
 1373SOL    HW2 5019   5.365   3.853   6.857
 1374SOL     OW 5020   4.603   2.476   0.234
 1374SOL    HW1 5021   4.582   2.383   0.204
 1374SOL    HW2 5022   4.698   2.481   0.265
 1375SOL     OW 5023   0.078   4.202   6.638
 1375SOL    HW1 5024   7.008   4.237   6.642
 1375SOL    HW2 5025   0.143   4.279   6.637
 1376SOL     OW 5026   4.848   3.932   4.168
 1376SOL    HW1 5027   4.835   3.910   4.072
 1376SOL    HW2 5028   4.865   3.847   4.219
 1377SOL     OW 5029   6.847   4.008   5.525
 1377SOL    HW1 5030   6.753   4.018   5.495
 1377SOL    HW2 5031   6.909   4.033   5.451
 1378SOL     OW 5032   6.624   1.046   4.878
 1378SOL    HW1 5033   6.705   1.054   4.821
 1378SOL    HW2 5034   6.607   0.949   4.900
 1379SOL     OW 5035   2.909   0.088   2.391
 1379SOL    HW1 5036   2.912   0.121   2.485
 1379SOL    HW2 5037   2.902   0.165   2.328
 1380SOL     OW 5038   0.490   0.323   2.516
 1380SOL    HW1 5039   0.509   0.389   2.443
 1380SOL    HW2 5040   0.460   0.371   2.598
 1381SOL     OW 5041   5.394   2.497   6.680
 1381SOL    HW1 5042   5.463   2.450   6.735
 1381SOL    HW2 5043   5.376   2.587   6.720
 1382SOL     OW 5044   4.775   4.683   0.662
 1382SOL    HW1 5045   4.713   4.760   0.647
 1382SOL    HW2 5046   4.776   4.624   0.582
 1383SOL     OW 5047   0.687   0.046   0.587
 1383SOL    HW1 5048   0.706   6.973   0.601
 1383SOL    HW2 5049   0.678   0.092   0.675
 1384SOL     OW 5050   3.780   1.049   2.588
 1384SOL    HW1 5051   3.771   1.118   2.660
 1384SOL    HW2 5052   3.797   0.960   2.629
 1385SOL     OW 5053   0.925   3.258   2.778
 1385SOL    HW1 5054   0.827   3.277   2.785
 1385SOL    HW2 5055   0.945   3.172   2.825
 1386SOL     OW 5056   2.309   1.302   4.447
 1386SOL    HW1 5057   2.259   1.278   4.364
 1386SOL    HW2 5058   2.342   1.219   4.492
 1387SOL     OW 5059   4.006   6.374   3.372
 1387SOL    HW1 5060   4.033   6.282   3.397
 1387SOL    HW2 5061   4.022   6.389   3.275
 1388SOL     OW 5062   0.476   6.342   3.414
 1388SOL    HW1 5063   0.407   6.370   3.347
 1388SOL    HW2 5064   0.432   6.325   3.502
 1389SOL     OW 5065   0.372   1.516   3.885
 1389SOL    HW1 5066   0.316   1.570   3.948
 1389SOL    HW2 5067   0.469   1.535   3.902
 1390SOL     OW 5068   4.517   1.982   6.036
 1390SOL    HW1 5069   4.594   1.969   6.098
 1390SOL    HW2 5070   4.439   2.018   6.086
 1391SOL     OW 5071   6.610   0.723   5.590
 1391SOL    HW1 5072   6.699   0.693   5.554
 1391SOL    HW2 5073   6.543   0.720   5.516
 1392SOL     OW 5074   5.542   5.384   5.911
 1392SOL    HW1 5075   5.529   5.306   5.849
 1392SOL    HW2 5076   5.601   5.356   5.987
 1393SOL     OW 5077   5.726   3.036   6.674
 1393SOL    HW1 5078   5.757   3.102   6.743
 1393SOL    HW2 5079   5.727   3.079   6.584
 1394SOL     OW 5080   3.552   0.272   3.583
 1394SOL    HW1 5081   3.615   0.329   3.636
 1394SOL    HW2 5082   3.503   0.210   3.644
 1395SOL     OW 5083   1.461   3.833   3.060
 1395SOL    HW1 5084   1.418   3.760   3.008
 1395SOL    HW2 5085   1.556   3.843   3.033
 1396SOL     OW 5086   1.686   6.697   3.888
 1396SOL    HW1 5087   1.685   6.709   3.789
 1396SOL    HW2 5088   1.593   6.677   3.920
 1397SOL     OW 5089   0.707   6.533   4.628
 1397SOL    HW1 5090   0.749   6.492   4.709
 1397SOL    HW2 5091   0.650   6.610   4.656
 1398SOL     OW 5092   0.590   1.928   0.491
 1398SOL    HW1 5093   0.644   1.849   0.522
 1398SOL    HW2 5094   0.637   2.012   0.517
 1399SOL     OW 5095   4.519   0.068   0.617
 1399SOL    HW1 5096   4.467   0.020   0.688
 1399SOL    HW2 5097   4.606   0.020   0.603
 1400SOL     OW 5098   6.170   1.029   4.189
 1400SOL    HW1 5099   6.075   1.011   4.214
 1400SOL    HW2 5100   6.215   1.078   4.263
 1401SOL     OW 5101   6.275   6.647   4.392
 1401SOL    HW1 5102   6.194   6.589   4.401
 1401SOL    HW2 5103   6.355   6.596   4.422
 1402SOL     OW 5104   5.337   4.196   0.177
 1402SOL    HW1 5105   5.377   4.184   0.268
 1402SOL    HW2 5106   5.398   4.252   0.121
 1403SOL     OW 5107   2.368   2.485   0.739
 1403SOL    HW1 5108   2.356   2.415   0.669
 1403SOL    HW2 5109   2.385   2.441   0.827
 1404SOL     OW 5110   4.766   6.976   0.560
 1404SOL    HW1 5111   4.754   6.966   0.461
 1404SOL    HW2 5112   4.829   6.906   0.594
 1405SOL     OW 5113   2.568   3.675   0.202
 1405SOL    HW1 5114   2.497   3.609   0.176
 1405SOL    HW2 5115   2.649   3.627   0.233
 1406SOL     OW 5116   2.258   4.810   1.234
 1406SOL    HW1 5117   2.337   4.788   1.292
 1406SOL    HW2 5118   2.273   4.899   1.191
 1407SOL     OW 5119   1.746   3.680   3.180
 1407SOL    HW1 5120   1.808   3.668   3.257
 1407SOL    HW2 5121   1.690   3.598   3.169
 1408SOL     OW 5122   5.130   6.377   6.499
 1408SOL    HW1 5123   5.192   6.443   6.540
 1408SOL    HW2 5124   5.151   6.367   6.402
 1409SOL     OW 5125   0.083   0.725   5.280
 1409SOL    HW1 5126   0.160   0.766   5.330
 1409SOL    HW2 5127   0.087   0.626   5.289
 1410SOL     OW 5128   3.193   3.887   6.898
 1410SOL    HW1 5129   3.236   3.976   6.911
 1410SOL    HW2 5130   3.094   3.895   6.914
 1411SOL     OW 5131   3.732   6.290   6.208
 1411SOL    HW1 5132   3.651   6.324   6.257
 1411SOL    HW2 5133   3.805   6.273   6.273
 1412SOL     OW 5134   0.771   4.639   1.579
 1412SOL    HW1 5135   0.753   4.721   1.524
 1412SOL    HW2 5136   0.696   4.625   1.644
 1413SOL     OW 5137   1.766   1.999   4.383
 1413SOL    HW1 5138   1.803   2.083   4.421
 1413SOL    HW2 5139   1.754   2.009   4.284
 1414SOL     OW 5140   1.614   2.718   1.447
 1414SOL    HW1 5141   1.533   2.673   1.409
 1414SOL    HW2 5142   1.637   2.675   1.534
 1415SOL     OW 5143   3.209   2.162   4.522
 1415SOL    HW1 5144   3.269   2.102   4.573
 1415SOL    HW2 5145   3.245   2.255   4.523
 1416SOL     OW 5146   4.285   0.149   4.585
 1416SOL    HW1 5147   4.351   0.220   4.613
 1416SOL    HW2 5148   4.333   0.062   4.577
 1417SOL     OW 5149   3.356   2.988   6.088
 1417SOL    HW1 5150   3.417   3.043   6.144
 1417SOL    HW2 5151   3.265   3.030   6.085
 1418SOL     OW 5152   3.111   3.548   0.304
 1418SOL    HW1 5153   3.162   3.464   0.283
 1418SOL    HW2 5154   3.161   3.601   0.372
 1419SOL     OW 5155   1.816   5.384   4.001
 1419SOL    HW1 5156   1.805   5.475   4.042
 1419SOL    HW2 5157   1.751   5.373   3.925
 1420SOL     OW 5158   4.102   5.722   2.875
 1420SOL    HW1 5159   4.138   5.629   2.864
 1420SOL    HW2 5160   4.082   5.738   2.972
 1421SOL     OW 5161   1.151   4.614   4.317
 1421SOL    HW1 5162   1.214   4.662   4.378
 1421SOL    HW2 5163   1.150   4.660   4.228
 1422SOL     OW 5164   2.805   4.302   5.616
 1422SOL    HW1 5165   2.817   4.372   5.547
 1422SOL    HW2 5166   2.708   4.289   5.635
 1423SOL     OW 5167   4.049   1.889   4.806
 1423SOL    HW1 5168   4.002   1.953   4.866
 1423SOL    HW2 5169   4.116   1.837   4.859
 1424SOL     OW 5170   6.082   3.408   7.001
 1424SOL    HW1 5171   6.167   3.451   0.010
 1424SOL    HW2 5172   6.020   3.395   0.055
 1425SOL     OW 5173   2.453   6.111   4.864
 1425SOL    HW1 5174   2.548   6.139   4.880
 1425SOL    HW2 5175   2.448   6.011   4.867
 1426SOL     OW 5176   1.738   1.914   5.943
 1426SOL    HW1 5177   1.835   1.914   5.967
 1426SOL    HW2 5178   1.724   1.963   5.857
 1427SOL     OW 5179   0.485   0.953   3.663
 1427SOL    HW1 5180   0.546   0.875   3.651
 1427SOL    HW2 5181   0.469   0.998   3.575
 1428SOL     OW 5182   6.965   2.275   1.547
 1428SOL    HW1 5183   6.924   2.213   1.614
 1428SOL    HW2 5184   6.908   2.356   1.537
 1429SOL     OW 5185   5.602   1.886   6.988
 1429SOL    HW1 5186   5.632   1.963   0.021
 1429SOL    HW2 5187   5.681   1.839   6.950
 1430SOL     OW 5188   2.046   3.788   4.388
 1430SOL    HW1 5189   2.074   3.725   4.316
 1430SOL    HW2 5190   2.093   3.875   4.376
 1431SOL     OW 5191   2.512   2.318   6.118
 1431SOL    HW1 5192   2.489   2.410   6.149
 1431SOL    HW2 5193   2.601   2.291   6.156
 1432SOL     OW 5194   1.863   1.335   1.522
 1432SOL    HW1 5195   1.860   1.324   1.423
 1432SOL    HW2 5196   1.770   1.326   1.559
 1433SOL     OW 5197   3.227   6.728   3.630
 1433SOL    HW1 5198   3.135   6.767   3.623
 1433SOL    HW2 5199   3.290   6.797   3.666
 1434SOL     OW 5200   6.344   1.934   6.472
 1434SOL    HW1 5201   6.252   1.971   6.465
 1434SOL    HW2 5202   6.408   1.994   6.422
 1435SOL     OW 5203   0.197   0.749   3.998
 1435SOL    HW1 5204   0.125   0.703   4.050
 1435SOL    HW2 5205   0.259   0.796   4.061
 1436SOL     OW 5206   5.727   3.281   0.324
 1436SOL    HW1 5207   5.648   3.220   0.318
 1436SOL    HW2 5208   5.708   3.354   0.391
 1437SOL     OW 5209   3.825   1.011   5.151
 1437SOL    HW1 5210   3.899   0.966   5.201
 1437SOL    HW2 5211   3.858   1.098   5.114
 1438SOL     OW 5212   2.921   1.024   1.406
 1438SOL    HW1 5213   2.912   0.928   1.432
 1438SOL    HW2 5214   2.973   1.073   1.476
 1439SOL     OW 5215   0.665   5.247   0.671
 1439SOL    HW1 5216   0.633   5.335   0.707
 1439SOL    HW2 5217   0.740   5.263   0.607
 1440SOL     OW 5218   3.715   3.262   4.857
 1440SOL    HW1 5219   3.651   3.339   4.864
 1440SOL    HW2 5220   3.667   3.182   4.821
 1441SOL     OW 5221   6.257   3.041   3.812
 1441SOL    HW1 5222   6.275   2.993   3.898
 1441SOL    HW2 5223   6.341   3.086   3.780
 1442SOL     OW 5224   6.098   4.526   0.622
 1442SOL    HW1 5225   6.092   4.514   0.523
 1442SOL    HW2 5226   6.158   4.604   0.643
 1443SOL     OW 5227   1.110   1.598   4.070
 1443SOL    HW1 5228   1.120   1.688   4.111
 1443SOL    HW2 5229   1.200   1.562   4.045
 1444SOL     OW 5230   4.556   6.321   1.727
 1444SOL    HW1 5231   4.525   6.230   1.755
 1444SOL    HW2 5232   4.536   6.334   1.630
 1445SOL     OW 5233   0.519   2.920   2.062
 1445SOL    HW1 5234   0.437   2.866   2.085
 1445SOL    HW2 5235   0.499   3.017   2.076
 1446SOL     OW 5236   5.258   3.019   7.019
 1446SOL    HW1 5237   5.278   3.029   0.093
 1446SOL    HW2 5238   5.343   3.002   6.969
 1447SOL     OW 5239   6.576   0.257   5.002
 1447SOL    HW1 5240   6.488   0.277   4.958
 1447SOL    HW2 5241   6.629   0.195   4.944
 1448SOL     OW 5242   5.634   1.563   0.418
 1448SOL    HW1 5243   5.605   1.516   0.501
 1448SOL    HW2 5244   5.557   1.568   0.354
 1449SOL     OW 5245   6.363   6.793   6.864
 1449SOL    HW1 5246   6.426   6.754   6.931
 1449SOL    HW2 5247   6.413   6.821   6.782
 1450SOL     OW 5248   0.073   2.266   2.331
 1450SOL    HW1 5249   7.015   2.263   2.272
 1450SOL    HW2 5250   0.046   2.292   2.424
 1451SOL     OW 5251   3.140   0.872   2.591
 1451SOL    HW1 5252   3.239   0.860   2.597
 1451SOL    HW2 5253   3.112   0.870   2.495
 1452SOL     OW 5254   5.354   1.790   4.425
 1452SOL    HW1 5255   5.442   1.796   4.472
 1452SOL    HW2 5256   5.284   1.835   4.480
 1453SOL     OW 5257   6.255   3.647   5.226
 1453SOL    HW1 5258   6.225   3.725   5.281
 1453SOL    HW2 5259   6.194   3.570   5.242
 1454SOL     OW 5260   6.193   3.049   2.143
 1454SOL    HW1 5261   6.148   3.135   2.165
 1454SOL    HW2 5262   6.127   2.974   2.148
 1455SOL     OW 5263   1.595   0.153   1.857
 1455SOL    HW1 5264   1.631   0.184   1.945
 1455SOL    HW2 5265   1.499   0.179   1.850
 1456SOL     OW 5266   6.899   6.562   5.451
 1456SOL    HW1 5267   6.925   6.485   5.393
 1456SOL    HW2 5268   6.967   6.573   5.524
 1457SOL     OW 5269   1.783   0.326   1.534
 1457SOL    HW1 5270   1.881   0.339   1.548
 1457SOL    HW2 5271   1.755   0.238   1.572
 1458SOL     OW 5272   5.113   6.362   4.108
 1458SOL    HW1 5273   5.166   6.322   4.183
 1458SOL    HW2 5274   5.170   6.430   4.060
 1459SOL     OW 5275   2.778   4.387   6.644
 1459SOL    HW1 5276   2.682   4.399   6.616
 1459SOL    HW2 5277   2.837   4.440   6.583
 1460SOL     OW 5278   0.149   5.515   5.705
 1460SOL    HW1 5279   0.140   5.536   5.803
 1460SOL    HW2 5280   0.104   5.428   5.685
 1461SOL     OW 5281   0.217   4.530   3.312
 1461SOL    HW1 5282   0.167   4.608   3.274
 1461SOL    HW2 5283   0.286   4.500   3.247
 1462SOL     OW 5284   6.110   1.734   6.544
 1462SOL    HW1 5285   6.183   1.788   6.503
 1462SOL    HW2 5286   6.064   1.680   6.474
 1463SOL     OW 5287   0.041   6.155   6.308
 1463SOL    HW1 5288   0.072   6.145   6.402
 1463SOL    HW2 5289   6.981   6.211   6.305
 1464SOL     OW 5290   6.890   6.750   1.019
 1464SOL    HW1 5291   6.892   6.821   0.949
 1464SOL    HW2 5292   6.979   6.746   1.065
 1465SOL     OW 5293   1.252   1.504   2.866
 1465SOL    HW1 5294   1.300   1.464   2.788
 1465SOL    HW2 5295   1.153   1.493   2.854
 1466SOL     OW 5296   1.091   0.110   2.675
 1466SOL    HW1 5297   1.028   0.055   2.730
 1466SOL    HW2 5298   1.185   0.088   2.701
 1467SOL     OW 5299   2.156   0.260   2.117
 1467SOL    HW1 5300   2.186   0.259   2.021
 1467SOL    HW2 5301   2.232   0.285   2.176
 1468SOL     OW 5302   5.699   5.833   2.707
 1468SOL    HW1 5303   5.620   5.857   2.650
 1468SOL    HW2 5304   5.727   5.913   2.759
 1469SOL     OW 5305   0.640   0.552   3.090
 1469SOL    HW1 5306   0.642   0.500   3.175
 1469SOL    HW2 5307   0.546   0.567   3.062
 1470SOL     OW 5308   1.014   0.825   2.585
 1470SOL    HW1 5309   0.998   0.735   2.546
 1470SOL    HW2 5310   0.928   0.875   2.592
 1471SOL     OW 5311   0.774   0.966   7.015
 1471SOL    HW1 5312   0.840   0.900   6.978
 1471SOL    HW2 5313   0.687   0.956   6.966
 1472SOL     OW 5314   4.093   5.220   4.673
 1472SOL    HW1 5315   4.023   5.151   4.688
 1472SOL    HW2 5316   4.182   5.185   4.701
 1473SOL     OW 5317   5.672   6.652   3.792
 1473SOL    HW1 5318   5.719   6.679   3.875
 1473SOL    HW2 5319   5.600   6.586   3.815
 1474SOL     OW 5320   6.547   6.130   3.713
 1474SOL    HW1 5321   6.616   6.160   3.647
 1474SOL    HW2 5322   6.459   6.172   3.691
 1475SOL     OW 5323   6.814   0.520   1.278
 1475SOL    HW1 5324   6.854   0.429   1.276
 1475SOL    HW2 5325   6.817   0.560   1.186
 1476SOL     OW 5326   1.435   1.344   1.239
 1476SOL    HW1 5327   1.450   1.338   1.140
 1476SOL    HW2 5328   1.452   1.255   1.281
 1477SOL     OW 5329   2.452   0.481   6.412
 1477SOL    HW1 5330   2.413   0.569   6.437
 1477SOL    HW2 5331   2.550   0.491   6.394
 1478SOL     OW 5332   5.319   4.075   0.760
 1478SOL    HW1 5333   5.305   3.984   0.722
 1478SOL    HW2 5334   5.328   4.069   0.860
 1479SOL     OW 5335   1.441   3.873   6.869
 1479SOL    HW1 5336   1.411   3.955   6.820
 1479SOL    HW2 5337   1.410   3.878   6.964
 1480SOL     OW 5338   2.478   0.296   0.118
 1480SOL    HW1 5339   2.413   0.317   0.192
 1480SOL    HW2 5340   2.459   0.355   0.040
 1481SOL     OW 5341   6.527   1.494   4.591
 1481SOL    HW1 5342   6.562   1.566   4.532
 1481SOL    HW2 5343   6.598   1.425   4.607
 1482SOL     OW 5344   5.367   1.969   0.972
 1482SOL    HW1 5345   5.284   1.953   0.919
 1482SOL    HW2 5346   5.448   1.954   0.915
 1483SOL     OW 5347   0.363   2.955   6.034
 1483SOL    HW1 5348   0.339   2.917   5.944
 1483SOL    HW2 5349   0.279   2.971   6.086
 1484SOL     OW 5350   6.345   4.311   3.889
 1484SOL    HW1 5351   6.371   4.215   3.898
 1484SOL    HW2 5352   6.424   4.369   3.910
 1485SOL     OW 5353   4.450   1.942   3.171
 1485SOL    HW1 5354   4.457   2.013   3.242
 1485SOL    HW2 5355   4.459   1.985   3.081
 1486SOL     OW 5356   4.609   2.610   3.150
 1486SOL    HW1 5357   4.584   2.682   3.214
 1486SOL    HW2 5358   4.689   2.638   3.097
 1487SOL     OW 5359   5.592   2.414   6.834
 1487SOL    HW1 5360   5.526   2.375   6.899
 1487SOL    HW2 5361   5.670   2.451   6.884
 1488SOL     OW 5362   6.203   2.038   2.581
 1488SOL    HW1 5363   6.117   1.991   2.562
 1488SOL    HW2 5364   6.234   2.084   2.498
 1489SOL     OW 5365   3.662   5.136   4.629
 1489SOL    HW1 5366   3.623   5.095   4.547
 1489SOL    HW2 5367   3.597   5.126   4.705
 1490SOL     OW 5368   1.391   2.833   1.045
 1490SOL    HW1 5369   1.414   2.886   1.126
 1490SOL    HW2 5370   1.369   2.739   1.071
 1491SOL     OW 5371   6.530   3.652   3.588
 1491SOL    HW1 5372   6.522   3.556   3.614
 1491SOL    HW2 5373   6.616   3.665   3.539
 1492SOL     OW 5374   5.866   1.794   1.621
 1492SOL    HW1 5375   5.906   1.712   1.664
 1492SOL    HW2 5376   5.838   1.858   1.692
 1493SOL     OW 5377   5.149   0.778   4.882
 1493SOL    HW1 5378   5.172   0.812   4.973
 1493SOL    HW2 5379   5.081   0.705   4.889
 1494SOL     OW 5380   4.518   2.264   5.938
 1494SOL    HW1 5381   4.429   2.309   5.934
 1494SOL    HW2 5382   4.507   2.172   5.976
 1495SOL     OW 5383   0.658   3.196   3.271
 1495SOL    HW1 5384   0.701   3.285   3.285
 1495SOL    HW2 5385   0.725   3.123   3.289
 1496SOL     OW 5386   0.993   0.798   2.052
 1496SOL    HW1 5387   0.936   0.850   2.115
 1496SOL    HW2 5388   0.952   0.799   1.961
 1497SOL     OW 5389   0.523   4.246   2.758
 1497SOL    HW1 5390   0.473   4.184   2.818
 1497SOL    HW2 5391   0.458   4.295   2.699
 1498SOL     OW 5392   1.420   4.636   6.435
 1498SOL    HW1 5393   1.354   4.626   6.510
 1498SOL    HW2 5394   1.483   4.559   6.436
 1499SOL     OW 5395   0.996   3.516   5.489
 1499SOL    HW1 5396   0.957   3.495   5.579
 1499SOL    HW2 5397   1.026   3.611   5.487
 1500SOL     OW 5398   5.498   6.755   7.017
 1500SOL    HW1 5399   5.534   6.762   0.087
 1500SOL    HW2 5400   5.545   6.681   6.968
 1501SOL     OW 5401   4.151   0.815   6.322
 1501SOL    HW1 5402   4.061   0.836   6.360
 1501SOL    HW2 5403   4.203   0.900   6.311
 1502SOL     OW 5404   6.226   6.632   1.196
 1502SOL    HW1 5405   6.216   6.666   1.290
 1502SOL    HW2 5406   6.178   6.545   1.187
 1503SOL     OW 5407   2.848   1.903   1.436
 1503SOL    HW1 5408   2.854   1.976   1.505
 1503SOL    HW2 5409   2.754   1.896   1.404
 1504SOL     OW 5410   1.898   0.758   5.099
 1504SOL    HW1 5411   1.855   0.833   5.049
 1504SOL    HW2 5412   1.976   0.792   5.150
 1505SOL     OW 5413   5.544   0.702   6.759
 1505SOL    HW1 5414   5.523   0.619   6.810
 1505SOL    HW2 5415   5.624   0.746   6.798
 1506SOL     OW 5416   1.895   5.562   2.493
 1506SOL    HW1 5417   1.900   5.562   2.593
 1506SOL    HW2 5418   1.819   5.619   2.463
 1507SOL     OW 5419   1.767   2.305   5.211
 1507SOL    HW1 5420   1.848   2.255   5.241
 1507SOL    HW2 5421   1.708   2.245   5.158
 1508SOL     OW 5422   5.663   0.604   0.753
 1508SOL    HW1 5423   5.644   0.527   0.813
 1508SOL    HW2 5424   5.746   0.585   0.700
 1509SOL     OW 5425   4.174   2.184   5.947
 1509SOL    HW1 5426   4.132   2.096   5.923
 1509SOL    HW2 5427   4.132   2.220   6.030
 1510SOL     OW 5428   6.137   2.046   3.561
 1510SOL    HW1 5429   6.093   1.975   3.615
 1510SOL    HW2 5430   6.164   2.010   3.472
 1511SOL     OW 5431   2.489   2.645   0.345
 1511SOL    HW1 5432   2.410   2.593   0.312
 1511SOL    HW2 5433   2.467   2.742   0.349
 1512SOL     OW 5434   0.247   6.798   1.779
 1512SOL    HW1 5435   0.160   6.844   1.797
 1512SOL    HW2 5436   0.293   6.841   1.702
 1513SOL     OW 5437   4.595   0.367   3.743
 1513SOL    HW1 5438   4.598   0.465   3.762
 1513SOL    HW2 5439   4.629   0.350   3.650
 1514SOL     OW 5440   5.679   2.533   4.823
 1514SOL    HW1 5441   5.730   2.598   4.766
 1514SOL    HW2 5442   5.581   2.552   4.817
 1515SOL     OW 5443   6.996   3.495   5.990
 1515SOL    HW1 5444   6.966   3.479   6.084
 1515SOL    HW2 5445   0.064   3.537   5.990
 1516SOL     OW 5446   0.294   0.532   0.747
 1516SOL    HW1 5447   0.312   0.626   0.777
 1516SOL    HW2 5448   0.365   0.472   0.785
 1517SOL     OW 5449   4.458   6.102   3.401
 1517SOL    HW1 5450   4.407   6.016   3.407
 1517SOL    HW2 5451   4.426   6.164   3.472
 1518SOL     OW 5452   6.949   2.972   0.184
 1518SOL    HW1 5453   6.939   2.931   0.093
 1518SOL    HW2 5454   6.874   3.037   0.199
 1519SOL     OW 5455   0.069   4.606   2.201
 1519SOL    HW1 5456   0.049   4.669   2.276
 1519SOL    HW2 5457   7.015   4.544   2.188
 1520SOL     OW 5458   1.525   3.311   2.418
 1520SOL    HW1 5459   1.426   3.321   2.424
 1520SOL    HW2 5460   1.551   3.216   2.436
 1521SOL     OW 5461   1.789   3.455   6.866
 1521SOL    HW1 5462   1.822   3.362   6.880
 1521SOL    HW2 5463   1.773   3.498   6.954
 1522SOL     OW 5464   6.636   1.568   5.392
 1522SOL    HW1 5465   6.706   1.633   5.422
 1522SOL    HW2 5466   6.608   1.591   5.299
 1523SOL     OW 5467   5.099   3.877   6.581
 1523SOL    HW1 5468   5.078   3.966   6.622
 1523SOL    HW2 5469   5.078   3.880   6.483
 1524SOL     OW 5470   0.920   1.912   1.749
 1524SOL    HW1 5471   1.015   1.881   1.755
 1524SOL    HW2 5472   0.868   1.848   1.692
 1525SOL     OW 5473   5.146   2.749   6.833
 1525SOL    HW1 5474   5.134   2.805   6.915
 1525SOL    HW2 5475   5.199   2.667   6.856
 1526SOL     OW 5476   0.897   1.644   0.748
 1526SOL    HW1 5477   0.820   1.706   0.737
 1526SOL    HW2 5478   0.945   1.636   0.660
 1527SOL     OW 5479   4.037   0.638   5.324
 1527SOL    HW1 5480   4.102   0.653   5.399
 1527SOL    HW2 5481   4.024   0.724   5.274
 1528SOL     OW 5482   5.205   6.059   2.883
 1528SOL    HW1 5483   5.300   6.073   2.913
 1528SOL    HW2 5484   5.153   6.143   2.898
 1529SOL     OW 5485   3.828   1.534   6.885
 1529SOL    HW1 5486   3.744   1.486   6.860
 1529SOL    HW2 5487   3.811   1.596   6.961
 1530SOL     OW 5488   3.114   0.614   1.611
 1530SOL    HW1 5489   3.213   0.625   1.613
 1530SOL    HW2 5490   3.091   0.518   1.592
 1531SOL     OW 5491   6.035   1.091   5.033
 1531SOL    HW1 5492   5.983   1.171   5.003
 1531SOL    HW2 5493   6.002   1.060   5.122
 1532SOL     OW 5494   2.518   2.364   5.412
 1532SOL    HW1 5495   2.503   2.444   5.470
 1532SOL    HW2 5496   2.448   2.360   5.341
 1533SOL     OW 5497   0.090   3.170   6.488
 1533SOL    HW1 5498   7.015   3.166   6.506
 1533SOL    HW2 5499   0.134   3.088   6.525
 1534SOL     OW 5500   1.664   4.909   0.236
 1534SOL    HW1 5501   1.740   4.907   0.172
 1534SOL    HW2 5502   1.669   4.992   0.292
 1535SOL     OW 5503   5.422   5.946   4.183
 1535SOL    HW1 5504   5.326   5.924   4.166
 1535SOL    HW2 5505   5.452   6.017   4.119
 1536SOL     OW 5506   3.472   4.789   5.426
 1536SOL    HW1 5507   3.500   4.841   5.507
 1536SOL    HW2 5508   3.393   4.834   5.384
 1537SOL     OW 5509   4.098   5.801   3.144
 1537SOL    HW1 5510   4.078   5.798   3.242
 1537SOL    HW2 5511   4.156   5.880   3.125
 1538SOL     OW 5512   3.174   5.444   5.373
 1538SOL    HW1 5513   3.086   5.407   5.343
 1538SOL    HW2 5514   3.160   5.501   5.454
 1539SOL     OW 5515   3.932   4.326   1.473
 1539SOL    HW1 5516   3.886   4.273   1.402
 1539SOL    HW2 5517   3.863   4.371   1.531
 1540SOL     OW 5518   0.909   0.232   5.530
 1540SOL    HW1 5519   0.982   0.246   5.597
 1540SOL    HW2 5520   0.823   0.268   5.565
 1541SOL     OW 5521   3.121   2.861   1.504
 1541SOL    HW1 5522   3.051   2.913   1.554
 1541SOL    HW2 5523   3.183   2.817   1.568
 1542SOL     OW 5524   6.742   5.912   1.385
 1542SOL    HW1 5525   6.725   5.995   1.439
 1542SOL    HW2 5526   6.675   5.907   1.311
 1543SOL     OW 5527   3.127   3.106   3.899
 1543SOL    HW1 5528   3.174   3.178   3.951
 1543SOL    HW2 5529   3.098   3.033   3.962
 1544SOL     OW 5530   3.170   4.086   2.721
 1544SOL    HW1 5531   3.239   4.115   2.655
 1544SOL    HW2 5532   3.080   4.085   2.676
 1545SOL     OW 5533   5.902   0.779   5.459
 1545SOL    HW1 5534   5.943   0.696   5.497
 1545SOL    HW2 5535   5.807   0.786   5.489
 1546SOL     OW 5536   5.025   6.843   5.962
 1546SOL    HW1 5537   5.116   6.854   5.923
 1546SOL    HW2 5538   4.994   6.748   5.947
 1547SOL     OW 5539   2.304   4.145   2.602
 1547SOL    HW1 5540   2.370   4.220   2.610
 1547SOL    HW2 5541   2.248   4.140   2.684
 1548SOL     OW 5542   4.622   3.937   5.636
 1548SOL    HW1 5543   4.617   3.865   5.704
 1548SOL    HW2 5544   4.698   3.920   5.574
 1549SOL     OW 5545   5.606   1.154   2.070
 1549SOL    HW1 5546   5.590   1.123   1.976
 1549SOL    HW2 5547   5.698   1.128   2.099
 1550SOL     OW 5548   2.973   6.928   5.727
 1550SOL    HW1 5549   2.966   6.843   5.675
 1550SOL    HW2 5550   2.957   6.910   5.824
 1551SOL     OW 5551   2.153   3.202   0.927
 1551SOL    HW1 5552   2.101   3.132   0.879
 1551SOL    HW2 5553   2.095   3.281   0.944
 1552SOL     OW 5554   0.966   6.994   1.535
 1552SOL    HW1 5555   0.972   6.894   1.533
 1552SOL    HW2 5556   1.034   0.007   1.599
 1553SOL     OW 5557   6.505   2.097   6.692
 1553SOL    HW1 5558   6.465   2.159   6.760
 1553SOL    HW2 5559   6.541   2.150   6.615
 1554SOL     OW 5560   3.388   2.064   2.548
 1554SOL    HW1 5561   3.442   2.104   2.474
 1554SOL    HW2 5562   3.337   1.986   2.513
 1555SOL     OW 5563   4.306   2.681   5.820
 1555SOL    HW1 5564   4.385   2.647   5.770
 1555SOL    HW2 5565   4.278   2.612   5.888
 1556SOL     OW 5566   4.041   1.149   0.422
 1556SOL    HW1 5567   4.100   1.095   0.360
 1556SOL    HW2 5568   3.953   1.103   0.432
 1557SOL     OW 5569   2.906   1.794   0.393
 1557SOL    HW1 5570   2.878   1.831   0.304
 1557SOL    HW2 5571   2.992   1.838   0.421
 1558SOL     OW 5572   6.100   1.692   4.726
 1558SOL    HW1 5573   6.070   1.597   4.730
 1558SOL    HW2 5574   6.170   1.702   4.656
 1559SOL     OW 5575   0.341   2.725   1.225
 1559SOL    HW1 5576   0.415   2.688   1.169
 1559SOL    HW2 5577   0.253   2.697   1.186
 1560SOL     OW 5578   3.070   1.262   6.837
 1560SOL    HW1 5579   2.987   1.238   6.788
 1560SOL    HW2 5580   3.087   1.193   6.908
 1561SOL     OW 5581   4.977   5.416   3.699
 1561SOL    HW1 5582   4.968   5.366   3.612
 1561SOL    HW2 5583   5.073   5.415   3.728
 1562SOL     OW 5584   4.041   6.469   2.089
 1562SOL    HW1 5585   3.948   6.504   2.100
 1562SOL    HW2 5586   4.088   6.521   2.018
 1563SOL     OW 5587   2.203   1.742   5.922
 1563SOL    HW1 5588   2.135   1.676   5.890
 1563SOL    HW2 5589   2.176   1.834   5.894
 1564SOL     OW 5590   1.514   2.349   2.399
 1564SOL    HW1 5591   1.542   2.293   2.476
 1564SOL    HW2 5592   1.461   2.294   2.334
 1565SOL     OW 5593   3.920   5.016   4.668
 1565SOL    HW1 5594   3.929   4.976   4.759
 1565SOL    HW2 5595   3.836   5.071   4.664
 1566SOL     OW 5596   6.045   5.313   4.833
 1566SOL    HW1 5597   6.104   5.392   4.851
 1566SOL    HW2 5598   6.085   5.257   4.760
 1567SOL     OW 5599   6.213   5.125   7.016
 1567SOL    HW1 5600   6.220   5.192   0.066
 1567SOL    HW2 5601   6.272   5.047   0.012
 1568SOL     OW 5602   2.500   6.357   2.796
 1568SOL    HW1 5603   2.401   6.364   2.789
 1568SOL    HW2 5604   2.533   6.416   2.869
 1569SOL     OW 5605   3.756   6.679   3.305
 1569SOL    HW1 5606   3.828   6.661   3.372
 1569SOL    HW2 5607   3.739   6.778   3.301
 1570SOL     OW 5608   1.642   6.786   6.647
 1570SOL    HW1 5609   1.680   6.845   6.718
 1570SOL    HW2 5610   1.549   6.815   6.625
 1571SOL     OW 5611   0.848   2.436   3.353
 1571SOL    HW1 5612   0.784   2.372   3.310
 1571SOL    HW2 5613   0.912   2.385   3.410
 1572SOL     OW 5614   2.042   5.337   2.430
 1572SOL    HW1 5615   1.981   5.414   2.450
 1572SOL    HW2 5616   2.000   5.252   2.462
 1573SOL     OW 5617   5.675   5.225   2.038
 1573SOL    HW1 5618   5.717   5.256   2.123
 1573SOL    HW2 5619   5.734   5.250   1.961
 1574SOL     OW 5620   6.620   2.794   2.794
 1574SOL    HW1 5621   6.637   2.730   2.869
 1574SOL    HW2 5622   6.654   2.885   2.819
 1575SOL     OW 5623   2.635   0.819   1.667
 1575SOL    HW1 5624   2.548   0.867   1.663
 1575SOL    HW2 5625   2.688   0.839   1.584
 1576SOL     OW 5626   1.054   6.874   3.391
 1576SOL    HW1 5627   1.048   6.818   3.474
 1576SOL    HW2 5628   0.964   6.913   3.371
 1577SOL     OW 5629   2.423   0.715   5.834
 1577SOL    HW1 5630   2.337   0.744   5.875
 1577SOL    HW2 5631   2.455   0.632   5.880
 1578SOL     OW 5632   4.998   1.324   5.886
 1578SOL    HW1 5633   4.928   1.355   5.951
 1578SOL    HW2 5634   4.954   1.272   5.813
 1579SOL     OW 5635   6.700   2.029   1.559
 1579SOL    HW1 5636   6.773   2.058   1.621
 1579SOL    HW2 5637   6.706   1.931   1.543
 1580SOL     OW 5638   3.541   4.170   3.295
 1580SOL    HW1 5639   3.577   4.209   3.380
 1580SOL    HW2 5640   3.592   4.087   3.272
 1581SOL     OW 5641   0.186   4.354   5.764
 1581SOL    HW1 5642   0.155   4.420   5.696
 1581SOL    HW2 5643   0.227   4.275   5.718
 1582SOL     OW 5644   3.505   6.462   4.655
 1582SOL    HW1 5645   3.566   6.513   4.715
 1582SOL    HW2 5646   3.527   6.483   4.560
 1583SOL     OW 5647   1.222   5.913   3.955
 1583SOL    HW1 5648   1.282   5.855   3.901
 1583SOL    HW2 5649   1.190   5.863   4.035
 1584SOL     OW 5650   1.044   5.281   6.323
 1584SOL    HW1 5651   1.024   5.348   6.251
 1584SOL    HW2 5652   0.989   5.199   6.308
 1585SOL     OW 5653   4.347   1.798   2.879
 1585SOL    HW1 5654   4.310   1.746   2.802
 1585SOL    HW2 5655   4.333   1.746   2.964
 1586SOL     OW 5656   3.501   5.221   3.166
 1586SOL    HW1 5657   3.473   5.125   3.167
 1586SOL    HW2 5658   3.593   5.227   3.127
 1587SOL     OW 5659   2.400   5.022   5.218
 1587SOL    HW1 5660   2.345   5.085   5.165
 1587SOL    HW2 5661   2.394   5.046   5.315
 1588SOL     OW 5662   4.471   0.798   2.043
 1588SOL    HW1 5663   4.470   0.859   2.122
 1588SOL    HW2 5664   4.561   0.754   2.036
 1589SOL     OW 5665   0.307   3.398   2.289
 1589SOL    HW1 5666   0.341   3.439   2.374
 1589SOL    HW2 5667   0.209   3.412   2.282
 1590SOL     OW 5668   5.557   0.959   3.876
 1590SOL    HW1 5669   5.468   0.957   3.921
 1590SOL    HW2 5670   5.624   1.001   3.937
 1591SOL     OW 5671   6.954   6.126   0.956
 1591SOL    HW1 5672   6.902   6.077   0.886
 1591SOL    HW2 5673   6.982   6.215   0.919
 1592SOL     OW 5674   1.926   3.581   6.683
 1592SOL    HW1 5675   1.918   3.520   6.604
 1592SOL    HW2 5676   1.870   3.547   6.758
 1593SOL     OW 5677   0.947   0.034   5.915
 1593SOL    HW1 5678   0.898   6.998   5.851
 1593SOL    HW2 5679   0.927   0.129   5.893
 1594SOL     OW 5680   0.385   6.341   2.189
 1594SOL    HW1 5681   0.399   6.346   2.288
 1594SOL    HW2 5682   0.409   6.429   2.147
 1595SOL     OW 5683   0.963   4.742   0.822
 1595SOL    HW1 5684   0.892   4.809   0.802
 1595SOL    HW2 5685   0.988   4.747   0.919
 1596SOL     OW 5686   6.817   2.899   2.612
 1596SOL    HW1 5687   6.887   2.921   2.680
 1596SOL    HW2 5688   6.765   2.819   2.643
 1597SOL     OW 5689   1.609   6.456   1.162
 1597SOL    HW1 5690   1.643   6.362   1.165
 1597SOL    HW2 5691   1.512   6.458   1.186
 1598SOL     OW 5692   1.227   4.828   6.290
 1598SOL    HW1 5693   1.307   4.786   6.333
 1598SOL    HW2 5694   1.159   4.757   6.271
 1599SOL     OW 5695   5.371   4.943   5.473
 1599SOL    HW1 5696   5.328   4.970   5.388
 1599SOL    HW2 5697   5.469   4.963   5.469
 1600SOL     OW 5698   2.999   1.705   2.714
 1600SOL    HW1 5699   2.991   1.662   2.803
 1600SOL    HW2 5700   2.937   1.662   2.649
 1601SOL     OW 5701   0.147   6.877   4.249
 1601SOL    HW1 5702   0.163   6.974   4.229
 1601SOL    HW2 5703   0.204   6.821   4.189
 1602SOL     OW 5704   4.389   5.087   4.361
 1602SOL    HW1 5705   4.325   5.128   4.296
 1602SOL    HW2 5706   4.462   5.041   4.312
 1603SOL     OW 5707   3.311   5.318   3.444
 1603SOL    HW1 5708   3.373   5.347   3.517
 1603SOL    HW2 5709   3.330   5.222   3.420
 1604SOL     OW 5710   4.332   4.981   1.631
 1604SOL    HW1 5711   4.369   5.021   1.547
 1604SOL    HW2 5712   4.275   5.049   1.678
 1605SOL     OW 5713   6.838   5.435   1.602
 1605SOL    HW1 5714   6.759   5.496   1.604
 1605SOL    HW2 5715   6.921   5.488   1.581
 1606SOL     OW 5716   3.620   5.666   5.550
 1606SOL    HW1 5717   3.691   5.732   5.525
 1606SOL    HW2 5718   3.630   5.583   5.496
 1607SOL     OW 5719   4.362   0.293   0.924
 1607SOL    HW1 5720   4.394   0.326   1.013
 1607SOL    HW2 5721   4.298   0.218   0.936
 1608SOL     OW 5722   6.630   0.667   2.679
 1608SOL    HW1 5723   6.693   0.738   2.646
 1608SOL    HW2 5724   6.674   0.616   2.753
 1609SOL     OW 5725   3.372   6.888   0.480
 1609SOL    HW1 5726   3.357   6.797   0.520
 1609SOL    HW2 5727   3.349   6.887   0.383
 1610SOL     OW 5728   5.011   5.963   0.702
 1610SOL    HW1 5729   5.036   5.926   0.613
 1610SOL    HW2 5730   5.093   5.998   0.747
 1611SOL     OW 5731   2.497   3.835   0.470
 1611SOL    HW1 5732   2.452   3.899   0.534
 1611SOL    HW2 5733   2.429   3.771   0.435
 1612SOL     OW 5734   3.953   0.040   1.304
 1612SOL    HW1 5735   3.869   0.030   1.250
 1612SOL    HW2 5736   3.930   0.039   1.402
 1613SOL     OW 5737   1.481   6.004   1.801
 1613SOL    HW1 5738   1.479   5.983   1.899
 1613SOL    HW2 5739   1.435   6.090   1.784
 1614SOL     OW 5740   5.962   1.658   6.327
 1614SOL    HW1 5741   5.866   1.642   6.351
 1614SOL    HW2 5742   5.969   1.731   6.259
 1615SOL     OW 5743   6.354   5.885   0.237
 1615SOL    HW1 5744   6.421   5.955   0.212
 1615SOL    HW2 5745   6.401   5.801   0.261
 1616SOL     OW 5746   4.375   0.199   3.806
 1616SOL    HW1 5747   4.316   0.245   3.872
 1616SOL    HW2 5748   4.442   0.264   3.770
 1617SOL     OW 5749   5.511   6.536   3.309
 1617SOL    HW1 5750   5.570   6.470   3.356
 1617SOL    HW2 5751   5.416   6.504   3.314
 1618SOL     OW 5752   2.030   6.459   3.380
 1618SOL    HW1 5753   2.057   6.363   3.368
 1618SOL    HW2 5754   1.931   6.467   3.363
 1619SOL     OW 5755   0.187   4.985   6.999
 1619SOL    HW1 5756   0.095   4.974   0.014
 1619SOL    HW2 5757   0.216   5.080   7.010
 1620SOL     OW 5758   3.635   4.788   1.581
 1620SOL    HW1 5759   3.618   4.757   1.674
 1620SOL    HW2 5760   3.652   4.709   1.522
 1621SOL     OW 5761   5.851   0.583   1.371
 1621SOL    HW1 5762   5.814   0.623   1.454
 1621SOL    HW2 5763   5.889   0.655   1.313
 1622SOL     OW 5764   0.734   3.687   5.681
 1622SOL    HW1 5765   0.784   3.624   5.741
 1622SOL    HW2 5766   0.784   3.774   5.675
 1623SOL     OW 5767   0.322   3.076   4.955
 1623SOL    HW1 5768   0.260   3.152   4.974
 1623SOL    HW2 5769   0.414   3.112   4.938
 1624SOL     OW 5770   4.346   1.030   5.516
 1624SOL    HW1 5771   4.408   1.109   5.517
 1624SOL    HW2 5772   4.287   1.034   5.597
 1625SOL     OW 5773   1.737   4.947   6.861
 1625SOL    HW1 5774   1.805   5.002   6.815
 1625SOL    HW2 5775   1.782   4.873   6.911
 1626SOL     OW 5776   3.083   1.006   0.960
 1626SOL    HW1 5777   3.077   0.985   1.057
 1626SOL    HW2 5778   3.179   1.001   0.931
 1627SOL     OW 5779   5.480   2.768   3.482
 1627SOL    HW1 5780   5.471   2.697   3.552
 1627SOL    HW2 5781   5.430   2.740   3.400
 1628SOL     OW 5782   4.229   5.638   0.080
 1628SOL    HW1 5783   4.204   5.717   0.025
 1628SOL    HW2 5784   4.151   5.576   0.087
 1629SOL     OW 5785   2.662   1.366   3.747
 1629SOL    HW1 5786   2.614   1.282   3.771
 1629SOL    HW2 5787   2.719   1.350   3.667
 1630SOL     OW 5788   0.354   4.113   5.676
 1630SOL    HW1 5789   0.302   4.034   5.710
 1630SOL    HW2 5790   0.411   4.085   5.598
 1631SOL     OW 5791   0.627   3.361   0.315
 1631SOL    HW1 5792   0.557   3.430   0.334
 1631SOL    HW2 5793   0.611   3.281   0.374
 1632SOL     OW 5794   4.863   3.130   2.701
 1632SOL    HW1 5795   4.826   3.086   2.619
 1632SOL    HW2 5796   4.787   3.153   2.762
 1633SOL     OW 5797   5.160   3.926   4.523
 1633SOL    HW1 5798   5.091   3.858   4.548
 1633SOL    HW2 5799   5.132   4.016   4.557
 1634SOL     OW 5800   4.665   6.976   4.450
 1634SOL    HW1 5801   4.723   6.919   4.508
 1634SOL    HW2 5802   4.692   0.049   4.460
 1635SOL     OW 5803   0.715   5.194   6.462
 1635SOL    HW1 5804   0.624   5.160   6.440
 1635SOL    HW2 5805   0.746   5.255   6.388
 1636SOL     OW 5806   3.125   4.830   1.472
 1636SOL    HW1 5807   3.025   4.832   1.471
 1636SOL    HW2 5808   3.157   4.769   1.544
 1637SOL     OW 5809   0.232   6.900   3.671
 1637SOL    HW1 5810   0.267   6.934   3.758
 1637SOL    HW2 5811   0.147   6.947   3.649
 1638SOL     OW 5812   0.775   3.415   2.414
 1638SOL    HW1 5813   0.758   3.479   2.489
 1638SOL    HW2 5814   0.689   3.397   2.366
 1639SOL     OW 5815   5.443   5.246   1.299
 1639SOL    HW1 5816   5.350   5.266   1.269
 1639SOL    HW2 5817   5.444   5.158   1.346
 1640SOL     OW 5818   6.046   0.826   0.549
 1640SOL    HW1 5819   6.127   0.768   0.558
 1640SOL    HW2 5820   6.009   0.819   0.457
 1641SOL     OW 5821   6.286   1.508   3.429
 1641SOL    HW1 5822   6.325   1.523   3.339
 1641SOL    HW2 5823   6.330   1.569   3.495
 1642SOL     OW 5824   6.560   3.112   6.891
 1642SOL    HW1 5825   6.461   3.103   6.907
 1642SOL    HW2 5826   6.607   3.115   6.979
 1643SOL     OW 5827   3.090   4.887   3.513
 1643SOL    HW1 5828   3.024   4.902   3.440
 1643SOL    HW2 5829   3.049   4.832   3.586
 1644SOL     OW 5830   5.337   3.746   6.618
 1644SOL    HW1 5831   5.244   3.783   6.623
 1644SOL    HW2 5832   5.333   3.646   6.630
 1645SOL     OW 5833   2.768   5.794   6.247
 1645SOL    HW1 5834   2.840   5.733   6.215
 1645SOL    HW2 5835   2.803   5.888   6.253
 1646SOL     OW 5836   2.542   6.604   0.398
 1646SOL    HW1 5837   2.504   6.618   0.306
 1646SOL    HW2 5838   2.490   6.658   0.464
 1647SOL     OW 5839   6.236   2.346   4.165
 1647SOL    HW1 5840   6.277   2.418   4.222
 1647SOL    HW2 5841   6.187   2.282   4.223
 1648SOL     OW 5842   5.343   6.035   6.859
 1648SOL    HW1 5843   5.324   6.004   6.765
 1648SOL    HW2 5844   5.296   6.122   6.875
 1649SOL     OW 5845   3.755   1.550   4.399
 1649SOL    HW1 5846   3.820   1.620   4.429
 1649SOL    HW2 5847   3.735   1.563   4.302
 1650SOL     OW 5848   0.662   5.483   4.616
 1650SOL    HW1 5849   0.597   5.481   4.693
 1650SOL    HW2 5850   0.671   5.391   4.578
 1651SOL     OW 5851   0.359   2.348   1.816
 1651SOL    HW1 5852   0.341   2.320   1.910
 1651SOL    HW2 5853   0.282   2.402   1.782
 1652SOL     OW 5854   1.685   3.229   2.819
 1652SOL    HW1 5855   1.640   3.165   2.881
 1652SOL    HW2 5856   1.626   3.248   2.741
 1653SOL     OW 5857   0.444   6.423   0.641
 1653SOL    HW1 5858   0.498   6.374   0.573
 1653SOL    HW2 5859   0.422   6.361   0.716
 1654SOL     OW 5860   6.634   3.278   1.745
 1654SOL    HW1 5861   6.561   3.328   1.699
 1654SOL    HW2 5862   6.722   3.319   1.722
 1655SOL     OW 5863   0.131   2.078   4.579
 1655SOL    HW1 5864   0.152   2.013   4.652
 1655SOL    HW2 5865   0.104   2.029   4.497
 1656SOL     OW 5866   1.916   5.188   2.826
 1656SOL    HW1 5867   1.968   5.181   2.740
 1656SOL    HW2 5868   1.907   5.097   2.867
 1657SOL     OW 5869   6.069   0.428   4.357
 1657SOL    HW1 5870   6.045   0.331   4.353
 1657SOL    HW2 5871   6.031   0.468   4.441
 1658SOL     OW 5872   5.855   1.039   0.876
 1658SOL    HW1 5873   5.890   0.951   0.845
 1658SOL    HW2 5874   5.821   1.092   0.798
 1659SOL     OW 5875   3.532   0.491   6.995
 1659SOL    HW1 5876   3.565   0.412   6.944
 1659SOL    HW2 5877   3.435   0.480   7.015
 1660SOL     OW 5878   1.648   6.338   2.491
 1660SOL    HW1 5879   1.643   6.285   2.575
 1660SOL    HW2 5880   1.696   6.424   2.508
 1661SOL     OW 5881   1.737   6.360   1.508
 1661SOL    HW1 5882   1.831   6.325   1.508
 1661SOL    HW2 5883   1.731   6.438   1.446
 1662SOL     OW 5884   0.286   0.863   4.227
 1662SOL    HW1 5885   0.226   0.914   4.165
 1662SOL    HW2 5886   0.355   0.925   4.265
 1663SOL     OW 5887   4.670   5.380   3.369
 1663SOL    HW1 5888   4.615   5.409   3.290
 1663SOL    HW2 5889   4.722   5.458   3.403
 1664SOL     OW 5890   2.286   6.217   5.041
 1664SOL    HW1 5891   2.359   6.184   4.982
 1664SOL    HW2 5892   2.301   6.312   5.065
 1665SOL     OW 5893   6.430   3.502   1.940
 1665SOL    HW1 5894   6.516   3.465   1.976
 1665SOL    HW2 5895   6.423   3.479   1.843
 1666SOL     OW 5896   5.825   0.543   6.858
 1666SOL    HW1 5897   5.734   0.500   6.854
 1666SOL    HW2 5898   5.814   0.642   6.868
 1667SOL     OW 5899   0.188   6.198   1.404
 1667SOL    HW1 5900   0.203   6.208   1.502
 1667SOL    HW2 5901   0.215   6.281   1.356
 1668SOL     OW 5902   4.828   5.078   3.626
 1668SOL    HW1 5903   4.873   5.081   3.536
 1668SOL    HW2 5904   4.733   5.108   3.617
 1669SOL     OW 5905   6.721   3.987   6.224
 1669SOL    HW1 5906   6.680   3.978   6.134
 1669SOL    HW2 5907   6.783   4.065   6.225
 1670SOL     OW 5908   0.135   4.479   5.253
 1670SOL    HW1 5909   0.169   4.510   5.165
 1670SOL    HW2 5910   0.205   4.423   5.298
 1671SOL     OW 5911   5.706   1.670   3.643
 1671SOL    HW1 5912   5.636   1.740   3.649
 1671SOL    HW2 5913   5.718   1.642   3.548
 1672SOL     OW 5914   2.662   3.407   0.874
 1672SOL    HW1 5915   2.754   3.382   0.904
 1672SOL    HW2 5916   2.627   3.335   0.813
 1673SOL     OW 5917   1.246   1.606   4.559
 1673SOL    HW1 5918   1.331   1.623   4.510
 1673SOL    HW2 5919   1.176   1.575   4.495
 1674SOL     OW 5920   0.564   3.334   2.236
 1674SOL    HW1 5921   0.571   3.354   2.138
 1674SOL    HW2 5922   0.470   3.310   2.259
 1675SOL     OW 5923   4.544   0.349   0.517
 1675SOL    HW1 5924   4.467   0.398   0.557
 1675SOL    HW2 5925   4.545   0.255   0.551
 1676SOL     OW 5926   2.186   2.705   2.268
 1676SOL    HW1 5927   2.286   2.703   2.258
 1676SOL    HW2 5928   2.150   2.785   2.219
 1677SOL     OW 5929   3.975   3.914   3.929
 1677SOL    HW1 5930   3.977   3.932   4.027
 1677SOL    HW2 5931   4.036   3.837   3.908
 1678SOL     OW 5932   0.123   5.026   2.377
 1678SOL    HW1 5933   0.148   5.121   2.399
 1678SOL    HW2 5934   0.123   5.014   2.278
 1679SOL     OW 5935   2.137   1.219   4.644
 1679SOL    HW1 5936   2.232   1.247   4.662
 1679SOL    HW2 5937   2.087   1.297   4.605
 1680SOL     OW 5938   6.803   3.726   5.613
 1680SOL    HW1 5939   6.722   3.750   5.666
 1680SOL    HW2 5940   6.885   3.756   5.663
 1681SOL     OW 5941   0.468   5.646   6.470
 1681SOL    HW1 5942   0.495   5.743   6.472
 1681SOL    HW2 5943   0.504   5.603   6.387
 1682SOL     OW 5944   1.214   0.635   5.713
 1682SOL    HW1 5945   1.300   0.647   5.763
 1682SOL    HW2 5946   1.200   0.538   5.693
 1683SOL     OW 5947   5.870   5.391   2.873
 1683SOL    HW1 5948   5.918   5.355   2.953
 1683SOL    HW2 5949   5.830   5.480   2.894
 1684SOL     OW 5950   0.351   6.087   2.063
 1684SOL    HW1 5951   0.252   6.072   2.064
 1684SOL    HW2 5952   0.370   6.184   2.079
 1685SOL     OW 5953   1.763   1.218   5.791
 1685SOL    HW1 5954   1.708   1.301   5.803
 1685SOL    HW2 5955   1.841   1.220   5.853
 1686SOL     OW 5956   2.355   6.260   4.373
 1686SOL    HW1 5957   2.321   6.300   4.287
 1686SOL    HW2 5958   2.334   6.162   4.374
 1687SOL     OW 5959   1.421   2.917   2.110
 1687SOL    HW1 5960   1.385   2.854   2.179
 1687SOL    HW2 5961   1.521   2.911   2.108
 1688SOL     OW 5962   2.007   1.607   3.418
 1688SOL    HW1 5963   1.926   1.559   3.385
 1688SOL    HW2 5964   2.036   1.569   3.506
 1689SOL     OW 5965   6.510   1.030   2.860
 1689SOL    HW1 5966   6.482   1.074   2.774
 1689SOL    HW2 5967   6.477   0.936   2.861
 1690SOL     OW 5968   1.005   2.482   4.674
 1690SOL    HW1 5969   1.099   2.462   4.649
 1690SOL    HW2 5970   0.944   2.417   4.629
 1691SOL     OW 5971   5.839   3.055   4.069
 1691SOL    HW1 5972   5.897   3.081   4.146
 1691SOL    HW2 5973   5.878   2.975   4.024
 1692SOL     OW 5974   3.954   6.358   1.305
 1692SOL    HW1 5975   4.013   6.356   1.225
 1692SOL    HW2 5976   3.941   6.265   1.339
 1693SOL     OW 5977   6.696   2.271   3.250
 1693SOL    HW1 5978   6.721   2.290   3.155
 1693SOL    HW2 5979   6.776   2.285   3.309
 1694SOL     OW 5980   6.850   1.979   3.897
 1694SOL    HW1 5981   6.791   1.948   3.971
 1694SOL    HW2 5982   6.797   1.982   3.812
 1695SOL     OW 5983   3.683   0.622   6.209
 1695SOL    HW1 5984   3.631   0.620   6.124
 1695SOL    HW2 5985   3.724   0.532   6.225
 1696SOL     OW 5986   3.383   5.832   1.113
 1696SOL    HW1 5987   3.469   5.866   1.152
 1696SOL    HW2 5988   3.362   5.885   1.030
 1697SOL     OW 5989   6.544   1.665   0.689
 1697SOL    HW1 5990   6.473   1.679   0.757
 1697SOL    HW2 5991   6.541   1.570   0.656
 1698SOL     OW 5992   3.774   0.027   1.101
 1698SOL    HW1 5993   3.692   0.084   1.110
 1698SOL    HW2 5994   3.799   0.018   1.005
 1699SOL     OW 5995   1.920   1.634   6.522
 1699SOL    HW1 5996   1.900   1.655   6.426
 1699SOL    HW2 5997   1.979   1.554   6.527
 1700SOL     OW 5998   6.422   4.422   3.325
 1700SOL    HW1 5999   6.472   4.390   3.245
 1700SOL    HW2 6000   6.437   4.360   3.401
 1701SOL     OW 6001   5.630   5.696   5.561
 1701SOL    HW1 6002   5.539   5.660   5.582
 1701SOL    HW2 6003   5.624   5.794   5.544
 1702SOL     OW 6004   6.362   1.392   1.076
 1702SOL    HW1 6005   6.318   1.461   1.019
 1702SOL    HW2 6006   6.457   1.382   1.049
 1703SOL     OW 6007   3.533   1.769   6.795
 1703SOL    HW1 6008   3.628   1.798   6.810
 1703SOL    HW2 6009   3.513   1.689   6.852
 1704SOL     OW 6010   0.936   2.706   0.396
 1704SOL    HW1 6011   0.966   2.614   0.373
 1704SOL    HW2 6012   0.962   2.727   0.490
 1705SOL     OW 6013   3.263   2.174   1.715
 1705SOL    HW1 6014   3.229   2.126   1.634
 1705SOL    HW2 6015   3.195   2.168   1.788
 1706SOL     OW 6016   4.678   1.370   2.077
 1706SOL    HW1 6017   4.775   1.389   2.063
 1706SOL    HW2 6018   4.656   1.281   2.036
 1707SOL     OW 6019   4.449   2.416   2.748
 1707SOL    HW1 6020   4.539   2.379   2.727
 1707SOL    HW2 6021   4.379   2.364   2.700
 1708SOL     OW 6022   4.455   5.700   1.838
 1708SOL    HW1 6023   4.534   5.648   1.869
 1708SOL    HW2 6024   4.462   5.717   1.740
 1709SOL     OW 6025   3.412   6.524   2.882
 1709SOL    HW1 6026   3.348   6.459   2.923
 1709SOL    HW2 6027   3.505   6.503   2.914
 1710SOL     OW 6028   4.105   4.820   3.314
 1710SOL    HW1 6029   4.154   4.752   3.259
 1710SOL    HW2 6030   4.161   4.846   3.392
 1711SOL     OW 6031   1.694   5.668   4.565
 1711SOL    HW1 6032   1.603   5.660   4.524
 1711SOL    HW2 6033   1.757   5.707   4.499
 1712SOL     OW 6034   6.726   1.894   4.832
 1712SOL    HW1 6035   6.628   1.892   4.851
 1712SOL    HW2 6036   6.774   1.943   4.906
 1713SOL     OW 6037   4.483   1.676   2.458
 1713SOL    HW1 6038   4.508   1.620   2.537
 1713SOL    HW2 6039   4.517   1.632   2.374
 1714SOL     OW 6040   4.118   1.864   5.596
 1714SOL    HW1 6041   4.029   1.848   5.637
 1714SOL    HW2 6042   4.181   1.899   5.666
 1715SOL     OW 6043   2.156   6.227   3.459
 1715SOL    HW1 6044   2.086   6.185   3.518
 1715SOL    HW2 6045   2.227   6.268   3.516
 1716SOL     OW 6046   3.850   6.915   3.962
 1716SOL    HW1 6047   3.758   6.949   3.941
 1716SOL    HW2 6048   3.905   6.918   3.879
 1717SOL     OW 6049   3.492   6.160   4.885
 1717SOL    HW1 6050   3.556   6.123   4.818
 1717SOL    HW2 6051   3.474   6.092   4.956
 1718SOL     OW 6052   2.734   1.574   2.212
 1718SOL    HW1 6053   2.680   1.647   2.256
 1718SOL    HW2 6054   2.679   1.490   2.208
 1719SOL     OW 6055   2.318   3.295   0.712
 1719SOL    HW1 6056   2.260   3.282   0.793
 1719SOL    HW2 6057   2.395   3.231   0.717
 1720SOL     OW 6058   0.019   2.890   6.690
 1720SOL    HW1 6059   6.963   2.886   6.630
 1720SOL    HW2 6060   7.024   2.839   6.774
 1721SOL     OW 6061   2.051   6.592   1.568
 1721SOL    HW1 6062   2.030   6.648   1.648
 1721SOL    HW2 6063   2.111   6.643   1.507
 1722SOL     OW 6064   4.075   1.399   3.854
 1722SOL    HW1 6065   4.052   1.496   3.861
 1722SOL    HW2 6066   4.050   1.366   3.763
 1723SOL     OW 6067   5.285   2.639   0.078
 1723SOL    HW1 6068   5.355   2.617   0.010
 1723SOL    HW2 6069   5.328   2.656   0.166
 1724SOL     OW 6070   0.271   2.759   2.033
 1724SOL    HW1 6071   0.231   2.697   2.101
 1724SOL    HW2 6072   0.217   2.844   2.031
 1725SOL     OW 6073   1.775   4.693   6.553
 1725SOL    HW1 6074   1.726   4.776   6.582
 1725SOL    HW2 6075   1.873   4.710   6.557
 1726SOL     OW 6076   5.355   3.898   4.305
 1726SOL    HW1 6077   5.275   3.911   4.363
 1726SOL    HW2 6078   5.363   3.801   4.281
 1727SOL     OW 6079   4.087   3.559   3.579
 1727SOL    HW1 6080   3.989   3.546   3.594
 1727SOL    HW2 6081   4.115   3.508   3.498
 1728SOL     OW 6082   5.838   4.805   5.550
 1728SOL    HW1 6083   5.841   4.726   5.611
 1728SOL    HW2 6084   5.929   4.820   5.509
 1729SOL     OW 6085   2.049   3.538   3.156
 1729SOL    HW1 6086   2.095   3.607   3.100
 1729SOL    HW2 6087   2.030   3.576   3.247
 1730SOL     OW 6088   2.717   0.402   4.688
 1730SOL    HW1 6089   2.620   0.406   4.710
 1730SOL    HW2 6090   2.730   0.358   4.599
 1731SOL     OW 6091   0.123   4.319   3.472
 1731SOL    HW1 6092   0.158   4.389   3.410
 1731SOL    HW2 6093   0.173   4.233   3.458
 1732SOL     OW 6094   2.166   4.608   5.887
 1732SOL    HW1 6095   2.158   4.511   5.863
 1732SOL    HW2 6096   2.226   4.653   5.822
 1733SOL     OW 6097   1.786   4.126   1.460
 1733SOL    HW1 6098   1.801   4.146   1.364
 1733SOL    HW2 6099   1.705   4.067   1.470
 1734SOL     OW 6100   5.103   3.021   1.500
 1734SOL    HW1 6101   5.153   2.987   1.579
 1734SOL    HW2 6102   5.009   2.985   1.501
 1735SOL     OW 6103   4.766   5.545   6.578
 1735SOL    HW1 6104   4.771   5.459   6.528
 1735SOL    HW2 6105   4.741   5.526   6.673
 1736SOL     OW 6106   4.111   3.815   0.691
 1736SOL    HW1 6107   4.064   3.900   0.668
 1736SOL    HW2 6108   4.121   3.808   0.790
 1737SOL     OW 6109   5.048   6.953   5.009
 1737SOL    HW1 6110   5.114   7.005   5.063
 1737SOL    HW2 6111   5.018   7.008   4.930
 1738SOL     OW 6112   2.473   2.591   4.491
 1738SOL    HW1 6113   2.567   2.605   4.522
 1738SOL    HW2 6114   2.430   2.520   4.547
 1739SOL     OW 6115   0.281   1.388   4.529
 1739SOL    HW1 6116   0.220   1.309   4.537
 1739SOL    HW2 6117   0.341   1.376   4.449
 1740SOL     OW 6118   0.079   2.138   5.332
 1740SOL    HW1 6119   0.145   2.154   5.405
 1740SOL    HW2 6120   0.126   2.125   5.246
 1741SOL     OW 6121   2.634   0.948   4.664
 1741SOL    HW1 6122   2.588   0.860   4.675
 1741SOL    HW2 6123   2.696   0.963   4.741
 1742SOL     OW 6124   5.687   0.434   5.567
 1742SOL    HW1 6125   5.589   0.443   5.580
 1742SOL    HW2 6126   5.711   0.450   5.472
 1743SOL     OW 6127   0.866   1.085   2.369
 1743SOL    HW1 6128   0.852   1.084   2.468
 1743SOL    HW2 6129   0.963   1.099   2.349
 1744SOL     OW 6130   5.835   3.916   3.245
 1744SOL    HW1 6131   5.900   3.899   3.171
 1744SOL    HW2 6132   5.877   3.894   3.333
 1745SOL     OW 6133   5.575   6.160   2.579
 1745SOL    HW1 6134   5.653   6.206   2.537
 1745SOL    HW2 6135   5.490   6.206   2.554
 1746SOL     OW 6136   1.549   4.511   4.411
 1746SOL    HW1 6137   1.510   4.530   4.321
 1746SOL    HW2 6138   1.620   4.578   4.431
 1747SOL     OW 6139   3.850   1.363   2.420
 1747SOL    HW1 6140   3.887   1.319   2.338
 1747SOL    HW2 6141   3.783   1.432   2.392
 1748SOL     OW 6142   6.759   1.923   4.544
 1748SOL    HW1 6143   6.758   1.827   4.517
 1748SOL    HW2 6144   6.773   1.930   4.643
 1749SOL     OW 6145   1.653   0.104   5.643
 1749SOL    HW1 6146   1.746   0.128   5.671
 1749SOL    HW2 6147   1.647   0.006   5.627
 1750SOL     OW 6148   5.468   0.291   3.911
 1750SOL    HW1 6149   5.462   0.386   3.880
 1750SOL    HW2 6150   5.498   0.290   4.006
 1751SOL     OW 6151   5.159   1.656   4.990
 1751SOL    HW1 6152   5.195   1.619   5.075
 1751SOL    HW2 6153   5.122   1.581   4.934
 1752SOL     OW 6154   6.094   0.888   1.959
 1752SOL    HW1 6155   6.102   0.857   1.865
 1752SOL    HW2 6156   6.139   0.823   2.020
 1753SOL     OW 6157   6.691   0.657   1.452
 1753SOL    HW1 6158   6.751   0.607   1.391
 1753SOL    HW2 6159   6.658   0.740   1.407
 1754SOL     OW 6160   2.216   5.112   6.448
 1754SOL    HW1 6161   2.140   5.175   6.460
 1754SOL    HW2 6162   2.265   5.134   6.363
 1755SOL     OW 6163   6.932   5.429   6.514
 1755SOL    HW1 6164   7.000   5.446   6.585
 1755SOL    HW2 6165   6.841   5.424   6.554
 1756SOL     OW 6166   4.180   5.496   6.107
 1756SOL    HW1 6167   4.170   5.480   6.008
 1756SOL    HW2 6168   4.276   5.507   6.129
 1757SOL     OW 6169   3.560   5.771   5.160
 1757SOL    HW1 6170   3.578   5.716   5.079
 1757SOL    HW2 6171   3.502   5.721   5.223
 1758SOL     OW 6172   1.716   1.074   4.333
 1758SOL    HW1 6173   1.690   1.022   4.414
 1758SOL    HW2 6174   1.815   1.079   4.327
 1759SOL     OW 6175   2.677   6.672   5.555
 1759SOL    HW1 6176   2.708   6.672   5.460
 1759SOL    HW2 6177   2.707   6.588   5.600
 1760SOL     OW 6178   6.264   0.969   3.825
 1760SOL    HW1 6179   6.304   0.952   3.735
 1760SOL    HW2 6180   6.333   0.952   3.895
 1761SOL     OW 6181   0.494   1.156   1.814
 1761SOL    HW1 6182   0.398   1.129   1.816
 1761SOL    HW2 6183   0.518   1.186   1.722
 1762SOL     OW 6184   0.324   1.642   4.723
 1762SOL    HW1 6185   0.300   1.612   4.815
 1762SOL    HW2 6186   0.324   1.563   4.662
 1763SOL     OW 6187   0.995   4.872   4.505
 1763SOL    HW1 6188   1.069   4.933   4.475
 1763SOL    HW2 6189   1.034   4.798   4.562
 1764SOL     OW 6190   1.510   3.281   2.047
 1764SOL    HW1 6191   1.507   3.380   2.064
 1764SOL    HW2 6192   1.425   3.239   2.078
 1765SOL     OW 6193   3.260   1.284   1.692
 1765SOL    HW1 6194   3.217   1.367   1.657
 1765SOL    HW2 6195   3.355   1.280   1.660
 1766SOL     OW 6196   5.606   4.360   4.098
 1766SOL    HW1 6197   5.527   4.418   4.077
 1766SOL    HW2 6198   5.683   4.418   4.125
 1767SOL     OW 6199   0.756   4.351   3.585
 1767SOL    HW1 6200   0.776   4.434   3.637
 1767SOL    HW2 6201   0.692   4.293   3.636
 1768SOL     OW 6202   3.765   1.202   6.763
 1768SOL    HW1 6203   3.842   1.213   6.826
 1768SOL    HW2 6204   3.765   1.109   6.727
 1769SOL     OW 6205   6.098   0.921   7.013
 1769SOL    HW1 6206   6.179   0.888   0.039
 1769SOL    HW2 6207   6.113   0.911   6.915
 1770SOL     OW 6208   0.595   4.816   5.101
 1770SOL    HW1 6209   0.592   4.728   5.150
 1770SOL    HW2 6210   0.674   4.816   5.039
 1771SOL     OW 6211   1.362   5.628   0.539
 1771SOL    HW1 6212   1.348   5.556   0.608
 1771SOL    HW2 6213   1.418   5.701   0.578
 1772SOL     OW 6214   3.707   5.603   3.954
 1772SOL    HW1 6215   3.726   5.619   3.857
 1772SOL    HW2 6216   3.629   5.540   3.962
 1773SOL     OW 6217   2.276   2.134   5.926
 1773SOL    HW1 6218   2.276   2.230   5.898
 1773SOL    HW2 6219   2.345   2.084   5.873
 1774SOL     OW 6220   5.434   6.609   1.521
 1774SOL    HW1 6221   5.496   6.674   1.477
 1774SOL    HW2 6222   5.444   6.614   1.620
 1775SOL     OW 6223   1.983   5.658   6.083
 1775SOL    HW1 6224   1.930   5.687   6.162
 1775SOL    HW2 6225   1.966   5.721   6.007
 1776SOL     OW 6226   5.029   0.516   6.164
 1776SOL    HW1 6227   4.999   0.597   6.214
 1776SOL    HW2 6228   5.102   0.470   6.215
 1777SOL     OW 6229   3.210   6.998   6.642
 1777SOL    HW1 6230   3.226   6.899   6.633
 1777SOL    HW2 6231   3.252   0.007   6.726
 1778SOL     OW 6232   4.769   2.211   4.372
 1778SOL    HW1 6233   4.843   2.216   4.440
 1778SOL    HW2 6234   4.781   2.285   4.306
 1779SOL     OW 6235   5.116   0.188   5.919
 1779SOL    HW1 6236   5.120   0.189   6.019
 1779SOL    HW2 6237   5.180   0.256   5.883
 1780SOL     OW 6238   1.687   3.145   5.465
 1780SOL    HW1 6239   1.660   3.084   5.538
 1780SOL    HW2 6240   1.733   3.226   5.504
 1781SOL     OW 6241   5.799   6.677   5.240
 1781SOL    HW1 6242   5.798   6.701   5.337
 1781SOL    HW2 6243   5.730   6.607   5.222
 1782SOL     OW 6244   2.455   0.877   2.650
 1782SOL    HW1 6245   2.467   0.955   2.589
 1782SOL    HW2 6246   2.401   0.806   2.604
 1783SOL     OW 6247   2.955   3.853   6.559
 1783SOL    HW1 6248   2.968   3.854   6.659
 1783SOL    HW2 6249   2.861   3.826   6.538
 1784SOL     OW 6250   2.103   1.457   1.509
 1784SOL    HW1 6251   2.020   1.404   1.525
 1784SOL    HW2 6252   2.090   1.550   1.546
 1785SOL     OW 6253   6.865   0.016   4.397
 1785SOL    HW1 6254   6.921   6.966   4.437
 1785SOL    HW2 6255   6.774   7.004   4.376
 1786SOL     OW 6256   2.157   5.335   0.134
 1786SOL    HW1 6257   2.106   5.344   0.049
 1786SOL    HW2 6258   2.219   5.257   0.129
 1787SOL     OW 6259   2.171   1.594   6.165
 1787SOL    HW1 6260   2.220   1.636   6.089
 1787SOL    HW2 6261   2.140   1.503   6.138
 1788SOL     OW 6262   4.667   3.957   6.336
 1788SOL    HW1 6263   4.674   4.057   6.334
 1788SOL    HW2 6264   4.595   3.930   6.400
 1789SOL     OW 6265   5.544   3.156   1.588
 1789SOL    HW1 6266   5.511   3.187   1.498
 1789SOL    HW2 6267   5.563   3.236   1.645
 1790SOL     OW 6268   2.834   1.367   4.313
 1790SOL    HW1 6269   2.797   1.277   4.294
 1790SOL    HW2 6270   2.887   1.364   4.398
 1791SOL     OW 6271   6.948   1.445   3.664
 1791SOL    HW1 6272   6.873   1.381   3.682
 1791SOL    HW2 6273   6.917   1.538   3.682
 1792SOL     OW 6274   6.920   1.525   4.600
 1792SOL    HW1 6275   6.971   1.573   4.671
 1792SOL    HW2 6276   6.970   1.529   4.514
 1793SOL     OW 6277   6.692   1.670   4.423
 1793SOL    HW1 6278   6.772   1.610   4.419
 1793SOL    HW2 6279   6.637   1.658   4.341
 1794SOL     OW 6280   5.818   6.731   5.503
 1794SOL    HW1 6281   5.908   6.700   5.536
 1794SOL    HW2 6282   5.769   6.775   5.578
 1795SOL     OW 6283   6.481   5.032   1.478
 1795SOL    HW1 6284   6.501   4.935   1.487
 1795SOL    HW2 6285   6.504   5.080   1.562
 1796SOL     OW 6286   2.489   1.676   6.015
 1796SOL    HW1 6287   2.419   1.711   5.951
 1796SOL    HW2 6288   2.460   1.695   6.109
 1797SOL     OW 6289   1.335   6.846   5.683
 1797SOL    HW1 6290   1.309   6.940   5.704
 1797SOL    HW2 6291   1.370   6.841   5.589
 1798SOL     OW 6292   3.125   3.137   4.876
 1798SOL    HW1 6293   3.051   3.192   4.914
 1798SOL    HW2 6294   3.172   3.088   4.949
 1799SOL     OW 6295   4.189   2.986   6.902
 1799SOL    HW1 6296   4.150   2.927   6.973
 1799SOL    HW2 6297   4.288   2.992   6.915
 1800SOL     OW 6298   5.007   4.767   3.646
 1800SOL    HW1 6299   4.986   4.845   3.705
 1800SOL    HW2 6300   4.923   4.715   3.628
 1801SOL     OW 6301   0.671   1.892   2.181
 1801SOL    HW1 6302   0.671   1.943   2.267
 1801SOL    HW2 6303   0.656   1.955   2.105
 1802SOL     OW 6304   5.959   5.921   3.305
 1802SOL    HW1 6305   6.023   5.994   3.278
 1802SOL    HW2 6306   6.006   5.854   3.361
 1803SOL     OW 6307   0.096   6.958   2.397
 1803SOL    HW1 6308   0.146   0.007   2.444
 1803SOL    HW2 6309   0.106   6.968   2.298
 1804SOL     OW 6310   3.963   3.169   4.862
 1804SOL    HW1 6311   3.869   3.179   4.893
 1804SOL    HW2 6312   4.010   3.257   4.869
 1805SOL     OW 6313   0.918   5.463   5.900
 1805SOL    HW1 6314   0.954   5.546   5.944
 1805SOL    HW2 6315   0.986   5.428   5.835
 1806SOL     OW 6316   0.281   2.746   1.736
 1806SOL    HW1 6317   0.320   2.723   1.825
 1806SOL    HW2 6318   0.245   2.839   1.738
 1807SOL     OW 6319   5.566   2.921   6.882
 1807SOL    HW1 6320   5.632   2.931   6.956
 1807SOL    HW2 6321   5.611   2.940   6.794
 1808SOL     OW 6322   6.013   3.551   4.657
 1808SOL    HW1 6323   5.989   3.543   4.753
 1808SOL    HW2 6324   6.087   3.616   4.645
 1809SOL     OW 6325   2.938   1.823   5.258
 1809SOL    HW1 6326   3.029   1.789   5.281
 1809SOL    HW2 6327   2.877   1.809   5.335
 1810SOL     OW 6328   0.833   0.972   5.160
 1810SOL    HW1 6329   0.787   0.955   5.073
 1810SOL    HW2 6330   0.781   0.927   5.234
 1811SOL     OW 6331   5.293   4.564   1.832
 1811SOL    HW1 6332   5.297   4.502   1.910
 1811SOL    HW2 6333   5.213   4.543   1.776
 1812SOL     OW 6334   4.012   6.780   6.443
 1812SOL    HW1 6335   4.078   6.853   6.460
 1812SOL    HW2 6336   4.057   6.691   6.455
 1813SOL     OW 6337   5.077   4.303   2.262
 1813SOL    HW1 6338   4.997   4.316   2.203
 1813SOL    HW2 6339   5.098   4.388   2.310
 1814SOL     OW 6340   6.221   0.100   0.712
 1814SOL    HW1 6341   6.279   0.019   0.722
 1814SOL    HW2 6342   6.278   0.178   0.689
 1815SOL     OW 6343   6.258   6.859   2.637
 1815SOL    HW1 6344   6.319   6.792   2.679
 1815SOL    HW2 6345   6.295   6.887   2.548
 1816SOL     OW 6346   3.820   5.052   6.117
 1816SOL    HW1 6347   3.847   4.971   6.169
 1816SOL    HW2 6348   3.849   5.041   6.022
 1817SOL     OW 6349   3.731   1.226   2.778
 1817SOL    HW1 6350   3.744   1.307   2.721
 1817SOL    HW2 6351   3.707   1.255   2.871
 1818SOL     OW 6352   1.631   6.786   0.195
 1818SOL    HW1 6353   1.610   6.783   0.293
 1818SOL    HW2 6354   1.566   6.728   0.145
 1819SOL     OW 6355   1.716   5.087   2.142
 1819SOL    HW1 6356   1.679   5.048   2.227
 1819SOL    HW2 6357   1.816   5.084   2.144
 1820SOL     OW 6358   3.596   0.329   2.635
 1820SOL    HW1 6359   3.639   0.408   2.678
 1820SOL    HW2 6360   3.654   0.248   2.645
 1821SOL     OW 6361   3.087   1.056   2.076
 1821SOL    HW1 6362   3.152   1.126   2.107
 1821SOL    HW2 6363   3.108   1.030   1.982
 1822SOL     OW 6364   1.013   3.309   1.737
 1822SOL    HW1 6365   1.043   3.217   1.711
 1822SOL    HW2 6366   1.089   3.360   1.777
 1823SOL     OW 6367   3.328   6.087   3.194
 1823SOL    HW1 6368   3.294   6.112   3.103
 1823SOL    HW2 6369   3.425   6.110   3.201
 1824SOL     OW 6370   4.077   3.735   0.380
 1824SOL    HW1 6371   4.137   3.695   0.449
 1824SOL    HW2 6372   4.121   3.816   0.341
 1825SOL     OW 6373   0.401   3.262   4.662
 1825SOL    HW1 6374   0.448   3.231   4.745
 1825SOL    HW2 6375   0.357   3.350   4.680
 1826SOL     OW 6376   2.871   1.168   0.837
 1826SOL    HW1 6377   2.875   1.265   0.861
 1826SOL    HW2 6378   2.947   1.120   0.879
 1827SOL     OW 6379   5.230   5.718   0.974
 1827SOL    HW1 6380   5.210   5.810   1.008
 1827SOL    HW2 6381   5.226   5.653   1.050
 1828SOL     OW 6382   1.887   3.379   6.484
 1828SOL    HW1 6383   1.949   3.343   6.414
 1828SOL    HW2 6384   1.869   3.308   6.552
 1829SOL     OW 6385   3.728   0.051   3.529
 1829SOL    HW1 6386   3.696   7.017   3.604
 1829SOL    HW2 6387   3.674   0.136   3.528
 1830SOL     OW 6388   5.948   6.746   4.935
 1830SOL    HW1 6389   5.898   6.810   4.877
 1830SOL    HW2 6390   5.916   6.755   5.030
 1831SOL     OW 6391   5.403   5.716   2.814
 1831SOL    HW1 6392   5.389   5.685   2.908
 1831SOL    HW2 6393   5.477   5.663   2.773
 1832SOL     OW 6394   3.103   3.219   7.008
 1832SOL    HW1 6395   3.049   3.222   0.068
 1832SOL    HW2 6396   3.045   3.186   6.933
 1833SOL     OW 6397   5.245   0.620   1.260
 1833SOL    HW1 6398   5.291   0.550   1.207
 1833SOL    HW2 6399   5.180   0.670   1.202
 1834SOL     OW 6400   2.270   3.104   1.514
 1834SOL    HW1 6401   2.246   3.195   1.546
 1834SOL    HW2 6402   2.351   3.072   1.563
 1835SOL     OW 6403   1.267   4.682   1.381
 1835SOL    HW1 6404   1.171   4.690   1.356
 1835SOL    HW2 6405   1.284   4.730   1.467
 1836SOL     OW 6406   5.576   2.514   2.035
 1836SOL    HW1 6407   5.529   2.426   2.037
 1836SOL    HW2 6408   5.520   2.582   2.083
 1837SOL     OW 6409   2.045   0.398   5.854
 1837SOL    HW1 6410   2.029   0.485   5.809
 1837SOL    HW2 6411   2.120   0.350   5.807
 1838SOL     OW 6412   6.388   0.748   6.333
 1838SOL    HW1 6413   6.372   0.803   6.251
 1838SOL    HW2 6414   6.367   0.803   6.414
 1839SOL     OW 6415   6.334   1.414   6.404
 1839SOL    HW1 6416   6.238   1.408   6.377
 1839SOL    HW2 6417   6.347   1.496   6.460
 1840SOL     OW 6418   4.001   0.496   2.607
 1840SOL    HW1 6419   4.038   0.542   2.526
 1840SOL    HW2 6420   3.923   0.548   2.642
 1841SOL     OW 6421   2.235   0.461   3.224
 1841SOL    HW1 6422   2.329   0.429   3.212
 1841SOL    HW2 6423   2.231   0.560   3.212
 1842SOL     OW 6424   1.182   5.363   0.546
 1842SOL    HW1 6425   1.197   5.335   0.451
 1842SOL    HW2 6426   1.158   5.283   0.601
 1843SOL     OW 6427   4.993   0.528   3.859
 1843SOL    HW1 6428   4.956   0.459   3.920
 1843SOL    HW2 6429   5.091   0.538   3.876
 1844SOL     OW 6430   4.549   1.644   5.546
 1844SOL    HW1 6431   4.472   1.646   5.610
 1844SOL    HW2 6432   4.631   1.613   5.594
 1845SOL     OW 6433   2.998   7.011   3.834
 1845SOL    HW1 6434   2.949   0.074   3.836
 1845SOL    HW2 6435   3.028   6.987   3.926
 1846SOL     OW 6436   5.284   1.122   3.134
 1846SOL    HW1 6437   5.228   1.069   3.198
 1846SOL    HW2 6438   5.294   1.071   3.049
 1847SOL     OW 6439   1.404   0.013   5.058
 1847SOL    HW1 6440   1.481   7.009   5.115
 1847SOL    HW2 6441   1.349   6.956   5.036
 1848SOL     OW 6442   1.434   6.533   4.348
 1848SOL    HW1 6443   1.533   6.544   4.362
 1848SOL    HW2 6444   1.409   6.438   4.365
 1849SOL     OW 6445   4.677   2.672   1.529
 1849SOL    HW1 6446   4.599   2.686   1.469
 1849SOL    HW2 6447   4.663   2.721   1.615
 1850SOL     OW 6448   5.983   1.914   2.515
 1850SOL    HW1 6449   5.917   1.968   2.567
 1850SOL    HW2 6450   5.944   1.824   2.495
 1851SOL     OW 6451   0.695   3.483   6.952
 1851SOL    HW1 6452   0.621   3.430   6.993
 1851SOL    HW2 6453   0.783   3.448   6.983
 1852SOL     OW 6454   0.401   5.077   1.890
 1852SOL    HW1 6455   0.393   5.142   1.813
 1852SOL    HW2 6456   0.358   4.991   1.865
 1853SOL     OW 6457   6.944   2.293   3.352
 1853SOL    HW1 6458   6.940   2.390   3.331
 1853SOL    HW2 6459   6.951   2.281   3.451
 1854SOL     OW 6460   1.212   5.357   2.998
 1854SOL    HW1 6461   1.171   5.280   3.047
 1854SOL    HW2 6462   1.147   5.434   2.997
 1855SOL     OW 6463   5.096   3.387   5.213
 1855SOL    HW1 6464   5.193   3.371   5.230
 1855SOL    HW2 6465   5.043   3.360   5.293
 1856SOL     OW 6466   4.070   3.442   6.394
 1856SOL    HW1 6467   4.042   3.534   6.422
 1856SOL    HW2 6468   4.081   3.440   6.295
 1857SOL     OW 6469   4.887   1.257   0.613
 1857SOL    HW1 6470   4.939   1.339   0.593
 1857SOL    HW2 6471   4.944   1.193   0.665
 1858SOL     OW 6472   5.772   2.898   3.302
 1858SOL    HW1 6473   5.759   2.839   3.222
 1858SOL    HW2 6474   5.797   2.843   3.381
 1859SOL     OW 6475   4.868   1.803   3.705
 1859SOL    HW1 6476   4.873   1.895   3.742
 1859SOL    HW2 6477   4.808   1.802   3.625
 1860SOL     OW 6478   0.829   1.967   5.448
 1860SOL    HW1 6479   0.762   1.928   5.511
 1860SOL    HW2 6480   0.793   2.051   5.408
 1861SOL     OW 6481   5.415   0.606   2.780
 1861SOL    HW1 6482   5.338   0.659   2.818
 1861SOL    HW2 6483   5.449   0.543   2.849
 1862SOL     OW 6484   1.235   6.948   6.965
 1862SOL    HW1 6485   1.176   6.944   6.884
 1862SOL    HW2 6486   1.303   6.876   6.960
 1863SOL     OW 6487   6.694   3.053   1.537
 1863SOL    HW1 6488   6.707   2.955   1.550
 1863SOL    HW2 6489   6.741   3.103   1.610
 1864SOL     OW 6490   3.551   5.677   4.202
 1864SOL    HW1 6491   3.482   5.608   4.224
 1864SOL    HW2 6492   3.589   5.658   4.111
 1865SOL     OW 6493   3.418   1.081   1.374
 1865SOL    HW1 6494   3.335   1.044   1.414
 1865SOL    HW2 6495   3.395   1.136   1.293
 1866SOL     OW 6496   6.494   4.833   3.657
 1866SOL    HW1 6497   6.569   4.776   3.690
 1866SOL    HW2 6498   6.459   4.797   3.571
 1867SOL     OW 6499   2.201   3.372   1.241
 1867SOL    HW1 6500   2.213   3.466   1.207
 1867SOL    HW2 6501   2.288   3.324   1.238
 1868SOL     OW 6502   5.075   3.300   5.876
 1868SOL    HW1 6503   5.063   3.400   5.878
 1868SOL    HW2 6504   4.993   3.256   5.913
 1869SOL     OW 6505   5.572   2.655   3.947
 1869SOL    HW1 6506   5.667   2.625   3.955
 1869SOL    HW2 6507   5.515   2.608   4.014
 1870SOL     OW 6508   0.823   3.242   4.647
 1870SOL    HW1 6509   0.785   3.149   4.641
 1870SOL    HW2 6510   0.842   3.276   4.554
 1871SOL     OW 6511   0.050   6.479   0.369
 1871SOL    HW1 6512   0.066   6.458   0.272
 1871SOL    HW2 6513   0.131   6.524   0.407
 1872SOL     OW 6514   3.528   2.346   0.319
 1872SOL    HW1 6515   3.533   2.257   0.274
 1872SOL    HW2 6516   3.525   2.333   0.418
 1873SOL     OW 6517   6.273   1.130   5.571
 1873SOL    HW1 6518   6.201   1.194   5.545
 1873SOL    HW2 6519   6.235   1.058   5.629
 1874SOL     OW 6520   0.782   1.267   6.937
 1874SOL    HW1 6521   0.751   1.296   0.004
 1874SOL    HW2 6522   0.797   1.169   6.937
 1875SOL     OW 6523   6.530   6.462   0.378
 1875SOL    HW1 6524   6.457   6.486   0.443
 1875SOL    HW2 6525   6.616   6.450   0.428
 1876SOL     OW 6526   5.072   6.554   6.082
 1876SOL    HW1 6527   5.141   6.562   6.011
 1876SOL    HW2 6528   4.990   6.510   6.045
 1877SOL     OW 6529   0.093   1.942   3.179
 1877SOL    HW1 6530   0.040   1.921   3.261
 1877SOL    HW2 6531   0.161   1.871   3.164
 1878SOL     OW 6532   0.099   4.254   2.980
 1878SOL    HW1 6533   0.050   4.209   3.054
 1878SOL    HW2 6534   0.117   4.188   2.907
 1879SOL     OW 6535   2.564   5.358   3.895
 1879SOL    HW1 6536   2.527   5.338   3.805
 1879SOL    HW2 6537   2.530   5.290   3.961
 1880SOL     OW 6538   1.033   2.681   3.035
 1880SOL    HW1 6539   1.075   2.671   3.125
 1880SOL    HW2 6540   0.986   2.596   3.010
 1881SOL     OW 6541   0.766   1.904   3.540
 1881SOL    HW1 6542   0.852   1.930   3.495
 1881SOL    HW2 6543   0.751   1.965   3.619
 1882SOL     OW 6544   0.552   5.681   6.881
 1882SOL    HW1 6545   0.626   5.643   6.824
 1882SOL    HW2 6546   0.464   5.660   6.839
 1883SOL     OW 6547   1.151   3.796   3.570
 1883SOL    HW1 6548   1.197   3.722   3.619
 1883SOL    HW2 6549   1.121   3.866   3.635
 1884SOL     OW 6550   5.223   1.070   1.634
 1884SOL    HW1 6551   5.261   1.157   1.604
 1884SOL    HW2 6552   5.297   1.012   1.669
 1885SOL     OW 6553   6.693   1.945   0.573
 1885SOL    HW1 6554   6.643   1.927   0.658
 1885SOL    HW2 6555   6.648   2.020   0.524
 1886SOL     OW 6556   1.741   2.324   7.008
 1886SOL    HW1 6557   1.804   2.396   0.014
 1886SOL    HW2 6558   1.770   2.237   0.024
 1887SOL     OW 6559   0.202   4.073   6.087
 1887SOL    HW1 6560   0.139   4.134   6.039
 1887SOL    HW2 6561   0.179   4.072   6.185
 1888SOL     OW 6562   2.238   1.635   6.443
 1888SOL    HW1 6563   2.243   1.548   6.493
 1888SOL    HW2 6564   2.195   1.620   6.354
 1889SOL     OW 6565   4.272   3.888   6.428
 1889SOL    HW1 6566   4.352   3.836   6.399
 1889SOL    HW2 6567   4.288   3.926   6.519
 1890SOL     OW 6568   1.668   5.697   6.047
 1890SOL    HW1 6569   1.686   5.601   6.066
 1890SOL    HW2 6570   1.748   5.738   6.003
 1891SOL     OW 6571   5.097   2.576   4.346
 1891SOL    HW1 6572   5.087   2.656   4.287
 1891SOL    HW2 6573   5.073   2.601   4.440
 1892SOL     OW 6574   3.525   6.653   1.119
 1892SOL    HW1 6575   3.427   6.634   1.117
 1892SOL    HW2 6576   3.565   6.613   1.201
 1893SOL     OW 6577   3.631   2.060   4.841
 1893SOL    HW1 6578   3.542   2.017   4.820
 1893SOL    HW2 6579   3.682   2.074   4.756
 1894SOL     OW 6580   4.180   3.564   1.332
 1894SOL    HW1 6581   4.206   3.512   1.250
 1894SOL    HW2 6582   4.250   3.631   1.353
 1895SOL     OW 6583   6.622   0.200   2.389
 1895SOL    HW1 6584   6.571   0.250   2.460
 1895SOL    HW2 6585   6.558   0.146   2.334
 1896SOL     OW 6586   6.733   1.020   3.037
 1896SOL    HW1 6587   6.825   1.031   2.997
 1896SOL    HW2 6588   6.664   1.039   2.967
 1897SOL     OW 6589   6.467   5.279   3.060
 1897SOL    HW1 6590   6.508   5.221   3.130
 1897SOL    HW2 6591   6.383   5.321   3.095
 1898SOL     OW 6592   3.882   6.640   1.623
 1898SOL    HW1 6593   3.909   6.692   1.542
 1898SOL    HW2 6594   3.937   6.557   1.628
 1899SOL     OW 6595   1.198   3.010   2.649
 1899SOL    HW1 6596   1.102   2.983   2.650
 1899SOL    HW2 6597   1.220   3.049   2.559
 1900SOL     OW 6598   1.163   0.101   5.683
 1900SOL    HW1 6599   1.222   0.181   5.676
 1900SOL    HW2 6600   1.109   0.107   5.767
 1901SOL     OW 6601   2.391   1.521   0.950
 1901SOL    HW1 6602   2.405   1.423   0.963
 1901SOL    HW2 6603   2.294   1.540   0.940
 1902SOL     OW 6604   1.588   2.503   5.145
 1902SOL    HW1 6605   1.598   2.574   5.075
 1902SOL    HW2 6606   1.677   2.461   5.163
 1903SOL     OW 6607   6.795   3.523   3.683
 1903SOL    HW1 6608   6.715   3.506   3.740
 1903SOL    HW2 6609   6.770   3.516   3.587
 1904SOL     OW 6610   0.010   0.212   3.959
 1904SOL    HW1 6611   0.037   0.265   3.879
 1904SOL    HW2 6612   0.021   0.115   3.940
 1905SOL     OW 6613   0.414   2.570   4.186
 1905SOL    HW1 6614   0.333   2.589   4.130
 1905SOL    HW2 6615   0.387   2.560   4.282
 1906SOL     OW 6616   2.678   0.156   5.357
 1906SOL    HW1 6617   2.672   0.209   5.442
 1906SOL    HW2 6618   2.751   0.088   5.365
 1907SOL     OW 6619   3.340   6.937   3.758
 1907SOL    HW1 6620   3.356   0.012   3.764
 1907SOL    HW2 6621   3.273   6.909   3.826
 1908SOL     OW 6622   4.682   1.075   4.910
 1908SOL    HW1 6623   4.753   1.120   4.964
 1908SOL    HW2 6624   4.686   1.108   4.816
 1909SOL     OW 6625   1.927   4.110   3.636
 1909SOL    HW1 6626   1.953   4.157   3.720
 1909SOL    HW2 6627   1.983   4.144   3.560
 1910SOL     OW 6628   5.851   2.247   6.271
 1910SOL    HW1 6629   5.863   2.173   6.204
 1910SOL    HW2 6630   5.850   2.209   6.363
 1911SOL     OW 6631   5.678   1.823   5.934
 1911SOL    HW1 6632   5.673   1.839   5.835
 1911SOL    HW2 6633   5.761   1.865   5.970
 1912SOL     OW 6634   3.849   6.630   2.204
 1912SOL    HW1 6635   3.865   6.719   2.161
 1912SOL    HW2 6636   3.867   6.636   2.302
 1913SOL     OW 6637   1.996   6.296   5.254
 1913SOL    HW1 6638   1.995   6.341   5.165
 1913SOL    HW2 6639   1.912   6.318   5.304
 1914SOL     OW 6640   2.688   2.357   6.708
 1914SOL    HW1 6641   2.608   2.300   6.727
 1914SOL    HW2 6642   2.667   2.452   6.728
 1915SOL     OW 6643   3.277   1.272   5.201
 1915SOL    HW1 6644   3.298   1.186   5.154
 1915SOL    HW2 6645   3.354   1.334   5.192
 1916SOL     OW 6646   3.780   5.525   0.691
 1916SOL    HW1 6647   3.839   5.479   0.758
 1916SOL    HW2 6648   3.684   5.518   0.721
 1917SOL     OW 6649   4.177   3.578   4.606
 1917SOL    HW1 6650   4.185   3.502   4.541
 1917SOL    HW2 6651   4.240   3.651   4.580
 1918SOL     OW 6652   6.639   6.332   6.509
 1918SOL    HW1 6653   6.649   6.421   6.552
 1918SOL    HW2 6654   6.613   6.264   6.578
 1919SOL     OW 6655   1.205   6.575   2.132
 1919SOL    HW1 6656   1.117   6.528   2.126
 1919SOL    HW2 6657   1.277   6.507   2.149
 1920SOL     OW 6658   0.508   5.206   3.405
 1920SOL    HW1 6659   0.457   5.244   3.328
 1920SOL    HW2 6660   0.577   5.143   3.371
 1921SOL     OW 6661   0.442   4.519   0.424
 1921SOL    HW1 6662   0.523   4.497   0.479
 1921SOL    HW2 6663   0.464   4.513   0.327
 1922SOL     OW 6664   3.395   3.919   1.214
 1922SOL    HW1 6665   3.380   4.012   1.249
 1922SOL    HW2 6666   3.486   3.913   1.174
 1923SOL     OW 6667   2.684   0.805   6.751
 1923SOL    HW1 6668   2.779   0.777   6.764
 1923SOL    HW2 6669   2.658   0.793   6.655
 1924SOL     OW 6670   5.577   5.522   2.745
 1924SOL    HW1 6671   5.668   5.540   2.783
 1924SOL    HW2 6672   5.585   5.510   2.646
 1925SOL     OW 6673   2.806   3.396   2.065
 1925SOL    HW1 6674   2.866   3.472   2.091
 1925SOL    HW2 6675   2.711   3.424   2.078
 1926SOL     OW 6676   1.083   6.992   4.052
 1926SOL    HW1 6677   1.149   6.974   4.124
 1926SOL    HW2 6678   1.126   0.023   3.980
 1927SOL     OW 6679   3.052   5.060   6.325
 1927SOL    HW1 6680   3.072   4.968   6.291
 1927SOL    HW2 6681   2.996   5.109   6.258
 1928SOL     OW 6682   6.672   3.626   6.183
 1928SOL    HW1 6683   6.652   3.664   6.092
 1928SOL    HW2 6684   6.600   3.654   6.247
 1929SOL     OW 6685   0.625   5.526   1.218
 1929SOL    HW1 6686   0.546   5.483   1.174
 1929SOL    HW2 6687   0.630   5.622   1.191
 1930SOL     OW 6688   4.361   4.227   6.995
 1930SOL    HW1 6689   4.301   4.297   0.010
 1930SOL    HW2 6690   4.352   4.227   6.895
 1931SOL     OW 6691   0.039   3.295   3.347
 1931SOL    HW1 6692   6.963   3.286   3.345
 1931SOL    HW2 6693   0.074   3.254   3.431
 1932SOL     OW 6694   4.851   4.198   2.581
 1932SOL    HW1 6695   4.829   4.145   2.499
 1932SOL    HW2 6696   4.950   4.202   2.593
 1933SOL     OW 6697   3.135   4.557   0.420
 1933SOL    HW1 6698   3.060   4.513   0.468
 1933SOL    HW2 6699   3.222   4.527   0.459
 1934SOL     OW 6700   0.377   0.549   5.361
 1934SOL    HW1 6701   0.332   0.638   5.362
 1934SOL    HW2 6702   0.338   0.490   5.431
 1935SOL     OW 6703   3.367   0.320   5.105
 1935SOL    HW1 6704   3.298   0.299   5.035
 1935SOL    HW2 6705   3.455   0.336   5.061
 1936SOL     OW 6706   5.918   4.121   3.913
 1936SOL    HW1 6707   5.856   4.199   3.919
 1936SOL    HW2 6708   6.007   4.151   3.881
 1937SOL     OW 6709   4.434   6.315   1.478
 1937SOL    HW1 6710   4.369   6.390   1.467
 1937SOL    HW2 6711   4.393   6.230   1.444
 1938SOL     OW 6712   4.228   1.094   2.788
 1938SOL    HW1 6713   4.318   1.056   2.813
 1938SOL    HW2 6714   4.163   1.074   2.861
 1939SOL     OW 6715   0.260   6.349   4.375
 1939SOL    HW1 6716   0.250   6.252   4.400
 1939SOL    HW2 6717   0.268   6.404   4.458
 1940SOL     OW 6718   5.118   5.174   5.812
 1940SOL    HW1 6719   5.066   5.197   5.730
 1940SOL    HW2 6720   5.177   5.095   5.794
 1941SOL     OW 6721   6.937   3.843   3.240
 1941SOL    HW1 6722   6.928   3.778   3.164
 1941SOL    HW2 6723   7.022   3.824   3.290
 1942SOL     OW 6724   6.530   0.503   3.117
 1942SOL    HW1 6725   6.496   0.456   3.198
 1942SOL    HW2 6726   6.542   0.600   3.138
 1943SOL     OW 6727   3.080   6.339   2.267
 1943SOL    HW1 6728   3.151   6.386   2.320
 1943SOL    HW2 6729   2.992   6.346   2.315
 1944SOL     OW 6730   5.060   2.476   6.509
 1944SOL    HW1 6731   5.145   2.458   6.559
 1944SOL    HW2 6732   5.017   2.390   6.485
 1945SOL     OW 6733   3.742   5.936   2.269
 1945SOL    HW1 6734   3.660   5.954   2.323
 1945SOL    HW2 6735   3.764   5.838   2.275
 1946SOL     OW 6736   6.720   0.547   0.768
 1946SOL    HW1 6737   6.690   0.475   0.705
 1946SOL    HW2 6738   6.730   0.633   0.718
 1947SOL     OW 6739   5.124   6.549   3.830
 1947SOL    HW1 6740   5.169   6.585   3.912
 1947SOL    HW2 6741   5.184   6.562   3.751
 1948SOL     OW 6742   6.050   5.913   3.588
 1948SOL    HW1 6743   5.963   5.961   3.582
 1948SOL    HW2 6744   6.072   5.895   3.683
 1949SOL     OW 6745   4.758   4.490   5.766
 1949SOL    HW1 6746   4.761   4.580   5.723
 1949SOL    HW2 6747   4.836   4.479   5.828
 1950SOL     OW 6748   3.695   3.842   0.800
 1950SOL    HW1 6749   3.666   3.846   0.704
 1950SOL    HW2 6750   3.628   3.791   0.853
 1951SOL     OW 6751   5.779   3.849   0.380
 1951SOL    HW1 6752   5.786   3.918   0.308
 1951SOL    HW2 6753   5.779   3.893   0.469
 1952SOL     OW 6754   3.556   2.683   7.016
 1952SOL    HW1 6755   3.466   2.700   0.032
 1952SOL    HW2 6756   3.564   2.734   6.930
 1953SOL     OW 6757   6.073   2.625   0.391
 1953SOL    HW1 6758   6.068   2.661   0.484
 1953SOL    HW2 6759   6.167   2.594   0.372
 1954SOL     OW 6760   5.841   1.190   4.528
 1954SOL    HW1 6761   5.870   1.233   4.443
 1954SOL    HW2 6762   5.771   1.121   4.508
 1955SOL     OW 6763   1.390   0.403   2.600
 1955SOL    HW1 6764   1.483   0.409   2.565
 1955SOL    HW2 6765   1.392   0.386   2.699
 1956SOL     OW 6766   6.080   0.379   2.531
 1956SOL    HW1 6767   6.019   0.377   2.610
 1956SOL    HW2 6768   6.029   0.352   2.449
 1957SOL     OW 6769   6.547   5.251   4.808
 1957SOL    HW1 6770   6.539   5.159   4.847
 1957SOL    HW2 6771   6.643   5.269   4.785
 1958SOL     OW 6772   6.022   2.416   3.709
 1958SOL    HW1 6773   5.932   2.407   3.666
 1958SOL    HW2 6774   6.012   2.411   3.808
 1959SOL     OW 6775   0.061   1.836   6.165
 1959SOL    HW1 6776   0.120   1.763   6.198
 1959SOL    HW2 6777   6.989   1.805   6.167
 1960SOL     OW 6778   6.675   4.035   0.600
 1960SOL    HW1 6779   6.764   3.994   0.621
 1960SOL    HW2 6780   6.602   3.968   0.615
 1961SOL     OW 6781   6.035   4.390   4.310
 1961SOL    HW1 6782   5.972   4.456   4.351
 1961SOL    HW2 6783   6.041   4.407   4.212
 1962SOL     OW 6784   2.990   6.527   2.855
 1962SOL    HW1 6785   2.944   6.478   2.929
 1962SOL    HW2 6786   2.941   6.612   2.836
 1963SOL     OW 6787   0.609   0.478   1.146
 1963SOL    HW1 6788   0.642   0.559   1.195
 1963SOL    HW2 6789   0.671   0.401   1.163
 1964SOL     OW 6790   4.402   3.145   1.714
 1964SOL    HW1 6791   4.457   3.086   1.774
 1964SOL    HW2 6792   4.309   3.150   1.750
 1965SOL     OW 6793   1.208   3.504   3.419
 1965SOL    HW1 6794   1.292   3.543   3.381
 1965SOL    HW2 6795   1.166   3.445   3.350
 1966SOL     OW 6796   0.101   5.679   5.206
 1966SOL    HW1 6797   0.115   5.758   5.265
 1966SOL    HW2 6798   0.039   5.614   5.250
 1967SOL     OW 6799   4.663   2.309   4.908
 1967SOL    HW1 6800   4.651   2.218   4.866
 1967SOL    HW2 6801   4.573   2.352   4.917
 1968SOL     OW 6802   3.483   5.464   0.812
 1968SOL    HW1 6803   3.537   5.505   0.886
 1968SOL    HW2 6804   3.443   5.378   0.843
 1969SOL     OW 6805   0.615   1.529   1.615
 1969SOL    HW1 6806   0.519   1.515   1.638
 1969SOL    HW2 6807   0.654   1.444   1.580
 1970SOL     OW 6808   2.386   0.055   6.125
 1970SOL    HW1 6809   2.426   0.008   6.046
 1970SOL    HW2 6810   2.301   0.009   6.151
 1971SOL     OW 6811   6.426   0.142   6.473
 1971SOL    HW1 6812   6.383   0.229   6.448
 1971SOL    HW2 6813   6.411   0.075   6.400
 1972SOL     OW 6814   5.818   2.564   2.866
 1972SOL    HW1 6815   5.843   2.656   2.837
 1972SOL    HW2 6816   5.719   2.554   2.867
 1973SOL     OW 6817   2.399   3.556   0.634
 1973SOL    HW1 6818   2.495   3.546   0.660
 1973SOL    HW2 6819   2.347   3.476   0.663
 1974SOL     OW 6820   6.405   6.407   3.892
 1974SOL    HW1 6821   6.395   6.366   3.801
 1974SOL    HW2 6822   6.397   6.336   3.962
 1975SOL     OW 6823   2.678   1.533   2.800
 1975SOL    HW1 6824   2.655   1.595   2.724
 1975SOL    HW2 6825   2.692   1.587   2.883
 1976SOL     OW 6826   0.288   5.488   7.006
 1976SOL    HW1 6827   0.263   5.572   6.959
 1976SOL    HW2 6828   0.329   5.424   6.941
 1977SOL     OW 6829   1.240   3.164   3.311
 1977SOL    HW1 6830   1.240   3.064   3.308
 1977SOL    HW2 6831   1.167   3.200   3.252
 1978SOL     OW 6832   0.948   1.170   3.862
 1978SOL    HW1 6833   1.023   1.231   3.835
 1978SOL    HW2 6834   0.900   1.138   3.780
 1979SOL     OW 6835   6.648   4.178   5.133
 1979SOL    HW1 6836   6.639   4.178   5.232
 1979SOL    HW2 6837   6.571   4.128   5.092
 1980SOL     OW 6838   2.905   0.892   6.416
 1980SOL    HW1 6839   2.831   0.959   6.413
 1980SOL    HW2 6840   2.893   0.833   6.495
 1981SOL     OW 6841   6.322   2.147   2.334
 1981SOL    HW1 6842   6.416   2.178   2.347
 1981SOL    HW2 6843   6.265   2.224   2.304
 1982SOL     OW 6844   0.572   3.999   5.159
 1982SOL    HW1 6845   0.477   4.028   5.152
 1982SOL    HW2 6846   0.620   4.022   5.074
 1983SOL     OW 6847   0.364   1.864   3.178
 1983SOL    HW1 6848   0.390   1.832   3.087
 1983SOL    HW2 6849   0.439   1.848   3.242
 1984SOL     OW 6850   5.829   1.558   4.599
 1984SOL    HW1 6851   5.871   1.468   4.586
 1984SOL    HW2 6852   5.834   1.610   4.513
 1985SOL     OW 6853   0.826   0.290   2.710
 1985SOL    HW1 6854   0.876   0.252   2.633
 1985SOL    HW2 6855   0.739   0.243   2.720
 1986SOL     OW 6856   1.403   0.193   6.914
 1986SOL    HW1 6857   1.352   0.151   6.989
 1986SOL    HW2 6858   1.489   0.230   6.949
 1987SOL     OW 6859   1.012   2.943   0.843
 1987SOL    HW1 6860   1.106   2.975   0.848
 1987SOL    HW2 6861   0.971   2.944   0.935
 1988SOL     OW 6862   4.975   4.898   1.049
 1988SOL    HW1 6863   5.039   4.950   1.106
 1988SOL    HW2 6864   4.897   4.869   1.104
 1989SOL     OW 6865   2.326   6.833   5.065
 1989SOL    HW1 6866   2.367   6.852   4.976
 1989SOL    HW2 6867   2.381   6.766   5.115
 1990SOL     OW 6868   3.099   6.349   0.753
 1990SOL    HW1 6869   3.173   6.314   0.810
 1990SOL    HW2 6870   3.105   6.449   0.749
 1991SOL     OW 6871   4.487   4.789   6.404
 1991SOL    HW1 6872   4.564   4.762   6.463
 1991SOL    HW2 6873   4.444   4.707   6.366
 1992SOL     OW 6874   0.631   0.022   6.742
 1992SOL    HW1 6875   0.627   0.101   6.680
 1992SOL    HW2 6876   0.727   0.003   6.765
 1993SOL     OW 6877   3.930   3.370   4.560
 1993SOL    HW1 6878   3.976   3.413   4.637
 1993SOL    HW2 6879   3.980   3.392   4.476
 1994SOL     OW 6880   1.028   1.617   0.525
 1994SOL    HW1 6881   1.096   1.665   0.580
 1994SOL    HW2 6882   1.074   1.567   0.452
 1995SOL     OW 6883   6.478   2.201   1.529
 1995SOL    HW1 6884   6.501   2.286   1.577
 1995SOL    HW2 6885   6.543   2.130   1.556
 1996SOL     OW 6886   2.985   3.775   0.841
 1996SOL    HW1 6887   2.968   3.677   0.834
 1996SOL    HW2 6888   3.075   3.797   0.803
 1997SOL     OW 6889   4.922   0.284   5.351
 1997SOL    HW1 6890   4.983   0.351   5.394
 1997SOL    HW2 6891   4.832   0.290   5.393
 1998SOL     OW 6892   2.987   4.052   6.391
 1998SOL    HW1 6893   2.973   3.980   6.460
 1998SOL    HW2 6894   2.903   4.105   6.381
 1999SOL     OW 6895   3.236   6.403   1.345
 1999SOL    HW1 6896   3.241   6.420   1.443
 1999SOL    HW2 6897   3.186   6.477   1.300
 2000SOL     OW 6898   4.011   1.954   5.122
 2000SOL    HW1 6899   4.103   1.993   5.122
 2000SOL    HW2 6900   3.948   2.017   5.076
 2001SOL     OW 6901   3.298   1.751   1.594
 2001SOL    HW1 6902   3.358   1.742   1.673
 2001SOL    HW2 6903   3.277   1.660   1.558
 2002SOL     OW 6904   1.228   5.454   6.105
 2002SOL    HW1 6905   1.277   5.541   6.104
 2002SOL    HW2 6906   1.207   5.426   6.012
 2003SOL     OW 6907   6.302   6.927   3.713
 2003SOL    HW1 6908   6.339   7.003   3.766
 2003SOL    HW2 6909   6.330   6.841   3.756
 2004SOL     OW 6910   4.855   1.527   5.219
 2004SOL    HW1 6911   4.870   1.488   5.310
 2004SOL    HW2 6912   4.908   1.612   5.210
 2005SOL     OW 6913   0.826   4.788   6.833
 2005SOL    HW1 6914   0.839   4.705   6.887
 2005SOL    HW2 6915   0.730   4.795   6.806
 2006SOL     OW 6916   5.598   4.900   4.368
 2006SOL    HW1 6917   5.533   4.953   4.423
 2006SOL    HW2 6918   5.606   4.808   4.406
 2007SOL     OW 6919   3.844   4.961   1.177
 2007SOL    HW1 6920   3.847   5.013   1.262
 2007SOL    HW2 6921   3.868   5.020   1.101
 2008SOL     OW 6922   1.368   5.418   3.231
 2008SOL    HW1 6923   1.373   5.518   3.226
 2008SOL    HW2 6924   1.325   5.383   3.148
 2009SOL     OW 6925   6.376   0.010   1.726
 2009SOL    HW1 6926   6.284   0.009   1.689
 2009SOL    HW2 6927   6.442   0.007   1.651
 2010SOL     OW 6928   1.210   1.412   1.699
 2010SOL    HW1 6929   1.279   1.375   1.761
 2010SOL    HW2 6930   1.255   1.460   1.624
 2011SOL     OW 6931   6.279   1.474   5.141
 2011SOL    HW1 6932   6.322   1.516   5.061
 2011SOL    HW2 6933   6.311   1.521   5.224
 2012SOL     OW 6934   1.146   3.089   1.657
 2012SOL    HW1 6935   1.127   3.147   1.577
 2012SOL    HW2 6936   1.171   2.997   1.626
 2013SOL     OW 6937   6.075   0.729   3.361
 2013SOL    HW1 6938   6.011   0.749   3.436
 2013SOL    HW2 6939   6.084   0.811   3.303
 2014SOL     OW 6940   1.959   5.366   3.063
 2014SOL    HW1 6941   1.978   5.299   3.134
 2014SOL    HW2 6942   1.947   5.320   2.975
 2015SOL     OW 6943   2.142   2.046   0.207
 2015SOL    HW1 6944   2.140   2.008   0.299
 2015SOL    HW2 6945   2.136   2.145   0.212
 2016SOL     OW 6946   1.606   5.233   5.255
 2016SOL    HW1 6947   1.623   5.282   5.170
 2016SOL    HW2 6948   1.685   5.177   5.278
 2017SOL     OW 6949   2.417   6.764   4.150
 2017SOL    HW1 6950   2.392   6.790   4.243
 2017SOL    HW2 6951   2.514   6.739   4.147
 2018SOL     OW 6952   6.102   0.034   6.179
 2018SOL    HW1 6953   6.097   6.962   6.209
 2018SOL    HW2 6954   6.067   0.041   6.086
 2019SOL     OW 6955   4.715   2.365   2.254
 2019SOL    HW1 6956   4.681   2.274   2.278
 2019SOL    HW2 6957   4.798   2.357   2.199
 2020SOL     OW 6958   1.215   5.587   5.346
 2020SOL    HW1 6959   1.302   5.580   5.395
 2020SOL    HW2 6960   1.185   5.682   5.344
 2021SOL     OW 6961   2.656   5.348   3.315
 2021SOL    HW1 6962   2.646   5.329   3.217
 2021SOL    HW2 6963   2.601   5.428   3.340
 2022SOL     OW 6964   1.850   3.136   3.077
 2022SOL    HW1 6965   1.882   3.100   2.990
 2022SOL    HW2 6966   1.762   3.094   3.101
 2023SOL     OW 6967   6.058   1.511   6.698
 2023SOL    HW1 6968   5.963   1.489   6.676
 2023SOL    HW2 6969   6.091   1.583   6.637
 2024SOL     OW 6970   6.955   6.994   2.883
 2024SOL    HW1 6971   7.004   6.934   2.820
 2024SOL    HW2 6972   6.886   0.023   2.833
 2025SOL     OW 6973   2.162   3.054   2.297
 2025SOL    HW1 6974   2.126   3.017   2.211
 2025SOL    HW2 6975   2.177   3.152   2.287
 2026SOL     OW 6976   1.137   2.410   6.197
 2026SOL    HW1 6977   1.085   2.376   6.118
 2026SOL    HW2 6978   1.161   2.506   6.182
 2027SOL     OW 6979   0.971   1.528   0.967
 2027SOL    HW1 6980   0.929   1.438   0.978
 2027SOL    HW2 6981   0.956   1.560   0.873
 2028SOL     OW 6982   3.268   1.225   6.215
 2028SOL    HW1 6983   3.208   1.302   6.195
 2028SOL    HW2 6984   3.213   1.142   6.223
 2029SOL     OW 6985   6.776   0.704   1.009
 2029SOL    HW1 6986   6.842   0.777   1.022
 2029SOL    HW2 6987   6.769   0.682   0.911
 2030SOL     OW 6988   2.626   0.772   3.302
 2030SOL    HW1 6989   2.694   0.838   3.337
 2030SOL    HW2 6990   2.534   0.810   3.313
 2031SOL     OW 6991   5.767   6.157   2.125
 2031SOL    HW1 6992   5.683   6.118   2.164
 2031SOL    HW2 6993   5.791   6.107   2.042
 2032SOL     OW 6994   3.881   6.897   2.108
 2032SOL    HW1 6995   3.960   6.920   2.051
 2032SOL    HW2 6996   3.801   6.882   2.050
 2033SOL     OW 6997   3.719   3.901   6.534
 2033SOL    HW1 6998   3.718   3.802   6.543
 2033SOL    HW2 6999   3.648   3.941   6.592
 2034SOL     OW 7000   3.082   6.738   4.451
 2034SOL    HW1 7001   3.054   6.687   4.370
 2034SOL    HW2 7002   3.171   6.781   4.433
 2035SOL     OW 7003   6.964   0.575   1.913
 2035SOL    HW1 7004   6.936   0.581   1.817
 2035SOL    HW2 7005   0.038   0.551   1.917
 2036SOL     OW 7006   1.253   5.645   2.866
 2036SOL    HW1 7007   1.316   5.568   2.854
 2036SOL    HW2 7008   1.305   5.728   2.886
 2037SOL     OW 7009   0.961   2.922   5.861
 2037SOL    HW1 7010   0.906   2.939   5.942
 2037SOL    HW2 7011   0.913   2.858   5.800
 2038SOL     OW 7012   1.841   2.138   6.620
 2038SOL    HW1 7013   1.826   2.226   6.666
 2038SOL    HW2 7014   1.930   2.138   6.575
 2039SOL     OW 7015   0.163   5.015   2.808
 2039SOL    HW1 7016   0.216   4.931   2.799
 2039SOL    HW2 7017   0.222   5.094   2.793
 2040SOL     OW 7018   3.775   3.373   5.105
 2040SOL    HW1 7019   3.742   3.292   5.057
 2040SOL    HW2 7020   3.756   3.454   5.049
 2041SOL     OW 7021   6.650   5.828   5.328
 2041SOL    HW1 7022   6.623   5.923   5.342
 2041SOL    HW2 7023   6.654   5.781   5.416
 2042SOL     OW 7024   5.548   4.762   6.946
 2042SOL    HW1 7025   5.521   4.848   6.988
 2042SOL    HW2 7026   5.491   4.745   6.865
 2043SOL     OW 7027   6.375   4.488   2.659
 2043SOL    HW1 7028   6.332   4.574   2.634
 2043SOL    HW2 7029   6.475   4.498   2.654
 2044SOL     OW 7030   5.136   0.084   1.966
 2044SOL    HW1 7031   5.234   0.081   1.944
 2044SOL    HW2 7032   5.124   0.104   2.063
 2045SOL     OW 7033   2.794   4.731   4.126
 2045SOL    HW1 7034   2.857   4.661   4.159
 2045SOL    HW2 7035   2.746   4.697   4.045
 2046SOL     OW 7036   0.297   1.288   4.152
 2046SOL    HW1 7037   0.302   1.296   4.052
 2046SOL    HW2 7038   0.386   1.311   4.192
 2047SOL     OW 7039   4.816   2.133   0.258
 2047SOL    HW1 7040   4.887   2.170   0.318
 2047SOL    HW2 7041   4.817   2.183   0.172
 2048SOL     OW 7042   2.063   5.786   0.877
 2048SOL    HW1 7043   2.147   5.762   0.927
 2048SOL    HW2 7044   2.030   5.705   0.828
 2049SOL     OW 7045   4.877   1.746   6.561
 2049SOL    HW1 7046   4.778   1.738   6.554
 2049SOL    HW2 7047   4.904   1.842   6.551
 2050SOL     OW 7048   0.676   3.278   2.882
 2050SOL    HW1 7049   0.662   3.180   2.868
 2050SOL    HW2 7050   0.592   3.327   2.861
 2051SOL     OW 7051   0.895   5.810   1.195
 2051SOL    HW1 7052   0.880   5.820   1.293
 2051SOL    HW2 7053   0.922   5.716   1.174
 2052SOL     OW 7054   0.214   4.427   0.659
 2052SOL    HW1 7055   0.288   4.449   0.595
 2052SOL    HW2 7056   0.251   4.422   0.752
 2053SOL     OW 7057   5.589   0.166   5.444
 2053SOL    HW1 7058   5.686   0.183   5.431
 2053SOL    HW2 7059   5.575   0.070   5.467
 2054SOL     OW 7060   3.859   3.076   1.887
 2054SOL    HW1 7061   3.931   3.109   1.948
 2054SOL    HW2 7062   3.809   3.001   1.932
 2055SOL     OW 7063   6.196   3.437   3.444
 2055SOL    HW1 7064   6.150   3.447   3.356
 2055SOL    HW2 7065   6.218   3.340   3.460
 2056SOL     OW 7066   2.517   0.400   3.236
 2056SOL    HW1 7067   2.556   0.436   3.321
 2056SOL    HW2 7068   2.565   0.440   3.158
 2057SOL     OW 7069   5.636   3.086   3.910
 2057SOL    HW1 7070   5.693   3.063   3.989
 2057SOL    HW2 7071   5.540   3.073   3.934
 2058SOL     OW 7072   0.674   1.975   3.078
 2058SOL    HW1 7073   0.766   1.939   3.090
 2058SOL    HW2 7074   0.621   1.915   3.019
 2059SOL     OW 7075   2.671   6.283   6.042
 2059SOL    HW1 7076   2.681   6.196   5.994
 2059SOL    HW2 7077   2.665   6.357   5.976
 2060SOL     OW 7078   5.452   4.583   0.624
 2060SOL    HW1 7079   5.378   4.616   0.565
 2060SOL    HW2 7080   5.414   4.521   0.693
 2061SOL     OW 7081   0.459   2.209   3.086
 2061SOL    HW1 7082   0.406   2.163   3.157
 2061SOL    HW2 7083   0.463   2.151   3.005
 2062SOL     OW 7084   6.024   6.843   3.853
 2062SOL    HW1 7085   6.079   6.846   3.936
 2062SOL    HW2 7086   6.084   6.829   3.774
 2063SOL     OW 7087   1.646   0.436   6.295
 2063SOL    HW1 7088   1.554   0.476   6.304
 2063SOL    HW2 7089   1.706   0.473   6.366
 2064SOL     OW 7090   1.110   2.327   5.848
 2064SOL    HW1 7091   1.158   2.280   5.774
 2064SOL    HW2 7092   1.109   2.425   5.831
 2065SOL     OW 7093   6.944   3.036   4.355
 2065SOL    HW1 7094   6.915   3.122   4.398
 2065SOL    HW2 7095   0.000   3.000   4.402
 2066SOL     OW 7096   0.627   5.553   3.264
 2066SOL    HW1 7097   0.536   5.533   3.298
 2066SOL    HW2 7098   0.638   5.516   3.172
 2067SOL     OW 7099   6.906   5.562   1.286
 2067SOL    HW1 7100   6.815   5.520   1.289
 2067SOL    HW2 7101   6.962   5.515   1.218
 2068SOL     OW 7102   1.562   1.747   5.771
 2068SOL    HW1 7103   1.627   1.735   5.695
 2068SOL    HW2 7104   1.587   1.829   5.823
 2069SOL     OW 7105   0.874   3.049   3.380
 2069SOL    HW1 7106   0.925   3.057   3.465
 2069SOL    HW2 7107   0.937   3.031   3.304
 2070SOL     OW 7108   1.275   0.846   2.124
 2070SOL    HW1 7109   1.289   0.756   2.166
 2070SOL    HW2 7110   1.177   0.860   2.107
 2071SOL     OW 7111   5.649   5.972   5.222
 2071SOL    HW1 7112   5.717   5.900   5.205
 2071SOL    HW2 7113   5.629   5.976   5.320
 2072SOL     OW 7114   4.249   6.983   2.445
 2072SOL    HW1 7115   4.227   0.053   2.471
 2072SOL    HW2 7116   4.287   6.983   2.352
 2073SOL     OW 7117   4.342   6.878   4.328
 2073SOL    HW1 7118   4.438   6.857   4.310
 2073SOL    HW2 7119   4.286   6.799   4.305
 2074SOL     OW 7120   1.769   2.804   0.309
 2074SOL    HW1 7121   1.686   2.776   0.262
 2074SOL    HW2 7122   1.748   2.873   0.377
 2075SOL     OW 7123   5.238   2.960   1.222
 2075SOL    HW1 7124   5.175   2.922   1.290
 2075SOL    HW2 7125   5.239   3.060   1.231
 2076SOL     OW 7126   5.567   0.080   6.164
 2076SOL    HW1 7127   5.536   0.015   6.233
 2076SOL    HW2 7128   5.636   0.141   6.203
 2077SOL     OW 7129   5.550   3.014   2.147
 2077SOL    HW1 7130   5.641   2.984   2.118
 2077SOL    HW2 7131   5.550   3.033   2.245
 2078SOL     OW 7132   1.402   5.756   6.309
 2078SOL    HW1 7133   1.408   5.675   6.368
 2078SOL    HW2 7134   1.494   5.792   6.292
 2079SOL     OW 7135   5.445   1.764   3.327
 2079SOL    HW1 7136   5.451   1.705   3.247
 2079SOL    HW2 7137   5.536   1.780   3.365
 2080SOL     OW 7138   1.772   0.782   4.755
 2080SOL    HW1 7139   1.746   0.700   4.806
 2080SOL    HW2 7140   1.862   0.813   4.784
 2081SOL     OW 7141   1.475   5.576   4.395
 2081SOL    HW1 7142   1.477   5.582   4.295
 2081SOL    HW2 7143   1.478   5.479   4.423
 2082SOL     OW 7144   0.097   7.021   3.291
 2082SOL    HW1 7145   0.009   6.979   3.274
 2082SOL    HW2 7146   0.123   0.056   3.214
 2083SOL     OW 7147   5.636   4.994   6.675
 2083SOL    HW1 7148   5.629   4.963   6.580
 2083SOL    HW2 7149   5.600   5.087   6.682
 2084SOL     OW 7150   1.506   3.748   4.071
 2084SOL    HW1 7151   1.456   3.666   4.099
 2084SOL    HW2 7152   1.540   3.796   4.152
 2085SOL     OW 7153   4.278   0.344   6.736
 2085SOL    HW1 7154   4.345   0.418   6.729
 2085SOL    HW2 7155   4.186   0.382   6.735
 2086SOL     OW 7156   4.343   6.539   5.760
 2086SOL    HW1 7157   4.390   6.616   5.717
 2086SOL    HW2 7158   4.410   6.474   5.794
 2087SOL     OW 7159   5.233   0.237   1.549
 2087SOL    HW1 7160   5.162   0.300   1.518
 2087SOL    HW2 7161   5.193   0.146   1.565
 2088SOL     OW 7162   3.009   6.311   0.365
 2088SOL    HW1 7163   2.971   6.253   0.437
 2088SOL    HW2 7164   2.943   6.319   0.290
 2089SOL     OW 7165   5.546   2.093   6.075
 2089SOL    HW1 7166   5.527   2.067   6.169
 2089SOL    HW2 7167   5.501   2.028   6.013
 2090SOL     OW 7168   3.399   3.218   5.788
 2090SOL    HW1 7169   3.360   3.268   5.711
 2090SOL    HW2 7170   3.367   3.259   5.874
 2091SOL     OW 7171   6.902   5.896   0.692
 2091SOL    HW1 7172   6.984   5.840   0.704
 2091SOL    HW2 7173   6.917   5.962   0.618
 2092SOL     OW 7174   5.491   4.321   0.006
 2092SOL    HW1 7175   5.536   4.260   6.964
 2092SOL    HW2 7176   5.432   4.385   6.980
 2093SOL     OW 7177   2.310   2.249   1.160
 2093SOL    HW1 7178   2.229   2.276   1.213
 2093SOL    HW2 7179   2.347   2.329   1.113
 2094SOL     OW 7180   5.679   1.638   1.095
 2094SOL    HW1 7181   5.756   1.643   1.031
 2094SOL    HW2 7182   5.671   1.725   1.144
 2095SOL     OW 7183   5.675   0.369   4.841
 2095SOL    HW1 7184   5.681   0.467   4.820
 2095SOL    HW2 7185   5.628   0.358   4.929
 2096SOL     OW 7186   4.793   3.978   3.072
 2096SOL    HW1 7187   4.813   3.994   2.975
 2096SOL    HW2 7188   4.748   3.890   3.083
 2097SOL     OW 7189   2.440   2.845   6.703
 2097SOL    HW1 7190   2.436   2.908   6.626
 2097SOL    HW2 7191   2.388   2.883   6.780
 2098SOL     OW 7192   4.382   6.086   2.774
 2098SOL    HW1 7193   4.434   6.148   2.833
 2098SOL    HW2 7194   4.420   5.994   2.781
 2099SOL     OW 7195   2.356   3.159   5.810
 2099SOL    HW1 7196   2.404   3.092   5.753
 2099SOL    HW2 7197   2.272   3.118   5.845
 2100SOL     OW 7198   4.509   2.894   6.189
 2100SOL    HW1 7199   4.412   2.886   6.212
 2100SOL    HW2 7200   4.522   2.973   6.130
 2101SOL     OW 7201   1.361   6.391   2.397
 2101SOL    HW1 7202   1.331   6.296   2.401
 2101SOL    HW2 7203   1.355   6.424   2.303
 2102SOL     OW 7204   6.447   4.893   1.768
 2102SOL    HW1 7205   6.414   4.979   1.727
 2102SOL    HW2 7206   6.410   4.883   1.860
 2103SOL     OW 7207   3.791   4.501   5.632
 2103SOL    HW1 7208   3.835   4.422   5.675
 2103SOL    HW2 7209   3.738   4.471   5.553
 2104SOL     OW 7210   2.011   3.637   1.199
 2104SOL    HW1 7211   2.093   3.689   1.177
 2104SOL    HW2 7212   1.947   3.696   1.249
 2105SOL     OW 7213   5.165   5.984   5.329
 2105SOL    HW1 7214   5.146   5.892   5.363
 2105SOL    HW2 7215   5.251   6.017   5.368
 2106SOL     OW 7216   4.797   4.139   1.071
 2106SOL    HW1 7217   4.755   4.049   1.059
 2106SOL    HW2 7218   4.724   4.207   1.082
 2107SOL     OW 7219   4.858   2.325   5.083
 2107SOL    HW1 7220   4.933   2.260   5.068
 2107SOL    HW2 7221   4.801   2.328   5.002
 2108SOL     OW 7222   6.538   6.126   5.133
 2108SOL    HW1 7223   6.555   6.118   5.231
 2108SOL    HW2 7224   6.496   6.042   5.099
 2109SOL     OW 7225   4.164   6.471   2.331
 2109SOL    HW1 7226   4.149   6.381   2.371
 2109SOL    HW2 7227   4.127   6.473   2.238
 2110SOL     OW 7228   2.671   1.525   0.022
 2110SOL    HW1 7229   2.608   1.594   0.057
 2110SOL    HW2 7230   2.693   1.460   0.094
 2111SOL     OW 7231   1.115   2.654   6.905
 2111SOL    HW1 7232   1.177   2.729   6.882
 2111SOL    HW2 7233   1.103   2.650   7.005
 2112SOL     OW 7234   5.055   3.651   0.091
 2112SOL    HW1 7235   5.047   3.617   0.185
 2112SOL    HW2 7236   4.993   3.600   0.032
 2113SOL     OW 7237   1.744   1.921   5.049
 2113SOL    HW1 7238   1.679   1.876   4.988
 2113SOL    HW2 7239   1.823   1.953   4.996
 2114SOL     OW 7240   1.588   2.449   0.256
 2114SOL    HW1 7241   1.570   2.390   0.176
 2114SOL    HW2 7242   1.574   2.544   0.230
 2115SOL     OW 7243   2.143   3.538   2.833
 2115SOL    HW1 7244   2.171   3.458   2.885
 2115SOL    HW2 7245   2.070   3.513   2.769
 2116SOL     OW 7246   6.862   4.912   3.095
 2116SOL    HW1 7247   6.799   4.837   3.118
 2116SOL    HW2 7248   6.858   4.928   2.996
 2117SOL     OW 7249   6.877   5.234   1.774
 2117SOL    HW1 7250   6.881   5.270   1.867
 2117SOL    HW2 7251   6.845   5.305   1.712
 2118SOL     OW 7252   5.839   3.578   1.689
 2118SOL    HW1 7253   5.874   3.499   1.739
 2118SOL    HW2 7254   5.915   3.625   1.644
 2119SOL     OW 7255   1.650   6.201   1.215
 2119SOL    HW1 7256   1.678   6.174   1.307
 2119SOL    HW2 7257   1.665   6.125   1.152
 2120SOL     OW 7258   6.904   5.261   3.938
 2120SOL    HW1 7259   6.999   5.263   3.907
 2120SOL    HW2 7260   6.900   5.284   4.035
 2121SOL     OW 7261   1.313   3.714   5.965
 2121SOL    HW1 7262   1.408   3.744   5.952
 2121SOL    HW2 7263   1.263   3.727   5.880
 2122SOL     OW 7264   5.751   4.382   6.260
 2122SOL    HW1 7265   5.835   4.400   6.311
 2122SOL    HW2 7266   5.763   4.298   6.206
 2123SOL     OW 7267   6.646   5.970   2.049
 2123SOL    HW1 7268   6.702   6.039   2.094
 2123SOL    HW2 7269   6.625   5.999   1.955
 2124SOL     OW 7270   2.539   1.979   1.769
 2124SOL    HW1 7271   2.533   2.067   1.816
 2124SOL    HW2 7272   2.616   1.926   1.806
 2125SOL     OW 7273   2.153   0.684   1.941
 2125SOL    HW1 7274   2.153   0.744   1.861
 2125SOL    HW2 7275   2.081   0.615   1.931
 2126SOL     OW 7276   3.690   1.578   6.269
 2126SOL    HW1 7277   3.591   1.582   6.280
 2126SOL    HW2 7278   3.722   1.485   6.286
 2127SOL     OW 7279   0.226   3.140   4.490
 2127SOL    HW1 7280   0.291   3.166   4.561
 2127SOL    HW2 7281   0.169   3.219   4.466
 2128SOL     OW 7282   6.810   3.180   3.558
 2128SOL    HW1 7283   6.856   3.184   3.647
 2128SOL    HW2 7284   6.730   3.240   3.559
 2129SOL     OW 7285   4.298   3.562   5.251
 2129SOL    HW1 7286   4.255   3.504   5.181
 2129SOL    HW2 7287   4.238   3.566   5.331
 2130SOL     OW 7288   3.223   0.749   2.077
 2130SOL    HW1 7289   3.255   0.654   2.087
 2130SOL    HW2 7290   3.205   0.788   2.167
 2131SOL     OW 7291   5.808   0.302   0.992
 2131SOL    HW1 7292   5.715   0.312   0.956
 2131SOL    HW2 7293   5.860   0.239   0.933
 2132SOL     OW 7294   3.130   1.077   1.623
 2132SOL    HW1 7295   3.107   1.021   1.702
 2132SOL    HW2 7296   3.189   1.153   1.652
 2133SOL     OW 7297   3.116   3.051   0.630
 2133SOL    HW1 7298   3.215   3.035   0.626
 2133SOL    HW2 7299   3.074   3.021   0.544
 2134SOL     OW 7300   6.777   2.089   6.810
 2134SOL    HW1 7301   6.740   2.072   6.718
 2134SOL    HW2 7302   6.750   2.180   6.840
 2135SOL     OW 7303   1.334   3.252   4.418
 2135SOL    HW1 7304   1.274   3.181   4.454
 2135SOL    HW2 7305   1.430   3.224   4.429
 2136SOL     OW 7306   1.566   3.473   3.134
 2136SOL    HW1 7307   1.646   3.427   3.094
 2136SOL    HW2 7308   1.517   3.409   3.193
 2137SOL     OW 7309   2.204   5.415   5.018
 2137SOL    HW1 7310   2.216   5.510   5.045
 2137SOL    HW2 7311   2.148   5.368   5.086
 2138SOL     OW 7312   6.587   0.077   2.940
 2138SOL    HW1 7313   6.634   7.020   2.903
 2138SOL    HW2 7314   6.642   0.158   2.922
 2139SOL     OW 7315   4.223   0.663   3.659
 2139SOL    HW1 7316   4.250   0.757   3.682
 2139SOL    HW2 7317   4.294   0.622   3.602
 2140SOL     OW 7318   3.556   6.653   3.730
 2140SOL    HW1 7319   3.643   6.613   3.756
 2140SOL    HW2 7320   3.501   6.585   3.681
 2141SOL     OW 7321   6.435   3.358   2.271
 2141SOL    HW1 7322   6.434   3.292   2.346
 2141SOL    HW2 7323   6.481   3.319   2.192
 2142SOL     OW 7324   1.536   1.324   2.873
 2142SOL    HW1 7325   1.458   1.266   2.897
 2142SOL    HW2 7326   1.607   1.315   2.943
 2143SOL     OW 7327   3.243   4.399   1.426
 2143SOL    HW1 7328   3.144   4.384   1.420
 2143SOL    HW2 7329   3.261   4.489   1.467
 2144SOL     OW 7330   1.154   5.624   3.681
 2144SOL    HW1 7331   1.069   5.671   3.658
 2144SOL    HW2 7332   1.188   5.577   3.599
 2145SOL     OW 7333   4.454   6.002   4.016
 2145SOL    HW1 7334   4.533   6.032   4.069
 2145SOL    HW2 7335   4.461   5.904   3.998
 2146SOL     OW 7336   2.261   3.822   1.591
 2146SOL    HW1 7337   2.202   3.875   1.652
 2146SOL    HW2 7338   2.328   3.883   1.549
 2147SOL     OW 7339   6.694   1.126   5.751
 2147SOL    HW1 7340   6.691   1.210   5.698
 2147SOL    HW2 7341   6.637   1.056   5.706
 2148SOL     OW 7342   6.265   3.201   5.647
 2148SOL    HW1 7343   6.238   3.137   5.719
 2148SOL    HW2 7344   6.364   3.213   5.649
 2149SOL     OW 7345   3.147   1.961   1.114
 2149SOL    HW1 7346   3.110   1.943   1.023
 2149SOL    HW2 7347   3.112   2.049   1.147
 2150SOL     OW 7348   2.450   2.620   2.259
 2150SOL    HW1 7349   2.433   2.640   2.162
 2150SOL    HW2 7350   2.509   2.539   2.267
 2151SOL     OW 7351   1.422   6.815   5.413
 2151SOL    HW1 7352   1.476   6.737   5.381
 2151SOL    HW2 7353   1.338   6.822   5.360
 2152SOL     OW 7354   3.064   5.745   2.257
 2152SOL    HW1 7355   3.071   5.657   2.303
 2152SOL    HW2 7356   3.092   5.818   2.320
 2153SOL     OW 7357   4.479   1.424   3.125
 2153SOL    HW1 7358   4.568   1.455   3.092
 2153SOL    HW2 7359   4.419   1.408   3.046
 2154SOL     OW 7360   5.303   1.322   4.957
 2154SOL    HW1 7361   5.206   1.333   4.933
 2154SOL    HW2 7362   5.345   1.412   4.968
 2155SOL     OW 7363   2.992   5.954   0.616
 2155SOL    HW1 7364   2.914   5.935   0.556
 2155SOL    HW2 7365   3.077   5.936   0.567
 2156SOL     OW 7366   1.374   2.138   4.908
 2156SOL    HW1 7367   1.368   2.089   4.821
 2156SOL    HW2 7368   1.308   2.099   4.972
 2157SOL     OW 7369   6.431   0.180   3.118
 2157SOL    HW1 7370   6.480   0.125   3.050
 2157SOL    HW2 7371   6.351   0.222   3.075
 2158SOL     OW 7372   3.657   5.912   0.907
 2158SOL    HW1 7373   3.700   5.960   0.830
 2158SOL    HW2 7374   3.562   5.941   0.915
 2159SOL     OW 7375   1.261   6.581   5.220
 2159SOL    HW1 7376   1.209   6.667   5.219
 2159SOL    HW2 7377   1.207   6.511   5.267
 2160SOL     OW 7378   4.278   3.786   6.910
 2160SOL    HW1 7379   4.225   3.723   6.967
 2160SOL    HW2 7380   4.374   3.786   6.940
 2161SOL     OW 7381   5.343   4.938   2.378
 2161SOL    HW1 7382   5.437   4.967   2.398
 2161SOL    HW2 7383   5.281   4.973   2.448
 2162SOL     OW 7384   2.488   0.362   2.075
 2162SOL    HW1 7385   2.416   0.429   2.091
 2162SOL    HW2 7386   2.573   0.394   2.117
 2163SOL     OW 7387   1.769   4.671   6.095
 2163SOL    HW1 7388   1.762   4.571   6.102
 2163SOL    HW2 7389   1.829   4.706   6.167
 2164SOL     OW 7390   1.740   2.497   6.360
 2164SOL    HW1 7391   1.820   2.451   6.322
 2164SOL    HW2 7392   1.691   2.434   6.421
 2165SOL     OW 7393   6.930   2.464   2.900
 2165SOL    HW1 7394   6.838   2.432   2.876
 2165SOL    HW2 7395   6.992   2.385   2.908
 2166SOL     OW 7396   1.070   2.285   5.132
 2166SOL    HW1 7397   1.105   2.201   5.091
 2166SOL    HW2 7398   1.144   2.334   5.178
 2167SOL     OW 7399   1.247   2.204   3.196
 2167SOL    HW1 7400   1.196   2.141   3.137
 2167SOL    HW2 7401   1.247   2.295   3.155
 2168SOL     OW 7402   0.604   2.474   3.871
 2168SOL    HW1 7403   0.565   2.566   3.872
 2168SOL    HW2 7404   0.693   2.474   3.918
 2169SOL     OW 7405   5.428   1.776   0.160
 2169SOL    HW1 7406   5.396   1.866   0.190
 2169SOL    HW2 7407   5.489   1.786   0.081
 2170SOL     OW 7408   0.128   3.784   5.490
 2170SOL    HW1 7409   0.154   3.802   5.585
 2170SOL    HW2 7410   0.112   3.687   5.478
 2171SOL     OW 7411   0.116   5.442   1.439
 2171SOL    HW1 7412   0.091   5.455   1.343
 2171SOL    HW2 7413   0.109   5.345   1.463
 2172SOL     OW 7414   1.911   2.299   6.269
 2172SOL    HW1 7415   1.898   2.296   6.170
 2172SOL    HW2 7416   2.009   2.305   6.289
 2173SOL     OW 7417   4.003   0.903   5.326
 2173SOL    HW1 7418   3.924   0.855   5.365
 2173SOL    HW2 7419   4.025   0.982   5.384
 2174SOL     OW 7420   5.406   5.988   5.095
 2174SOL    HW1 7421   5.432   6.008   5.001
 2174SOL    HW2 7422   5.489   5.977   5.150
 2175SOL     OW 7423   2.289   2.901   4.511
 2175SOL    HW1 7424   2.236   2.817   4.499
 2175SOL    HW2 7425   2.297   2.948   4.424
 2176SOL     OW 7426   6.248   2.063   0.439
 2176SOL    HW1 7427   6.233   2.016   0.352
 2176SOL    HW2 7428   6.160   2.089   0.479
 2177SOL     OW 7429   6.876   2.033   4.310
 2177SOL    HW1 7430   6.976   2.032   4.314
 2177SOL    HW2 7431   6.839   2.017   4.402
 2178SOL     OW 7432   2.054   2.070   1.597
 2178SOL    HW1 7433   2.045   1.988   1.541
 2178SOL    HW2 7434   2.150   2.083   1.622
 2179SOL     OW 7435   2.038   5.117   5.175
 2179SOL    HW1 7436   2.007   5.108   5.081
 2179SOL    HW2 7437   2.052   5.214   5.196
 2180SOL     OW 7438   1.665   1.986   1.838
 2180SOL    HW1 7439   1.595   2.038   1.888
 2180SOL    HW2 7440   1.731   2.050   1.797
 2181SOL     OW 7441   5.086   4.976   4.573
 2181SOL    HW1 7442   5.116   4.922   4.494
 2181SOL    HW2 7443   5.086   4.918   4.655
 2182SOL     OW 7444   1.640   3.855   4.318
 2182SOL    HW1 7445   1.683   3.807   4.394
 2182SOL    HW2 7446   1.711   3.884   4.253
 2183SOL     OW 7447   2.576   4.492   6.007
 2183SOL    HW1 7448   2.604   4.397   6.022
 2183SOL    HW2 7449   2.585   4.515   5.910
 2184SOL     OW 7450   3.720   1.164   6.268
 2184SOL    HW1 7451   3.706   1.098   6.195
 2184SOL    HW2 7452   3.668   1.137   6.349
 2185SOL     OW 7453   0.267   0.740   1.247
 2185SOL    HW1 7454   0.348   0.724   1.190
 2185SOL    HW2 7455   0.194   0.677   1.220
 2186SOL     OW 7456   0.411   6.030   1.782
 2186SOL    HW1 7457   0.383   6.036   1.878
 2186SOL    HW2 7458   0.386   6.114   1.735
 2187SOL     OW 7459   6.170   6.105   3.288
 2187SOL    HW1 7460   6.208   6.145   3.371
 2187SOL    HW2 7461   6.229   6.127   3.210
 2188SOL     OW 7462   6.917   5.964   4.292
 2188SOL    HW1 7463   6.923   5.937   4.196
 2188SOL    HW2 7464   6.904   5.883   4.348
 2189SOL     OW 7465   1.809   6.222   0.454
 2189SOL    HW1 7466   1.883   6.231   0.387
 2189SOL    HW2 7467   1.848   6.217   0.546
 2190SOL     OW 7468   0.305   3.577   2.079
 2190SOL    HW1 7469   0.369   3.545   2.009
 2190SOL    HW2 7470   0.333   3.540   2.168
 2191SOL     OW 7471   2.673   1.948   6.843
 2191SOL    HW1 7472   2.576   1.941   6.818
 2191SOL    HW2 7473   2.718   1.860   6.828
 2192SOL     OW 7474   4.813   0.739   2.454
 2192SOL    HW1 7475   4.851   0.662   2.504
 2192SOL    HW2 7476   4.867   0.755   2.371
 2193SOL     OW 7477   5.361   5.971   0.106
 2193SOL    HW1 7478   5.285   5.913   0.135
 2193SOL    HW2 7479   5.360   5.981   0.007
 2194SOL     OW 7480   2.655   4.546   5.734
 2194SOL    HW1 7481   2.635   4.461   5.685
 2194SOL    HW2 7482   2.722   4.599   5.682
 2195SOL     OW 7483   0.263   0.183   4.598
 2195SOL    HW1 7484   0.274   0.268   4.545
 2195SOL    HW2 7485   0.174   0.185   4.645
 2196SOL     OW 7486   3.279   0.043   5.099
 2196SOL    HW1 7487   3.181   0.062   5.094
 2196SOL    HW2 7488   3.306   0.033   5.195
 2197SOL     OW 7489   2.868   3.635   0.257
 2197SOL    HW1 7490   2.831   3.668   0.344
 2197SOL    HW2 7491   2.962   3.603   0.271
 2198SOL     OW 7492   5.575   0.389   0.507
 2198SOL    HW1 7493   5.593   0.482   0.541
 2198SOL    HW2 7494   5.478   0.368   0.519
 2199SOL     OW 7495   4.734   0.535   3.112
 2199SOL    HW1 7496   4.734   0.626   3.155
 2199SOL    HW2 7497   4.827   0.512   3.083
 2200SOL     OW 7498   2.896   2.073   4.688
 2200SOL    HW1 7499   2.864   1.992   4.736
 2200SOL    HW2 7500   2.967   2.048   4.622
 2201SOL     OW 7501   7.009   2.972   2.795
 2201SOL    HW1 7502   7.014   2.875   2.817
 2201SOL    HW2 7503   7.015   3.026   2.879
 2202SOL     OW 7504   2.847   5.621   2.524
 2202SOL    HW1 7505   2.859   5.718   2.549
 2202SOL    HW2 7506   2.892   5.604   2.436
 2203SOL     OW 7507   1.767   2.724   0.859
 2203SOL    HW1 7508   1.781   2.728   0.760
 2203SOL    HW2 7509   1.812   2.803   0.902
 2204SOL     OW 7510   4.459   1.599   1.463
 2204SOL    HW1 7511   4.547   1.577   1.421
 2204SOL    HW2 7512   4.388   1.598   1.393
 2205SOL     OW 7513   0.980   0.123   6.216
 2205SOL    HW1 7514   1.040   0.101   6.139
 2205SOL    HW2 7515   0.890   0.149   6.181
 2206SOL     OW 7516   2.988   5.106   6.067
 2206SOL    HW1 7517   3.084   5.114   6.041
 2206SOL    HW2 7518   2.951   5.020   6.031
 2207SOL     OW 7519   3.257   4.595   6.454
 2207SOL    HW1 7520   3.334   4.655   6.431
 2207SOL    HW2 7521   3.189   4.647   6.506
 2208SOL     OW 7522   1.664   5.723   3.062
 2208SOL    HW1 7523   1.736   5.744   2.995
 2208SOL    HW2 7524   1.685   5.635   3.105
 2209SOL     OW 7525   1.806   6.442   5.408
 2209SOL    HW1 7526   1.735   6.429   5.478
 2209SOL    HW2 7527   1.866   6.517   5.436
 2210SOL     OW 7528   0.046   4.918   4.706
 2210SOL    HW1 7529   0.031   4.985   4.778
 2210SOL    HW2 7530   0.027   4.959   4.617
 2211SOL     OW 7531   6.074   0.401   0.738
 2211SOL    HW1 7532   6.019   0.318   0.747
 2211SOL    HW2 7533   6.119   0.421   0.825
 2212SOL     OW 7534   2.393   5.820   6.984
 2212SOL    HW1 7535   2.321   5.875   0.003
 2212SOL    HW2 7536   2.381   5.820   6.885
 2213SOL     OW 7537   3.254   2.040   5.403
 2213SOL    HW1 7538   3.318   2.110   5.435
 2213SOL    HW2 7539   3.212   1.995   5.482
 2214SOL     OW 7540   3.748   3.368   5.382
 2214SOL    HW1 7541   3.764   3.373   5.283
 2214SOL    HW2 7542   3.653   3.340   5.398
 2215SOL     OW 7543   6.122   0.753   0.270
 2215SOL    HW1 7544   6.029   0.788   0.261
 2215SOL    HW2 7545   6.186   0.829   0.279
 2216SOL     OW 7546   1.735   1.057   6.235
 2216SOL    HW1 7547   1.712   1.073   6.139
 2216SOL    HW2 7548   1.713   1.138   6.289
 2217SOL     OW 7549   4.093   6.869   1.951
 2217SOL    HW1 7550   4.148   6.786   1.938
 2217SOL    HW2 7551   4.111   6.933   1.876
 2218SOL     OW 7552   6.411   5.577   0.003
 2218SOL    HW1 7553   6.448   5.579   0.096
 2218SOL    HW2 7554   6.432   5.664   6.981
 2219SOL     OW 7555   5.164   1.823   1.402
 2219SOL    HW1 7556   5.131   1.909   1.364
 2219SOL    HW2 7557   5.087   1.760   1.415
 2220SOL     OW 7558   1.741   0.095   5.056
 2220SOL    HW1 7559   1.689   0.035   5.119
 2220SOL    HW2 7560   1.809   0.040   5.007
 2221SOL     OW 7561   6.383   1.122   5.904
 2221SOL    HW1 7562   6.409   1.219   5.902
 2221SOL    HW2 7563   6.430   1.074   5.831
 2222SOL     OW 7564   4.934   0.977   0.099
 2222SOL    HW1 7565   4.991   1.030   0.162
 2222SOL    HW2 7566   4.867   0.924   0.151
 2223SOL     OW 7567   5.741   0.896   5.091
 2223SOL    HW1 7568   5.700   0.976   5.048
 2223SOL    HW2 7569   5.787   0.923   5.176
 2224SOL     OW 7570   0.058   3.372   0.844
 2224SOL    HW1 7571   0.064   3.394   0.941
 2224SOL    HW2 7572   0.144   3.331   0.814
 2225SOL     OW 7573   6.713   6.511   3.615
 2225SOL    HW1 7574   6.624   6.555   3.601
 2225SOL    HW2 7575   6.715   6.424   3.565
 2226SOL     OW 7576   3.454   5.098   1.109
 2226SOL    HW1 7577   3.474   5.123   1.204
 2226SOL    HW2 7578   3.444   4.999   1.103
 2227SOL     OW 7579   4.823   3.791   6.663
 2227SOL    HW1 7580   4.796   3.861   6.596
 2227SOL    HW2 7581   4.920   3.768   6.650
 2228SOL     OW 7582   3.618   4.622   1.349
 2228SOL    HW1 7583   3.583   4.557   1.282
 2228SOL    HW2 7584   3.548   4.691   1.369
 2229SOL     OW 7585   4.501   2.933   5.224
 2229SOL    HW1 7586   4.568   2.872   5.266
 2229SOL    HW2 7587   4.549   3.007   5.177
 2230SOL     OW 7588   5.229   6.721   0.013
 2230SOL    HW1 7589   5.198   6.626   0.014
 2230SOL    HW2 7590   5.328   6.724   0.022
 2231SOL     OW 7591   0.503   0.779   1.540
 2231SOL    HW1 7592   0.433   0.845   1.567
 2231SOL    HW2 7593   0.536   0.801   1.448
 2232SOL     OW 7594   0.917   2.580   5.354
 2232SOL    HW1 7595   0.880   2.512   5.417
 2232SOL    HW2 7596   0.901   2.550   5.260
 2233SOL     OW 7597   2.103   3.968   7.015
 2233SOL    HW1 7598   2.086   4.065   0.010
 2233SOL    HW2 7599   2.089   3.915   0.075
 2234SOL     OW 7600   4.177   1.886   1.485
 2234SOL    HW1 7601   4.240   1.906   1.560
 2234SOL    HW2 7602   4.145   1.791   1.493
 2235SOL     OW 7603   2.645   6.977   1.412
 2235SOL    HW1 7604   2.744   6.983   1.417
 2235SOL    HW2 7605   2.604   0.012   1.481
 2236SOL     OW 7606   1.465   4.310   6.282
 2236SOL    HW1 7607   1.537   4.362   6.327
 2236SOL    HW2 7608   1.395   4.286   6.349
 2237SOL     OW 7609   5.743   4.605   4.182
 2237SOL    HW1 7610   5.655   4.646   4.205
 2237SOL    HW2 7611   5.807   4.620   4.257
 2238SOL     OW 7612   4.711   4.620   1.659
 2238SOL    HW1 7613   4.786   4.685   1.641
 2238SOL    HW2 7614   4.654   4.612   1.577
 2239SOL     OW 7615   3.813   5.364   4.187
 2239SOL    HW1 7616   3.776   5.318   4.107
 2239SOL    HW2 7617   3.888   5.424   4.159
 2240SOL     OW 7618   4.393   5.761   3.629
 2240SOL    HW1 7619   4.395   5.850   3.675
 2240SOL    HW2 7620   4.374   5.689   3.696
 2241SOL     OW 7621   0.246   5.541   3.244
 2241SOL    HW1 7622   0.175   5.472   3.258
 2241SOL    HW2 7623   0.225   5.621   3.300
 2242SOL     OW 7624   5.317   2.877   2.868
 2242SOL    HW1 7625   5.324   2.935   2.949
 2242SOL    HW2 7626   5.302   2.934   2.787
 2243SOL     OW 7627   1.935   6.904   6.289
 2243SOL    HW1 7628   1.973   6.845   6.360
 2243SOL    HW2 7629   1.856   6.953   6.326
 2244SOL     OW 7630   1.664   6.463   1.966
 2244SOL    HW1 7631   1.717   6.414   2.035
 2244SOL    HW2 7632   1.669   6.414   1.879
 2245SOL     OW 7633   0.561   2.459   0.961
 2245SOL    HW1 7634   0.467   2.462   0.994
 2245SOL    HW2 7635   0.620   2.512   1.023
 2246SOL     OW 7636   1.103   1.796   4.761
 2246SOL    HW1 7637   1.162   1.746   4.698
 2246SOL    HW2 7638   1.040   1.733   4.806
 2247SOL     OW 7639   3.297   2.951   4.220
 2247SOL    HW1 7640   3.347   2.951   4.307
 2247SOL    HW2 7641   3.362   2.964   4.144
 2248SOL     OW 7642   5.844   3.638   5.565
 2248SOL    HW1 7643   5.765   3.631   5.625
 2248SOL    HW2 7644   5.816   3.623   5.470
 2249SOL     OW 7645   5.786   6.369   2.883
 2249SOL    HW1 7646   5.774   6.468   2.893
 2249SOL    HW2 7647   5.875   6.350   2.843
 2250SOL     OW 7648   4.014   3.960   6.391
 2250SOL    HW1 7649   4.104   3.922   6.412
 2250SOL    HW2 7650   3.964   3.897   6.331
 2251SOL     OW 7651   5.269   0.162   6.852
 2251SOL    HW1 7652   5.324   0.180   6.770
 2251SOL    HW2 7653   5.221   0.246   6.878
 2252SOL     OW 7654   4.702   2.768   2.174
 2252SOL    HW1 7655   4.792   2.735   2.203
 2252SOL    HW2 7656   4.712   2.857   2.130
 2253SOL     OW 7657   0.736   3.546   6.694
 2253SOL    HW1 7658   0.741   3.520   6.790
 2253SOL    HW2 7659   0.660   3.610   6.680
 2254SOL     OW 7660   3.525   2.552   5.681
 2254SOL    HW1 7661   3.427   2.564   5.663
 2254SOL    HW2 7662   3.578   2.578   5.600
 2255SOL     OW 7663   4.699   2.977   6.395
 2255SOL    HW1 7664   4.640   2.938   6.325
 2255SOL    HW2 7665   4.783   2.923   6.401
 2256SOL     OW 7666   5.145   6.020   1.950
 2256SOL    HW1 7667   5.085   6.067   2.015
 2256SOL    HW2 7668   5.115   6.039   1.857
 2257SOL     OW 7669   0.162   1.862   4.743
 2257SOL    HW1 7670   0.106   1.859   4.825
 2257SOL    HW2 7671   0.204   1.773   4.729
 2258SOL     OW 7672   1.289   5.653   5.059
 2258SOL    HW1 7673   1.243   5.631   5.145
 2258SOL    HW2 7674   1.387   5.665   5.075
 2259SOL     OW 7675   5.597   4.051   6.423
 2259SOL    HW1 7676   5.499   4.062   6.411
 2259SOL    HW2 7677   5.644   4.072   6.337
 2260SOL     OW 7678   6.238   4.234   1.875
 2260SOL    HW1 7679   6.203   4.234   1.782
 2260SOL    HW2 7680   6.244   4.140   1.909
 2261SOL     OW 7681   6.481   5.454   0.255
 2261SOL    HW1 7682   6.484   5.537   0.310
 2261SOL    HW2 7683   6.572   5.413   0.250
 2262SOL     OW 7684   5.952   1.217   3.141
 2262SOL    HW1 7685   6.018   1.216   3.066
 2262SOL    HW2 7686   5.905   1.129   3.145
 2263SOL     OW 7687   3.037   5.536   0.095
 2263SOL    HW1 7688   3.104   5.521   0.168
 2263SOL    HW2 7689   2.980   5.454   0.086
 2264SOL     OW 7690   2.467   4.317   0.404
 2264SOL    HW1 7691   2.530   4.373   0.350
 2264SOL    HW2 7692   2.397   4.375   0.445
 2265SOL     OW 7693   0.503   0.766   4.362
 2265SOL    HW1 7694   0.531   0.861   4.353
 2265SOL    HW2 7695   0.412   0.754   4.322
 2266SOL     OW 7696   5.223   1.882   6.977
 2266SOL    HW1 7697   5.309   1.833   6.962
 2266SOL    HW2 7698   5.163   1.827   0.011
 2267SOL     OW 7699   4.886   2.467   4.786
 2267SOL    HW1 7700   4.883   2.540   4.853
 2267SOL    HW2 7701   4.830   2.390   4.817
 2268SOL     OW 7702   6.502   3.416   6.938
 2268SOL    HW1 7703   6.536   3.503   6.900
 2268SOL    HW2 7704   6.455   3.365   6.866
 2269SOL     OW 7705   5.896   5.248   5.065
 2269SOL    HW1 7706   5.939   5.249   4.975
 2269SOL    HW2 7707   5.804   5.288   5.058
 2270SOL     OW 7708   3.198   2.507   6.281
 2270SOL    HW1 7709   3.221   2.582   6.218
 2270SOL    HW2 7710   3.170   2.546   6.369
 2271SOL     OW 7711   5.524   3.670   0.935
 2271SOL    HW1 7712   5.539   3.768   0.921
 2271SOL    HW2 7713   5.512   3.626   0.846
 2272SOL     OW 7714   5.734   2.881   6.408
 2272SOL    HW1 7715   5.741   2.980   6.418
 2272SOL    HW2 7716   5.820   2.844   6.372
 2273SOL     OW 7717   1.717   0.753   2.092
 2273SOL    HW1 7718   1.651   0.813   2.139
 2273SOL    HW2 7719   1.791   0.809   2.054
 2274SOL     OW 7720   6.900   2.407   6.409
 2274SOL    HW1 7721   6.997   2.407   6.431
 2274SOL    HW2 7722   6.851   2.468   6.472
 2275SOL     OW 7723   6.318   0.195   4.189
 2275SOL    HW1 7724   6.367   0.200   4.276
 2275SOL    HW2 7725   6.380   0.219   4.114
 2276SOL     OW 7726   2.510   4.852   0.907
 2276SOL    HW1 7727   2.538   4.905   0.827
 2276SOL    HW2 7728   2.410   4.853   0.915
 2277SOL     OW 7729   3.731   4.148   4.549
 2277SOL    HW1 7730   3.796   4.076   4.574
 2277SOL    HW2 7731   3.685   4.182   4.632
 2278SOL     OW 7732   6.490   4.880   4.320
 2278SOL    HW1 7733   6.415   4.822   4.287
 2278SOL    HW2 7734   6.493   4.964   4.266
 2279SOL     OW 7735   5.343   6.891   5.090
 2279SOL    HW1 7736   5.400   6.967   5.123
 2279SOL    HW2 7737   5.251   6.900   5.127
 2280SOL     OW 7738   6.724   0.003   4.943
 2280SOL    HW1 7739   6.777   0.003   4.859
 2280SOL    HW2 7740   6.779   6.987   5.017
 2281SOL     OW 7741   3.157   1.187   2.319
 2281SOL    HW1 7742   3.247   1.193   2.277
 2281SOL    HW2 7743   3.113   1.277   2.315
 2282SOL     OW 7744   5.150   0.308   4.640
 2282SOL    HW1 7745   5.219   0.271   4.702
 2282SOL    HW2 7746   5.122   0.237   4.575
 2283SOL     OW 7747   0.433   4.706   1.537
 2283SOL    HW1 7748   0.477   4.791   1.506
 2283SOL    HW2 7749   0.380   4.725   1.620
 2284SOL     OW 7750   1.026   2.378   6.839
 2284SOL    HW1 7751   1.051   2.462   6.887
 2284SOL    HW2 7752   0.989   2.312   6.904
 2285SOL     OW 7753   2.429   2.137   0.821
 2285SOL    HW1 7754   2.504   2.190   0.782
 2285SOL    HW2 7755   2.449   2.117   0.917
 2286SOL     OW 7756   0.310   0.096   4.197
 2286SOL    HW1 7757   0.280   0.190   4.180
 2286SOL    HW2 7758   0.409   0.096   4.214
 2287SOL     OW 7759   1.172   0.819   3.403
 2287SOL    HW1 7760   1.233   0.739   3.405
 2287SOL    HW2 7761   1.078   0.788   3.388
 2288SOL     OW 7762   5.842   5.553   4.645
 2288SOL    HW1 7763   5.748   5.568   4.615
 2288SOL    HW2 7764   5.886   5.485   4.587
 2289SOL     OW 7765   0.840   4.885   1.468
 2289SOL    HW1 7766   0.803   4.896   1.560
 2289SOL    HW2 7767   0.825   4.969   1.416
 2290SOL     OW 7768   1.208   4.344   0.954
 2290SOL    HW1 7769   1.284   4.380   1.008
 2290SOL    HW2 7770   1.148   4.289   1.013
 2291SOL     OW 7771   2.844   2.500   6.246
 2291SOL    HW1 7772   2.938   2.491   6.278
 2291SOL    HW2 7773   2.810   2.411   6.216
 2292SOL     OW 7774   6.381   1.861   5.377
 2292SOL    HW1 7775   6.372   1.762   5.388
 2292SOL    HW2 7776   6.429   1.882   5.292
 2293SOL     OW 7777   5.263   6.553   1.306
 2293SOL    HW1 7778   5.311   6.485   1.251
 2293SOL    HW2 7779   5.293   6.546   1.401
 2294SOL     OW 7780   3.171   0.920   6.573
 2294SOL    HW1 7781   3.213   0.915   6.483
 2294SOL    HW2 7782   3.074   0.895   6.567
 2295SOL     OW 7783   0.466   2.490   3.033
 2295SOL    HW1 7784   0.481   2.394   3.057
 2295SOL    HW2 7785   0.399   2.495   2.958
 2296SOL     OW 7786   3.785   5.448   1.385
 2296SOL    HW1 7787   3.732   5.409   1.460
 2296SOL    HW2 7788   3.741   5.532   1.353
 2297SOL     OW 7789   4.514   4.603   5.805
 2297SOL    HW1 7790   4.513   4.672   5.732
 2297SOL    HW2 7791   4.596   4.547   5.797
 2298SOL     OW 7792   4.050   3.209   1.591
 2298SOL    HW1 7793   3.969   3.183   1.645
 2298SOL    HW2 7794   4.043   3.305   1.566
 2299SOL     OW 7795   4.324   5.199   5.401
 2299SOL    HW1 7796   4.225   5.186   5.405
 2299SOL    HW2 7797   4.366   5.120   5.357
 2300SOL     OW 7798   2.376   5.905   1.707
 2300SOL    HW1 7799   2.423   5.848   1.774
 2300SOL    HW2 7800   2.290   5.938   1.745
 2301SOL     OW 7801   3.379   2.900   2.844
 2301SOL    HW1 7802   3.292   2.941   2.818
 2301SOL    HW2 7803   3.373   2.864   2.937
 2302SOL     OW 7804   3.915   0.421   1.027
 2302SOL    HW1 7805   3.971   0.491   0.982
 2302SOL    HW2 7806   3.824   0.419   0.986
 2303SOL     OW 7807   2.659   3.321   6.337
 2303SOL    HW1 7808   2.632   3.225   6.337
 2303SOL    HW2 7809   2.594   3.374   6.283
 2304SOL     OW 7810   4.506   6.444   3.443
 2304SOL    HW1 7811   4.568   6.515   3.476
 2304SOL    HW2 7812   4.484   6.382   3.517
 2305SOL     OW 7813   2.485   6.265   2.421
 2305SOL    HW1 7814   2.453   6.356   2.446
 2305SOL    HW2 7815   2.544   6.228   2.493
 2306SOL     OW 7816   2.965   5.039   2.267
 2306SOL    HW1 7817   2.910   4.956   2.269
 2306SOL    HW2 7818   3.050   5.022   2.219
 2307SOL     OW 7819   6.698   4.210   2.636
 2307SOL    HW1 7820   6.699   4.304   2.602
 2307SOL    HW2 7821   6.615   4.194   2.689
 2308SOL     OW 7822   1.042   5.327   1.379
 2308SOL    HW1 7823   0.953   5.316   1.424
 2308SOL    HW2 7824   1.052   5.259   1.307
 2309SOL     OW 7825   1.715   1.044   6.625
 2309SOL    HW1 7826   1.710   1.101   6.543
 2309SOL    HW2 7827   1.801   0.993   6.625
 2310SOL     OW 7828   5.045   6.476   0.454
 2310SOL    HW1 7829   5.014   6.549   0.393
 2310SOL    HW2 7830   5.112   6.419   0.406
 2311SOL     OW 7831   1.887   6.563   1.340
 2311SOL    HW1 7832   1.928   6.634   1.283
 2311SOL    HW2 7833   1.922   6.571   1.433
 2312SOL     OW 7834   4.131   6.416   3.099
 2312SOL    HW1 7835   4.146   6.507   3.061
 2312SOL    HW2 7836   4.053   6.373   3.053
 2313SOL     OW 7837   6.003   5.820   1.282
 2313SOL    HW1 7838   6.033   5.880   1.207
 2313SOL    HW2 7839   6.067   5.743   1.290
 2314SOL     OW 7840   5.736   0.056   4.392
 2314SOL    HW1 7841   5.684   0.110   4.458
 2314SOL    HW2 7842   5.792   7.013   4.439
 2315SOL     OW 7843   4.882   3.504   6.080
 2315SOL    HW1 7844   4.887   3.522   5.982
 2315SOL    HW2 7845   4.787   3.509   6.110
 2316SOL     OW 7846   3.515   1.022   3.999
 2316SOL    HW1 7847   3.574   1.099   4.022
 2316SOL    HW2 7848   3.551   0.939   4.042
 2317SOL     OW 7849   0.183   5.728   3.468
 2317SOL    HW1 7850   0.247   5.773   3.531
 2317SOL    HW2 7851   0.122   5.669   3.521
 2318SOL     OW 7852   1.860   2.823   4.494
 2318SOL    HW1 7853   1.883   2.871   4.579
 2318SOL    HW2 7854   1.943   2.804   4.442
 2319SOL     OW 7855   1.740   4.665   3.975
 2319SOL    HW1 7856   1.804   4.701   3.907
 2319SOL    HW2 7857   1.698   4.741   4.025
 2320SOL     OW 7858   0.701   2.466   4.836
 2320SOL    HW1 7859   0.713   2.441   4.740
 2320SOL    HW2 7860   0.639   2.544   4.843
 2321SOL     OW 7861   2.272   0.435   0.236
 2321SOL    HW1 7862   2.216   0.499   0.183
 2321SOL    HW2 7863   2.215   0.390   0.305
 2322SOL     OW 7864   2.420   1.780   3.627
 2322SOL    HW1 7865   2.453   1.693   3.590
 2322SOL    HW2 7866   2.480   1.811   3.700
 2323SOL     OW 7867   2.687   5.028   2.087
 2323SOL    HW1 7868   2.767   4.968   2.091
 2323SOL    HW2 7869   2.703   5.100   2.020
 2324SOL     OW 7870   6.543   6.915   0.887
 2324SOL    HW1 7871   6.453   6.875   0.869
 2324SOL    HW2 7872   6.614   6.859   0.845
 2325SOL     OW 7873   1.162   4.843   1.601
 2325SOL    HW1 7874   1.173   4.924   1.658
 2325SOL    HW2 7875   1.065   4.822   1.592
 2326SOL     OW 7876   3.338   5.460   6.138
 2326SOL    HW1 7877   3.287   5.499   6.061
 2326SOL    HW2 7878   3.428   5.429   6.106
 2327SOL     OW 7879   6.954   2.301   3.875
 2327SOL    HW1 7880   6.963   2.399   3.888
 2327SOL    HW2 7881   6.983   2.253   3.958
 2328SOL     OW 7882   2.983   2.141   2.524
 2328SOL    HW1 7883   2.984   2.153   2.425
 2328SOL    HW2 7884   2.896   2.101   2.552
 2329SOL     OW 7885   1.666   3.675   5.496
 2329SOL    HW1 7886   1.735   3.726   5.444
 2329SOL    HW2 7887   1.710   3.631   5.574
 2330SOL     OW 7888   0.610   4.243   1.502
 2330SOL    HW1 7889   0.669   4.197   1.569
 2330SOL    HW2 7890   0.557   4.315   1.548
 2331SOL     OW 7891   5.135   5.238   0.730
 2331SOL    HW1 7892   5.153   5.140   0.738
 2331SOL    HW2 7893   5.151   5.282   0.819
 2332SOL     OW 7894   4.686   2.025   4.881
 2332SOL    HW1 7895   4.720   1.985   4.966
 2332SOL    HW2 7896   4.588   2.006   4.872
 2333SOL     OW 7897   0.871   5.089   2.740
 2333SOL    HW1 7898   0.773   5.072   2.734
 2333SOL    HW2 7899   0.920   5.002   2.749
 2334SOL     OW 7900   2.407   0.466   6.900
 2334SOL    HW1 7901   2.343   0.539   6.877
 2334SOL    HW2 7902   2.493   0.480   6.851
 2335SOL     OW 7903   6.005   1.014   2.918
 2335SOL    HW1 7904   6.074   1.084   2.902
 2335SOL    HW2 7905   5.979   0.972   2.831
 2336SOL     OW 7906   4.460   2.464   4.970
 2336SOL    HW1 7907   4.363   2.446   4.988
 2336SOL    HW2 7908   4.495   2.526   5.039
 2337SOL     OW 7909   4.739   0.973   2.603
 2337SOL    HW1 7910   4.769   1.063   2.573
 2337SOL    HW2 7911   4.762   0.905   2.533
 2338SOL     OW 7912   1.478   2.080   5.937
 2338SOL    HW1 7913   1.424   2.059   6.019
 2338SOL    HW2 7914   1.563   2.027   5.939
 2339SOL     OW 7915   3.990   3.954   5.074
 2339SOL    HW1 7916   3.902   3.907   5.083
 2339SOL    HW2 7917   4.063   3.892   5.106
 2340SOL     OW 7918   5.675   4.417   0.517
 2340SOL    HW1 7919   5.639   4.489   0.577
 2340SOL    HW2 7920   5.713   4.459   0.435
 2341SOL     OW 7921   4.705   4.661   1.307
 2341SOL    HW1 7922   4.640   4.733   1.329
 2341SOL    HW2 7923   4.666   4.601   1.237
 2342SOL     OW 7924   0.638   0.049   4.892
 2342SOL    HW1 7925   0.664   7.004   4.823
 2342SOL    HW2 7926   0.710   0.055   4.961
 2343SOL     OW 7927   2.524   6.009   2.610
 2343SOL    HW1 7928   2.609   6.000   2.558
 2343SOL    HW2 7929   2.446   5.993   2.550
 2344SOL     OW 7930   1.546   0.694   1.075
 2344SOL    HW1 7931   1.549   0.775   1.017
 2344SOL    HW2 7932   1.635   0.679   1.119
 2345SOL     OW 7933   3.408   5.417   5.214
 2345SOL    HW1 7934   3.346   5.412   5.292
 2345SOL    HW2 7935   3.501   5.393   5.244
 2346SOL     OW 7936   4.966   2.659   4.614
 2346SOL    HW1 7937   4.904   2.591   4.652
 2346SOL    HW2 7938   5.024   2.696   4.687
 2347SOL     OW 7939   2.527   3.327   1.726
 2347SOL    HW1 7940   2.547   3.355   1.632
 2347SOL    HW2 7941   2.447   3.376   1.759
 2348SOL     OW 7942   3.618   6.433   3.290
 2348SOL    HW1 7943   3.666   6.519   3.307
 2348SOL    HW2 7944   3.527   6.452   3.253
 2349SOL     OW 7945   0.947   4.792   6.470
 2349SOL    HW1 7946   0.988   4.811   6.559
 2349SOL    HW2 7947   0.973   4.700   6.440
 2350SOL     OW 7948   5.054   6.842   6.430
 2350SOL    HW1 7949   5.077   6.871   6.522
 2350SOL    HW2 7950   4.959   6.865   6.410
 2351SOL     OW 7951   3.738   5.277   2.791
 2351SOL    HW1 7952   3.774   5.273   2.885
 2351SOL    HW2 7953   3.653   5.329   2.791
 2352SOL     OW 7954   1.395   4.410   2.097
 2352SOL    HW1 7955   1.425   4.338   2.159
 2352SOL    HW2 7956   1.320   4.377   2.040
 2353SOL     OW 7957   3.130   4.565   5.443
 2353SOL    HW1 7958   3.113   4.481   5.496
 2353SOL    HW2 7959   3.091   4.555   5.352
 2354SOL     OW 7960   2.468   1.760   6.269
 2354SOL    HW1 7961   2.396   1.736   6.333
 2354SOL    HW2 7962   2.484   1.859   6.273
 2355SOL     OW 7963   1.334   5.589   6.872
 2355SOL    HW1 7964   1.331   5.558   6.778
 2355SOL    HW2 7965   1.332   5.689   6.875
 2356SOL     OW 7966   2.090   3.971   0.649
 2356SOL    HW1 7967   2.049   3.903   0.710
 2356SOL    HW2 7968   2.039   3.973   0.563
 2357SOL     OW 7969   4.690   5.408   4.252
 2357SOL    HW1 7970   4.720   5.317   4.222
 2357SOL    HW2 7971   4.625   5.446   4.187
 2358SOL     OW 7972   2.774   5.265   5.477
 2358SOL    HW1 7973   2.840   5.201   5.439
 2358SOL    HW2 7974   2.687   5.218   5.493
 2359SOL     OW 7975   0.063   1.060   5.986
 2359SOL    HW1 7976   0.036   0.982   6.041
 2359SOL    HW2 7977   0.141   1.035   5.929
 2360SOL     OW 7978   5.084   6.028   6.332
 2360SOL    HW1 7979   5.051   6.047   6.239
 2360SOL    HW2 7980   5.007   6.034   6.396
 2361SOL     OW 7981   2.710   1.278   5.384
 2361SOL    HW1 7982   2.636   1.345   5.384
 2361SOL    HW2 7983   2.687   1.204   5.447
 2362SOL     OW 7984   2.837   1.136   5.176
 2362SOL    HW1 7985   2.839   1.190   5.260
 2362SOL    HW2 7986   2.833   1.197   5.097
 2363SOL     OW 7987   4.499   2.682   5.535
 2363SOL    HW1 7988   4.422   2.686   5.472
 2363SOL    HW2 7989   4.510   2.770   5.581
 2364SOL     OW 7990   0.777   2.222   2.957
 2364SOL    HW1 7991   0.706   2.152   2.963
 2364SOL    HW2 7992   0.774   2.263   2.866
 2365SOL     OW 7993   5.956   2.315   6.881
 2365SOL    HW1 7994   5.986   2.409   6.864
 2365SOL    HW2 7995   5.864   2.316   6.920
 2366SOL     OW 7996   1.538   4.517   5.964
 2366SOL    HW1 7997   1.537   4.449   5.891
 2366SOL    HW2 7998   1.614   4.499   6.026
 2367SOL     OW 7999   3.714   3.641   6.609
 2367SOL    HW1 8000   3.743   3.611   6.700
 2367SOL    HW2 8001   3.620   3.611   6.592
 2368SOL     OW 8002   4.952   6.745   3.009
 2368SOL    HW1 8003   4.989   6.785   2.925
 2368SOL    HW2 8004   4.995   6.788   3.088
 2369SOL     OW 8005   1.856   2.968   5.167
 2369SOL    HW1 8006   1.757   2.961   5.166
 2369SOL    HW2 8007   1.887   2.996   5.257
 2370SOL     OW 8008   4.899   4.258   6.609
 2370SOL    HW1 8009   4.891   4.212   6.520
 2370SOL    HW2 8010   4.985   4.231   6.653
 2371SOL     OW 8011   0.624   5.996   1.484
 2371SOL    HW1 8012   0.694   6.048   1.533
 2371SOL    HW2 8013   0.595   5.919   1.541
 2372SOL     OW 8014   0.242   2.307   1.310
 2372SOL    HW1 8015   0.222   2.233   1.374
 2372SOL    HW2 8016   0.275   2.386   1.361
 2373SOL     OW 8017   0.148   0.075   6.830
 2373SOL    HW1 8018   0.108   0.128   6.905
 2373SOL    HW2 8019   0.103   0.099   6.744
 2374SOL     OW 8020   6.234   0.500   3.948
 2374SOL    HW1 8021   6.282   0.437   4.010
 2374SOL    HW2 8022   6.136   0.493   3.963
 2375SOL     OW 8023   1.922   6.547   4.421
 2375SOL    HW1 8024   1.991   6.488   4.379
 2375SOL    HW2 8025   1.951   6.642   4.413
 2376SOL     OW 8026   5.772   2.216   4.120
 2376SOL    HW1 8027   5.695   2.169   4.164
 2376SOL    HW2 8028   5.788   2.304   4.165
 2377SOL     OW 8029   3.406   4.171   3.059
 2377SOL    HW1 8030   3.325   4.230   3.056
 2377SOL    HW2 8031   3.449   4.178   3.149
 2378SOL     OW 8032   4.590   2.251   6.888
 2378SOL    HW1 8033   4.588   2.332   6.829
 2378SOL    HW2 8034   4.518   2.258   6.956
 2379SOL     OW 8035   6.374   1.622   6.567
 2379SOL    HW1 8036   6.472   1.634   6.558
 2379SOL    HW2 8037   6.347   1.633   6.663
 2380SOL     OW 8038   0.200   6.976   5.257
 2380SOL    HW1 8039   0.266   6.953   5.328
 2380SOL    HW2 8040   0.244   6.968   5.167
 2381SOL     OW 8041   2.198   4.265   4.205
 2381SOL    HW1 8042   2.144   4.202   4.149
 2381SOL    HW2 8043   2.150   4.352   4.212
 2382SOL     OW 8044   2.455   5.213   3.675
 2382SOL    HW1 8045   2.380   5.221   3.610
 2382SOL    HW2 8046   2.541   5.235   3.629
 2383SOL     OW 8047   5.907   6.497   0.053
 2383SOL    HW1 8048   5.909   6.448   0.140
 2383SOL    HW2 8049   6.000   6.501   0.016
 2384SOL     OW 8050   6.832   6.159   2.222
 2384SOL    HW1 8051   6.847   6.258   2.225
 2384SOL    HW2 8052   6.786   6.129   2.305
 2385SOL     OW 8053   6.364   6.609   0.971
 2385SOL    HW1 8054   6.455   6.629   1.008
 2385SOL    HW2 8055   6.295   6.625   1.042
 2386SOL     OW 8056   5.387   5.037   4.495
 2386SOL    HW1 8057   5.371   5.069   4.589
 2386SOL    HW2 8058   5.307   4.987   4.463
 2387SOL     OW 8059   0.396   2.278   3.821
 2387SOL    HW1 8060   0.418   2.202   3.882
 2387SOL    HW2 8061   0.472   2.344   3.820
 2388SOL     OW 8062   1.272   2.111   3.692
 2388SOL    HW1 8063   1.273   2.084   3.596
 2388SOL    HW2 8064   1.220   2.044   3.745
 2389SOL     OW 8065   5.362   3.284   3.637
 2389SOL    HW1 8066   5.428   3.341   3.686
 2389SOL    HW2 8067   5.400   3.192   3.625
 2390SOL     OW 8068   3.107   4.022   4.109
 2390SOL    HW1 8069   3.177   4.036   4.040
 2390SOL    HW2 8070   3.077   3.927   4.107
 2391SOL     OW 8071   4.818   4.316   5.550
 2391SOL    HW1 8072   4.832   4.384   5.622
 2391SOL    HW2 8073   4.843   4.226   5.584
 2392SOL     OW 8074   3.847   7.019   5.027
 2392SOL    HW1 8075   3.909   0.053   5.080
 2392SOL    HW2 8076   3.844   0.027   4.933
 2393SOL     OW 8077   4.257   4.929   0.060
 2393SOL    HW1 8078   4.306   4.844   0.082
 2393SOL    HW2 8079   4.240   4.932   6.985
 2394SOL     OW 8080   1.906   3.435   4.374
 2394SOL    HW1 8081   1.818   3.447   4.328
 2394SOL    HW2 8082   1.948   3.349   4.343
 2395SOL     OW 8083   6.218   2.709   0.624
 2395SOL    HW1 8084   6.172   2.620   0.620
 2395SOL    HW2 8085   6.184   2.761   0.703
 2396SOL     OW 8086   4.198   5.274   0.978
 2396SOL    HW1 8087   4.181   5.371   0.997
 2396SOL    HW2 8088   4.183   5.256   0.881
 2397SOL     OW 8089   7.013   3.772   0.166
 2397SOL    HW1 8090   6.990   3.757   0.263
 2397SOL    HW2 8091   6.940   3.825   0.123
 2398SOL     OW 8092   3.085   4.224   6.625
 2398SOL    HW1 8093   3.121   4.136   6.597
 2398SOL    HW2 8094   3.022   4.212   6.702
 2399SOL     OW 8095   5.165   1.184   2.162
 2399SOL    HW1 8096   5.159   1.223   2.253
 2399SOL    HW2 8097   5.232   1.110   2.161
 2400SOL     OW 8098   3.545   5.588   0.036
 2400SOL    HW1 8099   3.594   5.556   6.978
 2400SOL    HW2 8100   3.553   5.520   0.109
 2401SOL     OW 8101   4.261   0.221   6.490
 2401SOL    HW1 8102   4.292   0.284   6.419
 2401SOL    HW2 8103   4.277   0.262   6.580
 2402SOL     OW 8104   0.924   1.784   4.306
 2402SOL    HW1 8105   0.940   1.686   4.309
 2402SOL    HW2 8106   0.856   1.805   4.236
 2403SOL     OW 8107   2.405   2.361   0.170
 2403SOL    HW1 8108   2.446   2.306   0.097
 2403SOL    HW2 8109   2.469   2.368   0.246
 2404SOL     OW 8110   5.598   1.295   1.487
 2404SOL    HW1 8111   5.585   1.394   1.485
 2404SOL    HW2 8112   5.513   1.250   1.514
 2405SOL     OW 8113   3.337   3.470   3.633
 2405SOL    HW1 8114   3.350   3.371   3.646
 2405SOL    HW2 8115   3.245   3.488   3.600
 2406SOL     OW 8116   2.279   0.014   3.432
 2406SOL    HW1 8117   2.200   6.978   3.423
 2406SOL    HW2 8118   2.348   7.012   3.364
 2407SOL     OW 8119   5.392   2.576   2.515
 2407SOL    HW1 8120   5.307   2.629   2.517
 2407SOL    HW2 8121   5.469   2.636   2.539
 2408SOL     OW 8122   3.923   4.850   3.520
 2408SOL    HW1 8123   3.829   4.876   3.495
 2408SOL    HW2 8124   3.980   4.849   3.438
 2409SOL     OW 8125   1.583   2.917   1.252
 2409SOL    HW1 8126   1.596   2.866   1.337
 2409SOL    HW2 8127   1.656   2.986   1.243
 2410SOL     OW 8128   4.676   2.371   6.514
 2410SOL    HW1 8129   4.650   2.373   6.417
 2410SOL    HW2 8130   4.683   2.464   6.548
 2411SOL     OW 8131   4.669   5.337   5.943
 2411SOL    HW1 8132   4.585   5.285   5.928
 2411SOL    HW2 8133   4.647   5.424   5.987
 2412SOL     OW 8134   3.696   4.595   0.266
 2412SOL    HW1 8135   3.679   4.546   0.352
 2412SOL    HW2 8136   3.615   4.588   0.208
 2413SOL     OW 8137   6.507   2.238   0.057
 2413SOL    HW1 8138   6.410   2.239   0.080
 2413SOL    HW2 8139   6.562   2.245   0.140
 2414SOL     OW 8140   4.961   3.994   2.143
 2414SOL    HW1 8141   5.003   3.909   2.175
 2414SOL    HW2 8142   5.027   4.044   2.087
 2415SOL     OW 8143   0.800   6.721   1.470
 2415SOL    HW1 8144   0.893   6.745   1.441
 2415SOL    HW2 8145   0.734   6.767   1.410
 2416SOL     OW 8146   3.534   2.136   5.127
 2416SOL    HW1 8147   3.441   2.157   5.095
 2416SOL    HW2 8148   3.597   2.136   5.049
 2417SOL     OW 8149   4.293   3.148   5.837
 2417SOL    HW1 8150   4.270   3.063   5.884
 2417SOL    HW2 8151   4.239   3.156   5.753
 2418SOL     OW 8152   3.057   3.776   3.951
 2418SOL    HW1 8153   3.134   3.723   3.916
 2418SOL    HW2 8154   3.053   3.864   3.902
 2419SOL     OW 8155   0.721   6.196   3.614
 2419SOL    HW1 8156   0.770   6.261   3.556
 2419SOL    HW2 8157   0.648   6.244   3.664
 2420SOL     OW 8158   3.835   1.772   1.445
 2420SOL    HW1 8159   3.885   1.854   1.474
 2420SOL    HW2 8160   3.747   1.799   1.406
 2421SOL     OW 8161   2.814   1.298   4.919
 2421SOL    HW1 8162   2.848   1.391   4.925
 2421SOL    HW2 8163   2.831   1.263   4.826
 2422SOL     OW 8164   6.374   0.536   2.189
 2422SOL    HW1 8165   6.439   0.505   2.259
 2422SOL    HW2 8166   6.424   0.561   2.106
 2423SOL     OW 8167   1.676   6.347   3.685
 2423SOL    HW1 8168   1.695   6.389   3.773
 2423SOL    HW2 8169   1.579   6.325   3.679
 2424SOL     OW 8170   5.791   6.239   6.169
 2424SOL    HW1 8171   5.790   6.312   6.237
 2424SOL    HW2 8172   5.780   6.278   6.078
 2425SOL     OW 8173   6.142   7.008   4.561
 2425SOL    HW1 8174   6.132   6.986   4.464
 2425SOL    HW2 8175   6.207   0.060   4.572
 2426SOL     OW 8176   0.631   4.841   4.214
 2426SOL    HW1 8177   0.680   4.780   4.277
 2426SOL    HW2 8178   0.543   4.867   4.255
 2427SOL     OW 8179   5.655   5.475   6.971
 2427SOL    HW1 8180   5.696   5.545   0.007
 2427SOL    HW2 8181   5.572   5.511   6.930
 2428SOL     OW 8182   0.252   0.304   3.362
 2428SOL    HW1 8183   0.310   0.250   3.424
 2428SOL    HW2 8184   0.157   0.278   3.375
 2429SOL     OW 8185   6.591   5.727   4.898
 2429SOL    HW1 8186   6.648   5.777   4.833
 2429SOL    HW2 8187   6.538   5.658   4.848
 2430SOL     OW 8188   6.211   1.615   0.964
 2430SOL    HW1 8189   6.134   1.610   1.028
 2430SOL    HW2 8190   6.249   1.708   0.967
 2431SOL     OW 8191   3.611   0.178   2.000
 2431SOL    HW1 8192   3.641   0.146   2.090
 2431SOL    HW2 8193   3.528   0.129   1.973
 2432SOL     OW 8194   3.317   6.756   3.178
 2432SOL    HW1 8195   3.239   6.703   3.210
 2432SOL    HW2 8196   3.397   6.735   3.235
 2433SOL     OW 8197   3.327   6.242   1.029
 2433SOL    HW1 8198   3.291   6.184   1.102
 2433SOL    HW2 8199   3.317   6.338   1.054
 2434SOL     OW 8200   5.000   1.189   3.958
 2434SOL    HW1 8201   4.970   1.150   3.871
 2434SOL    HW2 8202   5.071   1.257   3.941
 2435SOL     OW 8203   4.668   5.601   6.145
 2435SOL    HW1 8204   4.706   5.692   6.131
 2435SOL    HW2 8205   4.738   5.542   6.186
 2436SOL     OW 8206   1.999   6.272   1.476
 2436SOL    HW1 8207   2.050   6.349   1.436
 2436SOL    HW2 8208   2.050   6.235   1.553
 2437SOL     OW 8209   3.874   6.204   0.878
 2437SOL    HW1 8210   3.779   6.181   0.859
 2437SOL    HW2 8211   3.934   6.137   0.834
 2438SOL     OW 8212   3.874   1.698   5.640
 2438SOL    HW1 8213   3.786   1.734   5.607
 2438SOL    HW2 8214   3.871   1.690   5.740
 2439SOL     OW 8215   1.065   4.372   6.836
 2439SOL    HW1 8216   1.099   4.421   6.755
 2439SOL    HW2 8217   1.078   4.274   6.823
 2440SOL     OW 8218   4.616   6.501   4.960
 2440SOL    HW1 8219   4.705   6.459   4.973
 2440SOL    HW2 8220   4.616   6.552   4.874
 2441SOL     OW 8221   6.892   0.600   6.941
 2441SOL    HW1 8222   6.907   0.545   6.859
 2441SOL    HW2 8223   6.795   0.598   6.966
 2442SOL     OW 8224   6.491   5.947   4.260
 2442SOL    HW1 8225   6.506   5.958   4.162
 2442SOL    HW2 8226   6.437   5.864   4.275
 2443SOL     OW 8227   3.331   6.807   5.852
 2443SOL    HW1 8228   3.274   6.819   5.933
 2443SOL    HW2 8229   3.427   6.799   5.880
 2444SOL     OW 8230   3.741   4.615   6.075
 2444SOL    HW1 8231   3.836   4.634   6.101
 2444SOL    HW2 8232   3.683   4.616   6.157
 2445SOL     OW 8233   0.244   0.575   1.896
 2445SOL    HW1 8234   0.329   0.579   1.844
 2445SOL    HW2 8235   0.246   0.497   1.958
 2446SOL     OW 8236   6.970   3.415   3.969
 2446SOL    HW1 8237   6.912   3.494   3.948
 2446SOL    HW2 8238   6.959   3.346   3.898
 2447SOL     OW 8239   2.431   0.969   0.756
 2447SOL    HW1 8240   2.358   1.021   0.711
 2447SOL    HW2 8241   2.514   1.024   0.757
 2448SOL     OW 8242   1.027   0.639   5.188
 2448SOL    HW1 8243   1.019   0.705   5.261
 2448SOL    HW2 8244   0.967   0.665   5.112
 2449SOL     OW 8245   0.193   4.752   2.008
 2449SOL    HW1 8246   0.122   4.747   1.937
 2449SOL    HW2 8247   0.159   4.707   2.091
 2450SOL     OW 8248   2.892   4.925   4.290
 2450SOL    HW1 8249   2.992   4.928   4.279
 2450SOL    HW2 8250   2.855   4.845   4.243
 2451SOL     OW 8251   0.953   0.262   3.764
 2451SOL    HW1 8252   0.922   0.325   3.693
 2451SOL    HW2 8253   0.934   0.302   3.854
 2452SOL     OW 8254   2.268   2.221   3.058
 2452SOL    HW1 8255   2.188   2.230   2.998
 2452SOL    HW2 8256   2.352   2.223   3.002
 2453SOL     OW 8257   6.865   4.120   1.264
 2453SOL    HW1 8258   6.780   4.169   1.283
 2453SOL    HW2 8259   6.849   4.055   1.190
 2454SOL     OW 8260   3.398   1.442   0.291
 2454SOL    HW1 8261   3.303   1.458   0.319
 2454SOL    HW2 8262   3.407   1.348   0.258
 2455SOL     OW 8263   5.479   6.615   0.599
 2455SOL    HW1 8264   5.428   6.694   0.632
 2455SOL    HW2 8265   5.506   6.630   0.503
 2456SOL     OW 8266   5.968   0.494   0.310
 2456SOL    HW1 8267   6.021   0.579   0.317
 2456SOL    HW2 8268   5.957   0.469   0.214
 2457SOL     OW 8269   6.219   6.201   0.118
 2457SOL    HW1 8270   6.177   6.288   0.092
 2457SOL    HW2 8271   6.150   6.129   0.119
 2458SOL     OW 8272   2.577   5.649   3.930
 2458SOL    HW1 8273   2.584   5.550   3.919
 2458SOL    HW2 8274   2.665   5.691   3.909
 2459SOL     OW 8275   2.713   6.405   0.377
 2459SOL    HW1 8276   2.652   6.482   0.358
 2459SOL    HW2 8277   2.663   6.319   0.369
 2460SOL     OW 8278   2.417   0.609   1.335
 2460SOL    HW1 8279   2.465   0.617   1.247
 2460SOL    HW2 8280   2.399   0.700   1.371
 2461SOL     OW 8281   4.032   0.198   3.008
 2461SOL    HW1 8282   4.101   0.232   3.072
 2461SOL    HW2 8283   3.941   0.206   3.049
 2462SOL     OW 8284   2.379   5.141   0.131
 2462SOL    HW1 8285   2.421   5.203   0.065
 2462SOL    HW2 8286   2.381   5.048   0.095
 2463SOL     OW 8287   6.240   2.307   3.526
 2463SOL    HW1 8288   6.215   2.354   3.610
 2463SOL    HW2 8289   6.225   2.209   3.536
 2464SOL     OW 8290   1.810   4.663   1.722
 2464SOL    HW1 8291   1.872   4.685   1.797
 2464SOL    HW2 8292   1.826   4.725   1.646
 2465SOL     OW 8293   0.299   6.246   1.664
 2465SOL    HW1 8294   0.362   6.311   1.621
 2465SOL    HW2 8295   0.246   6.293   1.735
 2466SOL     OW 8296   3.674   1.394   1.848
 2466SOL    HW1 8297   3.648   1.327   1.917
 2466SOL    HW2 8298   3.710   1.476   1.893
 2467SOL     OW 8299   5.612   1.547   5.222
 2467SOL    HW1 8300   5.613   1.483   5.299
 2467SOL    HW2 8301   5.579   1.636   5.253
 2468SOL     OW 8302   5.293   6.173   2.374
 2468SOL    HW1 8303   5.308   6.149   2.278
 2468SOL    HW2 8304   5.249   6.097   2.421
 2469SOL     OW 8305   3.655   4.602   5.350
 2469SOL    HW1 8306   3.622   4.524   5.404
 2469SOL    HW2 8307   3.595   4.681   5.365
 2470SOL     OW 8308   3.438   4.336   5.714
 2470SOL    HW1 8309   3.442   4.236   5.712
 2470SOL    HW2 8310   3.412   4.366   5.806
 2471SOL     OW 8311   2.361   6.189   1.262
 2471SOL    HW1 8312   2.339   6.265   1.323
 2471SOL    HW2 8313   2.407   6.117   1.314
 2472SOL     OW 8314   4.757   1.575   4.105
 2472SOL    HW1 8315   4.824   1.625   4.051
 2472SOL    HW2 8316   4.762   1.478   4.084
 2473SOL     OW 8317   1.687   4.080   5.351
 2473SOL    HW1 8318   1.752   4.007   5.333
 2473SOL    HW2 8319   1.735   4.168   5.355
 2474SOL     OW 8320   0.211   5.684   0.335
 2474SOL    HW1 8321   0.242   5.713   0.245
 2474SOL    HW2 8322   0.227   5.757   0.401
 2475SOL     OW 8323   4.209   1.304   0.545
 2475SOL    HW1 8324   4.166   1.352   0.622
 2475SOL    HW2 8325   4.142   1.246   0.500
 2476SOL     OW 8326   1.023   2.852   3.920
 2476SOL    HW1 8327   1.018   2.951   3.927
 2476SOL    HW2 8328   1.103   2.826   3.866
 2477SOL     OW 8329   6.389   0.617   2.535
 2477SOL    HW1 8330   6.382   0.709   2.495
 2477SOL    HW2 8331   6.481   0.603   2.571
 2478SOL     OW 8332   6.001   0.051   2.463
 2478SOL    HW1 8333   6.025   0.061   2.559
 2478SOL    HW2 8334   6.047   6.994   2.425
 2479SOL     OW 8335   1.170   3.482   1.282
 2479SOL    HW1 8336   1.103   3.478   1.208
 2479SOL    HW2 8337   1.156   3.565   1.335
 2480SOL     OW 8338   5.569   3.919   0.890
 2480SOL    HW1 8339   5.538   3.993   0.830
 2480SOL    HW2 8340   5.625   3.956   0.964
 2481SOL     OW 8341   2.490   6.646   0.144
 2481SOL    HW1 8342   2.476   6.591   0.062
 2481SOL    HW2 8343   2.574   6.699   0.135
 2482SOL     OW 8344   5.401   3.021   5.735
 2482SOL    HW1 8345   5.345   2.939   5.744
 2482SOL    HW2 8346   5.495   3.001   5.764
 2483SOL     OW 8347   2.254   1.030   6.708
 2483SOL    HW1 8348   2.239   1.072   6.797
 2483SOL    HW2 8349   2.352   1.017   6.692
 2484SOL     OW 8350   2.070   0.547   0.532
 2484SOL    HW1 8351   2.166   0.524   0.545
 2484SOL    HW2 8352   2.048   0.632   0.581
 2485SOL     OW 8353   4.447   4.623   2.067
 2485SOL    HW1 8354   4.352   4.650   2.083
 2485SOL    HW2 8355   4.493   4.693   2.013
 2486SOL     OW 8356   3.536   5.468   2.718
 2486SOL    HW1 8357   3.520   5.493   2.623
 2486SOL    HW2 8358   3.449   5.452   2.764
 2487SOL     OW 8359   3.845   5.264   6.278
 2487SOL    HW1 8360   3.826   5.196   6.207
 2487SOL    HW2 8361   3.790   5.243   6.359
 2488SOL     OW 8362   2.332   4.109   1.960
 2488SOL    HW1 8363   2.239   4.144   1.945
 2488SOL    HW2 8364   2.383   4.116   1.874
 2489SOL     OW 8365   2.251   5.156   4.012
 2489SOL    HW1 8366   2.335   5.168   4.064
 2489SOL    HW2 8367   2.272   5.124   3.920
 2490SOL     OW 8368   6.495   5.356   0.792
 2490SOL    HW1 8369   6.420   5.400   0.841
 2490SOL    HW2 8370   6.457   5.294   0.723
 2491SOL     OW 8371   2.306   5.962   2.459
 2491SOL    HW1 8372   2.269   5.869   2.454
 2491SOL    HW2 8373   2.268   6.009   2.539
 2492SOL     OW 8374   3.815   2.807   6.893
 2492SOL    HW1 8375   3.727   2.820   6.846
 2492SOL    HW2 8376   3.806   2.831   6.989
 2493SOL     OW 8377   5.749   0.605   3.030
 2493SOL    HW1 8378   5.722   0.518   3.070
 2493SOL    HW2 8379   5.849   0.611   3.029
 2494SOL     OW 8380   5.938   3.606   2.530
 2494SOL    HW1 8381   5.852   3.559   2.512
 2494SOL    HW2 8382   5.979   3.635   2.443
 2495SOL     OW 8383   5.351   0.245   4.830
 2495SOL    HW1 8384   5.345   0.219   4.927
 2495SOL    HW2 8385   5.390   0.336   4.822
 2496SOL     OW 8386   1.114   4.816   6.770
 2496SOL    HW1 8387   1.159   4.898   6.806
 2496SOL    HW2 8388   1.022   4.808   6.809
 2497SOL     OW 8389   6.782   1.326   0.649
 2497SOL    HW1 8390   6.765   1.372   0.562
 2497SOL    HW2 8391   6.697   1.285   0.682
 2498SOL     OW 8392   3.168   2.160   3.249
 2498SOL    HW1 8393   3.080   2.161   3.297
 2498SOL    HW2 8394   3.153   2.162   3.151
 2499SOL     OW 8395   5.583   1.447   4.657
 2499SOL    HW1 8396   5.591   1.432   4.756
 2499SOL    HW2 8397   5.658   1.507   4.627
 2500SOL     OW 8398   4.437   3.135   6.060
 2500SOL    HW1 8399   4.396   3.142   5.969
 2500SOL    HW2 8400   4.370   3.164   6.129
 2501SOL     OW 8401   6.759   5.752   0.135
 2501SOL    HW1 8402   6.761   5.665   0.086
 2501SOL    HW2 8403   6.727   5.824   0.075
 2502SOL     OW 8404   2.804   6.199   3.713
 2502SOL    HW1 8405   2.833   6.104   3.707
 2502SOL    HW2 8406   2.784   6.233   3.621
 2503SOL     OW 8407   3.295   6.115   5.430
 2503SOL    HW1 8408   3.279   6.184   5.360
 2503SOL    HW2 8409   3.390   6.085   5.426
 2504SOL     OW 8410   3.056   6.140   4.949
 2504SOL    HW1 8411   3.032   6.166   4.856
 2504SOL    HW2 8412   3.154   6.155   4.964
 2505SOL     OW 8413   1.787   6.557   4.664
 2505SOL    HW1 8414   1.836   6.541   4.578
 2505SOL    HW2 8415   1.721   6.482   4.678
 2506SOL     OW 8416   6.995   2.887   5.885
 2506SOL    HW1 8417   6.954   2.813   5.832
 2506SOL    HW2 8418   6.931   2.964   5.889
 2507SOL     OW 8419   6.554   4.153   0.373
 2507SOL    HW1 8420   6.598   4.137   0.285
 2507SOL    HW2 8421   6.608   4.111   0.446
 2508SOL     OW 8422   2.592   1.798   2.314
 2508SOL    HW1 8423   2.503   1.793   2.268
 2508SOL    HW2 8424   2.658   1.843   2.255
 2509SOL     OW 8425   5.625   3.035   2.996
 2509SOL    HW1 8426   5.592   3.014   2.904
 2509SOL    HW2 8427   5.547   3.038   3.060
 2510SOL     OW 8428   3.423   4.061   0.556
 2510SOL    HW1 8429   3.368   4.076   0.638
 2510SOL    HW2 8430   3.482   4.140   0.539
 2511SOL     OW 8431   1.971   1.841   4.892
 2511SOL    HW1 8432   1.995   1.936   4.874
 2511SOL    HW2 8433   2.055   1.786   4.895
 2512SOL     OW 8434   5.716   4.852   5.309
 2512SOL    HW1 8435   5.681   4.943   5.287
 2512SOL    HW2 8436   5.743   4.848   5.405
 2513SOL     OW 8437   1.222   2.682   6.171
 2513SOL    HW1 8438   1.247   2.647   6.261
 2513SOL    HW2 8439   1.295   2.664   6.106
 2514SOL     OW 8440   0.281   3.382   3.849
 2514SOL    HW1 8441   0.321   3.434   3.925
 2514SOL    HW2 8442   0.245   3.295   3.883
 2515SOL     OW 8443   1.112   6.599   0.644
 2515SOL    HW1 8444   1.057   6.579   0.726
 2515SOL    HW2 8445   1.203   6.628   0.672
 2516SOL     OW 8446   6.241   6.228   2.535
 2516SOL    HW1 8447   6.166   6.287   2.506
 2516SOL    HW2 8448   6.277   6.179   2.455
 2517SOL     OW 8449   2.146   5.514   5.769
 2517SOL    HW1 8450   2.080   5.568   5.716
 2517SOL    HW2 8451   2.102   5.429   5.799
 2518SOL     OW 8452   1.818   3.299   0.407
 2518SOL    HW1 8453   1.741   3.345   0.363
 2518SOL    HW2 8454   1.785   3.231   0.471
 2519SOL     OW 8455   5.162   5.159   4.285
 2519SOL    HW1 8456   5.157   5.252   4.321
 2519SOL    HW2 8457   5.140   5.093   4.357
 2520SOL     OW 8458   0.580   2.943   1.117
 2520SOL    HW1 8459   0.673   2.981   1.115
 2520SOL    HW2 8460   0.523   3.001   1.176
 2521SOL     OW 8461   1.261   6.407   5.615
 2521SOL    HW1 8462   1.197   6.467   5.569
 2521SOL    HW2 8463   1.333   6.461   5.659
 2522SOL     OW 8464   0.899   2.851   5.391
 2522SOL    HW1 8465   0.906   2.752   5.377
 2522SOL    HW2 8466   0.807   2.882   5.368
 2523SOL     OW 8467   0.211   3.010   1.229
 2523SOL    HW1 8468   0.212   2.910   1.230
 2523SOL    HW2 8469   0.117   3.042   1.245
 2524SOL     OW 8470   0.830   6.135   4.308
 2524SOL    HW1 8471   0.862   6.200   4.239
 2524SOL    HW2 8472   0.789   6.056   4.262
 2525SOL     OW 8473   1.479   2.504   4.451
 2525SOL    HW1 8474   1.439   2.540   4.367
 2525SOL    HW2 8475   1.575   2.529   4.456
 2526SOL     OW 8476   0.857   3.702   5.965
 2526SOL    HW1 8477   0.919   3.716   6.041
 2526SOL    HW2 8478   0.903   3.725   5.879
 2527SOL     OW 8479   5.082   0.175   5.180
 2527SOL    HW1 8480   5.019   0.193   5.255
 2527SOL    HW2 8481   5.079   0.251   5.115
 2528SOL     OW 8482   6.052   4.765   1.399
 2528SOL    HW1 8483   6.064   4.803   1.490
 2528SOL    HW2 8484   5.990   4.686   1.403
 2529SOL     OW 8485   5.748   5.140   6.373
 2529SOL    HW1 8486   5.832   5.087   6.384
 2529SOL    HW2 8487   5.669   5.079   6.372
 2530SOL     OW 8488   1.370   6.303   5.132
 2530SOL    HW1 8489   1.347   6.308   5.229
 2530SOL    HW2 8490   1.296   6.257   5.083
 2531SOL     OW 8491   5.360   5.716   4.661
 2531SOL    HW1 8492   5.346   5.692   4.757
 2531SOL    HW2 8493   5.286   5.678   4.606
 2532SOL     OW 8494   0.503   6.120   0.677
 2532SOL    HW1 8495   0.526   6.023   0.686
 2532SOL    HW2 8496   0.406   6.130   0.657
 2533SOL     OW 8497   5.292   6.468   4.486
 2533SOL    HW1 8498   5.364   6.425   4.541
 2533SOL    HW2 8499   5.206   6.466   4.536
 2534SOL     OW 8500   2.313   0.848   2.989
 2534SOL    HW1 8501   2.389   0.793   2.953
 2534SOL    HW2 8502   2.345   0.941   3.007
 2535SOL     OW 8503   2.148   1.893   6.672
 2535SOL    HW1 8504   2.242   1.861   6.687
 2535SOL    HW2 8505   2.119   1.869   6.580
 2536SOL     OW 8506   0.727   2.122   3.698
 2536SOL    HW1 8507   0.726   2.128   3.798
 2536SOL    HW2 8508   0.649   2.172   3.661
 2537SOL     OW 8509   4.822   6.197   0.443
 2537SOL    HW1 8510   4.777   6.270   0.393
 2537SOL    HW2 8511   4.816   6.214   0.541
 2538SOL     OW 8512   1.923   3.938   5.281
 2538SOL    HW1 8513   2.005   3.881   5.288
 2538SOL    HW2 8514   1.946   4.024   5.235
 2539SOL     OW 8515   3.853   0.146   5.645
 2539SOL    HW1 8516   3.782   0.075   5.645
 2539SOL    HW2 8517   3.829   0.216   5.577
 2540SOL     OW 8518   5.092   0.430   1.386
 2540SOL    HW1 8519   5.165   0.486   1.346
 2540SOL    HW2 8520   5.026   0.490   1.431
 2541SOL     OW 8521   1.395   0.655   5.911
 2541SOL    HW1 8522   1.304   0.671   5.949
 2541SOL    HW2 8523   1.461   0.716   5.955
 2542SOL     OW 8524   3.768   2.056   4.621
 2542SOL    HW1 8525   3.803   1.966   4.594
 2542SOL    HW2 8526   3.842   2.123   4.613
 2543SOL     OW 8527   2.267   0.603   2.693
 2543SOL    HW1 8528   2.232   0.512   2.714
 2543SOL    HW2 8529   2.339   0.627   2.758
 2544SOL     OW 8530   0.202   5.292   2.417
 2544SOL    HW1 8531   0.157   5.374   2.382
 2544SOL    HW2 8532   0.301   5.308   2.421
 2545SOL     OW 8533   1.744   0.633   1.548
 2545SOL    HW1 8534   1.728   0.535   1.536
 2545SOL    HW2 8535   1.669   0.673   1.599
 2546SOL     OW 8536   6.005   3.213   1.179
 2546SOL    HW1 8537   6.030   3.116   1.185
 2546SOL    HW2 8538   6.043   3.252   1.095
 2547SOL     OW 8539   5.144   5.927   0.288
 2547SOL    HW1 8540   5.141   6.027   0.297
 2547SOL    HW2 8541   5.194   5.888   0.365
 2548SOL     OW 8542   2.462   0.438   4.856
 2548SOL    HW1 8543   2.363   0.449   4.845
 2548SOL    HW2 8544   2.497   0.511   4.915
 2549SOL     OW 8545   1.981   2.492   2.042
 2549SOL    HW1 8546   2.077   2.467   2.026
 2549SOL    HW2 8547   1.958   2.473   2.138
 2550SOL     OW 8548   5.684   1.143   6.727
 2550SOL    HW1 8549   5.653   1.212   6.791
 2550SOL    HW2 8550   5.609   1.081   6.704
 2551SOL     OW 8551   3.220   5.505   0.296
 2551SOL    HW1 8552   3.310   5.463   0.288
 2551SOL    HW2 8553   3.206   5.539   0.389
 2552SOL     OW 8554   1.967   5.220   6.432
 2552SOL    HW1 8555   1.958   5.135   6.379
 2552SOL    HW2 8556   1.918   5.293   6.385
 2553SOL     OW 8557   3.024   3.035   6.034
 2553SOL    HW1 8558   2.998   2.942   6.009
 2553SOL    HW2 8559   3.089   3.070   5.967
 2554SOL     OW 8560   2.010   5.974   7.003
 2554SOL    HW1 8561   1.914   5.966   0.007
 2554SOL    HW2 8562   2.058   5.889   7.022
 2555SOL     OW 8563   5.885   6.390   6.399
 2555SOL    HW1 8564   5.826   6.432   6.469
 2555SOL    HW2 8565   5.931   6.310   6.437
 2556SOL     OW 8566   4.053   6.298   1.058
 2556SOL    HW1 8567   4.116   6.369   1.026
 2556SOL    HW2 8568   3.987   6.278   0.985
 2557SOL     OW 8569   2.529   1.018   6.643
 2557SOL    HW1 8570   2.589   0.974   6.711
 2557SOL    HW2 8571   2.572   1.012   6.553
 2558SOL     OW 8572   4.168   3.757   5.075
 2558SOL    HW1 8573   4.234   3.700   5.125
 2558SOL    HW2 8574   4.211   3.796   4.994
 2559SOL     OW 8575   5.951   2.843   3.941
 2559SOL    HW1 8576   5.899   2.871   3.861
 2559SOL    HW2 8577   6.049   2.843   3.920
 2560SOL     OW 8578   4.906   3.372   3.639
 2560SOL    HW1 8579   4.938   3.467   3.644
 2560SOL    HW2 8580   4.943   3.329   3.556
 2561SOL     OW 8581   3.769   1.113   3.619
 2561SOL    HW1 8582   3.794   1.202   3.579
 2561SOL    HW2 8583   3.828   1.095   3.698
 2562SOL     OW 8584   2.823   5.253   3.496
 2562SOL    HW1 8585   2.911   5.288   3.465
 2562SOL    HW2 8586   2.751   5.287   3.436
 2563SOL     OW 8587   3.891   1.471   5.867
 2563SOL    HW1 8588   3.949   1.545   5.900
 2563SOL    HW2 8589   3.909   1.389   5.921
 2564SOL     OW 8590   1.707   6.586   6.891
 2564SOL    HW1 8591   1.615   6.607   6.925
 2564SOL    HW2 8592   1.751   6.671   6.861
 2565SOL     OW 8593   0.450   0.488   0.250
 2565SOL    HW1 8594   0.496   0.556   0.194
 2565SOL    HW2 8595   0.375   0.530   0.300
 2566SOL     OW 8596   1.358   6.733   0.728
 2566SOL    HW1 8597   1.320   6.786   0.804
 2566SOL    HW2 8598   1.455   6.717   0.745
 2567SOL     OW 8599   1.446   1.408   1.844
 2567SOL    HW1 8600   1.399   1.380   1.927
 2567SOL    HW2 8601   1.479   1.502   1.853
 2568SOL     OW 8602   3.409   0.139   0.595
 2568SOL    HW1 8603   3.373   0.136   0.688
 2568SOL    HW2 8604   3.367   0.067   0.540
 2569SOL     OW 8605   2.255   1.590   2.291
 2569SOL    HW1 8606   2.211   1.590   2.381
 2569SOL    HW2 8607   2.294   1.680   2.273
 2570SOL     OW 8608   4.465   6.407   6.153
 2570SOL    HW1 8609   4.510   6.342   6.215
 2570SOL    HW2 8610   4.434   6.486   6.206
 2571SOL     OW 8611   3.269   2.971   4.719
 2571SOL    HW1 8612   3.212   3.053   4.727
 2571SOL    HW2 8613   3.259   2.915   4.801
 2572SOL     OW 8614   1.761   6.568   0.949
 2572SOL    HW1 8615   1.711   6.529   1.026
 2572SOL    HW2 8616   1.837   6.508   0.924
 2573SOL     OW 8617   6.395   1.217   1.904
 2573SOL    HW1 8618   6.405   1.296   1.844
 2573SOL    HW2 8619   6.454   1.228   1.984
 2574SOL     OW 8620   5.960   3.377   0.221
 2574SOL    HW1 8621   5.871   3.346   0.255
 2574SOL    HW2 8622   5.960   3.476   0.211
 2575SOL     OW 8623   5.286   3.567   1.669
 2575SOL    HW1 8624   5.384   3.585   1.672
 2575SOL    HW2 8625   5.268   3.474   1.703
 2576SOL     OW 8626   4.067   6.666   3.719
 2576SOL    HW1 8627   3.980   6.638   3.760
 2576SOL    HW2 8628   4.066   6.765   3.703
 2577SOL     OW 8629   5.167   0.587   3.193
 2577SOL    HW1 8630   5.115   0.640   3.259
 2577SOL    HW2 8631   5.231   0.526   3.241
 2578SOL     OW 8632   4.592   2.898   5.670
 2578SOL    HW1 8633   4.573   2.978   5.728
 2578SOL    HW2 8634   4.640   2.829   5.725
 2579SOL     OW 8635   1.192   1.217   4.855
 2579SOL    HW1 8636   1.210   1.195   4.951
 2579SOL    HW2 8637   1.112   1.277   4.849
 2580SOL     OW 8638   1.669   2.902   6.395
 2580SOL    HW1 8639   1.711   2.953   6.320
 2580SOL    HW2 8640   1.720   2.818   6.412
 2581SOL     OW 8641   5.798   4.552   1.871
 2581SOL    HW1 8642   5.879   4.580   1.819
 2581SOL    HW2 8643   5.818   4.468   1.921
 2582SOL     OW 8644   1.984   4.711   2.913
 2582SOL    HW1 8645   1.940   4.799   2.932
 2582SOL    HW2 8646   2.078   4.727   2.884
 2583SOL     OW 8647   1.641   1.161   1.140
 2583SOL    HW1 8648   1.676   1.127   1.227
 2583SOL    HW2 8649   1.684   1.248   1.118
 2584SOL     OW 8650   4.075   5.876   0.164
 2584SOL    HW1 8651   4.130   5.883   0.081
 2584SOL    HW2 8652   4.069   5.965   0.208
 2585SOL     OW 8653   3.572   0.478   0.242
 2585SOL    HW1 8654   3.587   0.493   0.144
 2585SOL    HW2 8655   3.518   0.395   0.255
 2586SOL     OW 8656   4.863   1.602   4.475
 2586SOL    HW1 8657   4.846   1.529   4.542
 2586SOL    HW2 8658   4.961   1.620   4.469
 2587SOL     OW 8659   0.140   1.115   4.432
 2587SOL    HW1 8660   0.130   1.016   4.446
 2587SOL    HW2 8661   0.069   1.162   4.484
 2588SOL     OW 8662   4.684   0.250   0.285
 2588SOL    HW1 8663   4.627   0.294   0.355
 2588SOL    HW2 8664   4.780   0.254   0.313
 2589SOL     OW 8665   0.867   6.687   5.849
 2589SOL    HW1 8666   0.850   6.762   5.785
 2589SOL    HW2 8667   0.783   6.633   5.859
 2590SOL     OW 8668   3.515   6.434   2.335
 2590SOL    HW1 8669   3.594   6.437   2.397
 2590SOL    HW2 8670   3.514   6.346   2.287
 2591SOL     OW 8671   5.916   6.116   2.396
 2591SOL    HW1 8672   5.984   6.045   2.409
 2591SOL    HW2 8673   5.855   6.091   2.321
 2592SOL     OW 8674   2.427   6.912   1.243
 2592SOL    HW1 8675   2.498   6.969   1.284
 2592SOL    HW2 8676   2.441   6.817   1.268
 2593SOL     OW 8677   3.386   6.498   2.093
 2593SOL    HW1 8678   3.299   6.546   2.107
 2593SOL    HW2 8679   3.431   6.484   2.182
 2594SOL     OW 8680   6.990   6.064   5.895
 2594SOL    HW1 8681   0.057   6.074   5.936
 2594SOL    HW2 8682   6.921   6.092   5.961
 2595SOL     OW 8683   6.193   1.703   5.788
 2595SOL    HW1 8684   6.201   1.699   5.888
 2595SOL    HW2 8685   6.111   1.754   5.763
 2596SOL     OW 8686   3.924   2.256   1.887
 2596SOL    HW1 8687   3.932   2.212   1.976
 2596SOL    HW2 8688   3.829   2.284   1.871
 2597SOL     OW 8689   1.854   4.392   0.513
 2597SOL    HW1 8690   1.823   4.472   0.461
 2597SOL    HW2 8691   1.792   4.315   0.495
 2598SOL     OW 8692   6.112   1.409   4.577
 2598SOL    HW1 8693   6.113   1.315   4.610
 2598SOL    HW2 8694   6.181   1.421   4.506
 2599SOL     OW 8695   3.576   5.828   0.574
 2599SOL    HW1 8696   3.662   5.798   0.614
 2599SOL    HW2 8697   3.500   5.779   0.617
 2600SOL     OW 8698   4.906   3.869   4.974
 2600SOL    HW1 8699   4.892   3.879   5.072
 2600SOL    HW2 8700   4.888   3.775   4.946
 2601SOL     OW 8701   3.220   1.821   6.752
 2601SOL    HW1 8702   3.164   1.785   6.677
 2601SOL    HW2 8703   3.276   1.747   6.791
 2602SOL     OW 8704   6.911   4.599   4.139
 2602SOL    HW1 8705   6.905   4.508   4.180
 2602SOL    HW2 8706   6.832   4.654   4.167
 2603SOL     OW 8707   2.281   2.561   1.437
 2603SOL    HW1 8708   2.369   2.602   1.412
 2603SOL    HW2 8709   2.246   2.606   1.519
 2604SOL     OW 8710   5.171   1.198   2.456
 2604SOL    HW1 8711   5.264   1.226   2.477
 2604SOL    HW2 8712   5.159   1.101   2.479
 2605SOL     OW 8713   3.514   5.360   3.676
 2605SOL    HW1 8714   3.558   5.300   3.610
 2605SOL    HW2 8715   3.519   5.455   3.644
 2606SOL     OW 8716   6.403   4.363   0.648
 2606SOL    HW1 8717   6.370   4.376   0.555
 2606SOL    HW2 8718   6.378   4.443   0.704
 2607SOL     OW 8719   0.498   1.898   6.254
 2607SOL    HW1 8720   0.544   1.810   6.247
 2607SOL    HW2 8721   0.470   1.914   6.349
 2608SOL     OW 8722   3.860   5.979   2.549
 2608SOL    HW1 8723   3.959   5.992   2.542
 2608SOL    HW2 8724   3.837   5.884   2.528
 2609SOL     OW 8725   0.235   2.615   1.455
 2609SOL    HW1 8726   0.272   2.662   1.375
 2609SOL    HW2 8727   0.244   2.674   1.536
 2610SOL     OW 8728   6.771   5.047   4.101
 2610SOL    HW1 8729   6.793   5.113   4.173
 2610SOL    HW2 8730   6.672   5.047   4.086
 2611SOL     OW 8731   5.721   6.865   1.301
 2611SOL    HW1 8732   5.649   6.834   1.239
 2611SOL    HW2 8733   5.734   6.964   1.290
 2612SOL     OW 8734   7.018   6.525   6.065
 2612SOL    HW1 8735   0.072   6.489   6.013
 2612SOL    HW2 8736   6.976   6.451   6.117
 2613SOL     OW 8737   2.804   6.280   1.317
 2613SOL    HW1 8738   2.852   6.196   1.343
 2613SOL    HW2 8739   2.856   6.360   1.347
 2614SOL     OW 8740   6.426   0.004   6.241
 2614SOL    HW1 8741   6.333   6.994   6.226
 2614SOL    HW2 8742   6.470   0.021   6.152
 2615SOL     OW 8743   5.660   4.662   2.713
 2615SOL    HW1 8744   5.736   4.601   2.691
 2615SOL    HW2 8745   5.574   4.620   2.685
 2616SOL     OW 8746   3.742   3.447   3.999
 2616SOL    HW1 8747   3.698   3.397   4.073
 2616SOL    HW2 8748   3.730   3.398   3.913
 2617SOL     OW 8749   3.573   6.526   1.413
 2617SOL    HW1 8750   3.629   6.502   1.334
 2617SOL    HW2 8751   3.543   6.442   1.459
 2618SOL     OW 8752   0.586   6.398   3.747
 2618SOL    HW1 8753   0.612   6.488   3.711
 2618SOL    HW2 8754   0.495   6.374   3.714
 2619SOL     OW 8755   2.699   1.590   3.893
 2619SOL    HW1 8756   2.708   1.500   3.851
 2619SOL    HW2 8757   2.766   1.601   3.966
 2620SOL     OW 8758   0.714   5.802   3.361
 2620SOL    HW1 8759   0.811   5.781   3.374
 2620SOL    HW2 8760   0.669   5.725   3.316
 2621SOL     OW 8761   2.113   6.165   2.993
 2621SOL    HW1 8762   2.031   6.209   3.027
 2621SOL    HW2 8763   2.193   6.219   3.017
 2622SOL     OW 8764   2.417   1.786   6.576
 2622SOL    HW1 8765   2.345   1.770   6.508
 2622SOL    HW2 8766   2.439   1.700   6.621
 2623SOL     OW 8767   3.149   1.696   4.789
 2623SOL    HW1 8768   3.210   1.733   4.859
 2623SOL    HW2 8769   3.137   1.763   4.716
 2624SOL     OW 8770   6.551   3.476   4.730
 2624SOL    HW1 8771   6.556   3.381   4.759
 2624SOL    HW2 8772   6.494   3.483   4.648
 2625SOL     OW 8773   2.528   2.667   5.881
 2625SOL    HW1 8774   2.606   2.660   5.943
 2625SOL    HW2 8775   2.546   2.737   5.812
 2626SOL     OW 8776   0.728   0.272   4.453
 2626SOL    HW1 8777   0.799   0.251   4.386
 2626SOL    HW2 8778   0.702   0.368   4.446
 2627SOL     OW 8779   0.315   0.520   4.595
 2627SOL    HW1 8780   0.315   0.474   4.506
 2627SOL    HW2 8781   0.402   0.503   4.641
 2628SOL     OW 8782   2.883   5.558   6.733
 2628SOL    HW1 8783   2.957   5.619   6.761
 2628SOL    HW2 8784   2.803   5.612   6.707
 2629SOL     OW 8785   3.183   4.061   2.074
 2629SOL    HW1 8786   3.177   3.989   2.143
 2629SOL    HW2 8787   3.131   4.141   2.104
 2630SOL     OW 8788   3.180   1.756   3.465
 2630SOL    HW1 8789   3.278   1.774   3.459
 2630SOL    HW2 8790   3.144   1.736   3.373
 2631SOL     OW 8791   5.010   0.637   4.271
 2631SOL    HW1 8792   5.063   0.714   4.238
 2631SOL    HW2 8793   5.013   0.635   4.371
 2632SOL     OW 8794   2.725   1.981   6.336
 2632SOL    HW1 8795   2.732   1.930   6.249
 2632SOL    HW2 8796   2.770   1.928   6.408
 2633SOL     OW 8797   6.099   2.146   5.948
 2633SOL    HW1 8798   6.171   2.108   6.007
 2633SOL    HW2 8799   6.123   2.132   5.852
 2634SOL     OW 8800   1.859   4.431   2.676
 2634SOL    HW1 8801   1.866   4.345   2.726
 2634SOL    HW2 8802   1.818   4.413   2.586
 2635SOL     OW 8803   5.783   6.354   4.621
 2635SOL    HW1 8804   5.772   6.405   4.706
 2635SOL    HW2 8805   5.866   6.298   4.626
 2636SOL     OW 8806   4.700   0.763   5.842
 2636SOL    HW1 8807   4.764   0.699   5.801
 2636SOL    HW2 8808   4.616   0.766   5.787
 2637SOL     OW 8809   6.588   1.219   3.884
 2637SOL    HW1 8810   6.537   1.274   3.817
 2637SOL    HW2 8811   6.627   1.139   3.838
 2638SOL     OW 8812   0.283   0.180   2.972
 2638SOL    HW1 8813   0.184   0.162   2.978
 2638SOL    HW2 8814   0.314   0.160   2.879
 2639SOL     OW 8815   0.894   6.818   2.156
 2639SOL    HW1 8816   0.990   6.808   2.182
 2639SOL    HW2 8817   0.849   6.882   2.218
 2640SOL     OW 8818   6.818   6.233   5.066
 2640SOL    HW1 8819   6.849   6.153   5.013
 2640SOL    HW2 8820   6.720   6.224   5.085
 2641SOL     OW 8821   5.194   2.790   1.859
 2641SOL    HW1 8822   5.270   2.735   1.892
 2641SOL    HW2 8823   5.185   2.780   1.760
 2642SOL     OW 8824   5.178   6.790   4.239
 2642SOL    HW1 8825   5.223   6.857   4.180
 2642SOL    HW2 8826   5.241   6.764   4.313
 2643SOL     OW 8827   1.560   4.739   3.246
 2643SOL    HW1 8828   1.597   4.685   3.171
 2643SOL    HW2 8829   1.483   4.690   3.287
 2644SOL     OW 8830   6.339   5.098   5.712
 2644SOL    HW1 8831   6.435   5.124   5.698
 2644SOL    HW2 8832   6.287   5.121   5.630
 2645SOL     OW 8833   4.344   5.780   4.488
 2645SOL    HW1 8834   4.425   5.824   4.526
 2645SOL    HW2 8835   4.362   5.683   4.474
 2646SOL     OW 8836   5.642   6.807   6.659
 2646SOL    HW1 8837   5.741   6.795   6.663
 2646SOL    HW2 8838   5.605   6.755   6.582
 2647SOL     OW 8839   5.980   0.400   1.638
 2647SOL    HW1 8840   5.948   0.315   1.681
 2647SOL    HW2 8841   5.917   0.474   1.659
 2648SOL     OW 8842   0.393   0.568   3.468
 2648SOL    HW1 8843   0.487   0.571   3.436
 2648SOL    HW2 8844   0.344   0.493   3.423
 2649SOL     OW 8845   5.289   3.136   5.930
 2649SOL    HW1 8846   5.212   3.197   5.909
 2649SOL    HW2 8847   5.313   3.084   5.848
 2650SOL     OW 8848   1.117   3.710   4.280
 2650SOL    HW1 8849   1.018   3.715   4.266
 2650SOL    HW2 8850   1.146   3.614   4.280
 2651SOL     OW 8851   0.183   1.979   0.016
 2651SOL    HW1 8852   0.156   1.935   0.102
 2651SOL    HW2 8853   0.273   2.022   0.027
 2652SOL     OW 8854   2.962   3.432   3.855
 2652SOL    HW1 8855   2.957   3.385   3.943
 2652SOL    HW2 8856   3.050   3.478   3.847
 2653SOL     OW 8857   5.150   6.853   5.293
 2653SOL    HW1 8858   5.214   6.817   5.361
 2653SOL    HW2 8859   5.118   6.779   5.234
 2654SOL     OW 8860   4.562   4.298   1.161
 2654SOL    HW1 8861   4.491   4.365   1.138
 2654SOL    HW2 8862   4.565   4.285   1.260
 2655SOL     OW 8863   5.581   4.838   4.740
 2655SOL    HW1 8864   5.541   4.877   4.823
 2655SOL    HW2 8865   5.553   4.891   4.660
 2656SOL     OW 8866   4.022   4.995   4.425
 2656SOL    HW1 8867   3.997   5.004   4.521
 2656SOL    HW2 8868   4.000   5.081   4.377
 2657SOL     OW 8869   2.506   4.408   6.611
 2657SOL    HW1 8870   2.464   4.320   6.631
 2657SOL    HW2 8871   2.465   4.447   6.529
 2658SOL     OW 8872   5.033   3.758   0.422
 2658SOL    HW1 8873   5.110   3.741   0.360
 2658SOL    HW2 8874   4.989   3.845   0.399
 2659SOL     OW 8875   6.250   2.563   4.681
 2659SOL    HW1 8876   6.288   2.613   4.603
 2659SOL    HW2 8877   6.270   2.466   4.670
 2660SOL     OW 8878   0.851   1.281   0.952
 2660SOL    HW1 8879   0.755   1.274   0.925
 2660SOL    HW2 8880   0.896   1.193   0.938
 2661SOL     OW 8881   2.203   6.427   1.377
 2661SOL    HW1 8882   2.252   6.425   1.464
 2661SOL    HW2 8883   2.228   6.510   1.327
 2662SOL     OW 8884   4.297   0.534   5.500
 2662SOL    HW1 8885   4.364   0.465   5.527
 2662SOL    HW2 8886   4.266   0.517   5.407
 2663SOL     OW 8887   2.788   3.746   1.327
 2663SOL    HW1 8888   2.858   3.674   1.325
 2663SOL    HW2 8889   2.795   3.797   1.413
 2664SOL     OW 8890   3.474   3.814   4.764
 2664SOL    HW1 8891   3.523   3.752   4.703
 2664SOL    HW2 8892   3.418   3.877   4.711
 2665SOL     OW 8893   2.786   2.437   5.354
 2665SOL    HW1 8894   2.692   2.407   5.370
 2665SOL    HW2 8895   2.850   2.368   5.389
 2666SOL     OW 8896   5.146   3.678   1.859
 2666SOL    HW1 8897   5.062   3.625   1.868
 2666SOL    HW2 8898   5.206   3.634   1.792
 2667SOL     OW 8899   1.637   6.292   4.307
 2667SOL    HW1 8900   1.615   6.242   4.223
 2667SOL    HW2 8901   1.626   6.231   4.386
 2668SOL     OW 8902   6.209   3.117   3.224
 2668SOL    HW1 8903   6.110   3.127   3.231
 2668SOL    HW2 8904   6.234   3.024   3.251
 2669SOL     OW 8905   3.012   4.803   5.219
 2669SOL    HW1 8906   2.930   4.831   5.269
 2669SOL    HW2 8907   3.024   4.704   5.228
 2670SOL     OW 8908   5.711   1.609   6.434
 2670SOL    HW1 8909   5.725   1.693   6.486
 2670SOL    HW2 8910   5.653   1.628   6.355
 2671SOL     OW 8911   3.473   5.140   6.911
 2671SOL    HW1 8912   3.411   5.202   6.960
 2671SOL    HW2 8913   3.523   5.084   6.977
 2672SOL     OW 8914   6.624   5.361   6.936
 2672SOL    HW1 8915   6.613   5.376   6.838
 2672SOL    HW2 8916   6.538   5.384   6.983
 2673SOL     OW 8917   6.422   1.864   3.391
 2673SOL    HW1 8918   6.340   1.906   3.352
 2673SOL    HW2 8919   6.486   1.842   3.317
 2674SOL     OW 8920   2.085   4.101   4.043
 2674SOL    HW1 8921   2.123   4.010   4.026
 2674SOL    HW2 8922   2.064   4.144   3.955
 2675SOL     OW 8923   6.479   4.876   4.605
 2675SOL    HW1 8924   6.503   4.869   4.508
 2675SOL    HW2 8925   6.561   4.898   4.658
 2676SOL     OW 8926   4.587   1.208   1.834
 2676SOL    HW1 8927   4.681   1.178   1.821
 2676SOL    HW2 8928   4.533   1.133   1.873
 2677SOL     OW 8929   3.203   4.329   0.107
 2677SOL    HW1 8930   3.180   4.426   0.102
 2677SOL    HW2 8931   3.134   4.276   0.057
 2678SOL     OW 8932   0.011   4.699   1.441
 2678SOL    HW1 8933   7.019   4.692   1.342
 2678SOL    HW2 8934   0.092   4.646   1.465
 2679SOL     OW 8935   3.704   5.234   0.631
 2679SOL    HW1 8936   3.706   5.163   0.701
 2679SOL    HW2 8937   3.791   5.237   0.583
 2680SOL     OW 8938   1.116   1.744   1.436
 2680SOL    HW1 8939   1.195   1.683   1.431
 2680SOL    HW2 8940   1.051   1.720   1.363
 2681SOL     OW 8941   1.495   2.295   4.061
 2681SOL    HW1 8942   1.500   2.216   4.122
 2681SOL    HW2 8943   1.516   2.378   4.113
 2682SOL     OW 8944   5.355   3.672   2.882
 2682SOL    HW1 8945   5.320   3.731   2.810
 2682SOL    HW2 8946   5.289   3.668   2.957
 2683SOL     OW 8947   1.453   4.150   0.070
 2683SOL    HW1 8948   1.387   4.078   0.089
 2683SOL    HW2 8949   1.420   4.237   0.107
 2684SOL     OW 8950   4.711   5.569   1.864
 2684SOL    HW1 8951   4.743   5.476   1.882
 2684SOL    HW2 8952   4.724   5.625   1.945
 2685SOL     OW 8953   6.017   6.024   6.286
 2685SOL    HW1 8954   6.019   6.036   6.187
 2685SOL    HW2 8955   6.001   5.927   6.308
 2686SOL     OW 8956   1.600   1.434   5.811
 2686SOL    HW1 8957   1.518   1.396   5.768
 2686SOL    HW2 8958   1.574   1.486   5.892
 2687SOL     OW 8959   4.606   4.337   2.977
 2687SOL    HW1 8960   4.673   4.407   2.999
 2687SOL    HW2 8961   4.610   4.317   2.879
 2688SOL     OW 8962   4.603   5.785   6.980
 2688SOL    HW1 8963   4.673   5.754   6.916
 2688SOL    HW2 8964   4.559   5.867   6.943
 2689SOL     OW 8965   2.263   2.207   3.540
 2689SOL    HW1 8966   2.307   2.135   3.486
 2689SOL    HW2 8967   2.236   2.171   3.629
 2690SOL     OW 8968   3.133   3.474   4.279
 2690SOL    HW1 8969   3.061   3.487   4.347
 2690SOL    HW2 8970   3.095   3.431   4.198
 2691SOL     OW 8971   1.078   5.855   2.245
 2691SOL    HW1 8972   1.094   5.796   2.324
 2691SOL    HW2 8973   1.129   5.820   2.167
 2692SOL     OW 8974   4.184   4.776   3.855
 2692SOL    HW1 8975   4.229   4.860   3.887
 2692SOL    HW2 8976   4.245   4.726   3.794
 2693SOL     OW 8977   1.848   4.219   2.833
 2693SOL    HW1 8978   1.760   4.172   2.823
 2693SOL    HW2 8979   1.892   4.191   2.918
 2694SOL     OW 8980   3.994   6.945   2.957
 2694SOL    HW1 8981   3.903   6.922   2.921
 2694SOL    HW2 8982   4.011   0.019   2.943
 2695SOL     OW 8983   5.775   0.865   2.605
 2695SOL    HW1 8984   5.750   0.772   2.630
 2695SOL    HW2 8985   5.733   0.889   2.517
 2696SOL     OW 8986   3.882   3.708   5.145
 2696SOL    HW1 8987   3.845   3.642   5.079
 2696SOL    HW2 8988   3.981   3.718   5.129
 2697SOL     OW 8989   4.205   1.216   3.314
 2697SOL    HW1 8990   4.119   1.264   3.297
 2697SOL    HW2 8991   4.221   1.209   3.412
 2698SOL     OW 8992   2.125   5.648   0.576
 2698SOL    HW1 8993   2.075   5.575   0.530
 2698SOL    HW2 8994   2.137   5.725   0.514
 2699SOL     OW 8995   3.562   5.911   0.320
 2699SOL    HW1 8996   3.577   5.894   0.417
 2699SOL    HW2 8997   3.613   5.842   0.267
 2700SOL     OW 8998   2.176   4.267   1.376
 2700SOL    HW1 8999   2.117   4.210   1.319
 2700SOL    HW2 9000   2.120   4.321   1.439
 2701SOL     OW 9001   3.104   0.504   6.473
 2701SOL    HW1 9002   3.079   0.410   6.448
 2701SOL    HW2 9003   3.119   0.557   6.390
 2702SOL     OW 9004   0.266   2.913   2.794
 2702SOL    HW1 9005   0.235   2.818   2.796
 2702SOL    HW2 9006   0.340   2.922   2.728
 2703SOL     OW 9007   2.405   0.316   2.498
 2703SOL    HW1 9008   2.430   0.254   2.424
 2703SOL    HW2 9009   2.310   0.347   2.485
 2704SOL     OW 9010   0.343   5.900   1.020
 2704SOL    HW1 9011   0.253   5.886   1.062
 2704SOL    HW2 9012   0.402   5.950   1.083
 2705SOL     OW 9013   1.653   5.551   4.831
 2705SOL    HW1 9014   1.606   5.611   4.896
 2705SOL    HW2 9015   1.633   5.581   4.738
 2706SOL     OW 9016   0.213   0.870   0.900
 2706SOL    HW1 9017   0.163   0.854   0.814
 2706SOL    HW2 9018   0.242   0.966   0.903
 2707SOL     OW 9019   2.254   1.088   5.160
 2707SOL    HW1 9020   2.218   1.179   5.179
 2707SOL    HW2 9021   2.188   1.019   5.191
 2708SOL     OW 9022   1.242   1.969   1.177
 2708SOL    HW1 9023   1.147   2.002   1.175
 2708SOL    HW2 9024   1.303   2.046   1.195
 2709SOL     OW 9025   5.635   6.651   0.339
 2709SOL    HW1 9026   5.727   6.688   0.355
 2709SOL    HW2 9027   5.641   6.570   0.280
 2710SOL     OW 9028   0.730   3.556   2.624
 2710SOL    HW1 9029   0.809   3.539   2.683
 2710SOL    HW2 9030   0.657   3.600   2.677
 2711SOL     OW 9031   2.706   1.181   3.155
 2711SOL    HW1 9032   2.803   1.155   3.156
 2711SOL    HW2 9033   2.683   1.221   3.067
 2712SOL     OW 9034   3.310   4.767   1.109
 2712SOL    HW1 9035   3.309   4.758   1.009
 2712SOL    HW2 9036   3.236   4.828   1.138
 2713SOL     OW 9037   1.999   2.289   5.023
 2713SOL    HW1 9038   1.924   2.333   4.974
 2713SOL    HW2 9039   2.073   2.356   5.036
 2714SOL     OW 9040   4.732   2.031   6.858
 2714SOL    HW1 9041   4.669   2.107   6.872
 2714SOL    HW2 9042   4.823   2.067   6.835
 2715SOL     OW 9043   5.610   0.644   0.096
 2715SOL    HW1 9044   5.610   0.547   0.121
 2715SOL    HW2 9045   5.654   0.697   0.168
 2716SOL     OW 9046   5.179   5.001   2.733
 2716SOL    HW1 9047   5.277   5.003   2.752
 2716SOL    HW2 9048   5.151   4.906   2.716
 2717SOL     OW 9049   2.009   5.074   2.182
 2717SOL    HW1 9050   2.004   5.104   2.087
 2717SOL    HW2 9051   2.082   5.124   2.230
 2718SOL     OW 9052   1.738   3.451   5.286
 2718SOL    HW1 9053   1.808   3.406   5.231
 2718SOL    HW2 9054   1.737   3.549   5.265
 2719SOL     OW 9055   6.002   5.566   1.494
 2719SOL    HW1 9056   6.039   5.506   1.564
 2719SOL    HW2 9057   6.067   5.640   1.475
 2720SOL     OW 9058   1.840   6.082   2.764
 2720SOL    HW1 9059   1.869   6.127   2.848
 2720SOL    HW2 9060   1.753   6.120   2.733
 2721SOL     OW 9061   3.422   0.673   3.842
 2721SOL    HW1 9062   3.404   0.771   3.837
 2721SOL    HW2 9063   3.372   0.627   3.768
 2722SOL     OW 9064   6.678   5.567   1.903
 2722SOL    HW1 9065   6.772   5.599   1.904
 2722SOL    HW2 9066   6.655   5.526   1.992
 2723SOL     OW 9067   1.501   6.668   6.002
 2723SOL    HW1 9068   1.443   6.605   6.054
 2723SOL    HW2 9069   1.487   6.761   6.036
 2724SOL     OW 9070   2.489   6.950   6.406
 2724SOL    HW1 9071   2.412   6.892   6.432
 2724SOL    HW2 9072   2.466   7.001   6.323
 2725SOL     OW 9073   6.169   4.763   4.077
 2725SOL    HW1 9074   6.083   4.718   4.053
 2725SOL    HW2 9075   6.188   4.836   4.012
 2726SOL     OW 9076   6.940   4.311   1.010
 2726SOL    HW1 9077   6.852   4.291   1.054
 2726SOL    HW2 9078   7.014   4.280   1.070
 2727SOL     OW 9079   0.608   4.735   3.214
 2727SOL    HW1 9080   0.629   4.637   3.212
 2727SOL    HW2 9081   0.648   4.776   3.295
 2728SOL     OW 9082   3.604   0.082   5.863
 2728SOL    HW1 9083   3.621   0.004   5.802
 2728SOL    HW2 9084   3.571   0.049   5.951
 2729SOL     OW 9085   6.049   5.584   0.984
 2729SOL    HW1 9086   6.057   5.540   1.074
 2729SOL    HW2 9087   6.104   5.668   0.983
 2730SOL     OW 9088   1.501   5.521   1.853
 2730SOL    HW1 9089   1.434   5.522   1.778
 2730SOL    HW2 9090   1.476   5.589   1.921
 2731SOL     OW 9091   3.907   3.495   1.858
 2731SOL    HW1 9092   3.955   3.514   1.772
 2731SOL    HW2 9093   3.973   3.497   1.933
 2732SOL     OW 9094   5.477   3.340   2.028
 2732SOL    HW1 9095   5.434   3.273   2.089
 2732SOL    HW2 9096   5.453   3.432   2.057
 2733SOL     OW 9097   0.430   0.220   4.852
 2733SOL    HW1 9098   0.500   0.150   4.869
 2733SOL    HW2 9099   0.372   0.191   4.776
 2734SOL     OW 9100   2.264   5.733   2.143
 2734SOL    HW1 9101   2.257   5.833   2.134
 2734SOL    HW2 9102   2.232   5.690   2.059
 2735SOL     OW 9103   0.943   3.764   2.917
 2735SOL    HW1 9104   0.877   3.695   2.946
 2735SOL    HW2 9105   1.031   3.720   2.901
 2736SOL     OW 9106   4.697   0.220   4.568
 2736SOL    HW1 9107   4.621   0.282   4.587
 2736SOL    HW2 9108   4.697   0.145   4.635
 2737SOL     OW 9109   3.631   3.644   5.301
 2737SOL    HW1 9110   3.714   3.680   5.259
 2737SOL    HW2 9111   3.625   3.545   5.285
 2738SOL     OW 9112   5.626   4.905   4.088
 2738SOL    HW1 9113   5.640   5.003   4.073
 2738SOL    HW2 9114   5.627   4.887   4.186
 2739SOL     OW 9115   6.474   5.098   0.344
 2739SOL    HW1 9116   6.568   5.114   0.315
 2739SOL    HW2 9117   6.411   5.134   0.274
 2740SOL     OW 9118   6.311   3.872   2.238
 2740SOL    HW1 9119   6.390   3.878   2.299
 2740SOL    HW2 9120   6.302   3.778   2.205
 2741SOL     OW 9121   6.957   1.022   5.277
 2741SOL    HW1 9122   6.862   1.018   5.246
 2741SOL    HW2 9123   6.997   0.930   5.274
 2742SOL     OW 9124   1.672   4.549   6.803
 2742SOL    HW1 9125   1.661   4.552   6.704
 2742SOL    HW2 9126   1.750   4.607   6.829
 2743SOL     OW 9127   6.273   5.273   1.998
 2743SOL    HW1 9128   6.254   5.181   2.032
 2743SOL    HW2 9129   6.345   5.315   2.052
 2744SOL     OW 9130   4.637   1.827   6.990
 2744SOL    HW1 9131   4.704   1.755   6.974
 2744SOL    HW2 9132   4.668   1.912   6.949
 2745SOL     OW 9133   0.998   6.448   6.680
 2745SOL    HW1 9134   1.032   6.391   6.605
 2745SOL    HW2 9135   0.988   6.392   6.762
 2746SOL     OW 9136   2.610   1.843   3.811
 2746SOL    HW1 9137   2.662   1.928   3.804
 2746SOL    HW2 9138   2.673   1.767   3.831
 2747SOL     OW 9139   5.349   3.517   5.934
 2747SOL    HW1 9140   5.415   3.591   5.920
 2747SOL    HW2 9141   5.311   3.489   5.846
 2748SOL     OW 9142   3.764   1.862   0.967
 2748SOL    HW1 9143   3.771   1.856   0.867
 2748SOL    HW2 9144   3.731   1.775   1.003
 2749SOL     OW 9145   5.894   4.670   3.949
 2749SOL    HW1 9146   5.833   4.651   4.026
 2749SOL    HW2 9147   5.879   4.603   3.877
 2750SOL     OW 9148   0.737   5.383   1.416
 2750SOL    HW1 9149   0.684   5.436   1.349
 2750SOL    HW2 9150   0.776   5.445   1.484
 2751SOL     OW 9151   0.972   6.148   0.378
 2751SOL    HW1 9152   0.888   6.096   0.387
 2751SOL    HW2 9153   0.995   6.157   0.281
 2752SOL     OW 9154   5.082   4.466   5.118
 2752SOL    HW1 9155   5.125   4.387   5.075
 2752SOL    HW2 9156   5.012   4.435   5.183
 2753SOL     OW 9157   1.344   0.153   6.335
 2753SOL    HW1 9158   1.271   0.206   6.377
 2753SOL    HW2 9159   1.367   0.191   6.245
 2754SOL     OW 9160   6.634   0.824   4.192
 2754SOL    HW1 9161   6.645   0.922   4.210
 2754SOL    HW2 9162   6.542   0.807   4.158
 2755SOL     OW 9163   3.111   6.705   3.360
 2755SOL    HW1 9164   3.173   6.725   3.435
 2755SOL    HW2 9165   3.029   6.761   3.368
 2756SOL     OW 9166   6.504   3.828   5.270
 2756SOL    HW1 9167   6.591   3.809   5.315
 2756SOL    HW2 9168   6.441   3.752   5.286
 2757SOL     OW 9169   2.256   1.219   6.376
 2757SOL    HW1 9170   2.245   1.249   6.281
 2757SOL    HW2 9171   2.200   1.138   6.392
 2758SOL     OW 9172   5.244   6.220   3.698
 2758SOL    HW1 9173   5.329   6.247   3.743
 2758SOL    HW2 9174   5.188   6.167   3.761
 2759SOL     OW 9175   4.454   5.304   5.621
 2759SOL    HW1 9176   4.404   5.389   5.639
 2759SOL    HW2 9177   4.422   5.264   5.535
 2760SOL     OW 9178   6.762   5.062   2.842
 2760SOL    HW1 9179   6.662   5.058   2.852
 2760SOL    HW2 9180   6.792   5.157   2.848
 2761SOL     OW 9181   1.754   4.269   4.365
 2761SOL    HW1 9182   1.753   4.353   4.421
 2761SOL    HW2 9183   1.848   4.248   4.338
 2762SOL     OW 9184   1.699   1.935   6.757
 2762SOL    HW1 9185   1.725   2.013   6.700
 2762SOL    HW2 9186   1.631   1.965   6.825
 2763SOL     OW 9187   4.792   2.178   5.324
 2763SOL    HW1 9188   4.808   2.269   5.284
 2763SOL    HW2 9189   4.737   2.188   5.407
 2764SOL     OW 9190   0.230   6.091   2.473
 2764SOL    HW1 9191   0.196   6.118   2.382
 2764SOL    HW2 9192   0.324   6.059   2.465
 2765SOL     OW 9193   6.870   0.259   0.804
 2765SOL    HW1 9194   6.836   0.237   0.712
 2765SOL    HW2 9195   6.969   0.269   0.801
 2766SOL     OW 9196   3.762   2.130   6.576
 2766SOL    HW1 9197   3.824   2.057   6.549
 2766SOL    HW2 9198   3.813   2.216   6.586
 2767SOL     OW 9199   6.371   5.483   6.337
 2767SOL    HW1 9200   6.399   5.434   6.255
 2767SOL    HW2 9201   6.275   5.462   6.358
 2768SOL     OW 9202   4.298   1.276   0.223
 2768SOL    HW1 9203   4.261   1.335   0.152
 2768SOL    HW2 9204   4.269   1.310   0.313
 2769SOL     OW 9205   2.461   4.604   6.405
 2769SOL    HW1 9206   2.453   4.694   6.449
 2769SOL    HW2 9207   2.397   4.599   6.328
 2770SOL     OW 9208   3.985   5.191   5.687
 2770SOL    HW1 9209   4.074   5.147   5.699
 2770SOL    HW2 9210   3.977   5.267   5.752
 2771SOL     OW 9211   5.903   0.906   4.812
 2771SOL    HW1 9212   5.883   0.965   4.890
 2771SOL    HW2 9213   6.001   0.890   4.806
 2772SOL     OW 9214   3.129   1.337   1.075
 2772SOL    HW1 9215   3.100   1.329   0.980
 2772SOL    HW2 9216   3.109   1.429   1.109
 2773SOL     OW 9217   6.765   2.772   4.377
 2773SOL    HW1 9218   6.782   2.869   4.393
 2773SOL    HW2 9219   6.835   2.736   4.315
 2774SOL     OW 9220   4.815   3.010   3.059
 2774SOL    HW1 9221   4.717   3.029   3.051
 2774SOL    HW2 9222   4.867   3.086   3.021
 2775SOL     OW 9223   6.384   3.245   4.377
 2775SOL    HW1 9224   6.364   3.240   4.280
 2775SOL    HW2 9225   6.479   3.216   4.393
 2776SOL     OW 9226   5.500   4.421   5.654
 2776SOL    HW1 9227   5.412   4.430   5.607
 2776SOL    HW2 9228   5.568   4.385   5.591
 2777SOL     OW 9229   2.469   1.644   0.696
 2777SOL    HW1 9230   2.521   1.572   0.648
 2777SOL    HW2 9231   2.428   1.606   0.779
 2778SOL     OW 9232   1.603   6.261   6.786
 2778SOL    HW1 9233   1.656   6.323   6.728
 2778SOL    HW2 9234   1.641   6.168   6.779
 2779SOL     OW 9235   5.473   6.642   1.815
 2779SOL    HW1 9236   5.522   6.557   1.795
 2779SOL    HW2 9237   5.530   6.701   1.872
 2780SOL     OW 9238   6.971   0.106   5.790
 2780SOL    HW1 9239   6.874   0.112   5.814
 2780SOL    HW2 9240   6.981   0.096   5.691
 2781SOL     OW 9241   6.142   0.461   3.323
 2781SOL    HW1 9242   6.091   0.413   3.394
 2781SOL    HW2 9243   6.109   0.555   3.317
 2782SOL     OW 9244   4.651   1.194   4.670
 2782SOL    HW1 9245   4.572   1.245   4.635
 2782SOL    HW2 9246   4.668   1.115   4.612
 2783SOL     OW 9247   6.941   4.036   1.523
 2783SOL    HW1 9248   7.011   3.972   1.491
 2783SOL    HW2 9249   6.893   4.075   1.444
 2784SOL     OW 9250   3.188   1.298   1.970
 2784SOL    HW1 9251   3.214   1.276   1.876
 2784SOL    HW2 9252   3.227   1.386   1.997
 2785SOL     OW 9253   5.099   2.367   0.307
 2785SOL    HW1 9254   5.015   2.421   0.313
 2785SOL    HW2 9255   5.169   2.409   0.365
 2786SOL     OW 9256   6.478   6.554   1.353
 2786SOL    HW1 9257   6.452   6.591   1.264
 2786SOL    HW2 9258   6.577   6.551   1.360
 2787SOL     OW 9259   6.260   6.275   5.399
 2787SOL    HW1 9260   6.170   6.306   5.369
 2787SOL    HW2 9261   6.294   6.335   5.470
 2788SOL     OW 9262   2.898   6.774   5.962
 2788SOL    HW1 9263   2.798   6.763   5.957
 2788SOL    HW2 9264   2.941   6.684   5.970
 2789SOL     OW 9265   1.845   1.381   3.431
 2789SOL    HW1 9266   1.917   1.352   3.368
 2789SOL    HW2 9267   1.759   1.335   3.408
 2790SOL     OW 9268   3.323   5.254   0.908
 2790SOL    HW1 9269   3.234   5.298   0.907
 2790SOL    HW2 9270   3.341   5.215   0.998
 2791SOL     OW 9271   0.978   4.309   2.380
 2791SOL    HW1 9272   0.934   4.272   2.298
 2791SOL    HW2 9273   0.958   4.407   2.387
 2792SOL     OW 9274   3.152   0.837   4.317
 2792SOL    HW1 9275   3.099   0.778   4.256
 2792SOL    HW2 9276   3.238   0.863   4.272
 2793SOL     OW 9277   5.209   3.858   2.251
 2793SOL    HW1 9278   5.269   3.805   2.312
 2793SOL    HW2 9279   5.256   3.943   2.224
 2794SOL     OW 9280   6.477   2.240   6.173
 2794SOL    HW1 9281   6.524   2.292   6.102
 2794SOL    HW2 9282   6.453   2.150   6.137
 2795SOL     OW 9283   0.241   4.151   1.154
 2795SOL    HW1 9284   0.336   4.138   1.181
 2795SOL    HW2 9285   0.201   4.062   1.131
 2796SOL     OW 9286   0.264   5.574   3.712
 2796SOL    HW1 9287   0.323   5.496   3.689
 2796SOL    HW2 9288   0.316   5.659   3.701
 2797SOL     OW 9289   5.661   5.008   5.562
 2797SOL    HW1 9290   5.725   4.931   5.564
 2797SOL    HW2 9291   5.688   5.072   5.490
 2798SOL     OW 9292   5.903   5.688   2.557
 2798SOL    HW1 9293   5.842   5.740   2.617
 2798SOL    HW2 9294   5.919   5.598   2.596
 2799SOL     OW 9295   5.433   6.065   5.771
 2799SOL    HW1 9296   5.454   6.075   5.869
 2799SOL    HW2 9297   5.424   5.968   5.749
 2800SOL     OW 9298   5.563   0.039   5.774
 2800SOL    HW1 9299   5.606   0.119   5.816
 2800SOL    HW2 9300   5.525   7.003   5.844
 2801SOL     OW 9301   0.718   5.483   6.267
 2801SOL    HW1 9302   0.793   5.535   6.224
 2801SOL    HW2 9303   0.647   5.466   6.199
 2802SOL     OW 9304   6.577   6.109   5.388
 2802SOL    HW1 9305   6.641   6.184   5.404
 2802SOL    HW2 9306   6.515   6.101   5.465
 2803SOL     OW 9307   3.411   4.837   5.751
 2803SOL    HW1 9308   3.341   4.771   5.722
 2803SOL    HW2 9309   3.501   4.794   5.746
 2804SOL     OW 9310   0.518   3.968   4.317
 2804SOL    HW1 9311   0.471   4.036   4.373
 2804SOL    HW2 9312   0.453   3.896   4.290
 2805SOL     OW 9313   5.897   3.736   2.760
 2805SOL    HW1 9314   5.885   3.678   2.840
 2805SOL    HW2 9315   5.905   3.680   2.678
 2806SOL     OW 9316   1.814   4.105   6.242
 2806SOL    HW1 9317   1.909   4.133   6.257
 2806SOL    HW2 9318   1.778   4.062   6.324
 2807SOL     OW 9319   4.146   0.337   3.225
 2807SOL    HW1 9320   4.192   0.325   3.313
 2807SOL    HW2 9321   4.049   0.353   3.240
 2808SOL     OW 9322   6.415   5.560   0.549
 2808SOL    HW1 9323   6.512   5.570   0.569
 2808SOL    HW2 9324   6.389   5.464   0.554
 2809SOL     OW 9325   5.507   2.083   1.453
 2809SOL    HW1 9326   5.447   2.148   1.500
 2809SOL    HW2 9327   5.472   2.067   1.360
 2810SOL     OW 9328   2.457   5.722   3.138
 2810SOL    HW1 9329   2.541   5.758   3.097
 2810SOL    HW2 9330   2.434   5.635   3.095
 2811SOL     OW 9331   0.694   1.600   2.725
 2811SOL    HW1 9332   0.660   1.533   2.791
 2811SOL    HW2 9333   0.786   1.629   2.753
 2812SOL     OW 9334   5.903   3.459   0.690
 2812SOL    HW1 9335   5.961   3.400   0.634
 2812SOL    HW2 9336   5.959   3.524   0.741
 2813SOL     OW 9337   0.786   2.105   0.621
 2813SOL    HW1 9338   0.759   2.034   0.686
 2813SOL    HW2 9339   0.886   2.116   0.624
 2814SOL     OW 9340   3.353   4.138   5.441
 2814SOL    HW1 9341   3.355   4.213   5.375
 2814SOL    HW2 9342   3.277   4.151   5.505
 2815SOL     OW 9343   6.595   5.190   6.122
 2815SOL    HW1 9344   6.505   5.217   6.088
 2815SOL    HW2 9345   6.665   5.250   6.084
 2816SOL     OW 9346   6.337   6.131   4.424
 2816SOL    HW1 9347   6.397   6.085   4.359
 2816SOL    HW2 9348   6.290   6.063   4.480
 2817SOL     OW 9349   3.403   1.251   2.695
 2817SOL    HW1 9350   3.315   1.228   2.653
 2817SOL    HW2 9351   3.421   1.188   2.770
 2818SOL     OW 9352   6.717   1.219   2.450
 2818SOL    HW1 9353   6.758   1.308   2.428
 2818SOL    HW2 9354   6.702   1.213   2.549
 2819SOL     OW 9355   1.617   0.569   1.911
 2819SOL    HW1 9356   1.678   0.491   1.897
 2819SOL    HW2 9357   1.659   0.631   1.978
 2820SOL     OW 9358   1.033   2.183   2.303
 2820SOL    HW1 9359   1.062   2.091   2.276
 2820SOL    HW2 9360   1.094   2.251   2.264
 2821SOL     OW 9361   2.634   5.053   5.869
 2821SOL    HW1 9362   2.620   4.956   5.889
 2821SOL    HW2 9363   2.560   5.085   5.810
 2822SOL     OW 9364   4.092   2.230   7.008
 2822SOL    HW1 9365   4.135   2.200   6.923
 2822SOL    HW2 9366   4.038   2.154   0.022
 2823SOL     OW 9367   6.249   0.650   0.051
 2823SOL    HW1 9368   6.168   0.616   0.003
 2823SOL    HW2 9369   6.226   0.667   0.146
 2824SOL     OW 9370   1.629   2.652   5.523
 2824SOL    HW1 9371   1.555   2.697   5.474
 2824SOL    HW2 9372   1.650   2.565   5.478
 2825SOL     OW 9373   5.351   0.509   5.978
 2825SOL    HW1 9374   5.399   0.467   6.055
 2825SOL    HW2 9375   5.328   0.439   5.910
 2826SOL     OW 9376   2.812   3.387   6.658
 2826SOL    HW1 9377   2.811   3.358   6.562
 2826SOL    HW2 9378   2.718   3.399   6.690
 2827SOL     OW 9379   0.416   0.953   6.489
 2827SOL    HW1 9380   0.356   0.874   6.481
 2827SOL    HW2 9381   0.427   0.996   6.399
 2828SOL     OW 9382   2.276   3.779   0.866
 2828SOL    HW1 9383   2.314   3.727   0.790
 2828SOL    HW2 9384   2.314   3.872   0.865
 2829SOL     OW 9385   3.039   3.207   3.416
 2829SOL    HW1 9386   2.972   3.237   3.348
 2829SOL    HW2 9387   2.994   3.197   3.505
 2830SOL     OW 9388   3.337   4.400   5.304
 2830SOL    HW1 9389   3.319   4.491   5.340
 2830SOL    HW2 9390   3.252   4.360   5.269
 2831SOL     OW 9391   0.631   3.025   2.899
 2831SOL    HW1 9392   0.680   2.945   2.932
 2831SOL    HW2 9393   0.542   3.031   2.943
 2832SOL     OW 9394   0.939   3.045   1.884
 2832SOL    HW1 9395   1.027   3.056   1.837
 2832SOL    HW2 9396   0.937   3.102   1.966
 2833SOL     OW 9397   2.563   1.646   1.900
 2833SOL    HW1 9398   2.622   1.724   1.878
 2833SOL    HW2 9399   2.618   1.573   1.941
 2834SOL     OW 9400   4.499   6.226   4.430
 2834SOL    HW1 9401   4.503   6.133   4.393
 2834SOL    HW2 9402   4.511   6.292   4.356
 2835SOL     OW 9403   0.864   6.627   0.438
 2835SOL    HW1 9404   0.937   6.560   0.428
 2835SOL    HW2 9405   0.822   6.645   0.349
 2836SOL     OW 9406   1.663   6.269   1.762
 2836SOL    HW1 9407   1.723   6.191   1.783
 2836SOL    HW2 9408   1.695   6.313   1.678
 2837SOL     OW 9409   5.326   4.455   2.685
 2837SOL    HW1 9410   5.422   4.426   2.689
 2837SOL    HW2 9411   5.319   4.543   2.639
 2838SOL     OW 9412   4.954   3.560   0.596
 2838SOL    HW1 9413   5.001   3.570   0.684
 2838SOL    HW2 9414   4.980   3.635   0.536
 2839SOL     OW 9415   0.326   3.029   2.408
 2839SOL    HW1 9416   0.255   3.041   2.477
 2839SOL    HW2 9417   0.414   3.015   2.454
 2840SOL     OW 9418   1.901   5.583   2.787
 2840SOL    HW1 9419   1.999   5.568   2.801
 2840SOL    HW2 9420   1.877   5.675   2.820
 2841SOL     OW 9421   6.202   2.147   0.142
 2841SOL    HW1 9422   6.212   2.143   0.043
 2841SOL    HW2 9423   6.188   2.054   0.178
 2842SOL     OW 9424   0.935   5.867   4.774
 2842SOL    HW1 9425   0.881   5.839   4.695
 2842SOL    HW2 9426   0.891   5.836   4.858
 2843SOL     OW 9427   2.476   1.379   2.424
 2843SOL    HW1 9428   2.394   1.435   2.431
 2843SOL    HW2 9429   2.504   1.372   2.328
 2844SOL     OW 9430   5.777   5.244   1.305
 2844SOL    HW1 9431   5.751   5.252   1.209
 2844SOL    HW2 9432   5.725   5.169   1.347
 2845SOL     OW 9433   5.253   3.039   2.638
 2845SOL    HW1 9434   5.234   3.136   2.628
 2845SOL    HW2 9435   5.292   3.003   2.553
 2846SOL     OW 9436   2.936   0.529   0.485
 2846SOL    HW1 9437   2.930   0.444   0.539
 2846SOL    HW2 9438   2.941   0.506   0.388
 2847SOL     OW 9439   4.903   3.774   2.399
 2847SOL    HW1 9440   4.954   3.748   2.318
 2847SOL    HW2 9441   4.835   3.844   2.375
 2848SOL     OW 9442   2.776   2.495   5.650
 2848SOL    HW1 9443   2.684   2.498   5.611
 2848SOL    HW2 9444   2.783   2.418   5.713
 2849SOL     OW 9445   3.638   1.135   1.542
 2849SOL    HW1 9446   3.559   1.092   1.499
 2849SOL    HW2 9447   3.615   1.229   1.569
 2850SOL     OW 9448   2.485   6.958   3.301
 2850SOL    HW1 9449   2.452   6.865   3.283
 2850SOL    HW2 9450   2.559   6.980   3.237
 2851SOL     OW 9451   4.387   3.172   6.548
 2851SOL    HW1 9452   4.362   3.212   6.636
 2851SOL    HW2 9453   4.436   3.086   6.564
 2852SOL     OW 9454   6.043   4.166   0.263
 2852SOL    HW1 9455   5.996   4.088   0.303
 2852SOL    HW2 9456   6.142   4.157   0.279
 2853SOL     OW 9457   0.940   3.667   0.178
 2853SOL    HW1 9458   0.841   3.668   0.166
 2853SOL    HW2 9459   0.971   3.758   0.204
 2854SOL     OW 9460   3.451   0.744   6.000
 2854SOL    HW1 9461   3.354   0.768   6.012
 2854SOL    HW2 9462   3.459   0.645   5.989
 2855SOL     OW 9463   0.966   2.743   4.758
 2855SOL    HW1 9464   1.060   2.771   4.739
 2855SOL    HW2 9465   0.948   2.655   4.713
 2856SOL     OW 9466   1.311   3.071   4.102
 2856SOL    HW1 9467   1.398   3.048   4.058
 2856SOL    HW2 9468   1.302   3.019   4.187
 2857SOL     OW 9469   0.218   2.958   0.962
 2857SOL    HW1 9470   0.257   2.989   1.049
 2857SOL    HW2 9471   0.292   2.936   0.898
 2858SOL     OW 9472   5.159   6.402   2.365
 2858SOL    HW1 9473   5.231   6.338   2.392
 2858SOL    HW2 9474   5.089   6.407   2.436
 2859SOL     OW 9475   6.077   6.629   0.358
 2859SOL    HW1 9476   6.004   6.653   0.294
 2859SOL    HW2 9477   6.165   6.628   0.309
 2860SOL     OW 9478   1.794   6.815   2.320
 2860SOL    HW1 9479   1.735   6.896   2.315
 2860SOL    HW2 9480   1.812   6.781   2.228
 2861SOL     OW 9481   3.404   5.986   5.072
 2861SOL    HW1 9482   3.444   5.909   5.121
 2861SOL    HW2 9483   3.312   5.961   5.042
 2862SOL     OW 9484   4.410   2.188   1.834
 2862SOL    HW1 9485   4.461   2.225   1.912
 2862SOL    HW2 9486   4.423   2.246   1.755
 2863SOL     OW 9487   4.978   1.265   6.779
 2863SOL    HW1 9488   5.011   1.345   6.728
 2863SOL    HW2 9489   4.917   1.211   6.721
 2864SOL     OW 9490   4.553   2.747   0.994
 2864SOL    HW1 9491   4.639   2.732   1.043
 2864SOL    HW2 9492   4.491   2.671   1.009
 2865SOL     OW 9493   4.423   6.692   4.055
 2865SOL    HW1 9494   4.340   6.667   4.106
 2865SOL    HW2 9495   4.404   6.771   3.996
 2866SOL     OW 9496   5.839   3.763   6.946
 2866SOL    HW1 9497   5.750   3.729   6.977
 2866SOL    HW2 9498   5.841   3.763   6.846
 2867SOL     OW 9499   6.136   6.269   2.236
 2867SOL    HW1 9500   6.201   6.213   2.183
 2867SOL    HW2 9501   6.064   6.210   2.272
 2868SOL     OW 9502   1.251   1.520   5.414
 2868SOL    HW1 9503   1.307   1.569   5.346
 2868SOL    HW2 9504   1.244   1.576   5.497
 2869SOL     OW 9505   6.542   0.562   3.862
 2869SOL    HW1 9506   6.448   0.566   3.896
 2869SOL    HW2 9507   6.549   0.612   3.776
 2870SOL     OW 9508   0.347   1.915   6.563
 2870SOL    HW1 9509   0.268   1.867   6.525
 2870SOL    HW2 9510   0.399   1.853   6.622
 2871SOL     OW 9511   6.423   0.565   0.338
 2871SOL    HW1 9512   6.445   0.495   0.270
 2871SOL    HW2 9513   6.343   0.536   0.391
 2872SOL     OW 9514   2.726   2.031   0.992
 2872SOL    HW1 9515   2.652   2.012   1.056
 2872SOL    HW2 9516   2.790   1.955   0.991
 2873SOL     OW 9517   6.820   6.492   2.468
 2873SOL    HW1 9518   6.793   6.471   2.373
 2873SOL    HW2 9519   6.894   6.559   2.467
 2874SOL     OW 9520   4.208   6.651   3.307
 2874SOL    HW1 9521   4.117   6.659   3.349
 2874SOL    HW2 9522   4.245   6.560   3.324
 2875SOL     OW 9523   4.144   6.693   3.034
 2875SOL    HW1 9524   4.177   6.704   3.128
 2875SOL    HW2 9525   4.121   6.782   2.996
 2876SOL     OW 9526   1.246   6.808   2.704
 2876SOL    HW1 9527   1.337   6.808   2.663
 2876SOL    HW2 9528   1.194   6.887   2.670
 2877SOL     OW 9529   2.138   0.625   6.220
 2877SOL    HW1 9530   2.165   0.530   6.236
 2877SOL    HW2 9531   2.062   0.628   6.155
 2878SOL     OW 9532   3.190   3.599   5.240
 2878SOL    HW1 9533   3.224   3.664   5.172
 2878SOL    HW2 9534   3.192   3.641   5.330
 2879SOL     OW 9535   4.762   5.016   5.592
 2879SOL    HW1 9536   4.691   5.055   5.651
 2879SOL    HW2 9537   4.771   4.918   5.610
 2880SOL     OW 9538   0.100   2.018   3.864
 2880SOL    HW1 9539   0.145   2.071   3.792
 2880SOL    HW2 9540   0.005   2.001   3.839
 2881SOL     OW 9541   3.403   6.115   6.763
 2881SOL    HW1 9542   3.317   6.154   6.732
 2881SOL    HW2 9543   3.420   6.141   6.858
 2882SOL     OW 9544   6.520   5.910   1.248
 2882SOL    HW1 9545   6.492   5.997   1.289
 2882SOL    HW2 9546   6.475   5.834   1.296
 2883SOL     OW 9547   5.803   6.868   3.028
 2883SOL    HW1 9548   5.751   6.783   3.015
 2883SOL    HW2 9549   5.896   6.856   2.994
 2884SOL     OW 9550   0.017   5.927   2.538
 2884SOL    HW1 9551   0.093   5.990   2.520
 2884SOL    HW2 9552   6.956   5.980   2.551
 2885SOL     OW 9553   1.240   2.388   4.580
 2885SOL    HW1 9554   1.295   2.448   4.522
 2885SOL    HW2 9555   1.227   2.300   4.535
 2886SOL     OW 9556   1.653   4.247   6.571
 2886SOL    HW1 9557   1.640   4.279   6.665
 2886SOL    HW2 9558   1.683   4.152   6.571
 2887SOL     OW 9559   7.023   5.997   4.693
 2887SOL    HW1 9560   7.005   5.991   4.791
 2887SOL    HW2 9561   7.022   6.093   4.664
 2888SOL     OW 9562   0.247   4.962   0.254
 2888SOL    HW1 9563   0.231   5.059   0.272
 2888SOL    HW2 9564   0.221   4.941   0.160
 2889SOL     OW 9565   3.307   6.925   2.725
 2889SOL    HW1 9566   3.244   6.981   2.779
 2889SOL    HW2 9567   3.351   6.857   2.784
 2890SOL     OW 9568   1.917   5.921   1.059
 2890SOL    HW1 9569   1.963   5.875   0.983
 2890SOL    HW2 9570   1.984   5.975   1.111
 2891SOL     OW 9571   1.272   3.335   3.631
 2891SOL    HW1 9572   1.245   3.383   3.547
 2891SOL    HW2 9573   1.201   3.344   3.700
 2892SOL     OW 9574   5.730   2.949   1.491
 2892SOL    HW1 9575   5.667   3.007   1.542
 2892SOL    HW2 9576   5.690   2.924   1.403
 2893SOL     OW 9577   1.407   5.142   4.651
 2893SOL    HW1 9578   1.438   5.208   4.582
 2893SOL    HW2 9579   1.399   5.188   4.740
 2894SOL     OW 9580   1.663   3.752   1.599
 2894SOL    HW1 9581   1.754   3.794   1.600
 2894SOL    HW2 9582   1.608   3.789   1.674
 2895SOL     OW 9583   4.383   0.729   6.000
 2895SOL    HW1 9584   4.369   0.656   5.933
 2895SOL    HW2 9585   4.439   0.695   6.075
 2896SOL     OW 9586   4.336   0.204   5.344
 2896SOL    HW1 9587   4.415   0.142   5.346
 2896SOL    HW2 9588   4.264   0.168   5.403
 2897SOL     OW 9589   3.817   5.059   2.667
 2897SOL    HW1 9590   3.786   5.145   2.707
 2897SOL    HW2 9591   3.813   4.987   2.737
 2898SOL     OW 9592   5.111   4.045   4.173
 2898SOL    HW1 9593   5.190   3.996   4.137
 2898SOL    HW2 9594   5.043   3.979   4.204
 2899SOL     OW 9595   6.517   2.101   0.394
 2899SOL    HW1 9596   6.546   2.049   0.314
 2899SOL    HW2 9597   6.420   2.125   0.385
 2900SOL     OW 9598   3.646   4.913   6.480
 2900SOL    HW1 9599   3.605   4.873   6.398
 2900SOL    HW2 9600   3.709   4.847   6.521
 2901SOL     OW 9601   1.885   4.834   3.492
 2901SOL    HW1 9602   1.852   4.877   3.408
 2901SOL    HW2 9603   1.822   4.762   3.521
 2902SOL     OW 9604   6.446   5.064   3.800
 2902SOL    HW1 9605   6.450   4.982   3.743
 2902SOL    HW2 9606   6.538   5.089   3.829
 2903SOL     OW 9607   4.206   6.344   0.721
 2903SOL    HW1 9608   4.170   6.390   0.802
 2903SOL    HW2 9609   4.259   6.410   0.667
 2904SOL     OW 9610   3.255   5.249   4.989
 2904SOL    HW1 9611   3.293   5.286   5.074
 2904SOL    HW2 9612   3.158   5.227   5.001
 2905SOL     OW 9613   1.211   3.981   4.246
 2905SOL    HW1 9614   1.268   4.031   4.310
 2905SOL    HW2 9615   1.171   3.902   4.292
 2906SOL     OW 9616   5.423   5.913   2.582
 2906SOL    HW1 9617   5.470   6.001   2.584
 2906SOL    HW2 9618   5.389   5.891   2.673
 2907SOL     OW 9619   0.614   1.871   4.212
 2907SOL    HW1 9620   0.662   1.895   4.128
 2907SOL    HW2 9621   0.640   1.935   4.284
 2908SOL     OW 9622   5.315   6.582   3.634
 2908SOL    HW1 9623   5.301   6.498   3.581
 2908SOL    HW2 9624   5.336   6.658   3.571
 2909SOL     OW 9625   1.891   6.218   3.553
 2909SOL    HW1 9626   1.859   6.179   3.466
 2909SOL    HW2 9627   1.815   6.264   3.598
 2910SOL     OW 9628   6.941   0.795   3.674
 2910SOL    HW1 9629   0.014   0.821   3.674
 2910SOL    HW2 9630   6.899   0.824   3.760
 2911SOL     OW 9631   1.870   5.057   3.867
 2911SOL    HW1 9632   1.772   5.071   3.882
 2911SOL    HW2 9633   1.916   5.048   3.955
 2912SOL     OW 9634   6.257   6.203   6.792
 2912SOL    HW1 9635   6.271   6.274   6.861
 2912SOL    HW2 9636   6.255   6.245   6.701
 2913SOL     OW 9637   3.434   5.272   2.104
 2913SOL    HW1 9638   3.513   5.329   2.078
 2913SOL    HW2 9639   3.396   5.230   2.022
 2914SOL     OW 9640   6.046   6.047   0.835
 2914SOL    HW1 9641   6.087   6.028   0.746
 2914SOL    HW2 9642   5.987   5.971   0.861
 2915SOL     OW 9643   3.012   1.613   3.785
 2915SOL    HW1 9644   3.017   1.658   3.874
 2915SOL    HW2 9645   2.998   1.682   3.714
 2916SOL     OW 9646   1.493   5.348   0.295
 2916SOL    HW1 9647   1.562   5.285   0.331
 2916SOL    HW2 9648   1.529   5.392   0.213
 2917SOL     OW 9649   3.556   0.536   4.451
 2917SOL    HW1 9650   3.486   0.465   4.443
 2917SOL    HW2 9651   3.532   0.614   4.393
 2918SOL     OW 9652   5.873   3.634   6.313
 2918SOL    HW1 9653   5.888   3.680   6.225
 2918SOL    HW2 9654   5.930   3.676   6.383
 2919SOL     OW 9655   6.413   0.364   3.312
 2919SOL    HW1 9656   6.419   0.296   3.239
 2919SOL    HW2 9657   6.319   0.399   3.316
 2920SOL     OW 9658   3.483   0.249   1.716
 2920SOL    HW1 9659   3.473   0.315   1.641
 2920SOL    HW2 9660   3.577   0.216   1.718
 2921SOL     OW 9661   0.790   6.878   5.679
 2921SOL    HW1 9662   0.743   6.809   5.625
 2921SOL    HW2 9663   0.737   6.963   5.678
 2922SOL     OW 9664   4.248   5.929   1.569
 2922SOL    HW1 9665   4.207   5.968   1.651
 2922SOL    HW2 9666   4.187   5.859   1.531
 2923SOL     OW 9667   6.849   5.241   4.271
 2923SOL    HW1 9668   6.920   5.264   4.337
 2923SOL    HW2 9669   6.760   5.273   4.305
 2924SOL     OW 9670   0.336   2.292   4.489
 2924SOL    HW1 9671   0.336   2.242   4.403
 2924SOL    HW2 9672   0.305   2.231   4.562
 2925SOL     OW 9673   5.880   1.907   0.447
 2925SOL    HW1 9674   5.931   1.826   0.477
 2925SOL    HW2 9675   5.783   1.885   0.442
 2926SOL     OW 9676   6.140   2.335   6.557
 2926SOL    HW1 9677   6.193   2.278   6.494
 2926SOL    HW2 9678   6.114   2.420   6.512
 2927SOL     OW 9679   1.774   3.582   0.692
 2927SOL    HW1 9680   1.745   3.486   0.696
 2927SOL    HW2 9681   1.864   3.589   0.650
 2928SOL     OW 9682   6.368   1.159   6.878
 2928SOL    HW1 9683   6.447   1.112   6.838
 2928SOL    HW2 9684   6.312   1.197   6.804
 2929SOL     OW 9685   2.297   2.809   5.609
 2929SOL    HW1 9686   2.238   2.811   5.690
 2929SOL    HW2 9687   2.256   2.865   5.537
 2930SOL     OW 9688   5.212   6.357   5.058
 2930SOL    HW1 9689   5.288   6.422   5.049
 2930SOL    HW2 9690   5.162   6.376   5.142
 2931SOL     OW 9691   4.662   4.997   0.059
 2931SOL    HW1 9692   4.733   5.010   7.013
 2931SOL    HW2 9693   4.594   5.070   0.052
 2932SOL     OW 9694   0.769   5.679   1.945
 2932SOL    HW1 9695   0.830   5.756   1.929
 2932SOL    HW2 9696   0.821   5.593   1.940
 2933SOL     OW 9697   1.030   6.400   2.048
 2933SOL    HW1 9698   0.935   6.384   2.074
 2933SOL    HW2 9699   1.065   6.321   1.998
 2934SOL     OW 9700   5.305   2.807   0.647
 2934SOL    HW1 9701   5.290   2.742   0.721
 2934SOL    HW2 9702   5.226   2.868   0.638
 2935SOL     OW 9703   0.323   2.310   6.314
 2935SOL    HW1 9704   0.246   2.276   6.261
 2935SOL    HW2 9705   0.351   2.399   6.279
 2936SOL     OW 9706   3.774   6.345   0.539
 2936SOL    HW1 9707   3.775   6.277   0.612
 2936SOL    HW2 9708   3.680   6.361   0.510
 2937SOL     OW 9709   4.893   5.645   1.201
 2937SOL    HW1 9710   4.859   5.668   1.292
 2937SOL    HW2 9711   4.872   5.720   1.137
 2938SOL     OW 9712   6.932   4.998   0.068
 2938SOL    HW1 9713   6.887   5.087   0.063
 2938SOL    HW2 9714   6.916   4.957   0.158
 2939SOL     OW 9715   2.153   0.662   1.500
 2939SOL    HW1 9716   2.200   0.681   1.586
 2939SOL    HW2 9717   2.103   0.744   1.470
 2940SOL     OW 9718   6.153   5.307   5.197
 2940SOL    HW1 9719   6.069   5.310   5.143
 2940SOL    HW2 9720   6.220   5.370   5.158
 2941SOL     OW 9721   2.178   1.808   2.971
 2941SOL    HW1 9722   2.097   1.749   2.975
 2941SOL    HW2 9723   2.191   1.852   3.060
 2942SOL     OW 9724   3.741   2.583   0.842
 2942SOL    HW1 9725   3.829   2.619   0.876
 2942SOL    HW2 9726   3.719   2.498   0.889
 2943SOL     OW 9727   5.695   4.269   3.863
 2943SOL    HW1 9728   5.692   4.169   3.862
 2943SOL    HW2 9729   5.651   4.302   3.946
 2944SOL     OW 9730   2.492   6.226   4.084
 2944SOL    HW1 9731   2.516   6.215   3.987
 2944SOL    HW2 9732   2.399   6.262   4.091
 2945SOL     OW 9733   4.635   2.595   1.978
 2945SOL    HW1 9734   4.649   2.655   2.057
 2945SOL    HW2 9735   4.609   2.650   1.899
 2946SOL     OW 9736   2.113   4.334   5.837
 2946SOL    HW1 9737   2.144   4.322   5.743
 2946SOL    HW2 9738   2.017   4.362   5.837
 2947SOL     OW 9739   0.394   5.494   0.886
 2947SOL    HW1 9740   0.413   5.589   0.861
 2947SOL    HW2 9741   0.323   5.458   0.826
 2948SOL     OW 9742   6.696   4.233   4.130
 2948SOL    HW1 9743   6.795   4.248   4.123
 2948SOL    HW2 9744   6.676   4.138   4.106
 2949SOL     OW 9745   0.082   5.345   0.094
 2949SOL    HW1 9746   0.110   5.299   0.179
 2949SOL    HW2 9747   0.159   5.397   0.058
 2950SOL     OW 9748   6.107   6.200   3.915
 2950SOL    HW1 9749   6.083   6.206   4.012
 2950SOL    HW2 9750   6.186   6.141   3.904
 2951SOL     OW 9751   5.393   1.850   2.236
 2951SOL    HW1 9752   5.334   1.816   2.308
 2951SOL    HW2 9753   5.407   1.778   2.167
 2952SOL     OW 9754   0.390   6.921   5.441
 2952SOL    HW1 9755   0.391   6.832   5.394
 2952SOL    HW2 9756   0.476   6.969   5.424
 2953SOL     OW 9757   6.781   4.472   3.141
 2953SOL    HW1 9758   6.713   4.401   3.121
 2953SOL    HW2 9759   6.815   4.459   3.234
 2954SOL     OW 9760   0.136   4.323   0.417
 2954SOL    HW1 9761   0.148   4.416   0.383
 2954SOL    HW2 9762   0.192   4.310   0.500
 2955SOL     OW 9763   0.380   4.728   1.137
 2955SOL    HW1 9764   0.295   4.687   1.169
 2955SOL    HW2 9765   0.457   4.673   1.169
 2956SOL     OW 9766   6.205   5.560   3.516
 2956SOL    HW1 9767   6.173   5.469   3.486
 2956SOL    HW2 9768   6.237   5.611   3.436
 2957SOL     OW 9769   4.487   4.457   1.511
 2957SOL    HW1 9770   4.426   4.475   1.589
 2957SOL    HW2 9771   4.557   4.391   1.537
 2958SOL     OW 9772   2.125   4.630   3.356
 2958SOL    HW1 9773   2.148   4.609   3.451
 2958SOL    HW2 9774   2.028   4.611   3.340
 2959SOL     OW 9775   5.335   2.879   2.437
 2959SOL    HW1 9776   5.306   2.857   2.344
 2959SOL    HW2 9777   5.428   2.846   2.452
 2960SOL     OW 9778   3.552   6.870   6.579
 2960SOL    HW1 9779   3.550   6.865   6.479
 2960SOL    HW2 9780   3.643   6.844   6.612
 2961SOL     OW 9781   6.179   4.862   3.198
 2961SOL    HW1 9782   6.269   4.840   3.162
 2961SOL    HW2 9783   6.118   4.886   3.122
 2962SOL     OW 9784   5.047   6.386   3.515
 2962SOL    HW1 9785   4.958   6.344   3.501
 2962SOL    HW2 9786   5.097   6.337   3.586
 2963SOL     OW 9787   0.454   1.194   6.906
 2963SOL    HW1 9788   0.540   1.233   6.874
 2963SOL    HW2 9789   0.386   1.267   6.917
 2964SOL     OW 9790   0.808   1.951   5.996
 2964SOL    HW1 9791   0.814   1.996   5.907
 2964SOL    HW2 9792   0.816   1.852   5.983
 2965SOL     OW 9793   0.789   1.088   4.510
 2965SOL    HW1 9794   0.733   1.155   4.558
 2965SOL    HW2 9795   0.828   1.129   4.428
 2966SOL     OW 9796   4.708   5.982   3.452
 2966SOL    HW1 9797   4.781   5.943   3.397
 2966SOL    HW2 9798   4.627   5.995   3.395
 2967SOL     OW 9799   6.391   0.731   5.422
 2967SOL    HW1 9800   6.347   0.642   5.416
 2967SOL    HW2 9801   6.339   0.798   5.370
 2968SOL     OW 9802   0.916   2.472   0.819
 2968SOL    HW1 9803   1.009   2.453   0.849
 2968SOL    HW2 9804   0.904   2.441   0.724
 2969SOL     OW 9805   4.665   2.668   3.975
 2969SOL    HW1 9806   4.722   2.716   4.042
 2969SOL    HW2 9807   4.578   2.717   3.964
 2970SOL     OW 9808   2.561   3.148   5.388
 2970SOL    HW1 9809   2.519   3.106   5.307
 2970SOL    HW2 9810   2.559   3.082   5.464
 2971SOL     OW 9811   5.319   3.817   0.625
 2971SOL    HW1 9812   5.331   3.872   0.542
 2971SOL    HW2 9813   5.400   3.762   0.641
 2972SOL     OW 9814   5.886   5.350   6.504
 2972SOL    HW1 9815   5.876   5.263   6.455
 2972SOL    HW2 9816   5.853   5.339   6.598
 2973SOL     OW 9817   4.969   6.759   2.083
 2973SOL    HW1 9818   4.934   6.669   2.112
 2973SOL    HW2 9819   4.986   6.757   1.984
 2974SOL     OW 9820   6.883   4.368   3.698
 2974SOL    HW1 9821   6.967   4.319   3.722
 2974SOL    HW2 9822   6.884   4.459   3.741
 2975SOL     OW 9823   5.236   4.496   4.198
 2975SOL    HW1 9824   5.161   4.558   4.175
 2975SOL    HW2 9825   5.314   4.515   4.139
 2976SOL     OW 9826   5.194   1.724   2.657
 2976SOL    HW1 9827   5.112   1.691   2.703
 2976SOL    HW2 9828   5.188   1.824   2.646
 2977SOL     OW 9829   0.549   0.930   2.512
 2977SOL    HW1 9830   0.526   0.935   2.415
 2977SOL    HW2 9831   0.596   0.844   2.530
 2978SOL     OW 9832   3.944   4.682   0.252
 2978SOL    HW1 9833   3.844   4.683   0.252
 2978SOL    HW2 9834   3.977   4.710   0.162
 2979SOL     OW 9835   3.547   1.734   4.056
 2979SOL    HW1 9836   3.563   1.748   3.959
 2979SOL    HW2 9837   3.520   1.820   4.099
 2980SOL     OW 9838   2.320   5.625   5.967
 2980SOL    HW1 9839   2.261   5.587   5.896
 2980SOL    HW2 9840   2.350   5.552   6.028
 2981SOL     OW 9841   2.042   0.935   0.431
 2981SOL    HW1 9842   2.082   0.926   0.339
 2981SOL    HW2 9843   1.945   0.957   0.423
 2982SOL     OW 9844   2.158   6.160   1.682
 2982SOL    HW1 9845   2.237   6.159   1.621
 2982SOL    HW2 9846   2.160   6.078   1.740
 2983SOL     OW 9847   6.654   2.167   1.273
 2983SOL    HW1 9848   6.734   2.226   1.258
 2983SOL    HW2 9849   6.664   2.120   1.361
 2984SOL     OW 9850   5.398   5.484   6.301
 2984SOL    HW1 9851   5.365   5.529   6.217
 2984SOL    HW2 9852   5.342   5.403   6.319
 2985SOL     OW 9853   1.572   1.842   4.575
 2985SOL    HW1 9854   1.640   1.891   4.522
 2985SOL    HW2 9855   1.540   1.763   4.523
 2986SOL     OW 9856   3.649   3.941   2.585
 2986SOL    HW1 9857   3.567   3.885   2.569
 2986SOL    HW2 9858   3.698   3.905   2.665
 2987SOL     OW 9859   1.560   1.414   4.611
 2987SOL    HW1 9860   1.517   1.324   4.601
 2987SOL    HW2 9861   1.651   1.404   4.649
 2988SOL     OW 9862   1.455   6.903   1.920
 2988SOL    HW1 9863   1.517   6.938   1.850
 2988SOL    HW2 9864   1.453   6.966   1.998
 2989SOL     OW 9865   5.368   4.295   5.246
 2989SOL    HW1 9866   5.268   4.291   5.245
 2989SOL    HW2 9867   5.403   4.214   5.293
 2990SOL     OW 9868   4.631   2.006   4.129
 2990SOL    HW1 9869   4.667   2.023   4.220
 2990SOL    HW2 9870   4.602   1.910   4.121
 2991SOL     OW 9871   6.241   2.854   6.274
 2991SOL    HW1 9872   6.283   2.840   6.184
 2991SOL    HW2 9873   6.251   2.949   6.301
 2992SOL     OW 9874   1.880   4.815   4.889
 2992SOL    HW1 9875   1.840   4.885   4.948
 2992SOL    HW2 9876   1.969   4.847   4.855
 2993SOL     OW 9877   0.587   4.912   0.708
 2993SOL    HW1 9878   0.523   4.981   0.673
 2993SOL    HW2 9879   0.654   4.955   0.769
 2994SOL     OW 9880   3.788   6.032   0.632
 2994SOL    HW1 9881   3.806   5.934   0.645
 2994SOL    HW2 9882   3.813   6.059   0.539
 2995SOL     OW 9883   3.937   0.682   6.964
 2995SOL    HW1 9884   3.842   0.697   6.991
 2995SOL    HW2 9885   3.981   0.621   0.006
 2996SOL     OW 9886   0.612   2.125   5.143
 2996SOL    HW1 9887   0.536   2.135   5.079
 2996SOL    HW2 9888   0.691   2.176   5.111
 2997SOL     OW 9889   5.268   0.257   3.155
 2997SOL    HW1 9890   5.327   0.181   3.182
 2997SOL    HW2 9891   5.259   0.321   3.232
 2998SOL     OW 9892   4.970   6.690   3.373
 2998SOL    HW1 9893   4.992   6.593   3.367
 2998SOL    HW2 9894   4.876   6.704   3.341
 2999SOL     OW 9895   2.794   5.423   5.707
 2999SOL    HW1 9896   2.788   5.364   5.627
 2999SOL    HW2 9897   2.763   5.515   5.684
 3000SOL     OW 9898   2.653   4.072   6.533
 3000SOL    HW1 9899   2.618   3.993   6.482
 3000SOL    HW2 9900   2.707   4.130   6.472
 3001SOL     OW 9901   6.180   1.654   0.111
 3001SOL    HW1 9902   6.177   1.666   0.210
 3001SOL    HW2 9903   6.121   1.578   0.085
 3002SOL     OW 9904   3.189   1.910   0.072
 3002SOL    HW1 9905   3.201   1.986   0.008
 3002SOL    HW2 9906   3.276   1.890   0.117
 3003SOL     OW 9907   0.903   6.685   1.017
 3003SOL    HW1 9908   0.931   6.779   1.002
 3003SOL    HW2 9909   0.953   6.624   0.955
 3004SOL     OW 9910   1.419   4.534   2.858
 3004SOL    HW1 9911   1.399   4.437   2.863
 3004SOL    HW2 9912   1.458   4.556   2.769
 3005SOL     OW 9913   1.477   2.747   6.523
 3005SOL    HW1 9914   1.396   2.703   6.484
 3005SOL    HW2 9915   1.532   2.787   6.450
 3006SOL     OW 9916   5.492   1.870   4.935
 3006SOL    HW1 9917   5.575   1.926   4.938
 3006SOL    HW2 9918   5.425   1.906   5.000
 3007SOL     OW 9919   4.925   4.988   0.792
 3007SOL    HW1 9920   5.023   4.970   0.797
 3007SOL    HW2 9921   4.878   4.935   0.862
 3008SOL     OW 9922   2.899   2.209   5.999
 3008SOL    HW1 9923   2.967   2.200   6.072
 3008SOL    HW2 9924   2.935   2.269   5.928
 3009SOL     OW 9925   6.948   3.210   2.257
 3009SOL    HW1 9926   6.948   3.138   2.326
 3009SOL    HW2 9927   6.919   3.172   2.169
 3010SOL     OW 9928   2.785   5.402   4.035
 3010SOL    HW1 9929   2.700   5.376   3.988
 3010SOL    HW2 9930   2.767   5.412   4.133
 3011SOL     OW 9931   6.135   1.148   1.978
 3011SOL    HW1 9932   6.213   1.175   1.922
 3011SOL    HW2 9933   6.117   1.050   1.967
 3012SOL     OW 9934   2.445   3.064   0.171
 3012SOL    HW1 9935   2.445   3.029   0.077
 3012SOL    HW2 9936   2.504   3.144   0.176
 3013SOL     OW 9937   5.969   4.863   3.630
 3013SOL    HW1 9938   6.037   4.864   3.704
 3013SOL    HW2 9939   6.000   4.801   3.558
 3014SOL     OW 9940   5.061   2.091   6.244
 3014SOL    HW1 9941   4.969   2.131   6.244
 3014SOL    HW2 9942   5.064   2.015   6.179
 3015SOL     OW 9943   1.517   2.131   0.565
 3015SOL    HW1 9944   1.609   2.163   0.588
 3015SOL    HW2 9945   1.492   2.164   0.474
 3016SOL     OW 9946   3.224   0.083   4.323
 3016SOL    HW1 9947   3.152   0.112   4.387
 3016SOL    HW2 9948   3.302   0.048   4.375
 3017SOL     OW 9949   5.464   5.688   2.404
 3017SOL    HW1 9950   5.405   5.608   2.400
 3017SOL    HW2 9951   5.429   5.752   2.472
 3018SOL     OW 9952   3.616   0.393   6.587
 3018SOL    HW1 9953   3.542   0.455   6.557
 3018SOL    HW2 9954   3.630   0.403   6.685
 3019SOL     OW 9955   0.902   0.197   6.640
 3019SOL    HW1 9956   0.818   0.249   6.624
 3019SOL    HW2 9957   0.965   0.250   6.696
 3020SOL     OW 9958   3.824   3.140   0.771
 3020SOL    HW1 9959   3.856   3.153   0.865
 3020SOL    HW2 9960   3.902   3.123   0.711
 3021SOL     OW 9961   2.553   0.264   4.241
 3021SOL    HW1 9962   2.472   0.254   4.183
 3021SOL    HW2 9963   2.571   0.361   4.256
 3022SOL     OW 9964   4.457   5.031   5.122
 3022SOL    HW1 9965   4.527   5.096   5.093
 3022SOL    HW2 9966   4.366   5.066   5.100
 3023SOL     OW 9967   4.298   6.758   3.550
 3023SOL    HW1 9968   4.261   6.737   3.459
 3023SOL    HW2 9969   4.267   6.687   3.615
 3024SOL     OW 9970   5.957   6.219   5.169
 3024SOL    HW1 9971   5.945   6.278   5.248
 3024SOL    HW2 9972   5.870   6.207   5.122
 3025SOL     OW 9973   3.722   5.778   1.682
 3025SOL    HW1 9974   3.762   5.870   1.674
 3025SOL    HW2 9975   3.632   5.784   1.724
 3026SOL     OW 9976   0.364   1.321   5.999
 3026SOL    HW1 9977   0.432   1.254   5.969
 3026SOL    HW2 9978   0.310   1.281   6.073
 3027SOL     OW 9979   3.744   1.761   1.905
 3027SOL    HW1 9980   3.740   1.858   1.882
 3027SOL    HW2 9981   3.821   1.718   1.858
 3028SOL     OW 9982   1.208   4.217   6.126
 3028SOL    HW1 9983   1.290   4.272   6.111
 3028SOL    HW2 9984   1.226   4.122   6.098
 3029SOL     OW 9985   1.064   3.124   4.015
 3029SOL    HW1 9986   1.008   3.152   4.093
 3029SOL    HW2 9987   1.159   3.111   4.045
 3030SOL     OW 9988   1.520   3.956   0.969
 3030SOL    HW1 9989   1.616   3.973   0.945
 3030SOL    HW2 9990   1.494   3.865   0.937
 3031SOL     OW 9991   0.065   4.873   1.104
 3031SOL    HW1 9992   0.138   4.923   1.150
 3031SOL    HW2 9993   0.027   4.930   1.031
 3032SOL     OW 9994   1.946   6.782   1.195
 3032SOL    HW1 9995   1.945   6.803   1.098
 3032SOL    HW2 9996   2.003   6.849   1.243
 3033SOL     OW 9997   6.204   1.105   2.264
 3033SOL    HW1 9998   6.135   1.040   2.296
 3033SOL    HW2 9999   6.189   1.126   2.167
 3034SOL     OW10000   0.238   6.307   3.230
 3034SOL    HW110001   0.180   6.380   3.266
 3034SOL    HW210002   0.271   6.333   3.139
 3035SOL     OW10003   0.727   3.462   6.029
 3035SOL    HW110004   0.664   3.460   5.951
 3035SOL    HW210005   0.806   3.519   6.006
 3036SOL     OW10006   1.516   2.186   5.541
 3036SOL    HW110007   1.428   2.196   5.588
 3036SOL    HW210008   1.510   2.108   5.478
 3037SOL     OW10009   6.490   5.346   5.803
 3037SOL    HW110010   6.437   5.342   5.887
 3037SOL    HW210011   6.565   5.412   5.815
 3038SOL     OW10012   5.134   4.250   5.715
 3038SOL    HW110013   5.083   4.181   5.663
 3038SOL    HW210014   5.182   4.311   5.652
 3039SOL     OW10015   0.324   3.051   0.348
 3039SOL    HW110016   0.275   3.094   0.424
 3039SOL    HW210017   0.408   3.009   0.383
 3040SOL     OW10018   3.232   4.956   5.299
 3040SOL    HW110019   3.165   4.882   5.298
 3040SOL    HW210020   3.203   5.027   5.364
 3041SOL     OW10021   1.149   4.749   5.977
 3041SOL    HW110022   1.150   4.703   6.066
 3041SOL    HW210023   1.241   4.779   5.953
 3042SOL     OW10024   5.737   6.059   2.834
 3042SOL    HW110025   5.704   6.082   2.925
 3042SOL    HW210026   5.668   6.086   2.766
 3043SOL     OW10027   2.903   3.859   1.715
 3043SOL    HW110028   2.851   3.775   1.698
 3043SOL    HW210029   2.943   3.855   1.807
 3044SOL     OW10030   3.365   5.646   5.472
 3044SOL    HW110031   3.331   5.714   5.407
 3044SOL    HW210032   3.457   5.672   5.502
 3045SOL     OW10033   5.142   6.554   3.101
 3045SOL    HW110034   5.049   6.581   3.075
 3045SOL    HW210035   5.206   6.625   3.071
 3046SOL     OW10036   3.385   0.181   6.815
 3046SOL    HW110037   3.326   0.178   6.896
 3046SOL    HW210038   3.364   0.263   6.762
 3047SOL     OW10039   5.915   7.010   1.066
 3047SOL    HW110040   5.821   7.003   1.097
 3047SOL    HW210041   5.926   0.071   1.013
 3048SOL     OW10042   4.880   2.234   0.858
 3048SOL    HW110043   4.866   2.156   0.798
 3048SOL    HW210044   4.977   2.241   0.883
 3049SOL     OW10045   1.920   0.513   3.394
 3049SOL    HW110046   1.904   0.611   3.403
 3049SOL    HW210047   2.018   0.494   3.407
 3050SOL     OW10048   3.151   1.957   1.497
 3050SOL    HW110049   3.065   1.920   1.464
 3050SOL    HW210050   3.216   1.883   1.512
 3051SOL     OW10051   2.048   6.343   6.622
 3051SOL    HW110052   2.050   6.289   6.705
 3051SOL    HW210053   1.970   6.315   6.565
 3052SOL     OW10054   4.942   5.736   1.893
 3052SOL    HW110055   5.036   5.757   1.919
 3052SOL    HW210056   4.939   5.650   1.842
 3053SOL     OW10057   0.190   3.587   1.430
 3053SOL    HW110058   0.160   3.494   1.411
 3053SOL    HW210059   0.270   3.585   1.489
 3054SOL     OW10060   5.550   1.422   1.983
 3054SOL    HW110061   5.496   1.403   1.902
 3054SOL    HW210062   5.566   1.337   2.033
 3055SOL     OW10063   5.341   0.420   5.221
 3055SOL    HW110064   5.350   0.359   5.300
 3055SOL    HW210065   5.250   0.409   5.181
 3056SOL     OW10066   6.653   0.945   5.264
 3056SOL    HW110067   6.563   0.955   5.305
 3056SOL    HW210068   6.673   0.848   5.248
 3057SOL     OW10069   4.844   5.701   4.569
 3057SOL    HW110070   4.811   5.789   4.535
 3057SOL    HW210071   4.943   5.701   4.572
 3058SOL     OW10072   6.129   4.499   0.965
 3058SOL    HW110073   6.152   4.409   1.003
 3058SOL    HW210074   6.203   4.529   0.905
 3059SOL     OW10075   2.594   1.281   3.369
 3059SOL    HW110076   2.672   1.292   3.430
 3059SOL    HW210077   2.623   1.235   3.285
 3060SOL     OW10078   2.035   5.222   0.360
 3060SOL    HW110079   2.084   5.221   0.446
 3060SOL    HW210080   2.083   5.279   0.294
 3061SOL     OW10081   6.042   5.749   5.765
 3061SOL    HW110082   5.965   5.693   5.735
 3061SOL    HW210083   6.010   5.843   5.781
 3062SOL     OW10084   2.002   6.384   0.898
 3062SOL    HW110085   2.101   6.399   0.908
 3062SOL    HW210086   1.966   6.342   0.981
 3063SOL     OW10087   1.697   4.593   1.148
 3063SOL    HW110088   1.629   4.599   1.221
 3063SOL    HW210089   1.785   4.567   1.187
 3064SOL     OW10090   4.735   3.723   0.365
 3064SOL    HW110091   4.833   3.721   0.343
 3064SOL    HW210092   4.723   3.758   0.458
 3065SOL     OW10093   0.790   2.107   6.689
 3065SOL    HW110094   0.715   2.170   6.670
 3065SOL    HW210095   0.870   2.158   6.719
 3066SOL     OW10096   5.171   5.412   0.044
 3066SOL    HW110097   5.091   5.355   0.066
 3066SOL    HW210098   5.253   5.355   0.042
 3067SOL     OW10099   3.002   0.797   0.068
 3067SOL    HW110100   3.039   0.862   0.002
 3067SOL    HW210101   2.919   0.835   0.110
 3068SOL     OW10102   6.841   6.680   1.569
 3068SOL    HW110103   6.930   6.656   1.607
 3068SOL    HW210104   6.845   6.772   1.529
 3069SOL     OW10105   6.367   6.472   2.910
 3069SOL    HW110106   6.436   6.421   2.860
 3069SOL    HW210107   6.292   6.497   2.849
 3070SOL     OW10108   2.280   0.737   6.866
 3070SOL    HW110109   2.339   0.781   6.933
 3070SOL    HW210110   2.194   0.712   6.908
 3071SOL     OW10111   6.318   5.824   3.777
 3071SOL    HW110112   6.359   5.735   3.796
 3071SOL    HW210113   6.318   5.840   3.678
 3072SOL     OW10114   2.459   5.472   6.339
 3072SOL    HW110115   2.483   5.449   6.245
 3072SOL    HW210116   2.388   5.543   6.338
 3073SOL     OW10117   0.071   4.458   2.534
 3073SOL    HW110118   7.005   4.441   2.575
 3073SOL    HW210119   0.082   4.555   2.515
 3074SOL     OW10120   0.345   4.445   0.913
 3074SOL    HW110121   0.351   4.346   0.920
 3074SOL    HW210122   0.303   4.482   0.996
 3075SOL     OW10123   3.047   5.377   3.410
 3075SOL    HW110124   3.146   5.372   3.424
 3075SOL    HW210125   3.020   5.473   3.403
 3076SOL     OW10126   0.031   1.764   4.127
 3076SOL    HW110127   0.004   1.857   4.105
 3076SOL    HW210128   6.995   1.699   4.080
 3077SOL     OW10129   5.869   4.311   2.019
 3077SOL    HW110130   5.852   4.231   1.961
 3077SOL    HW210131   5.785   4.337   2.065
 3078SOL     OW10132   6.445   3.167   2.483
 3078SOL    HW110133   6.507   3.180   2.561
 3078SOL    HW210134   6.351   3.182   2.512
 3079SOL     OW10135   3.208   2.156   2.983
 3079SOL    HW110136   3.176   2.080   2.927
 3079SOL    HW210137   3.253   2.224   2.925
 3080SOL     OW10138   5.671   4.469   2.135
 3080SOL    HW110139   5.651   4.556   2.089
 3080SOL    HW210140   5.692   4.486   2.231
 3081SOL     OW10141   0.330   4.532   5.919
 3081SOL    HW110142   0.366   4.485   6.000
 3081SOL    HW210143   0.266   4.472   5.872
 3082SOL     OW10144   1.640   5.732   4.144
 3082SOL    HW110145   1.739   5.744   4.145
 3082SOL    HW210146   1.600   5.781   4.222
 3083SOL     OW10147   3.235   6.350   2.963
 3083SOL    HW110148   3.232   6.253   2.936
 3083SOL    HW210149   3.158   6.398   2.921
 3084SOL     OW10150   6.515   4.868   3.266
 3084SOL    HW110151   6.506   4.967   3.265
 3084SOL    HW210152   6.449   4.828   3.330
 3085SOL     OW10153   5.858   4.527   0.731
 3085SOL    HW110154   5.951   4.552   0.706
 3085SOL    HW210155   5.831   4.445   0.680
 3086SOL     OW10156   4.794   1.114   6.652
 3086SOL    HW110157   4.699   1.081   6.654
 3086SOL    HW210158   4.855   1.036   6.637
 3087SOL     OW10159   2.843   6.382   3.033
 3087SOL    HW110160   2.768   6.321   3.057
 3087SOL    HW210161   2.858   6.448   3.107
 3088SOL     OW10162   1.702   3.284   5.010
 3088SOL    HW110163   1.777   3.256   4.949
 3088SOL    HW210164   1.675   3.377   4.988
 3089SOL     OW10165   3.976   2.225   4.632
 3089SOL    HW110166   4.057   2.214   4.690
 3089SOL    HW210167   4.004   2.239   4.537
 3090SOL     OW10168   2.287   0.900   2.065
 3090SOL    HW110169   2.379   0.916   2.028
 3090SOL    HW210170   2.243   0.827   2.013
 3091SOL     OW10171   1.337   1.269   0.583
 3091SOL    HW110172   1.259   1.233   0.635
 3091SOL    HW210173   1.376   1.347   0.632
 3092SOL     OW10174   5.425   0.139   0.820
 3092SOL    HW110175   5.482   0.081   0.762
 3092SOL    HW210176   5.333   0.143   0.783
 3093SOL     OW10177   5.369   6.083   6.294
 3093SOL    HW110178   5.438   6.044   6.355
 3093SOL    HW210179   5.280   6.083   6.340
 3094SOL     OW10180   2.661   0.070   4.091
 3094SOL    HW110181   2.584   0.046   4.033
 3094SOL    HW210182   2.632   0.137   4.159
 3095SOL     OW10183   2.389   3.681   5.684
 3095SOL    HW110184   2.365   3.714   5.592
 3095SOL    HW210185   2.474   3.726   5.713
 3096SOL     OW10186   1.198   4.978   5.619
 3096SOL    HW110187   1.125   4.912   5.637
 3096SOL    HW210188   1.159   5.061   5.580
 3097SOL     OW10189   5.462   3.287   7.006
 3097SOL    HW110190   5.428   3.297   6.912
 3097SOL    HW210191   5.399   3.333   0.046
 3098SOL     OW10192   1.716   3.329   1.593
 3098SOL    HW110193   1.794   3.388   1.571
 3098SOL    HW210194   1.634   3.364   1.549
 3099SOL     OW10195   0.894   6.166   3.888
 3099SOL    HW110196   0.849   6.219   3.816
 3099SOL    HW210197   0.903   6.223   3.970
 3100SOL     OW10198   6.368   6.283   3.398
 3100SOL    HW110199   6.457   6.277   3.353
 3100SOL    HW210200   6.333   6.376   3.389
 3101SOL     OW10201   4.944   5.749   6.518
 3101SOL    HW110202   5.014   5.705   6.463
 3101SOL    HW210203   4.884   5.680   6.559
 3102SOL     OW10204   6.602   6.932   1.218
 3102SOL    HW110205   6.524   6.964   1.164
 3102SOL    HW210206   6.602   6.832   1.221
 3103SOL     OW10207   4.409   1.352   1.218
 3103SOL    HW110208   4.388   1.436   1.268
 3103SOL    HW210209   4.327   1.320   1.170
 3104SOL     OW10210   3.728   0.549   5.685
 3104SOL    HW110211   3.683   0.628   5.727
 3104SOL    HW210212   3.760   0.488   5.757
 3105SOL     OW10213   4.834   3.626   1.593
 3105SOL    HW110214   4.807   3.610   1.498
 3105SOL    HW210215   4.922   3.673   1.596
 3106SOL     OW10216   5.071   6.413   5.282
 3106SOL    HW110217   5.020   6.331   5.308
 3106SOL    HW210218   5.012   6.493   5.290
 3107SOL     OW10219   3.997   1.182   4.930
 3107SOL    HW110220   3.994   1.129   4.845
 3107SOL    HW210221   4.050   1.132   4.998
 3108SOL     OW10222   1.833   5.083   4.690
 3108SOL    HW110223   1.845   5.128   4.779
 3108SOL    HW210224   1.746   5.034   4.689
 3109SOL     OW10225   6.300   6.925   4.327
 3109SOL    HW110226   6.289   6.829   4.352
 3109SOL    HW210227   6.231   6.949   4.258
 3110SOL     OW10228   1.783   4.203   3.347
 3110SOL    HW110229   1.685   4.218   3.362
 3110SOL    HW210230   1.796   4.115   3.300
 3111SOL     OW10231   0.263   4.964   3.453
 3111SOL    HW110232   0.299   4.917   3.534
 3111SOL    HW210233   0.165   4.981   3.465
 3112SOL     OW10234   2.954   3.212   0.779
 3112SOL    HW110235   3.025   3.171   0.723
 3112SOL    HW210236   2.893   3.141   0.813
 3113SOL     OW10237   3.153   6.060   2.619
 3113SOL    HW110238   3.243   6.099   2.635
 3113SOL    HW210239   3.083   6.132   2.627
 3114SOL     OW10240   3.512   1.687   0.327
 3114SOL    HW110241   3.461   1.604   0.306
 3114SOL    HW210242   3.499   1.754   0.254
 3115SOL     OW10243   4.062   4.608   5.613
 3115SOL    HW110244   3.985   4.553   5.579
 3115SOL    HW210245   4.125   4.550   5.663
 3116SOL     OW10246   6.810   1.789   0.240
 3116SOL    HW110247   6.831   1.886   0.254
 3116SOL    HW210248   6.794   1.773   0.142
 3117SOL     OW10249   4.337   3.288   5.381
 3117SOL    HW110250   4.312   3.196   5.413
 3117SOL    HW210251   4.256   3.346   5.380
 3118SOL     OW10252   0.818   5.419   2.541
 3118SOL    HW110253   0.896   5.469   2.580
 3118SOL    HW210254   0.825   5.322   2.564
 3119SOL     OW10255   2.310   2.286   6.392
 3119SOL    HW110256   2.382   2.351   6.369
 3119SOL    HW210257   2.269   2.250   6.309
 3120SOL     OW10258   2.534   0.635   5.614
 3120SOL    HW110259   2.460   0.654   5.678
 3120SOL    HW210260   2.620   0.623   5.665
 3121SOL     OW10261   5.885   1.881   4.712
 3121SOL    HW110262   5.850   1.843   4.626
 3121SOL    HW210263   5.954   1.819   4.749
 3122SOL     OW10264   4.855   4.944   4.940
 3122SOL    HW110265   4.760   4.921   4.960
 3122SOL    HW210266   4.882   5.024   4.993
 3123SOL     OW10267   1.889   1.345   2.742
 3123SOL    HW110268   1.937   1.390   2.818
 3123SOL    HW210269   1.847   1.415   2.684
 3124SOL     OW10270   4.689   0.092   4.088
 3124SOL    HW110271   4.633   0.109   4.169
 3124SOL    HW210272   4.757   0.165   4.080
 3125SOL     OW10273   1.579   2.913   5.151
 3125SOL    HW110274   1.587   2.996   5.206
 3125SOL    HW210275   1.534   2.841   5.204
 3126SOL     OW10276   5.392   4.554   5.158
 3126SOL    HW110277   5.491   4.565   5.166
 3126SOL    HW210278   5.368   4.457   5.169
 3127SOL     OW10279   2.135   1.865   6.225
 3127SOL    HW110280   2.214   1.925   6.237
 3127SOL    HW210281   2.156   1.795   6.157
 3128SOL     OW10282   3.229   0.987   0.377
 3128SOL    HW110283   3.215   0.989   0.477
 3128SOL    HW210284   3.310   0.932   0.356
 3129SOL     OW10285   5.668   3.432   0.816
 3129SOL    HW110286   5.761   3.464   0.796
 3129SOL    HW210287   5.645   3.357   0.753
 3130SOL     OW10288   2.242   4.506   1.656
 3130SOL    HW110289   2.290   4.434   1.707
 3130SOL    HW210290   2.146   4.483   1.647
 3131SOL     OW10291   0.935   3.700   2.058
 3131SOL    HW110292   0.930   3.670   1.963
 3131SOL    HW210293   0.924   3.799   2.062
 3132SOL     OW10294   4.928   5.265   6.821
 3132SOL    HW110295   4.922   5.288   6.918
 3132SOL    HW210296   5.008   5.310   6.781
 3133SOL     OW10297   3.879   1.022   3.375
 3133SOL    HW110298   3.851   1.059   3.463
 3133SOL    HW210299   3.836   1.074   3.301
 3134SOL     OW10300   4.080   4.811   0.884
 3134SOL    HW110301   4.159   4.868   0.907
 3134SOL    HW210302   4.110   4.734   0.827
 3135SOL     OW10303   5.329   0.317   5.768
 3135SOL    HW110304   5.358   0.388   5.703
 3135SOL    HW210305   5.405   0.255   5.785
 3136SOL     OW10306   5.823   6.838   2.291
 3136SOL    HW110307   5.903   6.868   2.344
 3136SOL    HW210308   5.803   6.743   2.312
 3137SOL     OW10309   6.945   6.623   3.692
 3137SOL    HW110310   6.874   6.556   3.670
 3137SOL    HW210311   6.902   6.713   3.705
 3138SOL     OW10312   5.806   5.261   3.154
 3138SOL    HW110313   5.720   5.309   3.137
 3138SOL    HW210314   5.878   5.327   3.173
 3139SOL     OW10315   3.460   5.095   1.368
 3139SOL    HW110316   3.448   4.997   1.358
 3139SOL    HW210317   3.509   5.114   1.453
 3140SOL     OW10318   6.372   6.075   5.568
 3140SOL    HW110319   6.320   5.990   5.577
 3140SOL    HW210320   6.323   6.138   5.506
 3141SOL     OW10321   0.521   6.977   6.417
 3141SOL    HW110322   0.494   6.952   6.510
 3141SOL    HW210323   0.620   6.964   6.406
 3142SOL     OW10324   2.794   0.356   2.718
 3142SOL    HW110325   2.719   0.325   2.776
 3142SOL    HW210326   2.761   0.429   2.658
 3143SOL     OW10327   5.861   1.049   6.984
 3143SOL    HW110328   5.958   1.040   7.006
 3143SOL    HW210329   5.850   1.062   6.885
 3144SOL     OW10330   4.293   3.588   0.906
 3144SOL    HW110331   4.268   3.518   0.839
 3144SOL    HW210332   4.216   3.650   0.919
 3145SOL     OW10333   1.835   6.568   2.487
 3145SOL    HW110334   1.832   6.653   2.434
 3145SOL    HW210335   1.864   6.493   2.429
 3146SOL     OW10336   1.201   1.113   4.523
 3146SOL    HW110337   1.138   1.040   4.496
 3146SOL    HW210338   1.210   1.178   4.448
 3147SOL     OW10339   2.952   5.012   0.087
 3147SOL    HW110340   3.001   4.948   0.028
 3147SOL    HW210341   2.885   4.962   0.142
 3148SOL     OW10342   0.071   6.972   3.927
 3148SOL    HW110343   0.142   6.906   3.952
 3148SOL    HW210344   0.010   6.931   3.860
 3149SOL     OW10345   3.267   1.159   6.667
 3149SOL    HW110346   3.254   1.062   6.646
 3149SOL    HW210347   3.194   1.190   6.728
 3150SOL     OW10348   6.923   6.010   4.940
 3150SOL    HW110349   7.000   6.056   4.984
 3150SOL    HW210350   6.925   5.912   4.961
 3151SOL     OW10351   0.135   1.552   5.172
 3151SOL    HW110352   0.191   1.480   5.213
 3151SOL    HW210353   0.092   1.607   5.244
 3152SOL     OW10354   0.642   4.386   0.557
 3152SOL    HW110355   0.677   4.476   0.584
 3152SOL    HW210356   0.702   4.314   0.592
 3153SOL     OW10357   6.236   5.762   0.676
 3153SOL    HW110358   6.324   5.729   0.642
 3153SOL    HW210359   6.216   5.852   0.637
 3154SOL     OW10360   6.729   1.450   0.407
 3154SOL    HW110361   6.694   1.472   0.316
 3154SOL    HW210362   6.747   1.534   0.458
 3155SOL     OW10363   6.588   4.881   0.439
 3155SOL    HW110364   6.524   4.951   0.405
 3155SOL    HW210365   6.550   4.790   0.422
 3156SOL     OW10366   3.064   3.593   2.145
 3156SOL    HW110367   3.079   3.561   2.239
 3156SOL    HW210368   3.106   3.529   2.081
 3157SOL     OW10369   1.769   1.839   5.453
 3157SOL    HW110370   1.776   1.774   5.529
 3157SOL    HW210371   1.836   1.911   5.464
 3158SOL     OW10372   2.509   1.156   4.256
 3158SOL    HW110373   2.491   1.145   4.354
 3158SOL    HW210374   2.425   1.139   4.204
 3159SOL     OW10375   5.640   0.079   6.506
 3159SOL    HW110376   5.602   7.018   6.470
 3159SOL    HW210377   5.723   0.103   6.455
 3160SOL     OW10378   1.880   6.024   6.142
 3160SOL    HW110379   1.929   6.099   6.187
 3160SOL    HW210380   1.935   5.991   6.064
 3161SOL     OW10381   2.225   2.179   2.561
 3161SOL    HW110382   2.314   2.145   2.588
 3161SOL    HW210383   2.208   2.267   2.607
 3162SOL     OW10384   0.926   5.907   1.862
 3162SOL    HW110385   1.017   5.867   1.865
 3162SOL    HW210386   0.915   5.961   1.779
 3163SOL     OW10387   4.331   3.600   6.382
 3163SOL    HW110388   4.234   3.584   6.370
 3163SOL    HW210389   4.360   3.562   6.470
 3164SOL     OW10390   3.422   5.595   1.481
 3164SOL    HW110391   3.374   5.585   1.394
 3164SOL    HW210392   3.418   5.509   1.531
 3165SOL     OW10393   2.201   5.633   1.419
 3165SOL    HW110394   2.296   5.605   1.430
 3165SOL    HW210395   2.197   5.731   1.401
 3166SOL     OW10396   4.111   1.931   3.489
 3166SOL    HW110397   4.151   2.023   3.498
 3166SOL    HW210398   4.179   1.863   3.516
 3167SOL     OW10399   5.336   4.063   1.034
 3167SOL    HW110400   5.432   4.085   1.054
 3167SOL    HW210401   5.320   3.966   1.051
 3168SOL     OW10402   5.144   3.222   6.904
 3168SOL    HW110403   5.230   3.249   6.860
 3168SOL    HW210404   5.160   3.142   6.962
 3169SOL     OW10405   2.304   4.206   3.813
 3169SOL    HW110406   2.317   4.224   3.716
 3169SOL    HW210407   2.268   4.114   3.826
 3170SOL     OW10408   3.890   5.831   2.009
 3170SOL    HW110409   3.949   5.773   2.065
 3170SOL    HW210410   3.813   5.864   2.064
 3171SOL     OW10411   6.913   1.959   2.260
 3171SOL    HW110412   6.873   1.958   2.351
 3171SOL    HW210413   6.881   2.040   2.211
 3172SOL     OW10414   6.647   5.404   6.573
 3172SOL    HW110415   6.549   5.412   6.591
 3172SOL    HW210416   6.667   5.315   6.532
 3173SOL     OW10417   3.169   2.294   6.854
 3173SOL    HW110418   3.153   2.195   6.847
 3173SOL    HW210419   3.192   2.330   6.764
 3174SOL     OW10420   2.941   2.558   6.753
 3174SOL    HW110421   2.845   2.561   6.781
 3174SOL    HW210422   2.998   2.592   6.827
 3175SOL     OW10423   5.235   1.546   1.694
 3175SOL    HW110424   5.144   1.530   1.657
 3175SOL    HW210425   5.292   1.594   1.627
 3176SOL     OW10426   0.978   3.945   5.201
 3176SOL    HW110427   1.069   3.903   5.207
 3176SOL    HW210428   0.988   4.043   5.184
 3177SOL     OW10429   5.181   4.253   4.327
 3177SOL    HW110430   5.196   4.342   4.284
 3177SOL    HW210431   5.149   4.188   4.259
 3178SOL     OW10432   6.332   2.332   0.338
 3178SOL    HW110433   6.358   2.327   0.434
 3178SOL    HW210434   6.263   2.262   0.318
 3179SOL     OW10435   1.028   2.497   1.961
 3179SOL    HW110436   0.967   2.564   2.003
 3179SOL    HW210437   1.000   2.480   1.867
 3180SOL     OW10438   5.538   6.992   0.617
 3180SOL    HW110439   5.536   0.002   0.523
 3180SOL    HW210440   5.466   6.923   0.629
 3181SOL     OW10441   6.601   2.071   3.416
 3181SOL    HW110442   6.627   2.149   3.359
 3181SOL    HW210443   6.527   2.021   3.372
 3182SOL     OW10444   2.521   0.214   6.639
 3182SOL    HW110445   2.426   0.233   6.665
 3182SOL    HW210446   2.538   0.253   6.548
 3183SOL     OW10447   4.665   4.341   2.259
 3183SOL    HW110448   4.628   4.303   2.174
 3183SOL    HW210449   4.595   4.398   2.303
 3184SOL     OW10450   0.205   3.085   2.977
 3184SOL    HW110451   0.213   3.024   2.898
 3184SOL    HW210452   0.286   3.073   3.035
 3185SOL     OW10453   3.865   5.928   6.249
 3185SOL    HW110454   3.811   5.974   6.179
 3185SOL    HW210455   3.881   5.833   6.222
 3186SOL     OW10456   3.281   2.153   0.687
 3186SOL    HW110457   3.285   2.235   0.631
 3186SOL    HW210458   3.192   2.146   0.731
 3187SOL     OW10459   4.450   5.604   0.806
 3187SOL    HW110460   4.403   5.574   0.889
 3187SOL    HW210461   4.415   5.553   0.728
 3188SOL     OW10462   1.224   6.663   4.250
 3188SOL    HW110463   1.298   6.611   4.294
 3188SOL    HW210464   1.197   6.738   4.310
 3189SOL     OW10465   1.604   2.256   1.334
 3189SOL    HW110466   1.698   2.225   1.321
 3189SOL    HW210467   1.578   2.244   1.430
 3190SOL     OW10468   6.968   5.259   0.478
 3190SOL    HW110469   6.923   5.300   0.398
 3190SOL    HW210470   6.920   5.288   0.561
 3191SOL     OW10471   4.883   5.597   1.496
 3191SOL    HW110472   4.849   5.691   1.505
 3191SOL    HW210473   4.809   5.533   1.517
 3192SOL     OW10474   0.409   3.650   1.770
 3192SOL    HW110475   0.360   3.569   1.803
 3192SOL    HW210476   0.457   3.628   1.685
 3193SOL     OW10477   3.896   1.272   6.051
 3193SOL    HW110478   3.858   1.243   6.139
 3193SOL    HW210479   3.901   1.195   5.989
 3194SOL     OW10480   1.849   2.255   5.996
 3194SOL    HW110481   1.878   2.351   5.990
 3194SOL    HW210482   1.784   2.245   6.071
 3195SOL     OW10483   1.451   0.962   2.799
 3195SOL    HW110484   1.508   0.988   2.721
 3195SOL    HW210485   1.416   0.870   2.785
 3196SOL     OW10486   6.942   0.939   6.871
 3196SOL    HW110487   6.908   0.938   6.965
 3196SOL    HW210488   6.915   1.024   6.827
 3197SOL     OW10489   2.982   6.787   4.779
 3197SOL    HW110490   2.973   6.763   4.876
 3197SOL    HW210491   3.061   6.740   4.741
 3198SOL     OW10492   6.321   3.363   3.128
 3198SOL    HW110493   6.327   3.430   3.053
 3198SOL    HW210494   6.263   3.287   3.100
 3199SOL     OW10495   5.103   4.017   2.826
 3199SOL    HW110496   5.153   3.950   2.771
 3199SOL    HW210497   5.163   4.052   2.898
 3200SOL     OW10498   5.657   3.313   2.655
 3200SOL    HW110499   5.757   3.318   2.649
 3200SOL    HW210500   5.618   3.402   2.631
 3201SOL     OW10501   6.950   4.696   3.448
 3201SOL    HW110502   6.986   4.753   3.373
 3201SOL    HW210503   6.937   4.602   3.415
 3202SOL     OW10504   1.191   5.092   0.985
 3202SOL    HW110505   1.181   5.100   0.886
 3202SOL    HW210506   1.251   5.015   1.007
 3203SOL     OW10507   5.595   1.875   0.405
 3203SOL    HW110508   5.521   1.895   0.341
 3203SOL    HW210509   5.607   1.776   0.413
 3204SOL     OW10510   4.300   6.924   3.237
 3204SOL    HW110511   4.322   6.828   3.253
 3204SOL    HW210512   4.201   6.938   3.249
 3205SOL     OW10513   5.238   2.973   6.141
 3205SOL    HW110514   5.247   3.023   6.055
 3205SOL    HW210515   5.302   3.010   6.208
 3206SOL     OW10516   1.755   4.720   0.730
 3206SOL    HW110517   1.806   4.641   0.765
 3206SOL    HW210518   1.772   4.731   0.632
 3207SOL     OW10519   1.196   0.789   6.602
 3207SOL    HW110520   1.149   0.800   6.514
 3207SOL    HW210521   1.265   0.861   6.612
 3208SOL     OW10522   4.846   6.265   6.241
 3208SOL    HW110523   4.845   6.317   6.156
 3208SOL    HW210524   4.932   6.215   6.249
 3209SOL     OW10525   3.679   5.226   3.959
 3209SOL    HW110526   3.599   5.275   3.990
 3209SOL    HW210527   3.653   5.134   3.930
 3210SOL     OW10528   1.387   4.492   1.113
 3210SOL    HW110529   1.324   4.461   1.184
 3210SOL    HW210530   1.458   4.423   1.100
 3211SOL     OW10531   1.673   4.196   0.534
 3211SOL    HW110532   1.595   4.188   0.472
 3211SOL    HW210533   1.707   4.104   0.558
 3212SOL     OW10534   2.889   6.643   1.574
 3212SOL    HW110535   2.970   6.692   1.604
 3212SOL    HW210536   2.850   6.592   1.651
 3213SOL     OW10537   1.537   0.071   0.352
 3213SOL    HW110538   1.604   0.069   0.277
 3213SOL    HW210539   1.492   7.005   0.359
 3214SOL     OW10540   4.542   5.792   1.177
 3214SOL    HW110541   4.442   5.782   1.173
 3214SOL    HW210542   4.572   5.861   1.112
 3215SOL     OW10543   0.137   4.408   1.208
 3215SOL    HW110544   0.171   4.314   1.197
 3215SOL    HW210545   0.192   4.456   1.276
 3216SOL     OW10546   5.609   5.559   0.597
 3216SOL    HW110547   5.512   5.540   0.616
 3216SOL    HW210548   5.621   5.576   0.500
 3217SOL     OW10549   0.128   5.504   2.809
 3217SOL    HW110550   0.202   5.463   2.755
 3217SOL    HW210551   0.117   5.600   2.782
 3218SOL     OW10552   5.120   2.499   3.060
 3218SOL    HW110553   5.169   2.540   2.983
 3218SOL    HW210554   5.156   2.408   3.077
 3219SOL     OW10555   0.407   1.672   3.552
 3219SOL    HW110556   0.350   1.591   3.560
 3219SOL    HW210557   0.461   1.682   3.636
 3220SOL     OW10558   0.205   5.188   5.950
 3220SOL    HW110559   0.245   5.136   5.875
 3220SOL    HW210560   0.185   5.281   5.919
 3221SOL     OW10561   3.888   0.209   1.925
 3221SOL    HW110562   3.954   0.231   1.998
 3221SOL    HW210563   3.805   0.172   1.966
 3222SOL     OW10564   2.774   1.637   2.548
 3222SOL    HW110565   2.742   1.547   2.517
 3222SOL    HW210566   2.695   1.697   2.562
 3223SOL     OW10567   2.613   6.753   6.102
 3223SOL    HW110568   2.636   6.721   6.194
 3223SOL    HW210569   2.541   6.695   6.064
 3224SOL     OW10570   4.806   3.056   5.013
 3224SOL    HW110571   4.820   3.154   5.009
 3224SOL    HW210572   4.860   3.017   5.088
 3225SOL     OW10573   5.219   2.786   5.835
 3225SOL    HW110574   5.297   2.740   5.878
 3225SOL    HW210575   5.148   2.802   5.904
 3226SOL     OW10576   2.076   0.893   2.222
 3226SOL    HW110577   2.160   0.888   2.167
 3226SOL    HW210578   2.067   0.986   2.259
 3227SOL     OW10579   2.903   3.168   6.804
 3227SOL    HW110580   2.841   3.160   6.882
 3227SOL    HW210581   2.870   3.240   6.742
 3228SOL     OW10582   6.746   3.987   1.029
 3228SOL    HW110583   6.678   3.945   1.088
 3228SOL    HW210584   6.785   3.918   0.969
 3229SOL     OW10585   3.599   0.536   5.426
 3229SOL    HW110586   3.645   0.483   5.498
 3229SOL    HW210587   3.535   0.476   5.377
 3230SOL     OW10588   2.200   4.371   5.580
 3230SOL    HW110589   2.229   4.466   5.575
 3230SOL    HW210590   2.264   4.313   5.531
 3231SOL     OW10591   2.922   0.136   1.838
 3231SOL    HW110592   2.841   0.195   1.838
 3231SOL    HW210593   3.004   0.193   1.825
 3232SOL     OW10594   4.573   6.613   4.643
 3232SOL    HW110595   4.478   6.594   4.665
 3232SOL    HW210596   4.585   6.712   4.630
 3233SOL     OW10597   6.480   2.427   0.578
 3233SOL    HW110598   6.447   2.473   0.661
 3233SOL    HW210599   6.563   2.376   0.600
 3234SOL     OW10600   0.788   2.673   6.930
 3234SOL    HW110601   0.834   2.685   6.842
 3234SOL    HW210602   0.830   2.733   6.998
 3235SOL     OW10603   0.029   0.285   1.226
 3235SOL    HW110604   0.046   0.371   1.274
 3235SOL    HW210605   0.114   0.233   1.221
 3236SOL     OW10606   1.211   4.292   0.268
 3236SOL    HW110607   1.201   4.212   0.209
 3236SOL    HW210608   1.129   4.303   0.324
 3237SOL     OW10609   6.267   1.423   2.713
 3237SOL    HW110610   6.198   1.470   2.659
 3237SOL    HW210611   6.354   1.472   2.707
 3238SOL     OW10612   6.825   5.446   0.306
 3238SOL    HW110613   6.838   5.466   0.209
 3238SOL    HW210614   6.866   5.518   0.361
 3239SOL     OW10615   6.692   1.228   2.722
 3239SOL    HW110616   6.785   1.253   2.751
 3239SOL    HW210617   6.639   1.201   2.802
 3240SOL     OW10618   6.649   6.407   6.242
 3240SOL    HW110619   6.618   6.502   6.232
 3240SOL    HW210620   6.633   6.377   6.336
 3241SOL     OW10621   4.851   0.718   5.475
 3241SOL    HW110622   4.811   0.684   5.390
 3241SOL    HW210623   4.943   0.754   5.457
 3242SOL     OW10624   4.807   4.479   6.728
 3242SOL    HW110625   4.853   4.418   6.664
 3242SOL    HW210626   4.876   4.531   6.779
 3243SOL     OW10627   4.074   5.155   0.162
 3243SOL    HW110628   4.150   5.094   0.143
 3243SOL    HW210629   4.073   5.229   0.095
 3244SOL     OW10630   4.873   5.944   0.325
 3244SOL    HW110631   4.966   5.945   0.288
 3244SOL    HW210632   4.857   6.027   0.378
 3245SOL     OW10633   5.079   3.549   4.440
 3245SOL    HW110634   5.010   3.590   4.501
 3245SOL    HW210635   5.076   3.449   4.450
 3246SOL     OW10636   6.681   0.333   2.969
 3246SOL    HW110637   6.619   0.391   3.021
 3246SOL    HW210638   6.758   0.388   2.937
 3247SOL     OW10639   5.876   4.511   2.659
 3247SOL    HW110640   5.935   4.582   2.697
 3247SOL    HW210641   5.930   4.428   2.643
 3248SOL     OW10642   5.613   3.356   1.783
 3248SOL    HW110643   5.711   3.355   1.803
 3248SOL    HW210644   5.562   3.336   1.867
 3249SOL     OW10645   3.714   4.018   3.994
 3249SOL    HW110646   3.751   4.053   4.080
 3249SOL    HW210647   3.782   3.961   3.949
 3250SOL     OW10648   6.113   0.662   2.496
 3250SOL    HW110649   6.207   0.673   2.529
 3250SOL    HW210650   6.096   0.566   2.474
 3251SOL     OW10651   3.596   0.923   3.541
 3251SOL    HW110652   3.635   0.832   3.557
 3251SOL    HW210653   3.665   0.993   3.557
 3252SOL     OW10654   2.715   1.034   2.494
 3252SOL    HW110655   2.772   0.984   2.428
 3252SOL    HW210656   2.624   1.049   2.455
 3253SOL     OW10657   4.638   3.916   1.416
 3253SOL    HW110658   4.640   3.873   1.506
 3253SOL    HW210659   4.720   3.890   1.365
 3254SOL     OW10660   4.345   5.684   6.415
 3254SOL    HW110661   4.255   5.690   6.458
 3254SOL    HW210662   4.364   5.769   6.366
 3255SOL     OW10663   4.375   6.701   0.885
 3255SOL    HW110664   4.360   6.795   0.855
 3255SOL    HW210665   4.449   6.660   0.831
 3256SOL     OW10666   3.910   1.377   1.157
 3256SOL    HW110667   3.944   1.305   1.097
 3256SOL    HW210668   3.810   1.384   1.149
 3257SOL     OW10669   1.103   1.919   2.275
 3257SOL    HW110670   1.066   1.900   2.183
 3257SOL    HW210671   1.146   1.836   2.311
 3258SOL     OW10672   4.677   5.990   2.241
 3258SOL    HW110673   4.684   5.932   2.323
 3258SOL    HW210674   4.602   6.055   2.253
 3259SOL     OW10675   5.063   4.826   5.142
 3259SOL    HW110676   4.992   4.797   5.077
 3259SOL    HW210677   5.148   4.777   5.123
 3260SOL     OW10678   1.630   2.562   1.044
 3260SOL    HW110679   1.670   2.611   0.966
 3260SOL    HW210680   1.673   2.592   1.128
 3261SOL     OW10681   5.466   0.554   1.451
 3261SOL    HW110682   5.486   0.652   1.452
 3261SOL    HW210683   5.375   0.538   1.413
 3262SOL     OW10684   3.157   1.721   2.127
 3262SOL    HW110685   3.069   1.685   2.096
 3262SOL    HW210686   3.229   1.656   2.104
 3263SOL     OW10687   2.637   1.257   2.883
 3263SOL    HW110688   2.634   1.338   2.825
 3263SOL    HW210689   2.629   1.175   2.826
 3264SOL     OW10690   1.138   5.776   0.819
 3264SOL    HW110691   1.213   5.771   0.885
 3264SOL    HW210692   1.079   5.854   0.841
 3265SOL     OW10693   4.518   0.622   6.238
 3265SOL    HW110694   4.604   0.583   6.272
 3265SOL    HW210695   4.475   0.676   6.310
 3266SOL     OW10696   2.029   4.208   0.078
 3266SOL    HW110697   2.027   4.259   7.015
 3266SOL    HW210698   2.119   4.221   0.121
 3267SOL     OW10699   3.191   6.144   1.247
 3267SOL    HW110700   3.207   6.220   1.310
 3267SOL    HW210701   3.134   6.075   1.292
 3268SOL     OW10702   2.093   3.897   1.793
 3268SOL    HW110703   2.096   3.815   1.851
 3268SOL    HW210704   2.102   3.978   1.850
 3269SOL     OW10705   4.952   5.810   2.272
 3269SOL    HW110706   4.978   5.904   2.248
 3269SOL    HW210707   4.889   5.812   2.349
 3270SOL     OW10708   1.322   4.485   6.134
 3270SOL    HW110709   1.385   4.435   6.194
 3270SOL    HW210710   1.372   4.520   6.055
 3271SOL     OW10711   5.702   3.790   1.825
 3271SOL    HW110712   5.645   3.753   1.752
 3271SOL    HW210713   5.766   3.720   1.856
 3272SOL     OW10714   3.002   4.461   6.279
 3272SOL    HW110715   3.049   4.477   6.366
 3272SOL    HW210716   2.943   4.538   6.258
 3273SOL     OW10717   6.120   5.712   0.352
 3273SOL    HW110718   6.204   5.709   0.407
 3273SOL    HW210719   6.063   5.788   0.383
 3274SOL     OW10720   5.166   1.089   1.047
 3274SOL    HW110721   5.152   1.182   1.081
 3274SOL    HW210722   5.237   1.089   0.976
 3275SOL     OW10723   5.720   0.806   6.918
 3275SOL    HW110724   5.691   0.735   6.982
 3275SOL    HW210725   5.760   0.883   6.969
 3276SOL     OW10726   3.385   5.928   6.546
 3276SOL    HW110727   3.394   5.986   6.628
 3276SOL    HW210728   3.319   5.855   6.564
 3277SOL     OW10729   3.721   0.301   0.696
 3277SOL    HW110730   3.681   0.215   0.666
 3277SOL    HW210731   3.787   0.332   0.627
 3278SOL     OW10732   0.814   0.833   5.619
 3278SOL    HW110733   0.833   0.914   5.564
 3278SOL    HW210734   0.766   0.860   5.703
 3279SOL     OW10735   4.968   0.249   0.380
 3279SOL    HW110736   5.055   0.259   0.427
 3279SOL    HW210737   4.977   0.186   0.304
 3280SOL     OW10738   5.024   4.177   4.535
 3280SOL    HW110739   4.939   4.132   4.506
 3280SOL    HW210740   5.082   4.193   4.456
 3281SOL     OW10741   1.441   4.746   1.617
 3281SOL    HW110742   1.379   4.821   1.640
 3281SOL    HW210743   1.391   4.659   1.622
 3282SOL     OW10744   0.352   5.157   5.073
 3282SOL    HW110745   0.352   5.249   5.110
 3282SOL    HW210746   0.344   5.091   5.148
 3283SOL     OW10747   3.486   0.790   1.196
 3283SOL    HW110748   3.568   0.743   1.228
 3283SOL    HW210749   3.417   0.791   1.268
 3284SOL     OW10750   0.349   5.590   6.721
 3284SOL    HW110751   0.357   5.490   6.727
 3284SOL    HW210752   0.384   5.621   6.632
 3285SOL     OW10753   3.993   2.210   3.721
 3285SOL    HW110754   4.068   2.145   3.733
 3285SOL    HW210755   4.014   2.272   3.646
 3286SOL     OW10756   3.560   3.194   2.635
 3286SOL    HW110757   3.629   3.201   2.563
 3286SOL    HW210758   3.584   3.119   2.697
 3287SOL     OW10759   0.811   0.340   0.075
 3287SOL    HW110760   0.887   0.386   0.028
 3287SOL    HW210761   0.799   0.249   0.036
 3288SOL     OW10762   2.010   6.274   0.194
 3288SOL    HW110763   2.108   6.292   0.179
 3288SOL    HW210764   1.956   6.338   0.140
 3289SOL     OW10765   3.106   0.914   5.210
 3289SOL    HW110766   3.036   0.976   5.174
 3289SOL    HW210767   3.187   0.917   5.151
 3290SOL     OW10768   0.349   5.575   1.491
 3290SOL    HW110769   0.262   5.526   1.490
 3290SOL    HW210770   0.337   5.664   1.534
 3291SOL     OW10771   2.064   0.192   6.688
 3291SOL    HW110772   2.083   0.272   6.632
 3291SOL    HW210773   2.103   0.110   6.645
 3292SOL     OW10774   0.088   0.818   0.682
 3292SOL    HW110775   0.033   0.897   0.710
 3292SOL    HW210776   0.033   0.735   0.693
 3293SOL     OW10777   6.684   4.211   2.173
 3293SOL    HW110778   6.667   4.130   2.117
 3293SOL    HW210779   6.600   4.239   2.219
 3294SOL     OW10780   5.955   2.753   6.304
 3294SOL    HW110781   6.041   2.779   6.259
 3294SOL    HW210782   5.976   2.709   6.391
 3295SOL     OW10783   1.330   2.748   2.317
 3295SOL    HW110784   1.380   2.679   2.266
 3295SOL    HW210785   1.277   2.704   2.390
 3296SOL     OW10786   1.328   0.103   2.808
 3296SOL    HW110787   1.332   0.196   2.845
 3296SOL    HW210788   1.356   0.039   2.880
 3297SOL     OW10789   3.050   1.632   5.547
 3297SOL    HW110790   3.010   1.544   5.524
 3297SOL    HW210791   3.093   1.672   5.466
 3298SOL     OW10792   6.147   2.094   5.625
 3298SOL    HW110793   6.048   2.108   5.631
 3298SOL    HW210794   6.169   2.050   5.538
 3299SOL     OW10795   3.818   5.825   3.089
 3299SOL    HW110796   3.917   5.844   3.086
 3299SOL    HW210797   3.782   5.854   3.177
 3300SOL     OW10798   0.308   0.824   5.377
 3300SOL    HW110799   0.352   0.883   5.310
 3300SOL    HW210800   0.361   0.822   5.461
 3301SOL     OW10801   2.221   3.049   3.490
 3301SOL    HW110802   2.238   3.044   3.391
 3301SOL    HW210803   2.193   2.959   3.524
 3302SOL     OW10804   0.575   4.977   5.584
 3302SOL    HW110805   0.543   4.980   5.678
 3302SOL    HW210806   0.508   5.022   5.524
 3303SOL     OW10807   3.337   3.480   0.763
 3303SOL    HW110808   3.326   3.444   0.670
 3303SOL    HW210809   3.433   3.471   0.791
 3304SOL     OW10810   1.869   5.384   4.710
 3304SOL    HW110811   1.853   5.346   4.619
 3304SOL    HW210812   1.792   5.444   4.735
 3305SOL     OW10813   2.346   1.312   2.033
 3305SOL    HW110814   2.274   1.371   2.068
 3305SOL    HW210815   2.377   1.346   1.944
 3306SOL     OW10816   2.111   5.503   4.766
 3306SOL    HW110817   2.034   5.449   4.732
 3306SOL    HW210818   2.130   5.477   4.861
 3307SOL     OW10819   0.257   5.895   6.294
 3307SOL    HW110820   0.292   5.817   6.242
 3307SOL    HW210821   0.163   5.916   6.264
 3308SOL     OW10822   2.767   6.022   1.403
 3308SOL    HW110823   2.723   6.020   1.313
 3308SOL    HW210824   2.716   5.965   1.467
 3309SOL     OW10825   6.282   5.554   4.065
 3309SOL    HW110826   6.212   5.493   4.028
 3309SOL    HW210827   6.350   5.573   3.994
 3310SOL     OW10828   0.317   4.117   5.175
 3310SOL    HW110829   0.279   4.026   5.190
 3310SOL    HW210830   0.324   4.165   5.263
 3311SOL     OW10831   4.219   4.156   0.513
 3311SOL    HW110832   4.190   4.129   0.422
 3311SOL    HW210833   4.139   4.179   0.568
 3312SOL     OW10834   4.274   4.502   5.714
 3312SOL    HW110835   4.234   4.437   5.778
 3312SOL    HW210836   4.363   4.534   5.749
 3313SOL     OW10837   0.973   6.396   3.732
 3313SOL    HW110838   0.972   6.380   3.634
 3313SOL    HW210839   1.068   6.394   3.765
 3314SOL     OW10840   2.085   1.181   2.304
 3314SOL    HW110841   1.996   1.149   2.335
 3314SOL    HW210842   2.138   1.211   2.383
 3315SOL     OW10843   6.916   4.490   4.946
 3315SOL    HW110844   6.916   4.563   4.878
 3315SOL    HW210845   6.889   4.404   4.903
 3316SOL     OW10846   5.179   0.817   5.666
 3316SOL    HW110847   5.109   0.865   5.613
 3316SOL    HW210848   5.237   0.883   5.713
 3317SOL     OW10849   4.873   2.816   1.871
 3317SOL    HW110850   4.802   2.798   1.803
 3317SOL    HW210851   4.838   2.877   1.941
 3318SOL     OW10852   2.025   1.813   1.471
 3318SOL    HW110853   2.034   1.799   1.373
 3318SOL    HW210854   2.106   1.776   1.518
 3319SOL     OW10855   6.443   1.763   3.853
 3319SOL    HW110856   6.485   1.763   3.944
 3319SOL    HW210857   6.352   1.723   3.859
 3320SOL     OW10858   6.715   0.676   5.168
 3320SOL    HW110859   6.751   0.587   5.142
 3320SOL    HW210860   6.774   0.748   5.132
 3321SOL     OW10861   4.590   1.362   0.246
 3321SOL    HW110862   4.496   1.393   0.264
 3321SOL    HW210863   4.592   1.310   0.161
 3322SOL     OW10864   6.632   2.348   0.994
 3322SOL    HW110865   6.645   2.442   0.960
 3322SOL    HW210866   6.684   2.336   1.079
 3323SOL     OW10867   3.145   2.513   0.227
 3323SOL    HW110868   3.111   2.516   0.321
 3323SOL    HW210869   3.071   2.485   0.166
 3324SOL     OW10870   3.976   5.132   6.635
 3324SOL    HW110871   4.036   5.212   6.639
 3324SOL    HW210872   3.894   5.155   6.584
 3325SOL     OW10873   0.093   3.477   6.460
 3325SOL    HW110874   0.170   3.511   6.514
 3325SOL    HW210875   0.096   3.377   6.455
 3326SOL     OW10876   5.109   1.794   2.339
 3326SOL    HW110877   5.037   1.796   2.408
 3326SOL    HW210878   5.139   1.700   2.324
 3327SOL     OW10879   3.033   5.170   1.916
 3327SOL    HW110880   2.996   5.206   2.001
 3327SOL    HW210881   2.958   5.138   1.857
 3328SOL     OW10882   4.331   1.858   0.343
 3328SOL    HW110883   4.416   1.904   0.316
 3328SOL    HW210884   4.303   1.891   0.433
 3329SOL     OW10885   5.712   0.638   4.838
 3329SOL    HW110886   5.800   0.682   4.851
 3329SOL    HW210887   5.659   0.688   4.769
 3330SOL     OW10888   6.455   4.454   1.591
 3330SOL    HW110889   6.487   4.360   1.582
 3330SOL    HW210890   6.528   4.517   1.566
 3331SOL     OW10891   2.112   2.637   1.702
 3331SOL    HW110892   2.186   2.592   1.752
 3331SOL    HW210893   2.084   2.720   1.751
 3332SOL     OW10894   5.430   5.715   6.873
 3332SOL    HW110895   5.400   5.723   6.968
 3332SOL    HW210896   5.353   5.734   6.812
 3333SOL     OW10897   4.657   4.734   6.621
 3333SOL    HW110898   4.688   4.647   6.657
 3333SOL    HW210899   4.587   4.773   6.681
 3334SOL     OW10900   2.736   4.038   1.597
 3334SOL    HW110901   2.803   3.973   1.633
 3334SOL    HW210902   2.768   4.131   1.612
 3335SOL     OW10903   4.810   6.043   5.863
 3335SOL    HW110904   4.876   6.008   5.797
 3335SOL    HW210905   4.730   6.078   5.815
 3336SOL     OW10906   2.812   6.015   4.700
 3336SOL    HW110907   2.897   5.963   4.705
 3336SOL    HW210908   2.828   6.102   4.653
 3337SOL     OW10909   3.038   3.883   2.909
 3337SOL    HW110910   3.027   3.962   2.848
 3337SOL    HW210911   3.132   3.849   2.902
 3338SOL     OW10912   5.919   2.544   1.355
 3338SOL    HW110913   5.889   2.577   1.266
 3338SOL    HW210914   5.907   2.445   1.360
 3339SOL     OW10915   6.600   0.195   6.771
 3339SOL    HW110916   6.548   0.129   6.716
 3339SOL    HW210917   6.620   0.276   6.716
 3340SOL     OW10918   3.613   0.954   2.362
 3340SOL    HW110919   3.618   0.857   2.384
 3340SOL    HW210920   3.635   1.008   2.444
 3341SOL     OW10921   1.068   5.730   3.246
 3341SOL    HW110922   1.024   5.807   3.291
 3341SOL    HW210923   1.040   5.728   3.150
 3342SOL     OW10924   2.531   0.014   4.366
 3342SOL    HW110925   2.543   0.103   4.323
 3342SOL    HW210926   2.584   6.968   4.317
 3343SOL     OW10927   4.759   3.019   0.683
 3343SOL    HW110928   4.761   3.071   0.598
 3343SOL    HW210929   4.676   2.964   0.687
 3344SOL     OW10930   5.834   3.516   4.122
 3344SOL    HW110931   5.795   3.469   4.043
 3344SOL    HW210932   5.761   3.552   4.179
 3345SOL     OW10933   1.583   3.478   6.173
 3345SOL    HW110934   1.628   3.389   6.182
 3345SOL    HW210935   1.504   3.481   6.234
 3346SOL     OW10936   1.525   0.401   0.186
 3346SOL    HW110937   1.571   0.490   0.186
 3346SOL    HW210938   1.488   0.383   0.277
 3347SOL     OW10939   0.671   3.915   4.094
 3347SOL    HW110940   0.720   3.983   4.040
 3347SOL    HW210941   0.588   3.956   4.133
 3348SOL     OW10942   2.932   3.255   3.662
 3348SOL    HW110943   2.930   3.346   3.702
 3348SOL    HW210944   2.988   3.194   3.719
 3349SOL     OW10945   1.327   5.695   3.262
 3349SOL    HW110946   1.362   5.784   3.235
 3349SOL    HW210947   1.227   5.696   3.262
 3350SOL     OW10948   1.485   2.422   5.837
 3350SOL    HW110949   1.444   2.354   5.777
 3350SOL    HW210950   1.555   2.473   5.787
 3351SOL     OW10951   5.258   0.388   2.384
 3351SOL    HW110952   5.346   0.435   2.388
 3351SOL    HW210953   5.272   0.290   2.399
 3352SOL     OW10954   0.246   2.743   0.515
 3352SOL    HW110955   0.249   2.665   0.453
 3352SOL    HW210956   0.330   2.747   0.568
 3353SOL     OW10957   1.418   5.725   2.056
 3353SOL    HW110958   1.436   5.661   2.130
 3353SOL    HW210959   1.463   5.812   2.075
 3354SOL     OW10960   4.883   2.557   5.220
 3354SOL    HW110961   4.879   2.468   5.174
 3354SOL    HW210962   4.825   2.622   5.170
 3355SOL     OW10963   2.070   1.678   0.608
 3355SOL    HW110964   1.983   1.629   0.603
 3355SOL    HW210965   2.116   1.656   0.694
 3356SOL     OW10966   2.044   4.261   6.195
 3356SOL    HW110967   2.118   4.232   6.134
 3356SOL    HW210968   2.029   4.360   6.184
 3357SOL     OW10969   2.605   4.668   1.843
 3357SOL    HW110970   2.681   4.647   1.904
 3357SOL    HW210971   2.525   4.694   1.896
 3358SOL     OW10972   5.228   0.528   0.602
 3358SOL    HW110973   5.161   0.570   0.664
 3358SOL    HW210974   5.310   0.584   0.599
 3359SOL     OW10975   0.161   0.497   3.623
 3359SOL    HW110976   0.086   0.561   3.642
 3359SOL    HW210977   0.233   0.544   3.572
 3360SOL     OW10978   0.368   1.362   6.412
 3360SOL    HW110979   0.395   1.446   6.459
 3360SOL    HW210980   0.356   1.289   6.478
 3361SOL     OW10981   0.695   4.350   2.958
 3361SOL    HW110982   0.728   4.257   2.941
 3361SOL    HW210983   0.619   4.370   2.896
 3362SOL     OW10984   3.873   1.641   3.587
 3362SOL    HW110985   3.877   1.738   3.561
 3362SOL    HW210986   3.890   1.633   3.685
 3363SOL     OW10987   7.020   7.015   0.459
 3363SOL    HW110988   0.006   6.941   0.525
 3363SOL    HW210989   0.069   7.007   0.390
 3364SOL     OW10990   1.056   4.723   3.918
 3364SOL    HW110991   1.090   4.801   3.865
 3364SOL    HW210992   1.015   4.757   4.003
 3365SOL     OW10993   0.702   2.418   5.265
 3365SOL    HW110994   0.733   2.345   5.204
 3365SOL    HW210995   0.653   2.488   5.212
 3366SOL     OW10996   6.046   0.620   6.163
 3366SOL    HW110997   6.068   0.681   6.240
 3366SOL    HW210998   6.016   0.675   6.085
 3367SOL     OW10999   3.631   2.758   1.522
 3367SOL    HW111000   3.665   2.669   1.552
 3367SOL    HW211001   3.545   2.746   1.473
 3368SOL     OW11002   0.716   5.075   5.931
 3368SOL    HW111003   0.813   5.054   5.940
 3368SOL    HW211004   0.705   5.167   5.892
 3369SOL     OW11005   3.713   2.306   5.537
 3369SOL    HW111006   3.710   2.257   5.450
 3369SOL    HW211007   3.715   2.404   5.519
 3370SOL     OW11008   6.720   6.015   6.115
 3370SOL    HW111009   6.706   5.959   6.034
 3370SOL    HW211010   6.727   6.111   6.089
 3371SOL     OW11011   1.609   3.542   2.275
 3371SOL    HW111012   1.555   3.604   2.218
 3371SOL    HW211013   1.551   3.467   2.307
 3372SOL     OW11014   1.141   1.074   1.199
 3372SOL    HW111015   1.231   1.063   1.240
 3372SOL    HW211016   1.135   1.164   1.154
 3373SOL     OW11017   6.962   2.030   2.970
 3373SOL    HW111018   6.887   1.966   2.953
 3373SOL    HW211019   7.015   1.998   3.049
 3374SOL     OW11020   1.687   6.555   4.246
 3374SOL    HW111021   1.773   6.539   4.294
 3374SOL    HW211022   1.639   6.467   4.234
 3375SOL     OW11023   5.977   5.736   6.356
 3375SOL    HW111024   5.901   5.731   6.291
 3375SOL    HW211025   6.024   5.648   6.359
 3376SOL     OW11026   4.044   3.269   3.477
 3376SOL    HW111027   3.956   3.314   3.462
 3376SOL    HW211028   4.073   3.283   3.571
 3377SOL     OW11029   0.348   6.458   4.594
 3377SOL    HW111030   0.397   6.545   4.599
 3377SOL    HW211031   0.347   6.415   4.684
 3378SOL     OW11032   6.828   0.969   0.133
 3378SOL    HW111033   6.805   0.887   0.186
 3378SOL    HW211034   6.749   1.030   0.132
 3379SOL     OW11035   6.810   6.081   6.749
 3379SOL    HW111036   6.715   6.103   6.724
 3379SOL    HW211037   6.866   6.164   6.744
 3380SOL     OW11038   5.998   6.804   6.196
 3380SOL    HW111039   6.026   6.715   6.161
 3380SOL    HW211040   5.928   6.793   6.266
 3381SOL     OW11041   1.086   2.851   1.199
 3381SOL    HW111042   1.058   2.763   1.161
 3381SOL    HW211043   1.141   2.835   1.281
 3382SOL     OW11044   0.578   1.342   0.882
 3382SOL    HW111045   0.547   1.272   0.817
 3382SOL    HW211046   0.563   1.433   0.842
 3383SOL     OW11047   4.376   5.879   2.122
 3383SOL    HW111048   4.386   5.917   2.031
 3383SOL    HW211049   4.336   5.787   2.116
 3384SOL     OW11050   2.233   3.420   5.758
 3384SOL    HW111051   2.291   3.495   5.789
 3384SOL    HW211052   2.284   3.335   5.760
 3385SOL     OW11053   0.247   3.107   3.934
 3385SOL    HW111054   0.250   3.079   4.030
 3385SOL    HW211055   0.223   3.028   3.878
 3386SOL     OW11056   6.525   3.476   6.663
 3386SOL    HW111057   6.438   3.490   6.617
 3386SOL    HW211058   6.575   3.562   6.668
 3387SOL     OW11059   3.007   1.343   3.784
 3387SOL    HW111060   3.017   1.303   3.875
 3387SOL    HW211061   3.009   1.443   3.791
 3388SOL     OW11062   5.094   2.966   2.032
 3388SOL    HW111063   5.025   3.025   1.992
 3388SOL    HW211064   5.122   2.897   1.965
 3389SOL     OW11065   5.287   4.659   5.460
 3389SOL    HW111066   5.300   4.627   5.366
 3389SOL    HW211067   5.363   4.718   5.486
 3390SOL     OW11068   5.168   4.710   5.917
 3390SOL    HW111069   5.099   4.782   5.916
 3390SOL    HW211070   5.147   4.644   5.989
 3391SOL     OW11071   5.099   3.145   4.879
 3391SOL    HW111072   5.031   3.216   4.898
 3391SOL    HW211073   5.142   3.116   4.965
 3392SOL     OW11074   2.658   6.868   3.897
 3392SOL    HW111075   2.684   6.845   3.991
 3392SOL    HW211076   2.563   6.900   3.896
 3393SOL     OW11077   0.162   6.270   0.002
 3393SOL    HW111078   0.261   6.273   0.013
 3393SOL    HW211079   0.120   6.341   0.057
 3394SOL     OW11080   6.033   3.282   1.461
 3394SOL    HW111081   5.996   3.255   1.372
 3394SOL    HW211082   6.009   3.213   1.529
 3395SOL     OW11083   5.476   3.015   3.340
 3395SOL    HW111084   5.450   2.939   3.401
 3395SOL    HW211085   5.564   2.993   3.297
 3396SOL     OW11086   5.206   1.863   3.317
 3396SOL    HW111087   5.166   1.847   3.408
 3396SOL    HW211088   5.299   1.828   3.316
 3397SOL     OW11089   2.521   0.813   5.302
 3397SOL    HW111090   2.523   0.718   5.269
 3397SOL    HW211091   2.435   0.829   5.350
 3398SOL     OW11092   1.165   0.238   4.497
 3398SOL    HW111093   1.105   0.210   4.421
 3398SOL    HW211094   1.213   0.157   4.532
 3399SOL     OW11095   5.840   4.156   4.364
 3399SOL    HW111096   5.882   4.246   4.354
 3399SOL    HW211097   5.907   4.085   4.340
 3400SOL     OW11098   4.942   2.429   6.097
 3400SOL    HW111099   5.028   2.415   6.048
 3400SOL    HW211100   4.960   2.475   6.184
 3401SOL     OW11101   6.855   3.584   1.107
 3401SOL    HW111102   6.834   3.623   1.197
 3401SOL    HW211103   6.937   3.527   1.114
 3402SOL     OW11104   3.559   6.309   6.627
 3402SOL    HW111105   3.511   6.238   6.678
 3402SOL    HW211106   3.509   6.396   6.634
 3403SOL     OW11107   4.259   6.703   4.866
 3403SOL    HW111108   4.167   6.693   4.902
 3403SOL    HW211109   4.301   6.786   4.903
 3404SOL     OW11110   5.166   1.384   0.216
 3404SOL    HW111111   5.077   1.421   0.244
 3404SOL    HW211112   5.157   1.341   0.126
 3405SOL     OW11113   7.017   3.811   4.205
 3405SOL    HW111114   0.038   3.851   4.285
 3405SOL    HW211115   6.931   3.769   4.232
 3406SOL     OW11116   0.891   4.220   2.087
 3406SOL    HW111117   0.952   4.143   2.103
 3406SOL    HW211118   0.798   4.186   2.070
 3407SOL     OW11119   1.346   5.266   6.867
 3407SOL    HW111120   1.389   5.305   6.948
 3407SOL    HW211121   1.313   5.340   6.808
 3408SOL     OW11122   4.865   3.813   5.501
 3408SOL    HW111123   4.862   3.714   5.492
 3408SOL    HW211124   4.893   3.854   5.414
 3409SOL     OW11125   3.143   6.190   6.640
 3409SOL    HW111126   3.074   6.129   6.600
 3409SOL    HW211127   3.128   6.283   6.607
 3410SOL     OW11128   0.103   6.054   6.854
 3410SOL    HW111129   0.120   6.131   6.915
 3410SOL    HW211130   0.050   5.984   6.901
 3411SOL     OW11131   0.524   2.876   1.562
 3411SOL    HW111132   0.600   2.908   1.619
 3411SOL    HW211133   0.454   2.835   1.619
 3412SOL     OW11134   4.046   2.669   6.785
 3412SOL    HW111135   4.015   2.574   6.781
 3412SOL    HW211136   3.988   2.721   6.847
 3413SOL     OW11137   5.772   1.386   1.098
 3413SOL    HW111138   5.744   1.477   1.127
 3413SOL    HW211139   5.839   1.349   1.162
 3414SOL     OW11140   1.962   0.639   5.989
 3414SOL    HW111141   1.971   0.546   5.954
 3414SOL    HW211142   1.869   0.654   6.022
 3415SOL     OW11143   1.698   3.832   4.925
 3415SOL    HW111144   1.767   3.899   4.897
 3415SOL    HW211145   1.657   3.790   4.844
 3416SOL     OW11146   0.118   5.760   0.798
 3416SOL    HW111147   0.218   5.755   0.804
 3416SOL    HW211148   0.080   5.773   0.889
 3417SOL     OW11149   0.642   5.955   3.153
 3417SOL    HW111150   0.649   6.055   3.160
 3417SOL    HW211151   0.674   5.913   3.238
 3418SOL     OW11152   3.781   0.934   4.414
 3418SOL    HW111153   3.745   0.879   4.489
 3418SOL    HW211154   3.740   0.902   4.328
 3419SOL     OW11155   4.183   5.824   4.994
 3419SOL    HW111156   4.202   5.904   5.051
 3419SOL    HW211157   4.108   5.845   4.932
 3420SOL     OW11158   5.505   2.881   4.121
 3420SOL    HW111159   5.577   2.880   4.190
 3420SOL    HW211160   5.520   2.809   4.055
 3421SOL     OW11161   5.795   0.780   5.995
 3421SOL    HW111162   5.719   0.789   6.060
 3421SOL    HW211163   5.783   0.845   5.920
 3422SOL     OW11164   1.958   0.449   1.055
 3422SOL    HW111165   1.877   0.502   1.082
 3422SOL    HW211166   2.033   0.469   1.118
 3423SOL     OW11167   1.772   5.401   6.912
 3423SOL    HW111168   1.752   5.395   6.814
 3423SOL    HW211169   1.690   5.378   6.964
 3424SOL     OW11170   2.791   6.555   1.859
 3424SOL    HW111171   2.770   6.646   1.895
 3424SOL    HW211172   2.707   6.500   1.854
 3425SOL     OW11173   4.957   4.851   2.482
 3425SOL    HW111174   4.989   4.824   2.573
 3425SOL    HW211175   4.904   4.776   2.442
 3426SOL     OW11176   3.697   2.540   0.567
 3426SOL    HW111177   3.707   2.552   0.666
 3426SOL    HW211178   3.615   2.589   0.536
 3427SOL     OW11179   6.525   6.956   0.032
 3427SOL    HW111180   6.517   6.913   0.122
 3427SOL    HW211181   6.437   6.993   0.004
 3428SOL     OW11182   3.031   4.733   0.661
 3428SOL    HW111183   3.054   4.830   0.665
 3428SOL    HW211184   3.097   4.686   0.602
 3429SOL     OW11185   0.333   2.215   0.351
 3429SOL    HW111186   0.401   2.256   0.412
 3429SOL    HW211187   0.371   2.131   0.310
 3430SOL     OW11188   0.225   6.416   5.173
 3430SOL    HW111189   0.128   6.411   5.195
 3430SOL    HW211190   0.249   6.510   5.149
 3431SOL     OW11191   1.226   6.991   1.399
 3431SOL    HW111192   1.126   7.001   1.403
 3431SOL    HW211193   1.267   0.013   1.478
 3432SOL     OW11194   1.992   2.586   6.861
 3432SOL    HW111195   2.085   2.611   6.888
 3432SOL    HW211196   1.936   2.575   6.944
 3433SOL     OW11197   1.095   0.246   6.419
 3433SOL    HW111198   1.051   0.221   6.333
 3433SOL    HW211199   1.076   0.177   6.488
 3434SOL     OW11200   4.642   1.898   0.535
 3434SOL    HW111201   4.585   1.824   0.571
 3434SOL    HW211202   4.589   1.952   0.470
 3435SOL     OW11203   0.829   1.787   1.029
 3435SOL    HW111204   0.733   1.768   1.048
 3435SOL    HW211205   0.875   1.703   1.003
 3436SOL     OW11206   3.504   5.985   6.296
 3436SOL    HW111207   3.496   5.974   6.395
 3436SOL    HW211208   3.413   5.995   6.256
 3437SOL     OW11209   1.872   1.325   6.028
 3437SOL    HW111210   1.960   1.287   6.057
 3437SOL    HW211211   1.865   1.420   6.058
 3438SOL     OW11212   1.262   2.759   0.303
 3438SOL    HW111213   1.262   2.699   0.384
 3438SOL    HW211214   1.261   2.854   0.333
 3439SOL     OW11215   2.023   6.472   5.012
 3439SOL    HW111216   2.121   6.461   5.027
 3439SOL    HW211217   2.005   6.480   4.914
 3440SOL     OW11218   3.729   3.335   1.724
 3440SOL    HW111219   3.797   3.385   1.777
 3440SOL    HW211220   3.745   3.351   1.627
 3441SOL     OW11221   5.349   6.989   4.079
 3441SOL    HW111222   5.448   6.974   4.082
 3441SOL    HW211223   5.318   6.984   3.984
 3442SOL     OW11224   3.402   5.571   1.960
 3442SOL    HW111225   3.446   5.593   2.047
 3442SOL    HW211226   3.338   5.643   1.936
 3443SOL     OW11227   5.240   6.316   2.066
 3443SOL    HW111228   5.217   6.323   2.163
 3443SOL    HW211229   5.339   6.318   2.056
 3444SOL     OW11230   5.321   5.613   0.319
 3444SOL    HW111231   5.338   5.517   0.338
 3444SOL    HW211232   5.242   5.644   0.373
 3445SOL     OW11233   5.959   5.800   4.558
 3445SOL    HW111234   5.890   5.856   4.511
 3445SOL    HW211235   5.916   5.719   4.596
 3446SOL     OW11236   6.343   0.331   2.507
 3446SOL    HW111237   6.379   0.424   2.501
 3446SOL    HW211238   6.245   0.334   2.525
 3447SOL     OW11239   5.554   5.778   1.003
 3447SOL    HW111240   5.466   5.734   1.020
 3447SOL    HW211241   5.577   5.771   0.906
 3448SOL     OW11242   3.212   0.110   0.806
 3448SOL    HW111243   3.116   0.086   0.813
 3448SOL    HW211244   3.260   0.080   0.889
 3449SOL     OW11245   6.859   6.809   4.048
 3449SOL    HW111246   6.956   6.831   4.035
 3449SOL    HW211247   6.821   6.864   4.122
 3450SOL     OW11248   6.843   1.853   6.558
 3450SOL    HW111249   6.860   1.946   6.589
 3450SOL    HW211250   6.929   1.801   6.558
 3451SOL     OW11251   2.067   6.379   1.817
 3451SOL    HW111252   2.112   6.290   1.808
 3451SOL    HW211253   2.094   6.438   1.741
 3452SOL     OW11254   5.917   1.096   6.119
 3452SOL    HW111255   5.938   1.048   6.205
 3452SOL    HW211256   5.830   1.062   6.083
 3453SOL     OW11257   6.966   5.796   5.810
 3453SOL    HW111258   6.988   5.778   5.714
 3453SOL    HW211259   6.979   5.893   5.830
 3454SOL     OW11260   1.181   1.930   6.532
 3454SOL    HW111261   1.142   2.021   6.517
 3454SOL    HW211262   1.185   1.911   6.630
 3455SOL     OW11263   2.378   2.206   4.507
 3455SOL    HW111264   2.427   2.279   4.554
 3455SOL    HW211265   2.386   2.121   4.559
 3456SOL     OW11266   5.978   5.426   2.625
 3456SOL    HW111267   5.932   5.411   2.712
 3456SOL    HW211268   6.071   5.392   2.630
 3457SOL     OW11269   3.161   5.854   3.680
 3457SOL    HW111270   3.082   5.795   3.699
 3457SOL    HW211271   3.225   5.807   3.621
 3458SOL     OW11272   4.831   0.498   1.019
 3458SOL    HW111273   4.766   0.466   0.951
 3458SOL    HW211274   4.832   0.436   1.098
 3459SOL     OW11275   5.980   4.110   2.866
 3459SOL    HW111276   6.026   4.090   2.780
 3459SOL    HW211277   5.907   4.044   2.881
 3460SOL     OW11278   2.587   3.289   0.179
 3460SOL    HW111279   2.659   3.313   0.245
 3460SOL    HW211280   2.532   3.371   0.160
 3461SOL     OW11281   4.710   6.811   5.173
 3461SOL    HW111282   4.779   6.845   5.237
 3461SOL    HW211283   4.621   6.811   5.218
 3462SOL     OW11284   0.659   3.649   2.110
 3462SOL    HW111285   0.638   3.552   2.101
 3462SOL    HW211286   0.750   3.667   2.071
 3463SOL     OW11287   1.067   3.805   3.185
 3463SOL    HW111288   1.151   3.841   3.226
 3463SOL    HW211289   1.044   3.859   3.104
 3464SOL     OW11290   6.646   3.239   6.663
 3464SOL    HW111291   6.626   3.186   6.745
 3464SOL    HW211292   6.598   3.327   6.666
 3465SOL     OW11293   1.433   2.561   2.140
 3465SOL    HW111294   1.462   2.583   2.047
 3465SOL    HW211295   1.490   2.487   2.176
 3466SOL     OW11296   6.919   4.857   6.865
 3466SOL    HW111297   6.925   4.909   6.950
 3466SOL    HW211298   6.948   4.914   6.788
 3467SOL     OW11299   2.026   2.506   0.765
 3467SOL    HW111300   2.109   2.535   0.812
 3467SOL    HW211301   1.952   2.570   0.785
 3468SOL     OW11302   5.828   0.104   2.784
 3468SOL    HW111303   5.917   0.063   2.767
 3468SOL    HW211304   5.760   0.060   2.724
 3469SOL     OW11305   4.752   6.971   3.557
 3469SOL    HW111306   4.671   6.928   3.597
 3469SOL    HW211307   4.815   6.998   3.629
 3470SOL     OW11308   6.515   2.694   2.085
 3470SOL    HW111309   6.476   2.756   2.018
 3470SOL    HW211310   6.476   2.602   2.073
 3471SOL     OW11311   4.639   4.847   4.640
 3471SOL    HW111312   4.543   4.874   4.632
 3471SOL    HW211313   4.656   4.767   4.582
 3472SOL     OW11314   3.088   1.244   3.028
 3472SOL    HW111315   3.051   1.173   3.089
 3472SOL    HW211316   3.014   1.282   2.973
 3473SOL     OW11317   0.041   2.863   1.566
 3473SOL    HW111318   0.112   2.934   1.568
 3473SOL    HW211319   0.024   2.835   1.472
 3474SOL     OW11320   1.157   4.738   2.586
 3474SOL    HW111321   1.173   4.642   2.562
 3474SOL    HW211322   1.109   4.784   2.511
 3475SOL     OW11323   1.108   4.380   4.465
 3475SOL    HW111324   1.188   4.321   4.474
 3475SOL    HW211325   1.131   4.460   4.410
 3476SOL     OW11326   1.993   1.459   2.964
 3476SOL    HW111327   1.940   1.538   2.995
 3476SOL    HW211328   2.066   1.439   3.029
 3477SOL     OW11329   1.708   5.466   0.843
 3477SOL    HW111330   1.787   5.408   0.861
 3477SOL    HW211331   1.661   5.434   0.761
 3478SOL     OW11332   2.591   5.406   5.324
 3478SOL    HW111333   2.599   5.366   5.233
 3478SOL    HW211334   2.653   5.359   5.387
 3479SOL     OW11335   0.738   0.815   3.245
 3479SOL    HW111336   0.812   0.805   3.178
 3479SOL    HW211337   0.653   0.779   3.207
 3480SOL     OW11338   0.490   6.172   4.766
 3480SOL    HW111339   0.550   6.178   4.686
 3480SOL    HW211340   0.478   6.263   4.806
 3481SOL     OW11341   4.703   0.857   0.201
 3481SOL    HW111342   4.619   0.809   0.175
 3481SOL    HW211343   4.742   0.814   0.282
 3482SOL     OW11344   6.463   1.523   1.998
 3482SOL    HW111345   6.500   1.577   2.073
 3482SOL    HW211346   6.369   1.494   2.021
 3483SOL     OW11347   4.937   2.133   1.951
 3483SOL    HW111348   4.985   2.103   1.869
 3483SOL    HW211349   4.838   2.123   1.938
 3484SOL     OW11350   1.149   3.311   0.061
 3484SOL    HW111351   1.170   3.229   0.009
 3484SOL    HW211352   1.087   3.370   0.009
 3485SOL     OW11353   2.029   1.425   4.031
 3485SOL    HW111354   2.062   1.512   3.993
 3485SOL    HW211355   1.972   1.444   4.111
 3486SOL     OW11356   2.837   0.223   3.877
 3486SOL    HW111357   2.778   0.175   3.941
 3486SOL    HW211358   2.803   0.316   3.863
 3487SOL     OW11359   6.090   2.420   5.854
 3487SOL    HW111360   6.185   2.425   5.823
 3487SOL    HW211361   6.077   2.339   5.911
 3488SOL     OW11362   6.429   0.395   4.688
 3488SOL    HW111363   6.498   0.463   4.715
 3488SOL    HW211364   6.368   0.379   4.765
 3489SOL     OW11365   4.221   6.898   1.583
 3489SOL    HW111366   4.201   6.924   1.488
 3489SOL    HW211367   4.317   6.871   1.591
 3490SOL     OW11368   4.259   4.647   0.666
 3490SOL    HW111369   4.266   4.564   0.722
 3490SOL    HW211370   4.338   4.705   0.683
 3491SOL     OW11371   4.513   2.470   5.708
 3491SOL    HW111372   4.534   2.388   5.655
 3491SOL    HW211373   4.505   2.548   5.646
 3492SOL     OW11374   6.749   4.666   1.525
 3492SOL    HW111375   6.829   4.696   1.473
 3492SOL    HW211376   6.769   4.579   1.571
 3493SOL     OW11377   5.315   3.993   5.139
 3493SOL    HW111378   5.362   3.922   5.085
 3493SOL    HW211379   5.219   3.996   5.113
 3494SOL     OW11380   3.562   0.444   1.931
 3494SOL    HW111381   3.567   0.345   1.919
 3494SOL    HW211382   3.481   0.467   1.987
 3495SOL     OW11383   5.471   5.020   1.487
 3495SOL    HW111384   5.446   4.931   1.449
 3495SOL    HW211385   5.550   5.009   1.548
 3496SOL     OW11386   6.036   4.695   1.107
 3496SOL    HW111387   6.098   4.760   1.150
 3496SOL    HW211388   6.086   4.640   1.039
 3497SOL     OW11389   2.717   1.151   4.087
 3497SOL    HW111390   2.646   1.142   4.157
 3497SOL    HW211391   2.675   1.175   4.000
 3498SOL     OW11392   2.966   2.314   1.082
 3498SOL    HW111393   2.939   2.411   1.081
 3498SOL    HW211394   3.054   2.305   1.128
 3499SOL     OW11395   4.920   3.760   3.935
 3499SOL    HW111396   4.880   3.709   4.011
 3499SOL    HW211397   5.015   3.783   3.955
 3500SOL     OW11398   1.783   3.719   5.206
 3500SOL    HW111399   1.780   3.728   5.106
 3500SOL    HW211400   1.829   3.799   5.245
 3501SOL     OW11401   1.553   5.742   5.030
 3501SOL    HW111402   1.550   5.840   5.011
 3501SOL    HW211403   1.579   5.727   5.125
 3502SOL     OW11404   6.566   2.649   2.565
 3502SOL    HW111405   6.556   2.697   2.652
 3502SOL    HW211406   6.490   2.675   2.504
 3503SOL     OW11407   6.210   6.746   5.044
 3503SOL    HW111408   6.277   6.682   5.009
 3503SOL    HW211409   6.147   6.772   4.971
 3504SOL     OW11410   2.496   1.631   1.578
 3504SOL    HW111411   2.435   1.561   1.616
 3504SOL    HW211412   2.581   1.632   1.629
 3505SOL     OW11413   5.954   4.144   5.242
 3505SOL    HW111414   5.882   4.149   5.173
 3505SOL    HW211415   5.914   4.138   5.333
 3506SOL     OW11416   5.146   5.515   5.777
 3506SOL    HW111417   5.110   5.506   5.684
 3506SOL    HW211418   5.080   5.477   5.842
 3507SOL     OW11419   1.839   0.791   1.013
 3507SOL    HW111420   1.763   0.855   1.008
 3507SOL    HW211421   1.867   0.779   1.108
 3508SOL     OW11422   2.654   2.076   5.351
 3508SOL    HW111423   2.591   2.148   5.381
 3508SOL    HW211424   2.661   2.078   5.251
 3509SOL     OW11425   5.450   6.927   5.975
 3509SOL    HW111426   5.468   6.846   6.030
 3509SOL    HW211427   5.453   7.008   6.034
 3510SOL     OW11428   1.376   2.065   2.332
 3510SOL    HW111429   1.397   2.041   2.426
 3510SOL    HW211430   1.302   2.007   2.298
 3511SOL     OW11431   2.615   5.009   0.725
 3511SOL    HW111432   2.608   5.014   0.626
 3511SOL    HW211433   2.704   5.042   0.755
 3512SOL     OW11434   6.976   4.639   1.185
 3512SOL    HW111435   7.005   4.547   1.158
 3512SOL    HW211436   0.010   4.707   1.140
 3513SOL     OW11437   5.429   2.672   0.311
 3513SOL    HW111438   5.409   2.690   0.408
 3513SOL    HW211439   5.469   2.581   0.302
 3514SOL     OW11440   0.350   1.475   1.720
 3514SOL    HW111441   0.265   1.527   1.730
 3514SOL    HW211442   0.330   1.387   1.676
 3515SOL     OW11443   5.269   5.837   3.187
 3515SOL    HW111444   5.169   5.830   3.194
 3515SOL    HW211445   5.293   5.927   3.151
 3516SOL     OW11446   4.899   6.790   0.669
 3516SOL    HW111447   4.807   6.790   0.709
 3516SOL    HW211448   4.952   6.714   0.707
 3517SOL     OW11449   1.416   2.448   0.722
 3517SOL    HW111450   1.339   2.389   0.699
 3517SOL    HW211451   1.393   2.543   0.701
 3518SOL     OW11452   6.036   2.278   3.975
 3518SOL    HW111453   6.082   2.318   4.055
 3518SOL    HW211454   5.948   2.240   4.003
 3519SOL     OW11455   1.537   0.768   6.563
 3519SOL    HW111456   1.500   0.847   6.612
 3519SOL    HW211457   1.622   0.739   6.607
 3520SOL     OW11458   3.145   4.520   6.848
 3520SOL    HW111459   3.103   4.545   6.761
 3520SOL    HW211460   3.160   4.602   6.903
 3521SOL     OW11461   4.966   2.184   6.846
 3521SOL    HW111462   5.051   2.133   6.831
 3521SOL    HW211463   4.980   2.250   6.920
 3522SOL     OW11464   0.398   4.753   1.825
 3522SOL    HW111465   0.485   4.734   1.870
 3522SOL    HW211466   0.323   4.746   1.891
 3523SOL     OW11467   1.983   5.376   6.034
 3523SOL    HW111468   1.991   5.474   6.053
 3523SOL    HW211469   1.889   5.354   6.010
 3524SOL     OW11470   4.649   1.526   1.844
 3524SOL    HW111471   4.707   1.606   1.861
 3524SOL    HW211472   4.669   1.455   1.912
 3525SOL     OW11473   1.513   4.168   3.384
 3525SOL    HW111474   1.514   4.071   3.359
 3525SOL    HW211475   1.420   4.194   3.411
 3526SOL     OW11476   2.147   6.708   4.097
 3526SOL    HW111477   2.084   6.777   4.133
 3526SOL    HW211478   2.236   6.718   4.141
 3527SOL     OW11479   6.066   3.136   6.330
 3527SOL    HW111480   6.056   3.104   6.235
 3527SOL    HW211481   6.130   3.213   6.333
 3528SOL     OW11482   0.802   5.731   4.967
 3528SOL    HW111483   0.707   5.762   4.967
 3528SOL    HW211484   0.808   5.640   5.007
 3529SOL     OW11485   4.042   0.536   0.131
 3529SOL    HW111486   3.962   0.485   0.163
 3529SOL    HW211487   4.122   0.506   0.182
 3530SOL     OW11488   0.334   5.178   2.671
 3530SOL    HW111489   0.337   5.275   2.646
 3530SOL    HW211490   0.274   5.129   2.608
 3531SOL     OW11491   5.070   2.914   0.625
 3531SOL    HW111492   5.007   2.929   0.701
 3531SOL    HW211493   5.054   2.982   0.554
 3532SOL     OW11494   2.899   0.751   1.468
 3532SOL    HW111495   2.854   0.676   1.421
 3532SOL    HW211496   2.982   0.717   1.512
 3533SOL     OW11497   1.781   2.031   2.570
 3533SOL    HW111498   1.869   2.064   2.604
 3533SOL    HW211499   1.753   1.951   2.622
 3534SOL     OW11500   5.997   0.988   6.356
 3534SOL    HW111501   5.991   0.896   6.395
 3534SOL    HW211502   5.975   1.056   6.426
 3535SOL     OW11503   1.665   6.009   0.996
 3535SOL    HW111504   1.761   5.982   0.998
 3535SOL    HW211505   1.608   5.928   0.981
 3536SOL     OW11506   2.789   2.161   3.021
 3536SOL    HW111507   2.753   2.251   3.042
 3536SOL    HW211508   2.825   2.119   3.104
 3537SOL     OW11509   3.047   5.397   1.669
 3537SOL    HW111510   2.993   5.321   1.632
 3537SOL    HW211511   3.137   5.363   1.695
 3538SOL     OW11512   1.391   0.465   6.520
 3538SOL    HW111513   1.292   0.462   6.534
 3538SOL    HW211514   1.414   0.539   6.456
 3539SOL     OW11515   5.691   3.226   5.789
 3539SOL    HW111516   5.641   3.263   5.867
 3539SOL    HW211517   5.710   3.298   5.723
 3540SOL     OW11518   2.683   2.270   5.804
 3540SOL    HW111519   2.682   2.182   5.755
 3540SOL    HW211520   2.704   2.253   5.901
 3541SOL     OW11521   1.511   2.364   6.701
 3541SOL    HW111522   1.559   2.441   6.744
 3541SOL    HW211523   1.567   2.327   6.627
 3542SOL     OW11524   1.425   4.846   2.555
 3542SOL    HW111525   1.357   4.782   2.592
 3542SOL    HW211526   1.385   4.937   2.549
 3543SOL     OW11527   0.446   2.317   4.975
 3543SOL    HW111528   0.486   2.401   5.011
 3543SOL    HW211529   0.387   2.339   4.897
 3544SOL     OW11530   2.795   4.245   6.326
 3544SOL    HW111531   2.764   4.255   6.232
 3544SOL    HW211532   2.856   4.321   6.349
 3545SOL     OW11533   3.950   5.268   0.530
 3545SOL    HW111534   4.004   5.196   0.488
 3545SOL    HW211535   3.997   5.303   0.610
 3546SOL     OW11536   0.800   4.036   3.874
 3546SOL    HW111537   0.873   4.076   3.929
 3546SOL    HW211538   0.829   3.946   3.842
 3547SOL     OW11539   6.652   4.823   4.814
 3547SOL    HW111540   6.733   4.771   4.786
 3547SOL    HW211541   6.601   4.770   4.882
 3548SOL     OW11542   5.780   0.502   5.967
 3548SOL    HW111543   5.778   0.598   5.996
 3548SOL    HW211544   5.867   0.484   5.920
 3549SOL     OW11545   6.682   4.499   5.997
 3549SOL    HW111546   6.705   4.476   6.092
 3549SOL    HW211547   6.762   4.537   5.952
 3550SOL     OW11548   5.738   3.516   3.393
 3550SOL    HW111549   5.687   3.602   3.391
 3550SOL    HW211550   5.798   3.515   3.473
 3551SOL     OW11551   3.589   1.818   2.409
 3551SOL    HW111552   3.588   1.839   2.507
 3551SOL    HW211553   3.569   1.901   2.357
 3552SOL     OW11554   6.224   6.299   1.751
 3552SOL    HW111555   6.223   6.364   1.674
 3552SOL    HW211556   6.193   6.345   1.834
 3553SOL     OW11557   4.587   5.511   1.062
 3553SOL    HW111558   4.594   5.522   0.963
 3553SOL    HW211559   4.586   5.602   1.105
 3554SOL     OW11560   4.502   2.068   1.400
 3554SOL    HW111561   4.516   1.996   1.469
 3554SOL    HW211562   4.409   2.062   1.365
 3555SOL     OW11563   0.399   4.476   3.678
 3555SOL    HW111564   0.411   4.431   3.589
 3555SOL    HW211565   0.357   4.413   3.743
 3556SOL     OW11566   4.271   1.651   4.208
 3556SOL    HW111567   4.266   1.566   4.155
 3556SOL    HW211568   4.306   1.630   4.299
 3557SOL     OW11569   1.509   1.620   4.453
 3557SOL    HW111570   1.519   1.559   4.532
 3557SOL    HW211571   1.537   1.572   4.370
 3558SOL     OW11572   0.968   6.480   2.495
 3558SOL    HW111573   0.880   6.507   2.456
 3558SOL    HW211574   0.962   6.386   2.528
 3559SOL     OW11575   0.705   6.264   5.408
 3559SOL    HW111576   0.629   6.242   5.469
 3559SOL    HW211577   0.789   6.273   5.461
 3560SOL     OW11578   1.173   6.028   2.658
 3560SOL    HW111579   1.230   5.975   2.596
 3560SOL    HW211580   1.078   5.997   2.652
 3561SOL     OW11581   4.221   4.808   4.829
 3561SOL    HW111582   4.135   4.848   4.863
 3561SOL    HW211583   4.238   4.722   4.876
 3562SOL     OW11584   4.716   1.251   3.413
 3562SOL    HW111585   4.813   1.232   3.397
 3562SOL    HW211586   4.661   1.209   3.341
 3563SOL     OW11587   5.766   1.336   6.972
 3563SOL    HW111588   5.819   1.266   7.022
 3563SOL    HW211589   5.675   1.343   7.012
 3564SOL     OW11590   1.673   4.305   3.619
 3564SOL    HW111591   1.703   4.253   3.538
 3564SOL    HW211592   1.716   4.267   3.700
 3565SOL     OW11593   2.667   5.831   4.863
 3565SOL    HW111594   2.717   5.798   4.943
 3565SOL    HW211595   2.721   5.902   4.817
 3566SOL     OW11596   6.940   3.770   5.845
 3566SOL    HW111597   7.000   3.795   5.920
 3566SOL    HW211598   6.883   3.692   5.872
 3567SOL     OW11599   0.178   2.834   0.214
 3567SOL    HW111600   0.124   2.918   0.211
 3567SOL    HW211601   0.238   2.837   0.295
 3568SOL     OW11602   4.659   5.141   4.104
 3568SOL    HW111603   4.637   5.046   4.126
 3568SOL    HW211604   4.596   5.175   4.034
 3569SOL     OW11605   1.770   1.629   5.640
 3569SOL    HW111606   1.715   1.592   5.715
 3569SOL    HW211607   1.862   1.591   5.644
 3570SOL     OW11608   5.530   0.882   5.429
 3570SOL    HW111609   5.447   0.841   5.390
 3570SOL    HW211610   5.556   0.962   5.375
 3571SOL     OW11611   0.849   5.480   5.098
 3571SOL    HW111612   0.876   5.495   5.193
 3571SOL    HW211613   0.836   5.382   5.082
 3572SOL     OW11614   5.950   3.411   3.254
 3572SOL    HW111615   5.993   3.475   3.191
 3572SOL    HW211616   5.864   3.449   3.287
 3573SOL     OW11617   0.006   5.030   3.487
 3573SOL    HW111618   6.968   5.105   3.463
 3573SOL    HW211619   6.996   4.945   3.446
 3574SOL     OW11620   0.621   3.220   0.574
 3574SOL    HW111621   0.599   3.123   0.566
 3574SOL    HW211622   0.666   3.237   0.662
 3575SOL     OW11623   5.641   5.462   2.503
 3575SOL    HW111624   5.568   5.477   2.437
 3575SOL    HW211625   5.728   5.452   2.456
 3576SOL     OW11626   0.621   2.526   6.468
 3576SOL    HW111627   0.649   2.594   6.536
 3576SOL    HW211628   0.560   2.568   6.401
 3577SOL     OW11629   1.497   2.002   6.942
 3577SOL    HW111630   1.461   1.910   6.960
 3577SOL    HW211631   1.426   2.058   6.900
 3578SOL     OW11632   3.731   1.711   0.054
 3578SOL    HW111633   3.637   1.735   0.079
 3578SOL    HW211634   3.781   1.795   0.032
 3579SOL     OW11635   0.163   2.304   3.208
 3579SOL    HW111636   0.216   2.382   3.240
 3579SOL    HW211637   0.077   2.299   3.259
 3580SOL     OW11638   6.247   3.398   1.306
 3580SOL    HW111639   6.206   3.455   1.235
 3580SOL    HW211640   6.179   3.334   1.341
 3581SOL     OW11641   1.388   5.036   3.378
 3581SOL    HW111642   1.353   5.047   3.471
 3581SOL    HW211643   1.365   4.945   3.345
 3582SOL     OW11644   1.262   3.531   6.536
 3582SOL    HW111645   1.185   3.531   6.473
 3582SOL    HW211646   1.347   3.529   6.485
 3583SOL     OW11647   1.257   4.622   6.642
 3583SOL    HW111648   1.222   4.695   6.700
 3583SOL    HW211649   1.295   4.549   6.699
 3584SOL     OW11650   5.979   4.778   6.147
 3584SOL    HW111651   6.006   4.682   6.155
 3584SOL    HW211652   5.885   4.784   6.112
 3585SOL     OW11653   3.123   1.505   4.391
 3585SOL    HW111654   3.204   1.464   4.350
 3585SOL    HW211655   3.050   1.511   4.322
 3586SOL     OW11656   6.320   1.415   4.408
 3586SOL    HW111657   6.383   1.427   4.485
 3586SOL    HW211658   6.353   1.467   4.329
 3587SOL     OW11659   2.213   4.681   5.593
 3587SOL    HW111660   2.300   4.697   5.546
 3587SOL    HW211661   2.147   4.751   5.566
 3588SOL     OW11662   0.766   3.038   5.014
 3588SOL    HW111663   0.829   3.033   5.092
 3588SOL    HW211664   0.729   2.947   4.995
 3589SOL     OW11665   5.404   0.975   5.758
 3589SOL    HW111666   5.431   1.057   5.808
 3589SOL    HW211667   5.485   0.929   5.722
 3590SOL     OW11668   0.688   3.592   0.790
 3590SOL    HW111669   0.590   3.612   0.785
 3590SOL    HW211670   0.701   3.493   0.802
 3591SOL     OW11671   5.402   4.155   6.669
 3591SOL    HW111672   5.479   4.127   6.727
 3591SOL    HW211673   5.423   4.244   6.628
 3592SOL     OW11674   0.583   5.686   2.143
 3592SOL    HW111675   0.628   5.626   2.209
 3592SOL    HW211676   0.633   5.682   2.056
 3593SOL     OW11677   0.992   5.395   5.321
 3593SOL    HW111678   0.944   5.377   5.407
 3593SOL    HW211679   1.074   5.450   5.339
 3594SOL     OW11680   4.696   6.677   3.128
 3594SOL    HW111681   4.704   6.752   3.194
 3594SOL    HW211682   4.782   6.668   3.078
 3595SOL     OW11683   4.095   6.082   6.157
 3595SOL    HW111684   4.180   6.079   6.209
 3595SOL    HW211685   4.038   6.002   6.180
 3596SOL     OW11686   6.189   3.297   2.477
 3596SOL    HW111687   6.151   3.328   2.389
 3596SOL    HW211688   6.118   3.247   2.527
 3597SOL     OW11689   2.118   1.924   5.728
 3597SOL    HW111690   2.087   1.971   5.646
 3597SOL    HW211691   2.084   1.972   5.809
 3598SOL     OW11692   1.220   5.963   6.262
 3598SOL    HW111693   1.252   6.057   6.276
 3598SOL    HW211694   1.292   5.900   6.289
 3599SOL     OW11695   5.403   2.279   6.400
 3599SOL    HW111696   5.438   2.355   6.455
 3599SOL    HW211697   5.343   2.315   6.328
 3600SOL     OW11698   0.412   3.265   1.579
 3600SOL    HW111699   0.391   3.314   1.494
 3600SOL    HW211700   0.504   3.228   1.574
 3601SOL     OW11701   4.942   3.267   6.203
 3601SOL    HW111702   4.956   3.345   6.143
 3601SOL    HW211703   4.845   3.246   6.208
 3602SOL     OW11704   0.932   3.735   0.793
 3602SOL    HW111705   0.848   3.693   0.826
 3602SOL    HW211706   0.980   3.671   0.734
 3603SOL     OW11707   3.727   1.568   4.125
 3603SOL    HW111708   3.820   1.604   4.123
 3603SOL    HW211709   3.664   1.639   4.093
 3604SOL     OW11710   6.612   6.112   3.265
 3604SOL    HW111711   6.609   6.176   3.188
 3604SOL    HW211712   6.694   6.055   3.257
 3605SOL     OW11713   6.653   3.982   4.102
 3605SOL    HW111714   6.600   3.944   4.178
 3605SOL    HW211715   6.743   3.939   4.100
 3606SOL     OW11716   0.652   0.342   4.096
 3606SOL    HW111717   0.593   0.417   4.066
 3606SOL    HW211718   0.663   0.345   4.195
 3607SOL     OW11719   5.334   5.209   1.748
 3607SOL    HW111720   5.432   5.221   1.731
 3607SOL    HW211721   5.321   5.151   1.829
 3608SOL     OW11722   4.633   2.106   4.568
 3608SOL    HW111723   4.605   2.014   4.539
 3608SOL    HW211724   4.668   2.156   4.489
 3609SOL     OW11725   1.209   0.606   4.165
 3609SOL    HW111726   1.275   0.605   4.240
 3609SOL    HW211727   1.256   0.601   4.077
 3610SOL     OW11728   1.449   0.109   5.829
 3610SOL    HW111729   1.513   0.107   5.753
 3610SOL    HW211730   1.477   0.043   5.899
 3611SOL     OW11731   4.731   4.622   4.808
 3611SOL    HW111732   4.635   4.612   4.833
 3611SOL    HW211733   4.746   4.712   4.768
 3612SOL     OW11734   0.058   0.192   0.023
 3612SOL    HW111735   0.112   0.273   0.045
 3612SOL    HW211736   6.985   0.210   0.042
 3613SOL     OW11737   4.807   4.763   2.141
 3613SOL    HW111738   4.790   4.684   2.200
 3613SOL    HW211739   4.738   4.765   2.068
 3614SOL     OW11740   3.628   3.514   0.778
 3614SOL    HW111741   3.720   3.474   0.774
 3614SOL    HW211742   3.626   3.586   0.847
 3615SOL     OW11743   4.884   3.925   6.020
 3615SOL    HW111744   4.976   3.897   5.994
 3615SOL    HW211745   4.824   3.844   6.022
 3616SOL     OW11746   0.116   1.507   6.830
 3616SOL    HW111747   0.100   1.451   6.749
 3616SOL    HW211748   0.035   1.563   6.847
 3617SOL     OW11749   4.494   1.004   6.755
 3617SOL    HW111750   4.451   1.062   6.825
 3617SOL    HW211751   4.524   0.919   6.797
 3618SOL     OW11752   2.246   2.923   5.324
 3618SOL    HW111753   2.322   2.959   5.269
 3618SOL    HW211754   2.180   2.995   5.343
 3619SOL     OW11755   6.020   2.670   4.810
 3619SOL    HW111756   6.093   2.612   4.775
 3619SOL    HW211757   5.982   2.725   4.736
 3620SOL     OW11758   6.214   5.821   5.473
 3620SOL    HW111759   6.116   5.836   5.464
 3620SOL    HW211760   6.231   5.753   5.544
 3621SOL     OW11761   3.440   2.883   5.552
 3621SOL    HW111762   3.490   2.927   5.626
 3621SOL    HW211763   3.354   2.933   5.536
 3622SOL     OW11764   1.056   1.866   6.795
 3622SOL    HW111765   1.107   1.792   6.839
 3622SOL    HW211766   0.970   1.880   6.843
 3623SOL     OW11767   6.722   6.195   4.645
 3623SOL    HW111768   6.700   6.140   4.565
 3623SOL    HW211769   6.788   6.266   4.620
 3624SOL     OW11770   1.442   0.062   2.123
 3624SOL    HW111771   1.439   0.162   2.135
 3624SOL    HW211772   1.373   0.020   2.182
 3625SOL     OW11773   0.398   3.224   6.674
 3625SOL    HW111774   0.346   3.144   6.645
 3625SOL    HW211775   0.348   3.307   6.649
 3626SOL     OW11776   1.172   2.764   5.353
 3626SOL    HW111777   1.219   2.778   5.440
 3626SOL    HW211778   1.080   2.803   5.358
 3627SOL     OW11779   3.738   3.446   1.427
 3627SOL    HW111780   3.794   3.372   1.391
 3627SOL    HW211781   3.797   3.519   1.461
 3628SOL     OW11782   0.961   1.528   2.534
 3628SOL    HW111783   1.011   1.495   2.454
 3628SOL    HW211784   0.916   1.450   2.579
 3629SOL     OW11785   0.695   1.285   5.487
 3629SOL    HW111786   0.701   1.280   5.387
 3629SOL    HW211787   0.780   1.321   5.523
 3630SOL     OW11788   5.219   2.132   4.250
 3630SOL    HW111789   5.146   2.079   4.292
 3630SOL    HW211790   5.182   2.217   4.212
 3631SOL     OW11791   1.939   0.768   2.980
 3631SOL    HW111792   1.845   0.776   2.949
 3631SOL    HW211793   2.000   0.813   2.915
 3632SOL     OW11794   5.442   5.443   0.908
 3632SOL    HW111795   5.345   5.425   0.924
 3632SOL    HW211796   5.453   5.494   0.823
 3633SOL     OW11797   4.235   2.334   5.692
 3633SOL    HW111798   4.326   2.376   5.694
 3633SOL    HW211799   4.211   2.301   5.783
 3634SOL     OW11800   1.741   5.480   5.706
 3634SOL    HW111801   1.720   5.570   5.668
 3634SOL    HW211802   1.658   5.439   5.744
 3635SOL     OW11803   3.361   0.016   1.008
 3635SOL    HW111804   3.331   7.017   1.101
 3635SOL    HW211805   3.451   0.059   1.012
 3636SOL     OW11806   6.668   5.829   0.832
 3636SOL    HW111807   6.712   5.751   0.876
 3636SOL    HW211808   6.712   5.846   0.743
 3637SOL     OW11809   0.185   2.533   2.185
 3637SOL    HW111810   0.125   2.529   2.264
 3637SOL    HW211811   0.272   2.488   2.206
 3638SOL     OW11812   0.424   4.021   2.933
 3638SOL    HW111813   0.355   3.952   2.956
 3638SOL    HW211814   0.464   4.057   3.017
 3639SOL     OW11815   4.103   5.739   0.416
 3639SOL    HW111816   4.046   5.656   0.417
 3639SOL    HW211817   4.111   5.773   0.322
 3640SOL     OW11818   4.553   1.230   0.011
 3640SOL    HW111819   4.628   1.179   6.991
 3640SOL    HW211820   4.473   1.170   0.020
 3641SOL     OW11821   5.876   3.582   2.058
 3641SOL    HW111822   5.834   3.493   2.039
 3641SOL    HW211823   5.814   3.636   2.116
 3642SOL     OW11824   5.131   2.213   0.057
 3642SOL    HW111825   5.083   2.126   0.063
 3642SOL    HW211826   5.105   2.271   0.134
 3643SOL     OW11827   2.406   5.776   4.752
 3643SOL    HW111828   2.345   5.809   4.824
 3643SOL    HW211829   2.485   5.730   4.793
 3644SOL     OW11830   1.923   1.755   2.033
 3644SOL    HW111831   1.899   1.694   1.958
 3644SOL    HW211832   1.991   1.821   2.001
 3645SOL     OW11833   1.641   2.106   3.847
 3645SOL    HW111834   1.607   2.115   3.753
 3645SOL    HW211835   1.602   2.179   3.904
 3646SOL     OW11836   1.564   4.112   6.075
 3646SOL    HW111837   1.649   4.062   6.060
 3646SOL    HW211838   1.562   4.148   6.168
 3647SOL     OW11839   2.474   6.170   6.562
 3647SOL    HW111840   2.511   6.190   6.471
 3647SOL    HW211841   2.550   6.160   6.627
 3648SOL     OW11842   4.455   6.167   2.532
 3648SOL    HW111843   4.436   6.146   2.628
 3648SOL    HW211844   4.443   6.265   2.516
 3649SOL     OW11845   5.800   2.897   1.210
 3649SOL    HW111846   5.805   2.805   1.172
 3649SOL    HW211847   5.893   2.929   1.231
 3650SOL     OW11848   6.339   5.184   1.742
 3650SOL    HW111849   6.327   5.242   1.661
 3650SOL    HW211850   6.326   5.239   1.824
 3651SOL     OW11851   1.035   0.881   3.780
 3651SOL    HW111852   1.094   0.924   3.712
 3651SOL    HW211853   1.032   0.937   3.863
 3652SOL     OW11854   6.215   0.161   3.622
 3652SOL    HW111855   6.234   0.066   3.598
 3652SOL    HW211856   6.271   0.188   3.701
 3653SOL     OW11857   1.271   1.458   3.151
 3653SOL    HW111858   1.279   1.474   3.053
 3653SOL    HW211859   1.248   1.544   3.197
 3654SOL     OW11860   3.669   4.873   0.362
 3654SOL    HW111861   3.580   4.893   0.402
 3654SOL    HW211862   3.659   4.800   0.295
 3655SOL     OW11863   3.277   0.546   3.638
 3655SOL    HW111864   3.206   0.490   3.680
 3655SOL    HW211865   3.251   0.570   3.544
 3656SOL     OW11866   0.565   5.025   1.145
 3656SOL    HW111867   0.493   4.959   1.119
 3656SOL    HW211868   0.558   5.106   1.086
 3657SOL     OW11869   5.034   5.264   5.379
 3657SOL    HW111870   5.095   5.193   5.343
 3657SOL    HW211871   4.999   5.235   5.468
 3658SOL     OW11872   3.009   4.755   6.498
 3658SOL    HW111873   3.005   4.756   6.398
 3658SOL    HW211874   2.933   4.808   6.535
 3659SOL     OW11875   1.975   2.537   5.957
 3659SOL    HW111876   1.896   2.597   5.970
 3659SOL    HW211877   2.006   2.542   5.862
 3660SOL     OW11878   5.874   6.369   4.198
 3660SOL    HW111879   5.826   6.406   4.277
 3660SOL    HW211880   5.929   6.290   4.225
 3661SOL     OW11881   0.076   0.506   4.731
 3661SOL    HW111882   0.156   0.533   4.678
 3661SOL    HW211883   0.104   0.444   4.804
 3662SOL     OW11884   4.230   0.445   4.397
 3662SOL    HW111885   4.299   0.389   4.443
 3662SOL    HW211886   4.262   0.467   4.305
 3663SOL     OW11887   1.718   3.043   0.490
 3663SOL    HW111888   1.628   3.079   0.463
 3663SOL    HW211889   1.709   2.991   0.574
 3664SOL     OW11890   4.670   2.098   1.875
 3664SOL    HW111891   4.583   2.073   1.833
 3664SOL    HW211892   4.662   2.188   1.918
 3665SOL     OW11893   1.187   6.172   4.965
 3665SOL    HW111894   1.180   6.078   4.998
 3665SOL    HW211895   1.106   6.195   4.911
 3666SOL     OW11896   1.084   4.183   2.970
 3666SOL    HW111897   1.058   4.230   3.055
 3666SOL    HW211898   1.151   4.112   2.990
 3667SOL     OW11899   0.209   1.496   3.669
 3667SOL    HW111900   0.110   1.483   3.681
 3667SOL    HW211901   0.250   1.523   3.756
 3668SOL     OW11902   1.374   1.117   1.381
 3668SOL    HW111903   1.300   1.127   1.448
 3668SOL    HW211904   1.436   1.045   1.411
 3669SOL     OW11905   5.955   1.852   3.667
 3669SOL    HW111906   6.007   1.797   3.601
 3669SOL    HW211907   5.861   1.819   3.671
 3670SOL     OW11908   2.359   5.064   6.686
 3670SOL    HW111909   2.423   5.141   6.678
 3670SOL    HW211910   2.297   5.064   6.608
 3671SOL     OW11911   0.111   1.845   4.385
 3671SOL    HW111912   0.103   1.838   4.286
 3671SOL    HW211913   0.207   1.860   4.410
 3672SOL     OW11914   4.293   2.033   2.518
 3672SOL    HW111915   4.213   1.990   2.560
 3672SOL    HW211916   4.376   1.984   2.545
 3673SOL     OW11917   3.797   5.922   6.978
 3673SOL    HW111918   3.751   5.951   0.039
 3673SOL    HW211919   3.729   5.883   6.916
 3674SOL     OW11920   2.025   6.001   5.911
 3674SOL    HW111921   2.037   6.078   5.848
 3674SOL    HW211922   2.112   5.979   5.954
 3675SOL     OW11923   1.631   2.533   4.173
 3675SOL    HW111924   1.616   2.627   4.203
 3675SOL    HW211925   1.709   2.495   4.223
 3676SOL     OW11926   6.031   4.285   2.577
 3676SOL    HW111927   6.053   4.305   2.482
 3676SOL    HW211928   6.111   4.245   2.622
 3677SOL     OW11929   2.777   6.593   4.537
 3677SOL    HW111930   2.704   6.549   4.485
 3677SOL    HW211931   2.828   6.524   4.589
 3678SOL     OW11932   1.390   1.511   4.905
 3678SOL    HW111933   1.333   1.431   4.885
 3678SOL    HW211934   1.482   1.496   4.869
 3679SOL     OW11935   6.960   0.711   3.321
 3679SOL    HW111936   6.938   0.647   3.395
 3679SOL    HW211937   0.035   0.719   3.311
 3680SOL     OW11938   5.290   2.362   3.909
 3680SOL    HW111939   5.321   2.423   3.981
 3680SOL    HW211940   5.367   2.309   3.874
 3681SOL     OW11941   0.980   1.325   6.724
 3681SOL    HW111942   0.950   1.268   6.801
 3681SOL    HW211943   0.914   1.399   6.710
 3682SOL     OW11944   5.706   2.559   0.307
 3682SOL    HW111945   5.721   2.655   0.331
 3682SOL    HW211946   5.790   2.507   0.325
 3683SOL     OW11947   0.600   1.588   4.237
 3683SOL    HW111948   0.628   1.683   4.247
 3683SOL    HW211949   0.614   1.558   4.142
 3684SOL     OW11950   0.865   5.369   0.508
 3684SOL    HW111951   0.922   5.448   0.486
 3684SOL    HW211952   0.909   5.286   0.473
 3685SOL     OW11953   2.278   5.883   5.919
 3685SOL    HW111954   2.290   5.790   5.951
 3685SOL    HW211955   2.274   5.884   5.819
 3686SOL     OW11956   6.143   4.903   4.490
 3686SOL    HW111957   6.097   4.822   4.527
 3686SOL    HW211958   6.242   4.891   4.499
 3687SOL     OW11959   4.199   6.176   4.496
 3687SOL    HW111960   4.273   6.242   4.484
 3687SOL    HW211961   4.177   6.167   4.593
 3688SOL     OW11962   6.729   2.644   6.843
 3688SOL    HW111963   6.712   2.620   6.939
 3688SOL    HW211964   6.649   2.691   6.806
 3689SOL     OW11965   2.158   0.807   5.910
 3689SOL    HW111966   2.127   0.865   5.835
 3689SOL    HW211967   2.083   0.749   5.941
 3690SOL     OW11968   3.792   5.764   0.220
 3690SOL    HW111969   3.810   5.679   0.270
 3690SOL    HW211970   3.876   5.793   0.174
 3691SOL     OW11971   2.489   1.695   0.159
 3691SOL    HW111972   2.529   1.786   0.146
 3691SOL    HW211973   2.391   1.704   0.174
 3692SOL     OW11974   6.339   5.201   5.362
 3692SOL    HW111975   6.273   5.210   5.287
 3692SOL    HW211976   6.422   5.155   5.329
 3693SOL     OW11977   2.424   2.501   3.203
 3693SOL    HW111978   2.420   2.557   3.286
 3693SOL    HW211979   2.364   2.540   3.133
 3694SOL     OW11980   1.365   6.741   2.365
 3694SOL    HW111981   1.401   6.688   2.442
 3694SOL    HW211982   1.416   6.718   2.282
 3695SOL     OW11983   5.268   2.533   1.156
 3695SOL    HW111984   5.199   2.471   1.195
 3695SOL    HW211985   5.222   2.610   1.111
 3696SOL     OW11986   4.223   0.320   4.007
 3696SOL    HW111987   4.297   0.378   4.043
 3696SOL    HW211988   4.159   0.298   4.081
 3697SOL     OW11989   0.270   5.946   2.866
 3697SOL    HW111990   0.232   5.964   2.957
 3697SOL    HW211991   0.359   5.901   2.876
 3698SOL     OW11992   2.400   0.921   3.319
 3698SOL    HW111993   2.331   0.851   3.337
 3698SOL    HW211994   2.400   0.988   3.393
 3699SOL     OW11995   2.096   1.119   3.524
 3699SOL    HW111996   2.082   1.104   3.427
 3699SOL    HW211997   2.123   1.214   3.540
 3700SOL     OW11998   1.844   4.648   5.138
 3700SOL    HW111999   1.810   4.555   5.135
 3700SOL    HW212000   1.885   4.672   5.049
 3701SOL     OW12001   1.795   0.318   3.552
 3701SOL    HW112002   1.856   0.239   3.545
 3701SOL    HW212003   1.836   0.396   3.504
 3702SOL     OW12004   5.671   6.481   3.591
 3702SOL    HW112005   5.749   6.475   3.530
 3702SOL    HW212006   5.686   6.554   3.658
 3703SOL     OW12007   0.078   0.428   6.640
 3703SOL    HW112008   7.009   0.443   6.675
 3703SOL    HW212009   0.143   0.428   6.715
 3704SOL     OW12010   3.939   2.156   1.325
 3704SOL    HW112011   3.913   2.252   1.340
 3704SOL    HW212012   3.970   2.116   1.411
 3705SOL     OW12013   5.820   4.110   4.716
 3705SOL    HW112014   5.794   4.149   4.627
 3705SOL    HW212015   5.820   4.011   4.710
 3706SOL     OW12016   0.452   3.605   6.854
 3706SOL    HW112017   0.538   3.591   6.903
 3706SOL    HW212018   0.413   3.694   6.880
 3707SOL     OW12019   4.961   5.603   4.862
 3707SOL    HW112020   4.863   5.599   4.841
 3707SOL    HW212021   4.989   5.699   4.871
 3708SOL     OW12022   5.361   6.642   1.024
 3708SOL    HW112023   5.366   6.552   1.068
 3708SOL    HW212024   5.268   6.659   0.994
 3709SOL     OW12025   3.534   6.946   1.455
 3709SOL    HW112026   3.571   6.954   1.548
 3709SOL    HW212027   3.609   6.925   1.392
 3710SOL     OW12028   6.573   5.399   5.106
 3710SOL    HW112029   6.574   5.300   5.093
 3710SOL    HW212030   6.652   5.440   5.061
 3711SOL     OW12031   1.798   5.794   5.379
 3711SOL    HW112032   1.850   5.868   5.337
 3711SOL    HW212033   1.702   5.800   5.351
 3712SOL     OW12034   1.162   5.230   6.557
 3712SOL    HW112035   1.118   5.246   6.468
 3712SOL    HW212036   1.240   5.169   6.544
 3713SOL     OW12037   0.488   0.266   5.110
 3713SOL    HW112038   0.570   0.323   5.109
 3713SOL    HW212039   0.436   0.281   5.025
 3714SOL     OW12040   5.620   5.854   6.441
 3714SOL    HW112041   5.682   5.931   6.429
 3714SOL    HW212042   5.616   5.830   6.538
 3715SOL     OW12043   1.426   4.236   2.337
 3715SOL    HW112044   1.487   4.251   2.414
 3715SOL    HW212045   1.331   4.239   2.369
 3716SOL     OW12046   6.214   6.363   4.435
 3716SOL    HW112047   6.290   6.300   4.417
 3716SOL    HW212048   6.221   6.397   4.529
 3717SOL     OW12049   5.677   0.375   0.118
 3717SOL    HW112050   5.617   0.348   0.194
 3717SOL    HW212051   5.730   0.296   0.088
 3718SOL     OW12052   0.148   0.319   0.507
 3718SOL    HW112053   0.198   0.400   0.478
 3718SOL    HW212054   0.160   0.246   0.439
 3719SOL     OW12055   4.600   2.935   0.291
 3719SOL    HW112056   4.556   2.855   0.331
 3719SOL    HW212057   4.673   2.906   0.230
 3720SOL     OW12058   5.243   3.165   0.609
 3720SOL    HW112059   5.166   3.134   0.554
 3720SOL    HW212060   5.229   3.138   0.704
 3721SOL     OW12061   6.879   5.213   0.977
 3721SOL    HW112062   6.968   5.219   1.021
 3721SOL    HW212063   6.866   5.122   0.938
 3722SOL     OW12064   5.626   6.318   0.891
 3722SOL    HW112065   5.668   6.371   0.818
 3722SOL    HW212066   5.694   6.259   0.933
 3723SOL     OW12067   4.646   5.121   0.602
 3723SOL    HW112068   4.647   5.099   0.699
 3723SOL    HW212069   4.611   5.214   0.589
 3724SOL     OW12070   1.786   4.341   5.398
 3724SOL    HW112071   1.762   4.312   5.491
 3724SOL    HW212072   1.874   4.388   5.399
 3725SOL     OW12073   0.081   5.511   6.693
 3725SOL    HW112074   0.175   5.534   6.669
 3725SOL    HW212075   0.040   5.587   6.744
 3726SOL     OW12076   5.543   3.217   6.039
 3726SOL    HW112077   5.451   3.184   6.020
 3726SOL    HW212078   5.604   3.139   6.055
 3727SOL     OW12079   6.862   2.275   5.593
 3727SOL    HW112080   6.765   2.296   5.587
 3727SOL    HW212081   6.911   2.322   5.519
 3728SOL     OW12082   1.223   3.135   6.869
 3728SOL    HW112083   1.286   3.189   6.813
 3728SOL    HW212084   1.136   3.125   6.820
 3729SOL     OW12085   1.866   1.498   4.259
 3729SOL    HW112086   1.808   1.418   4.243
 3729SOL    HW212087   1.819   1.580   4.227
 3730SOL     OW12088   3.624   6.057   5.498
 3730SOL    HW112089   3.656   6.135   5.444
 3730SOL    HW212090   3.691   5.983   5.490
 3731SOL     OW12091   0.024   1.290   0.713
 3731SOL    HW112092   0.076   1.251   0.637
 3731SOL    HW212093   6.952   1.302   0.685
 3732SOL     OW12094   2.313   1.790   0.351
 3732SOL    HW112095   2.252   1.847   0.406
 3732SOL    HW212096   2.392   1.763   0.406
 3733SOL     OW12097   2.037   2.627   3.067
 3733SOL    HW112098   2.021   2.633   3.166
 3733SOL    HW212099   2.051   2.718   3.030
 3734SOL     OW12100   5.000   7.016   0.997
 3734SOL    HW112101   4.987   0.047   0.915
 3734SOL    HW212102   5.005   0.053   1.077
 3735SOL     OW12103   3.048   0.637   2.742
 3735SOL    HW112104   3.127   0.615   2.800
 3735SOL    HW212105   3.067   0.720   2.690
 3736SOL     OW12106   0.631   1.345   1.155
 3736SOL    HW112107   0.551   1.385   1.199
 3736SOL    HW212108   0.625   1.360   1.056
 3737SOL     OW12109   5.849   1.246   3.566
 3737SOL    HW112110   5.934   1.277   3.524
 3737SOL    HW212111   5.789   1.207   3.496
 3738SOL     OW12112   6.212   0.457   1.452
 3738SOL    HW112113   6.211   0.556   1.466
 3738SOL    HW212114   6.125   0.419   1.481
 3739SOL     OW12115   2.506   4.752   1.374
 3739SOL    HW112116   2.575   4.705   1.320
 3739SOL    HW212117   2.495   4.706   1.462
 3740SOL     OW12118   6.510   6.806   0.264
 3740SOL    HW112119   6.487   6.870   0.336
 3740SOL    HW212120   6.599   6.764   0.284
 3741SOL     OW12121   5.025   2.638   6.304
 3741SOL    HW112122   5.020   2.721   6.360
 3741SOL    HW212123   5.035   2.559   6.364
 3742SOL     OW12124   3.731   0.972   0.455
 3742SOL    HW112125   3.739   1.021   0.368
 3742SOL    HW212126   3.738   0.874   0.438
 3743SOL     OW12127   5.470   3.225   0.482
 3743SOL    HW112128   5.390   3.191   0.533
 3743SOL    HW212129   5.440   3.291   0.414
 3744SOL     OW12130   1.181   6.219   1.405
 3744SOL    HW112131   1.135   6.308   1.403
 3744SOL    HW212132   1.267   6.227   1.454
 3745SOL     OW12133   4.666   4.197   3.198
 3745SOL    HW112134   4.605   4.243   3.133
 3745SOL    HW212135   4.735   4.146   3.147
 3746SOL     OW12136   0.038   0.032   3.567
 3746SOL    HW112137   0.051   0.022   3.468
 3746SOL    HW212138   0.072   0.121   3.596
 3747SOL     OW12139   4.355   5.935   5.368
 3747SOL    HW112140   4.376   5.837   5.369
 3747SOL    HW212141   4.325   5.962   5.276
 3748SOL     OW12142   5.409   1.287   1.744
 3748SOL    HW112143   5.339   1.268   1.813
 3748SOL    HW212144   5.371   1.347   1.674
 3749SOL     OW12145   2.686   4.619   3.095
 3749SOL    HW112146   2.646   4.658   3.178
 3749SOL    HW212147   2.760   4.557   3.120
 3750SOL     OW12148   6.410   4.632   1.046
 3750SOL    HW112149   6.444   4.552   1.096
 3750SOL    HW212150   6.411   4.712   1.107
 3751SOL     OW12151   6.592   3.474   0.964
 3751SOL    HW112152   6.674   3.524   0.991
 3751SOL    HW212153   6.571   3.404   1.033
 3752SOL     OW12154   0.285   6.877   6.934
 3752SOL    HW112155   0.319   6.908   7.023
 3752SOL    HW212156   0.243   6.954   6.886
 3753SOL     OW12157   0.300   1.249   3.862
 3753SOL    HW112158   0.262   1.202   3.782
 3753SOL    HW212159   0.318   1.345   3.839
 3754SOL     OW12160   4.171   6.608   1.226
 3754SOL    HW112161   4.157   6.564   1.138
 3754SOL    HW212162   4.089   6.660   1.251
 3755SOL     OW12163   5.594   5.819   4.369
 3755SOL    HW112164   5.527   5.860   4.306
 3755SOL    HW212165   5.590   5.719   4.360
 3756SOL     OW12166   2.447   6.608   5.951
 3756SOL    HW112167   2.508   6.543   5.905
 3756SOL    HW212168   2.392   6.656   5.884
 3757SOL     OW12169   3.801   6.787   6.637
 3757SOL    HW112170   3.854   6.792   6.553
 3757SOL    HW212171   3.819   6.700   6.682
 3758SOL     OW12172   1.817   1.378   4.732
 3758SOL    HW112173   1.803   1.474   4.757
 3758SOL    HW212174   1.877   1.373   4.652
 3759SOL     OW12175   4.336   5.763   6.001
 3759SOL    HW112176   4.368   5.817   6.079
 3759SOL    HW212177   4.236   5.761   6.000
 3760SOL     OW12178   1.784   2.239   4.562
 3760SOL    HW112179   1.877   2.277   4.560
 3760SOL    HW212180   1.733   2.280   4.637
 3761SOL     OW12181   0.666   0.818   5.360
 3761SOL    HW112182   0.610   0.853   5.434
 3761SOL    HW212183   0.697   0.725   5.382
 3762SOL     OW12184   1.148   4.869   0.164
 3762SOL    HW112185   1.105   4.958   0.147
 3762SOL    HW212186   1.230   4.861   0.107
 3763SOL     OW12187   6.864   4.355   0.399
 3763SOL    HW112188   6.800   4.366   0.475
 3763SOL    HW212189   6.950   4.319   0.433
 3764SOL     OW12190   1.766   6.813   4.165
 3764SOL    HW112191   1.755   6.793   4.068
 3764SOL    HW212192   1.758   6.728   4.218
 3765SOL     OW12193   4.845   1.230   1.091
 3765SOL    HW112194   4.761   1.283   1.099
 3765SOL    HW212195   4.851   1.166   1.167
 3766SOL     OW12196   0.991   1.477   3.664
 3766SOL    HW112197   1.063   1.413   3.689
 3766SOL    HW212198   0.995   1.494   3.565
 3767SOL     OW12199   2.194   4.745   0.453
 3767SOL    HW112200   2.160   4.657   0.420
 3767SOL    HW212201   2.150   4.819   0.403
 3768SOL     OW12202   1.902   5.744   5.031
 3768SOL    HW112203   1.933   5.831   5.071
 3768SOL    HW212204   1.875   5.759   4.936
 3769SOL     OW12205   5.945   5.879   5.429
 3769SOL    HW112206   5.891   5.957   5.462
 3769SOL    HW212207   5.891   5.827   5.362
 3770SOL     OW12208   1.815   0.396   6.567
 3770SOL    HW112209   1.833   0.424   6.661
 3770SOL    HW212210   1.900   0.393   6.516
 3771SOL     OW12211   5.973   2.905   6.861
 3771SOL    HW112212   6.052   2.897   6.923
 3771SOL    HW212213   6.001   2.953   6.778
 3772SOL     OW12214   6.945   0.634   0.417
 3772SOL    HW112215   6.855   0.638   0.460
 3772SOL    HW212216   7.001   0.566   0.464
 3773SOL     OW12217   6.566   2.783   6.376
 3773SOL    HW112218   6.583   2.685   6.362
 3773SOL    HW212219   6.478   2.796   6.421
 3774SOL     OW12220   6.984   5.897   0.009
 3774SOL    HW112221   0.041   5.841   0.030
 3774SOL    HW212222   6.928   5.851   6.964
 3775SOL     OW12223   5.088   5.129   1.976
 3775SOL    HW112224   5.180   5.141   1.937
 3775SOL    HW212225   5.073   5.198   2.046
 3776SOL     OW12226   3.970   1.645   1.141
 3776SOL    HW112227   3.936   1.710   1.208
 3776SOL    HW212228   3.938   1.553   1.165
 3777SOL     OW12229   3.265   4.949   4.742
 3777SOL    HW112230   3.220   4.931   4.829
 3777SOL    HW212231   3.205   4.923   4.667
 3778SOL     OW12232   3.439   4.882   2.498
 3778SOL    HW112233   3.455   4.861   2.595
 3778SOL    HW212234   3.345   4.915   2.487
 3779SOL     OW12235   2.114   5.222   0.847
 3779SOL    HW112236   2.141   5.251   0.939
 3779SOL    HW212237   2.033   5.164   0.853
 3780SOL     OW12238   5.020   5.895   5.712
 3780SOL    HW112239   5.074   5.854   5.639
 3780SOL    HW212240   4.986   5.823   5.773
 3781SOL     OW12241   1.370   0.347   4.183
 3781SOL    HW112242   1.425   0.265   4.166
 3781SOL    HW212243   1.430   0.426   4.191
 3782SOL     OW12244   2.913   0.961   4.144
 3782SOL    HW112245   2.949   0.963   4.237
 3782SOL    HW212246   2.827   1.012   4.140
 3783SOL     OW12247   5.484   5.627   4.058
 3783SOL    HW112248   5.396   5.590   4.086
 3783SOL    HW212249   5.473   5.687   3.979
 3784SOL     OW12250   4.676   2.654   2.572
 3784SOL    HW112251   4.644   2.639   2.666
 3784SOL    HW212252   4.602   2.631   2.509
 3785SOL     OW12253   1.103   1.644   6.959
 3785SOL    HW112254   1.094   1.570   6.892
 3785SOL    HW212255   1.013   1.668   6.995
 3786SOL     OW12256   2.241   6.884   3.092
 3786SOL    HW112257   2.218   6.819   3.164
 3786SOL    HW212258   2.199   6.856   3.006
 3787SOL     OW12259   6.286   0.147   2.278
 3787SOL    HW112260   6.224   0.196   2.215
 3787SOL    HW212261   6.296   0.200   2.362
 3788SOL     OW12262   1.005   4.097   4.062
 3788SOL    HW112263   1.078   4.037   4.095
 3788SOL    HW212264   1.011   4.186   4.107
 3789SOL     OW12265   0.185   3.284   5.112
 3789SOL    HW112266   0.093   3.309   5.082
 3789SOL    HW212267   0.235   3.366   5.139
 3790SOL     OW12268   1.680   4.664   5.688
 3790SOL    HW112269   1.680   4.673   5.588
 3790SOL    HW212270   1.587   4.681   5.723
 3791SOL     OW12271   6.211   0.168   0.392
 3791SOL    HW112272   6.243   0.214   0.474
 3791SOL    HW212273   6.267   0.197   0.314
 3792SOL     OW12274   0.903   1.491   4.626
 3792SOL    HW112275   0.823   1.431   4.632
 3792SOL    HW212276   0.946   1.500   4.716
 3793SOL     OW12277   4.367   6.906   2.685
 3793SOL    HW112278   4.396   6.812   2.670
 3793SOL    HW212279   4.317   6.939   2.605
 3794SOL     OW12280   2.546   4.386   1.101
 3794SOL    HW112281   2.579   4.449   1.031
 3794SOL    HW212282   2.498   4.310   1.057
 3795SOL     OW12283   3.660   6.038   6.108
 3795SOL    HW112284   3.609   6.004   6.187
 3795SOL    HW212285   3.689   6.132   6.125
 3796SOL     OW12286   2.675   1.551   0.900
 3796SOL    HW112287   2.683   1.529   0.803
 3796SOL    HW212288   2.582   1.534   0.931
 3797SOL     OW12289   0.317   4.286   2.586
 3797SOL    HW112290   0.379   4.223   2.538
 3797SOL    HW212291   0.238   4.305   2.528
 3798SOL     OW12292   3.585   5.954   3.033
 3798SOL    HW112293   3.583   6.037   3.088
 3798SOL    HW212294   3.678   5.919   3.028
 3799SOL     OW12295   0.539   2.323   4.105
 3799SOL    HW112296   0.593   2.337   4.022
 3799SOL    HW212297   0.468   2.393   4.111
 3800SOL     OW12298   5.861   3.236   4.521
 3800SOL    HW112299   5.806   3.317   4.542
 3800SOL    HW212300   5.805   3.154   4.529
 3801SOL     OW12301   6.042   6.324   2.781
 3801SOL    HW112302   6.063   6.388   2.707
 3801SOL    HW212303   6.116   6.258   2.790
 3802SOL     OW12304   1.007   2.442   2.786
 3802SOL    HW112305   0.971   2.443   2.693
 3802SOL    HW212306   1.070   2.365   2.798
 3803SOL     OW12307   3.696   2.071   1.148
 3803SOL    HW112308   3.720   1.990   1.094
 3803SOL    HW212309   3.760   2.081   1.224
 3804SOL     OW12310   5.478   1.497   3.519
 3804SOL    HW112311   5.548   1.539   3.461
 3804SOL    HW212312   5.521   1.457   3.600
 3805SOL     OW12313   2.997   3.103   2.074
 3805SOL    HW112314   2.917   3.048   2.050
 3805SOL    HW212315   3.021   3.163   1.997
 3806SOL     OW12316   3.491   4.055   6.645
 3806SOL    HW112317   3.400   4.013   6.650
 3806SOL    HW212318   3.492   4.126   6.574
 3807SOL     OW12319   2.228   6.564   3.535
 3807SOL    HW112320   2.233   6.487   3.598
 3807SOL    HW212321   2.157   6.546   3.467
 3808SOL     OW12322   4.761   6.848   1.015
 3808SOL    HW112323   4.802   6.766   1.054
 3808SOL    HW212324   4.833   6.914   0.992
 3809SOL     OW12325   5.561   2.836   0.579
 3809SOL    HW112326   5.462   2.837   0.587
 3809SOL    HW212327   5.595   2.744   0.597
 3810SOL     OW12328   4.709   2.648   4.966
 3810SOL    HW112329   4.650   2.567   4.968
 3810SOL    HW212330   4.663   2.720   4.914
 3811SOL     OW12331   1.042   4.248   3.820
 3811SOL    HW112332   1.004   4.340   3.826
 3811SOL    HW212333   1.050   4.210   3.912
 3812SOL     OW12334   5.139   6.980   5.553
 3812SOL    HW112335   5.164   0.053   5.559
 3812SOL    HW212336   5.134   6.952   5.457
 3813SOL     OW12337   4.538   4.157   0.158
 3813SOL    HW112338   4.502   4.184   0.069
 3813SOL    HW212339   4.633   4.185   0.166
 3814SOL     OW12340   0.232   6.927   0.338
 3814SOL    HW112341   0.257   6.886   0.425
 3814SOL    HW212342   0.315   6.948   0.286
 3815SOL     OW12343   4.502   2.688   0.365
 3815SOL    HW112344   4.445   2.644   0.435
 3815SOL    HW212345   4.539   2.618   0.304
 3816SOL     OW12346   0.499   6.167   0.047
 3816SOL    HW112347   0.455   6.166   0.137
 3816SOL    HW212348   0.479   6.082   7.023
 3817SOL     OW12349   5.151   3.648   3.032
 3817SOL    HW112350   5.090   3.710   3.081
 3817SOL    HW212351   5.098   3.572   2.993
 3818SOL     OW12352   5.465   0.096   0.004
 3818SOL    HW112353   5.402   0.104   6.951
 3818SOL    HW212354   5.428   0.145   0.083
 3819SOL     OW12355   5.182   5.535   1.175
 3819SOL    HW112356   5.212   5.440   1.187
 3819SOL    HW212357   5.097   5.549   1.226
 3820SOL     OW12358   6.484   6.654   3.087
 3820SOL    HW112359   6.451   6.587   3.021
 3820SOL    HW212360   6.424   6.734   3.085
 3821SOL     OW12361   2.756   2.098   0.722
 3821SOL    HW112362   2.743   2.007   0.682
 3821SOL    HW212363   2.733   2.094   0.820
 3822SOL     OW12364   1.478   6.334   2.883
 3822SOL    HW112365   1.446   6.428   2.890
 3822SOL    HW212366   1.412   6.273   2.925
 3823SOL     OW12367   2.992   2.777   5.927
 3823SOL    HW112368   3.065   2.709   5.939
 3823SOL    HW212369   2.968   2.783   5.831
 3824SOL     OW12370   5.665   2.089   0.132
 3824SOL    HW112371   5.639   2.061   0.225
 3824SOL    HW212372   5.752   2.137   0.134
 3825SOL     OW12373   0.338   6.632   0.534
 3825SOL    HW112374   0.364   6.632   0.437
 3825SOL    HW212375   0.370   6.547   0.576
 3826SOL     OW12376   0.542   3.269   0.055
 3826SOL    HW112377   0.450   3.234   0.077
 3826SOL    HW212378   0.589   3.293   0.140
 3827SOL     OW12379   2.786   2.781   1.307
 3827SOL    HW112380   2.877   2.785   1.266
 3827SOL    HW212381   2.753   2.874   1.325
 3828SOL     OW12382   3.783   2.251   1.624
 3828SOL    HW112383   3.740   2.267   1.712
 3828SOL    HW212384   3.724   2.287   1.551
 3829SOL     OW12385   2.224   4.252   4.827
 3829SOL    HW112386   2.265   4.178   4.881
 3829SOL    HW212387   2.170   4.213   4.752
 3830SOL     OW12388   0.665   0.026   4.561
 3830SOL    HW112389   0.676   0.123   4.537
 3830SOL    HW212390   0.573   7.020   4.537
 3831SOL     OW12391   4.810   1.588   2.225
 3831SOL    HW112392   4.712   1.585   2.242
 3831SOL    HW212393   4.849   1.671   2.265
 3832SOL     OW12394   5.777   0.516   2.496
 3832SOL    HW112395   5.785   0.511   2.596
 3832SOL    HW212396   5.850   0.463   2.454
 3833SOL     OW12397   0.573   5.790   6.116
 3833SOL    HW112398   0.590   5.808   6.019
 3833SOL    HW212399   0.518   5.707   6.125
 3834SOL     OW12400   3.964   2.681   0.955
 3834SOL    HW112401   3.967   2.741   0.875
 3834SOL    HW212402   3.947   2.735   1.037
 3835SOL     OW12403   2.986   5.595   5.049
 3835SOL    HW112404   2.986   5.515   5.110
 3835SOL    HW212405   2.985   5.565   4.954
 3836SOL     OW12406   1.411   4.056   5.866
 3836SOL    HW112407   1.470   3.996   5.812
 3836SOL    HW212408   1.444   4.059   5.960
 3837SOL     OW12409   4.532   3.767   0.025
 3837SOL    HW112410   4.629   3.790   0.029
 3837SOL    HW212411   4.485   3.807   0.103
 3838SOL     OW12412   0.145   3.370   4.156
 3838SOL    HW112413   0.071   3.402   4.098
 3838SOL    HW212414   0.127   3.276   4.185
 3839SOL     OW12415   3.936   0.726   4.245
 3839SOL    HW112416   3.961   0.643   4.294
 3839SOL    HW212417   3.968   0.806   4.297
 3840SOL     OW12418   2.136   1.320   5.213
 3840SOL    HW112419   2.125   1.337   5.115
 3840SOL    HW212420   2.097   1.396   5.265
 3841SOL     OW12421   0.239   3.138   5.385
 3841SOL    HW112422   0.256   3.196   5.304
 3841SOL    HW212423   0.172   3.183   5.444
 3842SOL     OW12424   0.626   3.833   6.613
 3842SOL    HW112425   0.702   3.893   6.639
 3842SOL    HW212426   0.550   3.889   6.581
 3843SOL     OW12427   6.396   4.468   1.867
 3843SOL    HW112428   6.375   4.510   1.779
 3843SOL    HW212429   6.338   4.388   1.880
 3844SOL     OW12430   6.884   3.452   6.252
 3844SOL    HW112431   6.920   3.431   6.343
 3844SOL    HW212432   6.840   3.541   6.253
 3845SOL     OW12433   3.807   2.950   3.040
 3845SOL    HW112434   3.773   2.914   3.126
 3845SOL    HW212435   3.837   3.045   3.053
 3846SOL     OW12436   0.524   4.802   3.949
 3846SOL    HW112437   0.549   4.822   4.043
 3846SOL    HW212438   0.454   4.868   3.919
 3847SOL     OW12439   6.060   0.744   5.171
 3847SOL    HW112440   6.036   0.721   5.265
 3847SOL    HW212441   5.991   0.708   5.108
 3848SOL     OW12442   3.266   5.624   2.627
 3848SOL    HW112443   3.270   5.535   2.582
 3848SOL    HW212444   3.183   5.628   2.683
 3849SOL     OW12445   0.940   1.439   5.562
 3849SOL    HW112446   0.983   1.437   5.472
 3849SOL    HW212447   1.007   1.414   5.632
 3850SOL     OW12448   2.784   3.299   1.414
 3850SOL    HW112449   2.847   3.340   1.480
 3850SOL    HW212450   2.698   3.351   1.412
 3851SOL     OW12451   1.293   4.384   3.225
 3851SOL    HW112452   1.284   4.462   3.163
 3851SOL    HW212453   1.362   4.321   3.188
 3852SOL     OW12454   4.963   6.687   4.354
 3852SOL    HW112455   5.050   6.727   4.324
 3852SOL    HW212456   4.950   6.599   4.308
 3853SOL     OW12457   1.642   2.879   2.752
 3853SOL    HW112458   1.584   2.869   2.833
 3853SOL    HW212459   1.640   2.795   2.699
 3854SOL     OW12460   1.416   3.566   2.948
 3854SOL    HW112461   1.476   3.527   3.018
 3854SOL    HW212462   1.378   3.492   2.892
 3855SOL     OW12463   4.305   5.915   6.697
 3855SOL    HW112464   4.363   5.842   6.663
 3855SOL    HW212465   4.257   5.959   6.621
 3856SOL     OW12466   6.880   6.027   5.361
 3856SOL    HW112467   6.826   6.111   5.373
 3856SOL    HW212468   6.823   5.956   5.320
 3857SOL     OW12469   1.041   5.718   5.863
 3857SOL    HW112470   1.125   5.720   5.917
 3857SOL    HW212471   1.063   5.701   5.767
 3858SOL     OW12472   1.737   6.017   5.704
 3858SOL    HW112473   1.786   6.063   5.630
 3858SOL    HW212474   1.779   6.039   5.791
 3859SOL     OW12475   6.471   2.205   3.040
 3859SOL    HW112476   6.410   2.218   2.962
 3859SOL    HW212477   6.426   2.236   3.123
 3860SOL     OW12478   0.918   0.539   5.622
 3860SOL    HW112479   0.928   0.557   5.524
 3860SOL    HW212480   0.862   0.457   5.635
 3861SOL     OW12481   5.210   4.222   1.794
 3861SOL    HW112482   5.131   4.235   1.734
 3861SOL    HW212483   5.206   4.287   1.869
 3862SOL     OW12484   0.490   6.645   4.737
 3862SOL    HW112485   0.487   6.569   4.802
 3862SOL    HW212486   0.425   6.716   4.767
 3863SOL     OW12487   3.648   4.056   6.319
 3863SOL    HW112488   3.705   4.070   6.238
 3863SOL    HW212489   3.699   4.003   6.387
 3864SOL     OW12490   3.832   1.729   5.199
 3864SOL    HW112491   3.889   1.691   5.271
 3864SOL    HW212492   3.869   1.818   5.171
 3865SOL     OW12493   4.105   0.279   1.551
 3865SOL    HW112494   4.056   0.359   1.585
 3865SOL    HW212495   4.148   0.301   1.464
 3866SOL     OW12496   4.312   0.717   0.794
 3866SOL    HW112497   4.374   0.713   0.872
 3866SOL    HW212498   4.285   0.812   0.778
 3867SOL     OW12499   1.520   3.245   3.757
 3867SOL    HW112500   1.498   3.283   3.846
 3867SOL    HW212501   1.440   3.249   3.697
 3868SOL     OW12502   2.320   6.405   1.607
 3868SOL    HW112503   2.297   6.462   1.686
 3868SOL    HW212504   2.412   6.369   1.618
 3869SOL     OW12505   6.804   3.270   4.789
 3869SOL    HW112506   6.727   3.206   4.782
 3869SOL    HW212507   6.834   3.294   4.697
 3870SOL     OW12508   4.568   4.866   0.536
 3870SOL    HW112509   4.605   4.957   0.557
 3870SOL    HW212510   4.582   4.847   0.439
 3871SOL     OW12511   3.661   0.701   2.455
 3871SOL    HW112512   3.606   0.641   2.396
 3871SOL    HW212513   3.678   0.655   2.542
 3872SOL     OW12514   3.206   2.901   1.982
 3872SOL    HW112515   3.295   2.892   2.027
 3872SOL    HW212516   3.144   2.951   2.042
 3873SOL     OW12517   6.091   5.451   1.225
 3873SOL    HW112518   6.034   5.498   1.293
 3873SOL    HW212519   6.161   5.398   1.272
 3874SOL     OW12520   3.922   6.176   6.946
 3874SOL    HW112521   4.021   6.168   6.961
 3874SOL    HW212522   3.879   6.087   6.959
 3875SOL     OW12523   1.053   3.283   2.500
 3875SOL    HW112524   1.001   3.288   2.586
 3875SOL    HW212525   1.013   3.212   2.442
 3876SOL     OW12526   5.745   5.797   6.179
 3876SOL    HW112527   5.673   5.796   6.248
 3876SOL    HW212528   5.724   5.866   6.110
 3877SOL     OW12529   6.515   1.774   0.357
 3877SOL    HW112530   6.520   1.795   0.455
 3877SOL    HW212531   6.605   1.742   0.326
 3878SOL     OW12532   2.386   6.474   5.708
 3878SOL    HW112533   2.312   6.541   5.716
 3878SOL    HW212534   2.348   6.382   5.713
 3879SOL     OW12535   4.064   6.433   1.581
 3879SOL    HW112536   4.013   6.419   1.496
 3879SOL    HW212537   4.162   6.440   1.561
 3880SOL     OW12538   5.990   4.291   3.265
 3880SOL    HW112539   5.953   4.295   3.358
 3880SOL    HW212540   5.919   4.316   3.200
 3881SOL     OW12541   1.451   5.087   0.689
 3881SOL    HW112542   1.495   5.085   0.779
 3881SOL    HW212543   1.505   5.036   0.623
 3882SOL     OW12544   6.400   1.200   4.937
 3882SOL    HW112545   6.354   1.206   5.026
 3882SOL    HW212546   6.458   1.118   4.935
 3883SOL     OW12547   4.633   0.960   4.073
 3883SOL    HW112548   4.599   1.047   4.036
 3883SOL    HW212549   4.667   0.903   3.998
 3884SOL     OW12550   1.065   5.988   4.516
 3884SOL    HW112551   1.028   5.910   4.566
 3884SOL    HW212552   1.164   5.979   4.507
 3885SOL     OW12553   6.409   0.961   4.539
 3885SOL    HW112554   6.498   0.914   4.544
 3885SOL    HW212555   6.403   1.012   4.453
 3886SOL     OW12556   6.468   0.227   5.452
 3886SOL    HW112557   6.437   0.268   5.538
 3886SOL    HW212558   6.389   0.202   5.396
 3887SOL     OW12559   5.323   2.173   5.473
 3887SOL    HW112560   5.399   2.237   5.467
 3887SOL    HW212561   5.290   2.169   5.568
 3888SOL     OW12562   0.278   0.483   5.976
 3888SOL    HW112563   0.291   0.566   6.031
 3888SOL    HW212564   0.215   0.503   5.901
 3889SOL     OW12565   6.861   3.959   7.018
 3889SOL    HW112566   6.821   4.028   0.055
 3889SOL    HW212567   6.828   3.974   6.924
 3890SOL     OW12568   6.612   6.633   3.338
 3890SOL    HW112569   6.694   6.680   3.370
 3890SOL    HW212570   6.593   6.659   3.243
 3891SOL     OW12571   5.594   4.453   4.765
 3891SOL    HW112572   5.499   4.481   4.776
 3891SOL    HW212573   5.600   4.386   4.691
 3892SOL     OW12574   1.104   0.228   2.277
 3892SOL    HW112575   1.132   0.322   2.301
 3892SOL    HW212576   1.177   0.165   2.301
 3893SOL     OW12577   3.589   5.842   2.703
 3893SOL    HW112578   3.647   5.765   2.729
 3893SOL    HW212579   3.646   5.921   2.683
 3894SOL     OW12580   3.445   2.483   1.108
 3894SOL    HW112581   3.359   2.470   1.157
 3894SOL    HW212582   3.495   2.396   1.105
 3895SOL     OW12583   0.880   1.054   5.492
 3895SOL    HW112584   0.967   1.098   5.515
 3895SOL    HW212585   0.813   1.125   5.470
 3896SOL     OW12586   0.752   2.463   6.153
 3896SOL    HW112587   0.815   2.405   6.100
 3896SOL    HW212588   0.682   2.501   6.092
 3897SOL     OW12589   2.860   6.659   2.175
 3897SOL    HW112590   2.879   6.720   2.251
 3897SOL    HW212591   2.775   6.610   2.192
 3898SOL     OW12592   3.232   2.985   3.313
 3898SOL    HW112593   3.232   3.051   3.238
 3898SOL    HW212594   3.170   3.016   3.385
 3899SOL     OW12595   5.028   1.347   4.920
 3899SOL    HW112596   5.001   1.252   4.937
 3899SOL    HW212597   4.972   1.408   4.977
 3900SOL     OW12598   5.714   2.782   3.606
 3900SOL    HW112599   5.631   2.792   3.551
 3900SOL    HW212600   5.709   2.698   3.660
 3901SOL     OW12601   1.723   6.304   5.820
 3901SOL    HW112602   1.688   6.352   5.901
 3901SOL    HW212603   1.816   6.337   5.799
 3902SOL     OW12604   4.621   4.285   2.701
 3902SOL    HW112605   4.710   4.245   2.677
 3902SOL    HW212606   4.573   4.312   2.618
 3903SOL     OW12607   4.013   4.110   6.837
 3903SOL    HW112608   4.029   4.012   6.822
 3903SOL    HW212609   3.929   4.137   6.790
 3904SOL     OW12610   0.870   6.948   6.795
 3904SOL    HW112611   0.867   6.849   6.809
 3904SOL    HW212612   0.960   6.975   6.761
 3905SOL     OW12613   6.383   6.783   6.413
 3905SOL    HW112614   6.434   6.728   6.346
 3905SOL    HW212615   6.446   6.833   6.471
 3906SOL     OW12616   1.864   4.554   4.727
 3906SOL    HW112617   1.856   4.632   4.789
 3906SOL    HW212618   1.826   4.579   4.638
 3907SOL     OW12619   0.774   0.974   4.847
 3907SOL    HW112620   0.871   0.954   4.853
 3907SOL    HW212621   0.732   0.917   4.777
 3908SOL     OW12622   0.761   0.518   6.168
 3908SOL    HW112623   0.776   0.526   6.267
 3908SOL    HW212624   0.703   0.439   6.150
 3909SOL     OW12625   5.130   3.837   5.986
 3909SOL    HW112626   5.195   3.910   5.966
 3909SOL    HW212627   5.180   3.756   6.017
 3910SOL     OW12628   3.794   4.050   1.934
 3910SOL    HW112629   3.831   3.961   1.961
 3910SOL    HW212630   3.714   4.070   1.990
 3911SOL     OW12631   5.528   0.392   0.895
 3911SOL    HW112632   5.506   0.306   0.849
 3911SOL    HW212633   5.447   0.428   0.940
 3912SOL     OW12634   3.125   1.540   5.812
 3912SOL    HW112635   3.038   1.498   5.834
 3912SOL    HW212636   3.121   1.582   5.721
 3913SOL     OW12637   3.583   5.863   6.832
 3913SOL    HW112638   3.535   5.909   6.757
 3913SOL    HW212639   3.518   5.814   6.888
 3914SOL     OW12640   5.371   1.762   1.565
 3914SOL    HW112641   5.409   1.837   1.621
 3914SOL    HW212642   5.300   1.799   1.505
 3915SOL     OW12643   3.261   6.873   0.213
 3915SOL    HW112644   3.180   6.907   0.260
 3915SOL    HW212645   3.270   6.774   0.229
 3916SOL     OW12646   2.974   6.870   3.036
 3916SOL    HW112647   3.055   6.930   3.029
 3916SOL    HW212648   2.953   6.853   3.132
 3917SOL     OW12649   2.926   5.329   0.348
 3917SOL    HW112650   3.011   5.312   0.398
 3917SOL    HW212651   2.930   5.282   0.260
 3918SOL     OW12652   4.668   1.160   0.459
 3918SOL    HW112653   4.719   1.178   0.544
 3918SOL    HW212654   4.653   1.245   0.410
 3919SOL     OW12655   3.990   1.211   0.946
 3919SOL    HW112656   4.064   1.163   0.899
 3919SOL    HW212657   3.919   1.146   0.972
 3920SOL     OW12658   2.239   1.242   6.915
 3920SOL    HW112659   2.154   1.277   6.954
 3920SOL    HW212660   2.306   1.316   6.908
 3921SOL     OW12661   6.508   2.835   6.838
 3921SOL    HW112662   6.538   2.926   6.867
 3921SOL    HW212663   6.408   2.831   6.836
 3922SOL     OW12664   4.769   5.221   1.851
 3922SOL    HW112665   4.804   5.127   1.860
 3922SOL    HW212666   4.674   5.224   1.882
 3923SOL     OW12667   5.990   1.243   0.991
 3923SOL    HW112668   5.933   1.325   0.987
 3923SOL    HW212669   5.939   1.165   0.955
 3924SOL     OW12670   0.345   4.400   3.061
 3924SOL    HW112671   0.401   4.461   3.005
 3924SOL    HW212672   0.272   4.360   3.005
 3925SOL     OW12673   4.523   4.400   0.798
 3925SOL    HW112674   4.550   4.335   0.869
 3925SOL    HW212675   4.560   4.371   0.710
 3926SOL     OW12676   0.931   0.313   5.823
 3926SOL    HW112677   0.880   0.395   5.797
 3926SOL    HW212678   0.990   0.333   5.901
 3927SOL     OW12679   0.947   3.548   3.850
 3927SOL    HW112680   0.910   3.640   3.841
 3927SOL    HW212681   1.044   3.553   3.873
 3928SOL     OW12682   2.831   6.748   2.837
 3928SOL    HW112683   2.764   6.806   2.792
 3928SOL    HW212684   2.894   6.805   2.890
 3929SOL     OW12685   6.893   1.628   6.854
 3929SOL    HW112686   6.937   1.701   6.801
 3929SOL    HW212687   6.858   1.664   6.940
 3930SOL     OW12688   1.007   2.026   3.830
 3930SOL    HW112689   0.988   2.116   3.791
 3930SOL    HW212690   1.019   1.960   3.756
 3931SOL     OW12691   1.626   1.666   1.798
 3931SOL    HW112692   1.715   1.621   1.793
 3931SOL    HW212693   1.639   1.762   1.824
 3932SOL     OW12694   2.335   5.702   3.877
 3932SOL    HW112695   2.431   5.692   3.903
 3932SOL    HW212696   2.323   5.677   3.781
 3933SOL     OW12697   0.992   5.624   0.510
 3933SOL    HW112698   0.971   5.721   0.519
 3933SOL    HW212699   1.090   5.611   0.500
 3934SOL     OW12700   0.112   2.241   2.958
 3934SOL    HW112701   0.075   2.149   2.945
 3934SOL    HW212702   0.142   2.252   3.052
 3935SOL     OW12703   6.229   2.752   6.926
 3935SOL    HW112704   6.298   2.688   6.959
 3935SOL    HW212705   6.176   2.709   6.852
 3936SOL     OW12706   6.744   5.695   5.124
 3936SOL    HW112707   6.690   5.697   5.039
 3936SOL    HW212708   6.692   5.739   5.197
 3937SOL     OW12709   0.349   5.460   2.653
 3937SOL    HW112710   0.316   5.528   2.588
 3937SOL    HW212711   0.449   5.462   2.655
 3938SOL     OW12712   0.052   3.591   4.883
 3938SOL    HW112713   0.081   3.663   4.946
 3938SOL    HW212714   7.005   3.627   4.822
 3939SOL     OW12715   1.378   1.095   2.549
 3939SOL    HW112716   1.367   1.142   2.461
 3939SOL    HW212717   1.405   1.162   2.619
 3940SOL     OW12718   3.112   4.803   1.939
 3940SOL    HW112719   3.150   4.861   2.011
 3940SOL    HW212720   3.041   4.744   1.978
 3941SOL     OW12721   6.207   7.022   4.842
 3941SOL    HW112722   6.305   7.019   4.858
 3941SOL    HW212723   6.187   6.990   4.749
 3942SOL     OW12724   1.603   6.095   6.015
 3942SOL    HW112725   1.631   6.032   6.087
 3942SOL    HW212726   1.683   6.137   5.972
 3943SOL     OW12727   1.102   3.744   1.714
 3943SOL    HW112728   1.191   3.785   1.732
 3943SOL    HW212729   1.099   3.652   1.753
 3944SOL     OW12730   5.431   3.103   6.353
 3944SOL    HW112731   5.374   3.185   6.350
 3944SOL    HW212732   5.445   3.076   6.449
 3945SOL     OW12733   0.863   2.471   3.010
 3945SOL    HW112734   0.818   2.383   3.025
 3945SOL    HW212735   0.909   2.470   2.921
 3946SOL     OW12736   6.622   3.509   0.295
 3946SOL    HW112737   6.541   3.451   0.289
 3946SOL    HW212738   6.649   3.520   0.390
 3947SOL     OW12739   5.846   5.859   0.207
 3947SOL    HW112740   5.809   5.929   0.268
 3947SOL    HW212741   5.942   5.877   0.190
 3948SOL     OW12742   1.675   3.542   0.080
 3948SOL    HW112743   1.576   3.535   0.073
 3948SOL    HW212744   1.700   3.578   0.170
 3949SOL     OW12745   6.763   6.799   2.591
 3949SOL    HW112746   6.776   6.854   2.508
 3949SOL    HW212747   6.704   6.850   2.655
 3950SOL     OW12748   4.282   4.066   1.674
 3950SOL    HW112749   4.258   3.969   1.676
 3950SOL    HW212750   4.365   4.081   1.728
 3951SOL     OW12751   0.589   2.616   5.994
 3951SOL    HW112752   0.597   2.713   5.971
 3951SOL    HW212753   0.529   2.571   5.928
 3952SOL     OW12754   5.794   2.448   4.260
 3952SOL    HW112755   5.852   2.427   4.339
 3952SOL    HW212756   5.723   2.513   4.288
 3953SOL     OW12757   3.043   4.226   6.045
 3953SOL    HW112758   3.027   4.238   6.143
 3953SOL    HW212759   3.059   4.315   6.002
 3954SOL     OW12760   6.556   3.853   5.690
 3954SOL    HW112761   6.461   3.846   5.720
 3954SOL    HW212762   6.565   3.928   5.625
 3955SOL     OW12763   4.684   6.278   0.185
 3955SOL    HW112764   4.694   6.241   0.093
 3955SOL    HW212765   4.685   6.378   0.181
 3956SOL     OW12766   0.846   2.757   5.689
 3956SOL    HW112767   0.862   2.808   5.604
 3956SOL    HW212768   0.770   2.693   5.676
 3957SOL     OW12769   3.071   6.931   4.104
 3957SOL    HW112770   3.065   6.852   4.165
 3957SOL    HW212771   3.142   6.994   4.136
 3958SOL     OW12772   6.295   6.599   0.226
 3958SOL    HW112773   6.364   6.669   0.244
 3958SOL    HW212774   6.337   6.508   0.234
 3959SOL     OW12775   3.026   5.343   0.876
 3959SOL    HW112776   3.013   5.322   0.973
 3959SOL    HW212777   3.034   5.442   0.864
 3960SOL     OW12778   4.311   2.593   6.509
 3960SOL    HW112779   4.314   2.596   6.409
 3960SOL    HW212780   4.344   2.679   6.546
 3961SOL     OW12781   5.171   2.286   2.238
 3961SOL    HW112782   5.085   2.337   2.233
 3961SOL    HW212783   5.156   2.191   2.209
 3962SOL     OW12784   0.509   5.567   0.153
 3962SOL    HW112785   0.568   5.569   0.072
 3962SOL    HW212786   0.475   5.473   0.167
 3963SOL     OW12787   5.545   5.414   3.159
 3963SOL    HW112788   5.481   5.363   3.216
 3963SOL    HW212789   5.506   5.429   3.069
 3964SOL     OW12790   4.530   6.172   5.102
 3964SOL    HW112791   4.582   6.227   5.168
 3964SOL    HW212792   4.592   6.106   5.058
 3965SOL     OW12793   3.515   4.811   6.740
 3965SOL    HW112794   3.480   4.896   6.700
 3965SOL    HW212795   3.494   4.734   6.679
 3966SOL     OW12796   6.439   4.379   6.531
 3966SOL    HW112797   6.531   4.341   6.531
 3966SOL    HW212798   6.425   4.432   6.616
 3967SOL     OW12799   0.914   5.434   3.787
 3967SOL    HW112800   0.860   5.363   3.832
 3967SOL    HW212801   0.951   5.497   3.856
 3968SOL     OW12802   5.450   0.388   2.944
 3968SOL    HW112803   5.520   0.385   3.015
 3968SOL    HW212804   5.379   0.321   2.964
 3969SOL     OW12805   1.458   4.958   3.080
 3969SOL    HW112806   1.491   4.920   2.994
 3969SOL    HW212807   1.467   4.890   3.153
 3970SOL     OW12808   4.715   4.787   3.993
 3970SOL    HW112809   4.666   4.842   3.926
 3970SOL    HW212810   4.662   4.781   4.078
 3971SOL     OW12811   3.094   5.609   3.073
 3971SOL    HW112812   3.173   5.579   3.126
 3971SOL    HW212813   3.015   5.618   3.133
 3972SOL     OW12814   0.387   6.296   0.926
 3972SOL    HW112815   0.397   6.210   0.976
 3972SOL    HW212816   0.453   6.363   0.961
 3973SOL     OW12817   3.280   3.338   5.152
 3973SOL    HW112818   3.270   3.430   5.190
 3973SOL    HW212819   3.261   3.341   5.054
 3974SOL     OW12820   0.152   1.531   6.262
 3974SOL    HW112821   0.224   1.528   6.332
 3974SOL    HW212822   0.063   1.517   6.306
 3975SOL     OW12823   6.700   0.442   5.797
 3975SOL    HW112824   6.613   0.485   5.776
 3975SOL    HW212825   6.729   0.468   5.889
 3976SOL     OW12826   0.716   4.378   0.894
 3976SOL    HW112827   0.719   4.399   0.992
 3976SOL    HW212828   0.690   4.459   0.843
 3977SOL     OW12829   2.525   5.982   5.697
 3977SOL    HW112830   2.466   6.025   5.765
 3977SOL    HW212831   2.473   5.964   5.614
 3978SOL     OW12832   5.645   1.431   6.003
 3978SOL    HW112833   5.607   1.345   5.968
 3978SOL    HW212834   5.578   1.504   5.994
 3979SOL     OW12835   2.109   0.113   1.512
 3979SOL    HW112836   2.134   0.115   1.415
 3979SOL    HW212837   2.083   0.205   1.541
 3980SOL     OW12838   5.745   3.460   4.616
 3980SOL    HW112839   5.688   3.500   4.688
 3980SOL    HW212840   5.840   3.491   4.628
 3981SOL     OW12841   6.916   2.115   6.478
 3981SOL    HW112842   6.845   2.071   6.423
 3981SOL    HW212843   6.888   2.209   6.499
 3982SOL     OW12844   2.436   0.993   4.967
 3982SOL    HW112845   2.397   1.024   5.053
 3982SOL    HW212846   2.476   1.070   4.918
 3983SOL     OW12847   3.647   6.669   4.777
 3983SOL    HW112848   3.707   6.719   4.714
 3983SOL    HW212849   3.667   6.696   4.871
 3984SOL     OW12850   1.775   6.967   2.081
 3984SOL    HW112851   1.724   0.029   2.074
 3984SOL    HW212852   1.873   6.987   2.090
 3985SOL     OW12853   1.925   4.247   6.795
 3985SOL    HW112854   1.886   4.171   6.847
 3985SOL    HW212855   1.980   4.212   6.719
 3986SOL     OW12856   0.360   1.921   2.096
 3986SOL    HW112857   0.372   1.826   2.125
 3986SOL    HW212858   0.280   1.960   2.141
 3987SOL     OW12859   1.519   5.825   5.319
 3987SOL    HW112860   1.458   5.868   5.252
 3987SOL    HW212861   1.518   5.878   5.403
 3988SOL     OW12862   3.485   2.031   6.312
 3988SOL    HW112863   3.560   1.972   6.283
 3988SOL    HW212864   3.438   1.990   6.390
 3989SOL     OW12865   6.123   0.194   6.390
 3989SOL    HW112866   6.181   0.268   6.355
 3989SOL    HW212867   6.089   0.139   6.314
 3990SOL     OW12868   6.294   2.407   5.037
 3990SOL    HW112869   6.202   2.422   5.073
 3990SOL    HW212870   6.318   2.480   4.973
 3991SOL     OW12871   0.373   2.655   3.613
 3991SOL    HW112872   0.453   2.607   3.577
 3991SOL    HW212873   0.311   2.677   3.538
 3992SOL     OW12874   3.864   2.980   6.681
 3992SOL    HW112875   3.954   2.947   6.653
 3992SOL    HW212876   3.831   2.927   6.759
 3993SOL     OW12877   2.627   2.284   2.640
 3993SOL    HW112878   2.636   2.212   2.572
 3993SOL    HW212879   2.717   2.323   2.660
 3994SOL     OW12880   2.204   2.504   5.070
 3994SOL    HW112881   2.153   2.590   5.072
 3994SOL    HW212882   2.300   2.524   5.048
 3995SOL     OW12883   2.296   4.260   3.545
 3995SOL    HW112884   2.347   4.283   3.462
 3995SOL    HW212885   2.198   4.260   3.525
 3996SOL     OW12886   2.008   1.426   4.494
 3996SOL    HW112887   2.055   1.505   4.533
 3996SOL    HW212888   1.963   1.452   4.408
 3997SOL     OW12889   4.867   3.681   3.178
 3997SOL    HW112890   4.892   3.595   3.222
 3997SOL    HW212891   4.902   3.758   3.232
 3998SOL     OW12892   6.053   2.231   1.993
 3998SOL    HW112893   5.959   2.199   1.982
 3998SOL    HW212894   6.064   2.320   1.947
 3999SOL     OW12895   6.424   4.184   3.474
 3999SOL    HW112896   6.486   4.171   3.551
 3999SOL    HW212897   6.330   4.162   3.501
 4000SOL     OW12898   3.319   5.853   2.868
 4000SOL    HW112899   3.300   5.828   2.773
 4000SOL    HW212900   3.418   5.865   2.880
 4001SOL     OW12901   2.276   4.215   6.010
 4001SOL    HW112902   2.322   4.133   5.977
 4001SOL    HW212903   2.217   4.252   5.938
 4002SOL     OW12904   3.666   2.978   4.477
 4002SOL    HW112905   3.720   2.955   4.558
 4002SOL    HW212906   3.695   3.067   4.442
 4003SOL     OW12907   1.511   1.331   6.295
 4003SOL    HW112908   1.485   1.384   6.375
 4003SOL    HW212909   1.546   1.393   6.224
 4004SOL     OW12910   6.720   3.186   3.990
 4004SOL    HW112911   6.707   3.250   4.065
 4004SOL    HW212912   6.816   3.155   3.989
 4005SOL     OW12913   3.907   5.004   0.786
 4005SOL    HW112914   3.946   4.920   0.824
 4005SOL    HW212915   3.882   4.989   0.690
 4006SOL     OW12916   5.480   4.790   1.917
 4006SOL    HW112917   5.512   4.757   2.006
 4006SOL    HW212918   5.428   4.718   1.871
 4007SOL     OW12919   0.683   2.626   3.155
 4007SOL    HW112920   0.768   2.581   3.127
 4007SOL    HW212921   0.605   2.572   3.123
 4008SOL     OW12922   3.443   0.578   6.470
 4008SOL    HW112923   3.401   0.522   6.398
 4008SOL    HW212924   3.373   0.635   6.512
 4009SOL     OW12925   4.944   2.007   1.040
 4009SOL    HW112926   4.856   2.013   0.993
 4009SOL    HW212927   4.956   1.914   1.075
 4010SOL     OW12928   3.136   3.379   1.952
 4010SOL    HW112929   3.092   3.323   1.883
 4010SOL    HW212930   3.217   3.332   1.987
 4011SOL     OW12931   6.979   6.522   2.109
 4011SOL    HW112932   6.956   6.618   2.093
 4011SOL    HW212933   0.009   6.513   2.193
 4012SOL     OW12934   4.489   6.660   2.634
 4012SOL    HW112935   4.427   6.614   2.697
 4012SOL    HW212936   4.506   6.602   2.555
 4013SOL     OW12937   2.142   0.591   1.223
 4013SOL    HW112938   2.166   0.676   1.176
 4013SOL    HW212939   2.157   0.602   1.321
 4014SOL     OW12940   3.213   6.049   4.040
 4014SOL    HW112941   3.249   5.955   4.045
 4014SOL    HW212942   3.140   6.053   3.972
 4015SOL     OW12943   4.933   5.188   6.173
 4015SOL    HW112944   4.908   5.162   6.080
 4015SOL    HW212945   4.914   5.112   6.235
 4016SOL     OW12946   2.890   5.991   0.126
 4016SOL    HW112947   2.961   5.994   0.056
 4016SOL    HW212948   2.884   6.080   0.172
 4017SOL     OW12949   0.396   5.552   5.481
 4017SOL    HW112950   0.317   5.574   5.539
 4017SOL    HW212951   0.475   5.534   5.539
 4018SOL     OW12952   4.561   0.124   2.020
 4018SOL    HW112953   4.623   0.193   2.055
 4018SOL    HW212954   4.488   0.168   1.967
 4019SOL     OW12955   5.586   3.839   2.558
 4019SOL    HW112956   5.672   3.887   2.541
 4019SOL    HW212957   5.573   3.829   2.657
 4020SOL     OW12958   6.455   2.920   5.514
 4020SOL    HW112959   6.466   3.001   5.456
 4020SOL    HW212960   6.544   2.893   5.550
 4021SOL     OW12961   3.559   4.256   5.182
 4021SOL    HW112962   3.531   4.162   5.198
 4021SOL    HW212963   3.488   4.318   5.216
 4022SOL     OW12964   3.099   6.427   6.519
 4022SOL    HW112965   3.193   6.450   6.543
 4022SOL    HW212966   3.048   6.511   6.502
 4023SOL     OW12967   0.058   0.418   5.325
 4023SOL    HW112968   6.998   0.376   5.361
 4023SOL    HW212969   0.103   0.355   5.262
 4024SOL     OW12970   2.355   4.610   4.165
 4024SOL    HW112971   2.353   4.521   4.120
 4024SOL    HW212972   2.360   4.598   4.264
 4025SOL     OW12973   0.654   6.202   4.559
 4025SOL    HW112974   0.752   6.218   4.548
 4025SOL    HW212975   0.603   6.258   4.495
 4026SOL     OW12976   6.094   6.823   4.131
 4026SOL    HW112977   6.127   6.731   4.112
 4026SOL    HW212978   6.009   6.818   4.183
 4027SOL     OW12979   2.697   2.857   0.005
 4027SOL    HW112980   2.740   2.855   0.095
 4027SOL    HW212981   2.607   2.814   0.009
 4028SOL     OW12982   4.747   1.274   4.072
 4028SOL    HW112983   4.830   1.231   4.107
 4028SOL    HW212984   4.708   1.217   4.000
 4029SOL     OW12985   3.074   4.291   5.596
 4029SOL    HW112986   2.974   4.279   5.592
 4029SOL    HW212987   3.101   4.312   5.689
 4030SOL     OW12988   0.062   1.012   2.170
 4030SOL    HW112989   7.001   0.999   2.221
 4030SOL    HW212990   0.098   0.924   2.141
 4031SOL     OW12991   5.294   6.130   3.191
 4031SOL    HW112992   5.291   6.112   3.289
 4031SOL    HW212993   5.352   6.209   3.173
 4032SOL     OW12994   0.069   7.009   1.884
 4032SOL    HW112995   0.022   0.022   1.804
 4032SOL    HW212996   0.146   0.046   1.907
 4033SOL     OW12997   2.253   3.362   1.513
 4033SOL    HW112998   2.202   3.384   1.430
 4033SOL    HW212999   2.207   3.403   1.592
 4034SOL     OW13000   6.201   1.834   4.931
 4034SOL    HW113001   6.160   1.780   4.857
 4034SOL    HW213002   6.168   1.800   5.019
 4035SOL     OW13003   6.031   1.254   0.523
 4035SOL    HW113004   6.018   1.346   0.486
 4035SOL    HW213005   5.973   1.243   0.604
 4036SOL     OW13006   4.063   4.743   2.485
 4036SOL    HW113007   4.011   4.660   2.506
 4036SOL    HW213008   4.004   4.807   2.435
 4037SOL     OW13009   1.746   1.581   0.305
 4037SOL    HW113010   1.672   1.610   0.244
 4037SOL    HW213011   1.817   1.651   0.309
 4038SOL     OW13012   4.103   2.824   1.461
 4038SOL    HW113013   4.167   2.901   1.454
 4038SOL    HW213014   4.023   2.851   1.513
 4039SOL     OW13015   5.736   5.482   1.449
 4039SOL    HW113016   5.762   5.395   1.406
 4039SOL    HW213017   5.814   5.517   1.502
 4040SOL     OW13018   3.451   6.848   5.031
 4040SOL    HW113019   3.402   6.781   4.975
 4040SOL    HW213020   3.391   6.926   5.050
 4041SOL     OW13021   1.169   5.117   0.699
 4041SOL    HW113022   1.109   5.053   0.652
 4041SOL    HW213023   1.264   5.085   0.693
 4042SOL     OW13024   6.100   6.189   4.239
 4042SOL    HW113025   6.132   6.095   4.249
 4042SOL    HW213026   6.142   6.246   4.309
 4043SOL     OW13027   6.833   2.293   6.177
 4043SOL    HW113028   6.873   2.334   6.259
 4043SOL    HW213029   6.813   2.365   6.110
 4044SOL     OW13030   4.702   6.604   3.551
 4044SOL    HW113031   4.671   6.695   3.579
 4044SOL    HW213032   4.801   6.597   3.560
 4045SOL     OW13033   3.850   5.640   5.815
 4045SOL    HW113034   3.751   5.645   5.800
 4045SOL    HW213035   3.871   5.680   5.905
 4046SOL     OW13036   1.285   1.630   3.618
 4046SOL    HW113037   1.343   1.548   3.625
 4046SOL    HW213038   1.331   1.707   3.662
 4047SOL     OW13039   2.213   2.553   0.272
 4047SOL    HW113040   2.215   2.472   0.213
 4047SOL    HW213041   2.166   2.531   0.357
 4048SOL     OW13042   5.091   1.983   1.751
 4048SOL    HW113043   5.158   1.920   1.791
 4048SOL    HW213044   5.026   1.931   1.695
 4049SOL     OW13045   5.454   5.123   6.408
 4049SOL    HW113046   5.483   5.029   6.426
 4049SOL    HW213047   5.436   5.134   6.310
 4050SOL     OW13048   1.284   6.501   1.852
 4050SOL    HW113049   1.280   6.517   1.951
 4050SOL    HW213050   1.254   6.583   1.804
 4051SOL     OW13051   4.056   1.575   6.461
 4051SOL    HW113052   3.965   1.578   6.502
 4051SOL    HW213053   4.077   1.482   6.433
 4052SOL     OW13054   6.639   1.244   2.052
 4052SOL    HW113055   6.654   1.306   2.128
 4052SOL    HW213056   6.727   1.222   2.008
 4053SOL     OW13057   3.247   6.426   4.245
 4053SOL    HW113058   3.230   6.328   4.257
 4053SOL    HW213059   3.278   6.443   4.152
 4054SOL     OW13060   5.766   3.774   1.075
 4054SOL    HW113061   5.762   3.766   1.174
 4054SOL    HW213062   5.696   3.716   1.034
 4055SOL     OW13063   2.940   3.228   0.200
 4055SOL    HW113064   2.905   3.299   0.260
 4055SOL    HW213065   2.949   3.142   0.252
 4056SOL     OW13066   5.148   3.831   0.842
 4056SOL    HW113067   5.192   3.814   0.754
 4056SOL    HW213068   5.076   3.900   0.831
 4057SOL     OW13069   6.493   2.151   0.862
 4057SOL    HW113070   6.564   2.215   0.892
 4057SOL    HW213071   6.407   2.200   0.850
 4058SOL     OW13072   2.275   0.076   5.165
 4058SOL    HW113073   2.285   7.009   5.125
 4058SOL    HW213074   2.230   0.136   5.100
 4059SOL     OW13075   0.514   1.729   3.007
 4059SOL    HW113076   0.446   1.656   2.993
 4059SOL    HW213077   0.605   1.689   3.012
 4060SOL     OW13078   5.296   5.726   5.025
 4060SOL    HW113079   5.343   5.780   5.095
 4060SOL    HW213080   5.218   5.779   4.989
 4061SOL     OW13081   2.669   4.738   2.627
 4061SOL    HW113082   2.759   4.733   2.583
 4061SOL    HW213083   2.642   4.834   2.636
 4062SOL     OW13084   2.450   1.048   1.642
 4062SOL    HW113085   2.357   1.071   1.669
 4062SOL    HW213086   2.507   1.131   1.644
 4063SOL     OW13087   6.169   6.504   7.014
 4063SOL    HW113088   6.244   6.483   6.952
 4063SOL    HW213089   6.205   6.549   0.073
 4064SOL     OW13090   2.422   0.514   3.615
 4064SOL    HW113091   2.391   0.420   3.598
 4064SOL    HW213092   2.513   0.527   3.575
 4065SOL     OW13093   1.512   6.894   1.503
 4065SOL    HW113094   1.551   6.971   1.554
 4065SOL    HW213095   1.566   6.879   1.420
 4066SOL     OW13096   6.025   4.691   3.372
 4066SOL    HW113097   5.969   4.622   3.326
 4066SOL    HW213098   6.076   4.743   3.305
 4067SOL     OW13099   6.494   3.712   2.946
 4067SOL    HW113100   6.526   3.691   2.854
 4067SOL    HW213101   6.521   3.806   2.970
 4068SOL     OW13102   1.623   1.310   4.934
 4068SOL    HW113103   1.697   1.327   4.869
 4068SOL    HW213104   1.585   1.219   4.919
 4069SOL     OW13105   2.928   5.414   6.510
 4069SOL    HW113106   2.911   5.472   6.589
 4069SOL    HW213107   3.017   5.437   6.471
 4070SOL     OW13108   0.843   3.596   1.837
 4070SOL    HW113109   0.845   3.497   1.853
 4070SOL    HW213110   0.853   3.613   1.739
 4071SOL     OW13111   1.284   1.179   5.114
 4071SOL    HW113112   1.254   1.090   5.150
 4071SOL    HW213113   1.367   1.207   5.161
 4072SOL     OW13114   0.172   5.866   4.103
 4072SOL    HW113115   0.232   5.920   4.163
 4072SOL    HW213116   0.078   5.898   4.112
 4073SOL     OW13117   2.874   6.055   6.197
 4073SOL    HW113118   2.897   6.130   6.258
 4073SOL    HW213119   2.948   6.040   6.132
 4074SOL     OW13120   6.894   4.079   2.298
 4074SOL    HW113121   6.795   4.094   2.293
 4074SOL    HW213122   6.932   4.077   2.206
 4075SOL     OW13123   4.141   1.789   2.145
 4075SOL    HW113124   4.115   1.884   2.162
 4075SOL    HW213125   4.168   1.745   2.230
 4076SOL     OW13126   2.890   2.741   5.649
 4076SOL    HW113127   2.847   2.657   5.683
 4076SOL    HW213128   2.858   2.759   5.556
 4077SOL     OW13129   3.174   1.462   6.996
 4077SOL    HW113130   3.145   1.397   6.926
 4077SOL    HW213131   3.097   1.520   7.022
 4078SOL     OW13132   0.300   5.674   1.180
 4078SOL    HW113133   0.375   5.727   1.140
 4078SOL    HW213134   0.310   5.673   1.280
 4079SOL     OW13135   1.718   0.910   3.586
 4079SOL    HW113136   1.767   0.853   3.521
 4079SOL    HW213137   1.780   0.979   3.624
 4080SOL     OW13138   4.012   4.552   6.036
 4080SOL    HW113139   4.084   4.607   6.078
 4080SOL    HW213140   4.033   4.455   6.049
 4081SOL     OW13141   1.747   2.547   4.489
 4081SOL    HW113142   1.736   2.499   4.576
 4081SOL    HW213143   1.804   2.628   4.503
 4082SOL     OW13144   0.682   3.943   0.561
 4082SOL    HW113145   0.619   3.993   0.619
 4082SOL    HW213146   0.755   3.902   0.616
 4083SOL     OW13147   6.626   3.958   2.093
 4083SOL    HW113148   6.626   3.898   2.013
 4083SOL    HW213149   6.605   3.904   2.174
 4084SOL     OW13150   5.735   1.832   3.380
 4084SOL    HW113151   5.818   1.856   3.431
 4084SOL    HW213152   5.712   1.906   3.317
 4085SOL     OW13153   2.698   5.585   1.601
 4085SOL    HW113154   2.690   5.567   1.699
 4085SOL    HW213155   2.794   5.597   1.577
 4086SOL     OW13156   1.015   5.519   1.936
 4086SOL    HW113157   1.068   5.603   1.925
 4086SOL    HW213158   1.076   5.440   1.929
 4087SOL     OW13159   1.523   1.822   3.311
 4087SOL    HW113160   1.520   1.733   3.357
 4087SOL    HW213161   1.614   1.863   3.324
 4088SOL     OW13162   6.716   0.751   6.747
 4088SOL    HW113163   6.788   0.756   6.815
 4088SOL    HW213164   6.755   0.725   6.658
 4089SOL     OW13165   6.181   5.643   4.463
 4089SOL    HW113166   6.129   5.710   4.516
 4089SOL    HW213167   6.136   5.553   4.470
 4090SOL     OW13168   1.520   5.286   5.781
 4090SOL    HW113169   1.521   5.292   5.681
 4090SOL    HW213170   1.465   5.207   5.809
 4091SOL     OW13171   6.747   6.316   7.007
 4091SOL    HW113172   6.786   6.232   0.021
 4091SOL    HW213173   6.668   6.344   0.037
 4092SOL     OW13174   6.582   2.302   5.582
 4092SOL    HW113175   6.569   2.209   5.547
 4092SOL    HW213176   6.493   2.344   5.599
 4093SOL     OW13177   4.556   6.442   2.458
 4093SOL    HW113178   4.530   6.439   2.362
 4093SOL    HW213179   4.636   6.383   2.473
 4094SOL     OW13180   2.202   5.650   5.150
 4094SOL    HW113181   2.187   5.736   5.101
 4094SOL    HW213182   2.273   5.662   5.219
 4095SOL     OW13183   0.412   3.528   0.403
 4095SOL    HW113184   0.433   3.619   0.367
 4095SOL    HW213185   0.338   3.487   0.350
 4096SOL     OW13186   4.702   5.843   6.057
 4096SOL    HW113187   4.733   5.928   6.015
 4096SOL    HW213188   4.602   5.840   6.055
 4097SOL     OW13189   3.958   4.593   5.302
 4097SOL    HW113190   4.018   4.513   5.295
 4097SOL    HW213191   3.863   4.565   5.292
 4098SOL     OW13192   0.165   2.052   1.862
 4098SOL    HW113193   0.203   2.130   1.912
 4098SOL    HW213194   0.114   1.993   1.926
 4099SOL     OW13195   2.910   4.924   1.781
 4099SOL    HW113196   2.993   4.891   1.827
 4099SOL    HW213197   2.838   4.855   1.789
 4100SOL     OW13198   0.103   6.327   4.831
 4100SOL    HW113199   0.081   6.302   4.736
 4100SOL    HW213200   0.112   6.244   4.886
 4101SOL     OW13201   5.856   0.863   0.306
 4101SOL    HW113202   5.767   0.858   0.352
 4101SOL    HW213203   5.879   0.958   0.287
 4102SOL     OW13204   6.281   0.380   0.947
 4102SOL    HW113205   6.295   0.286   0.978
 4102SOL    HW213206   6.226   0.430   1.014
 4103SOL     OW13207   0.247   0.388   0.098
 4103SOL    HW113208   0.172   0.448   0.123
 4103SOL    HW213209   0.330   0.416   0.146
 4104SOL     OW13210   1.036   4.881   2.766
 4104SOL    HW113211   1.098   4.828   2.709
 4104SOL    HW213212   1.053   4.861   2.863
 4105SOL     OW13213   4.804   0.038   1.569
 4105SOL    HW113214   4.868   0.027   1.493
 4105SOL    HW213215   4.855   0.036   1.655
 4106SOL     OW13216   6.143   2.878   2.868
 4106SOL    HW113217   6.221   2.815   2.867
 4106SOL    HW213218   6.068   2.838   2.816
 4107SOL     OW13219   1.331   5.826   1.053
 4107SOL    HW113220   1.295   5.908   1.097
 4107SOL    HW213221   1.305   5.745   1.105
 4108SOL     OW13222   6.595   4.048   5.398
 4108SOL    HW113223   6.531   4.122   5.421
 4108SOL    HW213224   6.548   3.980   5.342
 4109SOL     OW13225   6.253   0.113   5.325
 4109SOL    HW113226   6.191   0.185   5.293
 4109SOL    HW213227   6.291   0.065   5.246
 4110SOL     OW13228   3.885   3.797   6.239
 4110SOL    HW113229   3.792   3.825   6.214
 4110SOL    HW213230   3.924   3.743   6.165
 4111SOL     OW13231   4.419   3.362   0.091
 4111SOL    HW113232   4.465   3.432   0.145
 4111SOL    HW213233   4.322   3.360   0.114
 4112SOL     OW13234   5.053   6.363   4.570
 4112SOL    HW113235   5.025   6.327   4.659
 4112SOL    HW213236   4.976   6.409   4.527
 4113SOL     OW13237   4.656   5.973   4.972
 4113SOL    HW113238   4.606   5.887   4.982
 4113SOL    HW213239   4.750   5.960   5.002
 4114SOL     OW13240   3.556   2.116   3.928
 4114SOL    HW113241   3.490   2.122   3.853
 4114SOL    HW213242   3.506   2.112   4.015
 4115SOL     OW13243   3.708   4.938   2.159
 4115SOL    HW113244   3.694   4.867   2.090
 4115SOL    HW213245   3.643   5.013   2.144
 4116SOL     OW13246   3.334   1.543   2.002
 4116SOL    HW113247   3.366   1.619   1.946
 4116SOL    HW213248   3.406   1.517   2.067
 4117SOL     OW13249   1.478   4.537   2.581
 4117SOL    HW113250   1.497   4.614   2.520
 4117SOL    HW213251   1.544   4.464   2.563
 4118SOL     OW13252   3.038   6.648   0.560
 4118SOL    HW113253   2.968   6.648   0.631
 4118SOL    HW213254   2.997   6.617   0.474
 4119SOL     OW13255   3.575   1.799   3.786
 4119SOL    HW113256   3.666   1.835   3.764
 4119SOL    HW213257   3.516   1.806   3.705
 4120SOL     OW13258   3.699   0.667   0.059
 4120SOL    HW113259   3.646   0.601   0.005
 4120SOL    HW213260   3.636   0.722   0.114
 4121SOL     OW13261   6.232   0.626   4.293
 4121SOL    HW113262   6.182   0.540   4.290
 4121SOL    HW213263   6.203   0.679   4.373
 4122SOL     OW13264   1.364   6.031   5.186
 4122SOL    HW113265   1.343   6.124   5.216
 4122SOL    HW213266   1.413   6.035   5.099
 4123SOL     OW13267   4.385   5.269   5.959
 4123SOL    HW113268   4.306   5.258   6.019
 4123SOL    HW213269   4.377   5.354   5.907
 4124SOL     OW13270   6.113   5.774   6.859
 4124SOL    HW113271   6.116   5.675   6.865
 4124SOL    HW213272   6.180   5.806   6.792
 4125SOL     OW13273   4.760   1.268   2.583
 4125SOL    HW113274   4.844   1.277   2.636
 4125SOL    HW213275   4.769   1.318   2.497
 4126SOL     OW13276   1.260   3.585   4.634
 4126SOL    HW113277   1.237   3.650   4.706
 4126SOL    HW213278   1.359   3.572   4.631
 4127SOL     OW13279   4.408   5.004   4.823
 4127SOL    HW113280   4.429   4.963   4.734
 4127SOL    HW213281   4.328   4.959   4.863
 4128SOL     OW13282   1.185   2.801   1.459
 4128SOL    HW113283   1.232   2.720   1.493
 4128SOL    HW213284   1.093   2.806   1.499
 4129SOL     OW13285   3.759   1.673   6.593
 4129SOL    HW113286   3.777   1.680   6.691
 4129SOL    HW213287   3.676   1.620   6.578
 4130SOL     OW13288   6.759   2.869   6.514
 4130SOL    HW113289   6.734   2.961   6.544
 4130SOL    HW213290   6.692   2.835   6.448
 4131SOL     OW13291   1.582   0.115   3.185
 4131SOL    HW113292   1.661   0.055   3.202
 4131SOL    HW213293   1.530   0.126   3.270
 4132SOL     OW13294   5.241   4.478   3.725
 4132SOL    HW113295   5.177   4.462   3.800
 4132SOL    HW213296   5.292   4.394   3.706
 4133SOL     OW13297   2.829   5.901   0.408
 4133SOL    HW113298   2.732   5.914   0.426
 4133SOL    HW213299   2.841   5.838   0.331
 4134SOL     OW13300   2.603   2.972   1.096
 4134SOL    HW113301   2.678   2.967   1.031
 4134SOL    HW213302   2.520   2.933   1.056
 4135SOL     OW13303   0.709   1.558   3.065
 4135SOL    HW113304   0.648   1.482   3.045
 4135SOL    HW213305   0.722   1.565   3.164
 4136SOL     OW13306   1.054   2.119   3.006
 4136SOL    HW113307   0.963   2.158   2.993
 4136SOL    HW213308   1.066   2.041   2.944
 4137SOL     OW13309   0.260   4.735   0.661
 4137SOL    HW113310   0.275   4.764   0.756
 4137SOL    HW213311   0.348   4.710   0.620
 4138SOL     OW13312   4.532   5.475   3.138
 4138SOL    HW113313   4.609   5.535   3.119
 4138SOL    HW213314   4.522   5.408   3.064
 4139SOL     OW13315   1.932   2.040   5.524
 4139SOL    HW113316   1.935   2.100   5.444
 4139SOL    HW213317   1.920   2.095   5.606
 4140SOL     OW13318   2.965   0.494   5.231
 4140SOL    HW113319   2.950   0.413   5.174
 4140SOL    HW213320   2.879   0.543   5.243
 4141SOL     OW13321   6.350   6.114   1.344
 4141SOL    HW113322   6.266   6.060   1.337
 4141SOL    HW213323   6.361   6.171   1.262
 4142SOL     OW13324   6.329   5.486   0.961
 4142SOL    HW113325   6.397   5.490   1.034
 4142SOL    HW213326   6.310   5.579   0.929
 4143SOL     OW13327   6.633   1.780   1.286
 4143SOL    HW113328   6.554   1.806   1.342
 4143SOL    HW213329   6.690   1.715   1.336
 4144SOL     OW13330   5.021   3.907   6.329
 4144SOL    HW113331   4.968   3.823   6.324
 4144SOL    HW213332   5.069   3.922   6.243
 4145SOL     OW13333   6.682   6.276   1.127
 4145SOL    HW113334   6.583   6.271   1.113
 4145SOL    HW213335   6.702   6.266   1.224
 4146SOL     OW13336   6.851   0.563   4.800
 4146SOL    HW113337   6.932   0.547   4.744
 4146SOL    HW213338   6.787   0.621   4.750
 4147SOL     OW13339   4.778   4.140   5.885
 4147SOL    HW113340   4.814   4.062   5.936
 4147SOL    HW213341   4.711   4.108   5.818
 4148SOL     OW13342   0.876   0.643   4.520
 4148SOL    HW113343   0.805   0.681   4.579
 4148SOL    HW213344   0.910   0.557   4.560
 4149SOL     OW13345   6.921   2.796   0.921
 4149SOL    HW113346   6.960   2.888   0.923
 4149SOL    HW213347   6.962   2.744   0.847
 4150SOL     OW13348   1.040   0.501   6.399
 4150SOL    HW113349   1.076   0.408   6.415
 4150SOL    HW213350   0.961   0.517   6.459
 4151SOL     OW13351   3.270   5.865   5.337
 4151SOL    HW113352   3.252   5.957   5.371
 4151SOL    HW213353   3.228   5.853   5.247
 4152SOL     OW13354   3.888   5.988   1.761
 4152SOL    HW113355   3.930   6.077   1.744
 4152SOL    HW213356   3.904   5.961   1.856
 4153SOL     OW13357   4.395   5.193   6.827
 4153SOL    HW113358   4.316   5.136   6.804
 4153SOL    HW213359   4.429   5.237   6.745
 4154SOL     OW13360   0.429   4.981   4.313
 4154SOL    HW113361   0.393   4.947   4.400
 4154SOL    HW213362   0.363   5.043   4.272
 4155SOL     OW13363   6.859   1.107   1.950
 4155SOL    HW113364   6.928   1.055   2.000
 4155SOL    HW213365   6.811   1.047   1.886
 4156SOL     OW13366   5.740   6.146   5.025
 4156SOL    HW113367   5.705   6.087   5.098
 4156SOL    HW213368   5.663   6.180   4.971
 4157SOL     OW13369   5.079   5.472   4.640
 4157SOL    HW113370   5.031   5.503   4.722
 4157SOL    HW213371   5.032   5.392   4.602
 4158SOL     OW13372   1.716   4.639   2.804
 4158SOL    HW113373   1.764   4.559   2.771
 4158SOL    HW213374   1.777   4.718   2.803
 4159SOL     OW13375   2.081   3.586   4.230
 4159SOL    HW113376   2.037   3.547   4.311
 4159SOL    HW213377   2.088   3.516   4.160
 4160SOL     OW13378   5.938   0.789   0.799
 4160SOL    HW113379   5.846   0.750   0.790
 4160SOL    HW213380   5.986   0.781   0.713
 4161SOL     OW13381   0.762   1.127   0.235
 4161SOL    HW113382   0.826   1.106   0.309
 4161SOL    HW213383   0.777   1.062   0.160
 4162SOL     OW13384   6.116   6.646   6.444
 4162SOL    HW113385   6.086   6.646   6.349
 4162SOL    HW213386   6.214   6.665   6.449
 4163SOL     OW13387   5.915   6.420   3.417
 4163SOL    HW113388   5.916   6.326   3.450
 4163SOL    HW213389   5.934   6.422   3.319
 4164SOL     OW13390   1.898   6.710   6.513
 4164SOL    HW113391   1.811   6.708   6.562
 4164SOL    HW213392   1.973   6.697   6.578
 4165SOL     OW13393   4.103   0.169   0.152
 4165SOL    HW113394   4.169   0.242   0.169
 4165SOL    HW213395   4.098   0.151   0.053
 4166SOL     OW13396   6.360   4.162   1.091
 4166SOL    HW113397   6.365   4.237   1.157
 4166SOL    HW213398   6.428   4.177   1.019
 4167SOL     OW13399   0.990   4.065   1.167
 4167SOL    HW113400   1.001   3.990   1.102
 4167SOL    HW213401   1.075   4.116   1.172
 4168SOL     OW13402   6.561   4.893   0.755
 4168SOL    HW113403   6.582   4.923   0.662
 4168SOL    HW213404   6.517   4.968   0.804
 4169SOL     OW13405   5.948   3.917   3.741
 4169SOL    HW113406   5.883   3.847   3.771
 4169SOL    HW213407   5.944   3.996   3.802
 4170SOL     OW13408   3.927   4.034   5.486
 4170SOL    HW113409   3.966   4.121   5.515
 4170SOL    HW213410   3.851   4.050   5.423
 4171SOL     OW13411   5.824   5.465   0.904
 4171SOL    HW113412   5.913   5.504   0.927
 4171SOL    HW213413   5.780   5.431   0.987
 4172SOL     OW13414   0.580   2.199   6.296
 4172SOL    HW113415   0.487   2.237   6.296
 4172SOL    HW213416   0.589   2.136   6.219
 4173SOL     OW13417   4.954   3.576   5.830
 4173SOL    HW113418   4.926   3.534   5.743
 4173SOL    HW213419   4.995   3.666   5.811
 4174SOL     OW13420   5.445   0.728   3.545
 4174SOL    HW113421   5.375   0.668   3.583
 4174SOL    HW213422   5.413   0.767   3.459
 4175SOL     OW13423   2.030   6.304   4.772
 4175SOL    HW113424   2.127   6.321   4.759
 4175SOL    HW213425   1.988   6.274   4.686
 4176SOL     OW13426   3.115   6.571   2.096
 4176SOL    HW113427   3.024   6.608   2.078
 4176SOL    HW213428   3.107   6.491   2.155
 4177SOL     OW13429   6.642   4.451   5.028
 4177SOL    HW113430   6.739   4.458   5.005
 4177SOL    HW213431   6.631   4.392   5.107
 4178SOL     OW13432   4.871   0.241   4.373
 4178SOL    HW113433   4.800   0.247   4.444
 4178SOL    HW213434   4.948   0.187   4.408
 4179SOL     OW13435   5.411   2.345   3.072
 4179SOL    HW113436   5.328   2.289   3.074
 4179SOL    HW213437   5.418   2.396   3.158
 4180SOL     OW13438   4.839   4.143   1.488
 4180SOL    HW113439   4.849   4.057   1.437
 4180SOL    HW213440   4.756   4.139   1.544
 4181SOL     OW13441   1.863   2.041   0.512
 4181SOL    HW113442   1.865   2.043   0.612
 4181SOL    HW213443   1.856   1.946   0.481
 4182SOL     OW13444   0.353   6.864   3.243
 4182SOL    HW113445   0.256   6.888   3.252
 4182SOL    HW213446   0.408   6.947   3.238
 4183SOL     OW13447   4.592   0.769   6.837
 4183SOL    HW113448   4.679   0.760   6.886
 4183SOL    HW213449   4.518   0.771   6.904
 4184SOL     OW13450   4.415   4.925   1.873
 4184SOL    HW113451   4.333   4.946   1.927
 4184SOL    HW213452   4.391   4.925   1.776
 4185SOL     OW13453   0.615   5.613   2.625
 4185SOL    HW113454   0.596   5.666   2.542
 4185SOL    HW213455   0.668   5.532   2.602
 4186SOL     OW13456   2.237   4.909   0.941
 4186SOL    HW113457   2.163   4.869   0.996
 4186SOL    HW213458   2.202   4.931   0.850
 4187SOL     OW13459   3.905   3.711   5.965
 4187SOL    HW113460   3.900   3.772   5.885
 4187SOL    HW213461   3.929   3.619   5.934
 4188SOL     OW13462   5.121   0.107   4.461
 4188SOL    HW113463   5.143   0.040   4.531
 4188SOL    HW213464   5.195   0.112   4.394
 4189SOL     OW13465   3.844   0.504   5.148
 4189SOL    HW113466   3.872   0.519   5.243
 4189SOL    HW213467   3.868   0.584   5.094
 4190SOL     OW13468   0.555   0.732   0.179
 4190SOL    HW113469   0.481   0.785   0.138
 4190SOL    HW213470   0.578   0.769   0.268
 4191SOL     OW13471   5.205   3.339   3.384
 4191SOL    HW113472   5.262   3.299   3.312
 4191SOL    HW213473   5.209   3.282   3.465
 4192SOL     OW13474   0.662   1.168   4.015
 4192SOL    HW113475   0.601   1.090   4.002
 4192SOL    HW213476   0.757   1.140   3.999
 4193SOL     OW13477   1.931   6.865   3.114
 4193SOL    HW113478   1.835   6.885   3.135
 4193SOL    HW213479   1.987   6.941   3.147
 4194SOL     OW13480   5.855   0.447   5.336
 4194SOL    HW113481   5.899   0.457   5.247
 4194SOL    HW213482   5.896   0.511   5.400
 4195SOL     OW13483   4.211   0.216   2.508
 4195SOL    HW113484   4.173   0.229   2.600
 4195SOL    HW213485   4.281   0.286   2.491
 4196SOL     OW13486   5.825   2.223   3.433
 4196SOL    HW113487   5.770   2.182   3.359
 4196SOL    HW213488   5.921   2.203   3.417
 4197SOL     OW13489   4.986   5.709   5.158
 4197SOL    HW113490   5.050   5.682   5.087
 4197SOL    HW213491   4.967   5.807   5.151
 4198SOL     OW13492   5.394   3.001   6.608
 4198SOL    HW113493   5.445   2.922   6.575
 4198SOL    HW213494   5.335   2.974   6.685
 4199SOL     OW13495   2.172   3.545   6.257
 4199SOL    HW113496   2.150   3.628   6.206
 4199SOL    HW213497   2.207   3.570   6.347
 4200SOL     OW13498   2.883   6.242   5.121
 4200SOL    HW113499   2.936   6.207   5.044
 4200SOL    HW213500   2.935   6.227   5.206
 4201SOL     OW13501   5.977   6.252   3.651
 4201SOL    HW113502   6.002   6.214   3.740
 4201SOL    HW213503   5.915   6.190   3.604
 4202SOL     OW13504   4.034   5.677   5.599
 4202SOL    HW113505   3.979   5.635   5.671
 4202SOL    HW213506   4.078   5.760   5.634
 4203SOL     OW13507   4.903   5.511   0.948
 4203SOL    HW113508   4.867   5.542   1.035
 4203SOL    HW213509   4.936   5.589   0.895
 4204SOL     OW13510   3.796   2.905   2.613
 4204SOL    HW113511   3.744   2.947   2.688
 4204SOL    HW213512   3.861   2.839   2.652
 4205SOL     OW13513   3.651   4.949   3.882
 4205SOL    HW113514   3.680   4.865   3.836
 4205SOL    HW213515   3.565   4.981   3.842
 4206SOL     OW13516   6.025   0.535   5.535
 4206SOL    HW113517   6.002   0.512   5.630
 4206SOL    HW213518   6.118   0.503   5.515
 4207SOL     OW13519   2.154   1.561   1.875
 4207SOL    HW113520   2.069   1.520   1.909
 4207SOL    HW213521   2.218   1.488   1.849
 4208SOL     OW13522   1.045   3.420   6.679
 4208SOL    HW113523   0.974   3.354   6.656
 4208SOL    HW213524   1.104   3.436   6.600
 4209SOL     OW13525   0.545   1.638   5.365
 4209SOL    HW113526   0.499   1.556   5.398
 4209SOL    HW213527   0.622   1.660   5.425
 4210SOL     OW13528   3.332   3.685   2.288
 4210SOL    HW113529   3.291   3.597   2.312
 4210SOL    HW213530   3.353   3.685   2.190
 4211SOL     OW13531   3.835   5.533   5.165
 4211SOL    HW113532   3.934   5.545   5.157
 4211SOL    HW213533   3.790   5.579   5.088
 4212SOL     OW13534   6.212   2.569   2.257
 4212SOL    HW113535   6.136   2.504   2.254
 4212SOL    HW213536   6.289   2.533   2.203
 4213SOL     OW13537   2.714   0.866   2.281
 4213SOL    HW113538   2.622   0.906   2.289
 4213SOL    HW213539   2.719   0.783   2.337
 4214SOL     OW13540   0.966   3.904   5.777
 4214SOL    HW113541   0.916   3.913   5.691
 4214SOL    HW213542   1.061   3.879   5.757
 4215SOL     OW13543   6.748   5.884   4.702
 4215SOL    HW113544   6.822   5.949   4.717
 4215SOL    HW213545   6.694   5.912   4.623
 4216SOL     OW13546   1.268   1.747   3.200
 4216SOL    HW113547   1.350   1.790   3.236
 4216SOL    HW213548   1.270   1.750   3.100
 4217SOL     OW13549   6.812   0.169   2.713
 4217SOL    HW113550   6.714   0.189   2.712
 4217SOL    HW213551   6.839   0.126   2.627
 4218SOL     OW13552   5.354   0.329   1.765
 4218SOL    HW113553   5.320   0.419   1.792
 4218SOL    HW213554   5.318   0.305   1.675
 4219SOL     OW13555   3.030   5.255   3.726
 4219SOL    HW113556   2.954   5.271   3.663
 4219SOL    HW213557   2.996   5.249   3.820
 4220SOL     OW13558   5.669   2.520   3.413
 4220SOL    HW113559   5.747   2.495   3.356
 4220SOL    HW213560   5.690   2.500   3.509
 4221SOL     OW13561   5.618   5.501   6.591
 4221SOL    HW113562   5.715   5.478   6.582
 4221SOL    HW213563   5.609   5.598   6.615
 4222SOL     OW13564   5.933   2.771   2.738
 4222SOL    HW113565   5.971   2.737   2.651
 4222SOL    HW213566   5.870   2.847   2.719
 4223SOL     OW13567   2.892   3.274   4.975
 4223SOL    HW113568   2.807   3.238   5.013
 4223SOL    HW213569   2.928   3.345   5.034
 4224SOL     OW13570   4.794   2.977   3.730
 4224SOL    HW113571   4.780   2.895   3.675
 4224SOL    HW213572   4.888   3.009   3.719
 4225SOL     OW13573   4.862   0.458   5.976
 4225SOL    HW113574   4.925   0.466   6.053
 4225SOL    HW213575   4.879   0.532   5.911
 4226SOL     OW13576   0.808   0.091   3.213
 4226SOL    HW113577   0.714   0.120   3.195
 4226SOL    HW213578   0.849   0.154   3.280
 4227SOL     OW13579   3.720   5.181   6.545
 4227SOL    HW113580   3.665   5.099   6.528
 4227SOL    HW213581   3.685   5.229   6.625
 4228SOL     OW13582   0.917   3.537   3.492
 4228SOL    HW113583   0.881   3.592   3.567
 4228SOL    HW213584   1.010   3.566   3.470
 4229SOL     OW13585   4.760   5.052   5.948
 4229SOL    HW113586   4.736   5.136   5.898
 4229SOL    HW213587   4.694   5.037   6.021
 4230SOL     OW13588   2.393   0.903   4.237
 4230SOL    HW113589   2.341   0.896   4.321
 4230SOL    HW213590   2.330   0.900   4.159
 4231SOL     OW13591   5.143   5.977   4.701
 4231SOL    HW113592   5.140   5.892   4.649
 4231SOL    HW213593   5.231   6.023   4.683
 4232SOL     OW13594   6.660   4.457   1.931
 4232SOL    HW113595   6.567   4.423   1.915
 4232SOL    HW213596   6.710   4.456   1.844
 4233SOL     OW13597   0.099   0.713   6.930
 4233SOL    HW113598   0.017   0.656   6.924
 4233SOL    HW213599   0.080   0.803   6.891
 4234SOL     OW13600   1.537   0.302   5.498
 4234SOL    HW113601   1.604   0.376   5.495
 4234SOL    HW213602   1.574   0.225   5.550
 4235SOL     OW13603   5.707   3.869   5.045
 4235SOL    HW113604   5.734   3.965   5.040
 4235SOL    HW213605   5.614   3.859   5.012
 4236SOL     OW13606   0.461   3.662   3.055
 4236SOL    HW113607   0.454   3.601   3.134
 4236SOL    HW213608   0.511   3.745   3.082
 4237SOL     OW13609   6.359   4.676   4.236
 4237SOL    HW113610   6.391   4.585   4.209
 4237SOL    HW213611   6.283   4.703   4.177
 4238SOL     OW13612   3.926   5.057   3.223
 4238SOL    HW113613   3.985   4.977   3.239
 4238SOL    HW213614   3.842   5.028   3.178
 4239SOL     OW13615   6.102   1.085   3.385
 4239SOL    HW113616   6.015   1.038   3.373
 4239SOL    HW213617   6.097   1.145   3.465
 4240SOL     OW13618   2.128   0.104   0.012
 4240SOL    HW113619   2.128   0.201   0.039
 4240SOL    HW213620   2.221   0.068   0.016
 4241SOL     OW13621   5.473   1.535   1.437
 4241SOL    HW113622   5.460   1.617   1.493
 4241SOL    HW213623   5.556   1.546   1.382
 4242SOL     OW13624   2.034   0.497   2.961
 4242SOL    HW113625   2.022   0.596   2.971
 4242SOL    HW213626   2.026   0.454   3.051
 4243SOL     OW13627   0.566   3.904   3.167
 4243SOL    HW113628   0.589   3.946   3.255
 4243SOL    HW213629   0.643   3.914   3.104
 4244SOL     OW13630   4.700   5.303   0.883
 4244SOL    HW113631   4.751   5.289   0.798
 4244SOL    HW213632   4.749   5.367   0.942
 4245SOL     OW13633   6.329   1.270   6.168
 4245SOL    HW113634   6.305   1.321   6.250
 4245SOL    HW213635   6.305   1.324   6.087
 4246SOL     OW13636   5.560   2.188   3.580
 4246SOL    HW113637   5.549   2.200   3.678
 4246SOL    HW213638   5.650   2.220   3.552
 4247SOL     OW13639   2.023   5.076   3.502
 4247SOL    HW113640   1.973   4.991   3.486
 4247SOL    HW213641   1.966   5.137   3.558
 4248SOL     OW13642   1.172   1.263   3.710
 4248SOL    HW113643   1.254   1.315   3.686
 4248SOL    HW213644   1.175   1.173   3.665
 4249SOL     OW13645   5.726   1.548   3.393
 4249SOL    HW113646   5.742   1.479   3.323
 4249SOL    HW213647   5.764   1.636   3.364
 4250SOL     OW13648   6.354   6.265   4.107
 4250SOL    HW113649   6.313   6.181   4.074
 4250SOL    HW213650   6.438   6.245   4.158
 4251SOL     OW13651   6.425   2.921   0.874
 4251SOL    HW113652   6.337   2.887   0.841
 4251SOL    HW213653   6.472   2.971   0.801
 4252SOL     OW13654   4.848   6.022   6.513
 4252SOL    HW113655   4.866   5.928   6.541
 4252SOL    HW213656   4.764   6.055   6.558
 4253SOL     OW13657   3.215   6.776   1.922
 4253SOL    HW113658   3.199   6.705   1.990
 4253SOL    HW213659   3.312   6.800   1.921
 4254SOL     OW13660   2.055   4.158   1.905
 4254SOL    HW113661   2.059   4.239   1.847
 4254SOL    HW213662   1.962   4.146   1.940
 4255SOL     OW13663   0.185   3.889   3.681
 4255SOL    HW113664   0.215   3.959   3.617
 4255SOL    HW213665   0.104   3.842   3.645
 4256SOL     OW13666   0.949   5.945   0.951
 4256SOL    HW113667   0.952   6.038   0.989
 4256SOL    HW213668   0.920   5.881   1.022
 4257SOL     OW13669   4.926   1.237   4.289
 4257SOL    HW113670   4.850   1.299   4.307
 4257SOL    HW213671   5.009   1.289   4.274
 4258SOL     OW13672   3.367   5.992   0.905
 4258SOL    HW113673   3.340   6.076   0.952
 4258SOL    HW213674   3.353   6.003   0.807
 4259SOL     OW13675   1.543   6.258   0.883
 4259SOL    HW113676   1.602   6.177   0.891
 4259SOL    HW213677   1.493   6.271   0.969
 4260SOL     OW13678   5.700   0.653   3.508
 4260SOL    HW113679   5.703   0.555   3.485
 4260SOL    HW213680   5.606   0.686   3.503
 4261SOL     OW13681   1.914   0.203   2.925
 4261SOL    HW113682   1.933   0.186   3.022
 4261SOL    HW213683   1.962   0.136   2.869
 4262SOL     OW13684   0.990   4.327   5.968
 4262SOL    HW113685   0.920   4.258   5.951
 4262SOL    HW213686   1.061   4.289   6.028
 4263SOL     OW13687   2.432   1.119   3.516
 4263SOL    HW113688   2.491   1.184   3.468
 4263SOL    HW213689   2.388   1.166   3.593
 4264SOL     OW13690   6.302   1.733   4.545
 4264SOL    HW113691   6.337   1.656   4.491
 4264SOL    HW213692   6.354   1.815   4.522
 4265SOL     OW13693   3.671   1.051   1.253
 4265SOL    HW113694   3.733   1.000   1.312
 4265SOL    HW213695   3.576   1.027   1.274
 4266SOL     OW13696   1.904   6.411   6.983
 4266SOL    HW113697   1.836   6.475   6.949
 4266SOL    HW213698   1.921   6.340   6.914
 4267SOL     OW13699   2.113   3.376   4.070
 4267SOL    HW113700   2.168   3.295   4.093
 4267SOL    HW213701   2.150   3.419   3.988
 4268SOL     OW13702   1.989   5.764   6.727
 4268SOL    HW113703   1.930   5.749   6.806
 4268SOL    HW213704   2.057   5.690   6.722
 4269SOL     OW13705   2.954   1.059   3.183
 4269SOL    HW113706   2.931   1.020   3.272
 4269SOL    HW213707   2.916   1.002   3.111
 4270SOL     OW13708   3.288   2.958   2.372
 4270SOL    HW113709   3.346   2.976   2.292
 4270SOL    HW213710   3.346   2.940   2.451
 4271SOL     OW13711   7.000   1.263   0.067
 4271SOL    HW113712   6.930   1.296   0.004
 4271SOL    HW213713   6.956   1.214   0.143
 4272SOL     OW13714   6.978   2.687   4.782
 4272SOL    HW113715   6.938   2.703   4.873
 4272SOL    HW213716   6.911   2.642   4.724
 4273SOL     OW13717   4.881   6.416   5.024
 4273SOL    HW113718   4.926   6.384   4.941
 4273SOL    HW213719   4.929   6.497   5.059
 4274SOL     OW13720   1.131   0.089   2.034
 4274SOL    HW113721   1.121   0.144   2.116
 4274SOL    HW213722   1.173   0.001   2.057
 4275SOL     OW13723   0.100   2.052   4.172
 4275SOL    HW113724   0.098   2.152   4.170
 4275SOL    HW213725   0.074   2.017   4.082
 4276SOL     OW13726   3.045   4.877   3.990
 4276SOL    HW113727   3.002   4.957   3.949
 4276SOL    HW213728   3.144   4.881   3.975
 4277SOL     OW13729   0.340   4.484   2.268
 4277SOL    HW113730   0.316   4.567   2.318
 4277SOL    HW213731   0.265   4.419   2.272
 4278SOL     OW13732   0.766   6.644   4.143
 4278SOL    HW113733   0.703   6.720   4.131
 4278SOL    HW213734   0.723   6.559   4.112
 4279SOL     OW13735   1.683   1.142   2.742
 4279SOL    HW113736   1.777   1.171   2.724
 4279SOL    HW213737   1.628   1.220   2.772
 4280SOL     OW13738   6.601   0.152   6.064
 4280SOL    HW113739   6.561   0.239   6.091
 4280SOL    HW213740   6.653   0.163   5.980
 4281SOL     OW13741   5.232   5.087   3.142
 4281SOL    HW113742   5.271   5.170   3.183
 4281SOL    HW213743   5.135   5.101   3.124
 4282SOL     OW13744   3.301   4.804   0.322
 4282SOL    HW113745   3.274   4.708   0.308
 4282SOL    HW213746   3.221   4.857   0.352
 4283SOL     OW13747   3.762   1.374   3.527
 4283SOL    HW113748   3.811   1.452   3.566
 4283SOL    HW213749   3.663   1.387   3.539
 4284SOL     OW13750   4.348   5.490   0.551
 4284SOL    HW113751   4.299   5.468   0.466
 4284SOL    HW213752   4.443   5.511   0.529
 4285SOL     OW13753   2.226   1.385   5.805
 4285SOL    HW113754   2.216   1.286   5.795
 4285SOL    HW213755   2.313   1.414   5.766
 4286SOL     OW13756   5.983   0.016   5.909
 4286SOL    HW113757   6.002   6.982   5.830
 4286SOL    HW213758   5.895   7.014   5.948
 4287SOL     OW13759   4.859   1.098   5.803
 4287SOL    HW113760   4.916   1.034   5.751
 4287SOL    HW213761   4.821   1.052   5.883
 4288SOL     OW13762   0.716   5.450   3.015
 4288SOL    HW113763   0.809   5.473   2.985
 4288SOL    HW213764   0.693   5.357   2.986
 4289SOL     OW13765   0.916   2.402   6.583
 4289SOL    HW113766   0.942   2.397   6.680
 4289SOL    HW213767   0.984   2.352   6.528
 4290SOL     OW13768   0.687   6.062   4.900
 4290SOL    HW113769   0.642   6.023   4.980
 4290SOL    HW213770   0.618   6.090   4.833
 4291SOL     OW13771   5.146   4.301   6.313
 4291SOL    HW113772   5.197   4.294   6.227
 4291SOL    HW213773   5.188   4.243   6.382
 4292SOL     OW13774   5.798   2.957   0.032
 4292SOL    HW113775   5.866   2.973   0.104
 4292SOL    HW213776   5.844   2.924   6.973
 4293SOL     OW13777   3.742   4.514   6.804
 4293SOL    HW113778   3.681   4.498   6.882
 4293SOL    HW213779   3.836   4.491   6.828
 4294SOL     OW13780   1.949   1.267   6.703
 4294SOL    HW113781   1.946   1.176   6.744
 4294SOL    HW213782   2.044   1.298   6.698
 4295SOL     OW13783   4.700   5.955   3.725
 4295SOL    HW113784   4.679   5.962   3.627
 4295SOL    HW213785   4.720   5.860   3.748
 4296SOL     OW13786   3.017   6.897   0.341
 4296SOL    HW113787   2.931   6.933   0.304
 4296SOL    HW213788   3.015   6.797   0.338
 4297SOL     OW13789   6.709   6.473   2.197
 4297SOL    HW113790   6.801   6.473   2.159
 4297SOL    HW213791   6.643   6.451   2.126
 4298SOL     OW13792   3.477   6.294   1.536
 4298SOL    HW113793   3.407   6.298   1.607
 4298SOL    HW213794   3.434   6.270   1.449
 4299SOL     OW13795   1.001   3.062   0.121
 4299SOL    HW113796   0.956   3.044   0.034
 4299SOL    HW213797   0.997   3.160   0.140
 4300SOL     OW13798   2.328   6.900   0.204
 4300SOL    HW113799   2.244   6.856   0.172
 4300SOL    HW213800   2.372   6.947   0.128
 4301SOL     OW13801   4.480   0.424   1.978
 4301SOL    HW113802   4.411   0.480   2.024
 4301SOL    HW213803   4.437   0.342   1.940
 4302SOL     OW13804   6.713   0.188   6.347
 4302SOL    HW113805   6.689   0.100   6.388
 4302SOL    HW213806   6.696   0.184   6.248
 4303SOL     OW13807   0.142   4.462   3.937
 4303SOL    HW113808   0.156   4.559   3.920
 4303SOL    HW213809   0.225   4.412   3.912
 4304SOL     OW13810   3.486   3.747   2.543
 4304SOL    HW113811   3.453   3.711   2.630
 4304SOL    HW213812   3.426   3.715   2.469
 4305SOL     OW13813   0.326   6.513   6.291
 4305SOL    HW113814   0.407   6.563   6.320
 4305SOL    HW213815   0.268   6.572   6.235
 4306SOL     OW13816   5.194   4.825   4.382
 4306SOL    HW113817   5.155   4.823   4.290
 4306SOL    HW213818   5.227   4.734   4.407
 4307SOL     OW13819   5.242   3.082   5.166
 4307SOL    HW113820   5.307   3.141   5.216
 4307SOL    HW213821   5.273   2.988   5.170
 4308SOL     OW13822   5.584   5.298   1.074
 4308SOL    HW113823   5.534   5.306   1.160
 4308SOL    HW213824   5.537   5.349   1.002
 4309SOL     OW13825   1.214   1.768   0.669
 4309SOL    HW113826   1.300   1.799   0.628
 4309SOL    HW213827   1.191   1.828   0.746
 4310SOL     OW13828   1.896   2.391   1.485
 4310SOL    HW113829   1.875   2.387   1.583
 4310SOL    HW213830   1.827   2.447   1.439
 4311SOL     OW13831   0.554   6.002   2.749
 4311SOL    HW113832   0.565   5.915   2.797
 4311SOL    HW213833   0.623   6.010   2.678
 4312SOL     OW13834   1.849   5.529   3.231
 4312SOL    HW113835   1.875   5.485   3.318
 4312SOL    HW213836   1.892   5.480   3.155
 4313SOL     OW13837   4.340   1.575   0.324
 4313SOL    HW113838   4.333   1.675   0.319
 4313SOL    HW213839   4.325   1.545   0.418
 4314SOL     OW13840   6.455   1.469   4.869
 4314SOL    HW113841   6.456   1.375   4.902
 4314SOL    HW213842   6.440   1.470   4.770
 4315SOL     OW13843   2.167   0.748   3.196
 4315SOL    HW113844   2.230   0.784   3.127
 4315SOL    HW213845   2.080   0.798   3.192
 4316SOL     OW13846   5.491   0.044   2.372
 4316SOL    HW113847   5.500   0.110   2.298
 4316SOL    HW213848   5.475   6.977   2.334
 4317SOL     OW13849   5.265   1.564   5.894
 4317SOL    HW113850   5.240   1.476   5.933
 4317SOL    HW213851   5.352   1.595   5.932
 4318SOL     OW13852   0.945   1.622   4.870
 4318SOL    HW113853   0.851   1.629   4.904
 4318SOL    HW213854   0.996   1.556   4.924
 4319SOL     OW13855   1.159   2.214   1.329
 4319SOL    HW113856   1.134   2.150   1.402
 4319SOL    HW213857   1.258   2.217   1.321
 4320SOL     OW13858   3.722   5.322   1.153
 4320SOL    HW113859   3.759   5.239   1.111
 4320SOL    HW213860   3.763   5.334   1.244
 4321SOL     OW13861   6.977   4.311   4.061
 4321SOL    HW113862   6.985   4.223   4.014
 4321SOL    HW213863   0.013   4.378   4.018
 4322SOL     OW13864   6.524   3.041   6.543
 4322SOL    HW113865   6.563   3.118   6.593
 4322SOL    HW213866   6.506   3.069   6.448
 4323SOL     OW13867   4.939   4.786   0.302
 4323SOL    HW113868   4.949   4.826   0.393
 4323SOL    HW213869   4.993   4.838   0.236
 4324SOL     OW13870   6.661   3.945   5.953
 4324SOL    HW113871   6.705   3.885   5.887
 4324SOL    HW213872   6.567   3.913   5.971
 4325SOL     OW13873   2.940   1.596   2.029
 4325SOL    HW113874   2.927   1.633   1.937
 4325SOL    HW213875   2.852   1.592   2.076
 4326SOL     OW13876   5.240   4.378   2.016
 4326SOL    HW113877   5.158   4.369   2.073
 4326SOL    HW213878   5.309   4.313   2.046
 4327SOL     OW13879   4.733   6.249   2.449
 4327SOL    HW113880   4.803   6.190   2.409
 4327SOL    HW213881   4.649   6.196   2.462
 4328SOL     OW13882   5.703   4.387   5.458
 4328SOL    HW113883   5.764   4.443   5.515
 4328SOL    HW213884   5.666   4.444   5.384
 4329SOL     OW13885   5.748   2.573   5.594
 4329SOL    HW113886   5.816   2.644   5.575
 4329SOL    HW213887   5.791   2.497   5.642
 4330SOL     OW13888   2.134   6.742   4.690
 4330SOL    HW113889   2.118   6.678   4.765
 4330SOL    HW213890   2.225   6.725   4.652
 4331SOL     OW13891   5.986   0.806   1.670
 4331SOL    HW113892   5.888   0.787   1.659
 4331SOL    HW213893   6.010   0.889   1.619
 4332SOL     OW13894   6.373   3.058   2.962
 4332SOL    HW113895   6.297   2.993   2.956
 4332SOL    HW213896   6.431   3.034   3.039
 4333SOL     OW13897   4.536   1.738   4.785
 4333SOL    HW113898   4.480   1.730   4.703
 4333SOL    HW213899   4.626   1.774   4.761
 4334SOL     OW13900   1.732   3.165   2.157
 4334SOL    HW113901   1.715   3.067   2.168
 4334SOL    HW213902   1.646   3.211   2.134
 4335SOL     OW13903   3.658   2.800   1.787
 4335SOL    HW113904   3.623   2.817   1.695
 4335SOL    HW213905   3.718   2.720   1.786
 4336SOL     OW13906   2.728   5.669   5.594
 4336SOL    HW113907   2.687   5.701   5.508
 4336SOL    HW213908   2.827   5.683   5.590
 4337SOL     OW13909   2.076   4.963   1.680
 4337SOL    HW113910   2.062   4.936   1.775
 4337SOL    HW213911   2.135   4.896   1.635
 4338SOL     OW13912   6.512   0.416   6.091
 4338SOL    HW113913   6.422   0.459   6.083
 4338SOL    HW213914   6.582   0.486   6.094
 4339SOL     OW13915   3.551   2.543   6.256
 4339SOL    HW113916   3.501   2.456   6.252
 4339SOL    HW213917   3.543   2.581   6.349
 4340SOL     OW13918   6.030   3.786   1.101
 4340SOL    HW113919   6.040   3.885   1.109
 4340SOL    HW213920   5.936   3.763   1.077
 4341SOL     OW13921   1.297   5.355   0.973
 4341SOL    HW113922   1.241   5.272   0.975
 4341SOL    HW213923   1.253   5.424   0.916
 4342SOL     OW13924   5.354   3.655   3.271
 4342SOL    HW113925   5.292   3.677   3.197
 4342SOL    HW213926   5.303   3.617   3.348
 4343SOL     OW13927   3.312   6.307   4.757
 4343SOL    HW113928   3.378   6.364   4.708
 4343SOL    HW213929   3.359   6.230   4.800
 4344SOL     OW13930   1.280   3.159   2.891
 4344SOL    HW113931   1.273   3.257   2.873
 4344SOL    HW213932   1.263   3.108   2.807
 4345SOL     OW13933   3.229   3.412   4.887
 4345SOL    HW113934   3.188   3.325   4.860
 4345SOL    HW213935   3.174   3.487   4.851
 4346SOL     OW13936   1.991   2.634   2.687
 4346SOL    HW113937   1.966   2.724   2.722
 4346SOL    HW213938   1.993   2.637   2.587
 4347SOL     OW13939   5.711   6.407   2.599
 4347SOL    HW113940   5.803   6.435   2.573
 4347SOL    HW213941   5.713   6.362   2.688
 4348SOL     OW13942   0.394   5.931   4.255
 4348SOL    HW113943   0.367   5.892   4.343
 4348SOL    HW213944   0.466   6.000   4.270
 4349SOL     OW13945   6.557   2.461   4.046
 4349SOL    HW113946   6.524   2.470   3.952
 4349SOL    HW213947   6.583   2.551   4.081
 4350SOL     OW13948   4.551   1.749   4.085
 4350SOL    HW113949   4.630   1.688   4.088
 4350SOL    HW213950   4.471   1.701   4.119
 4351SOL     OW13951   1.324   6.482   1.225
 4351SOL    HW113952   1.348   6.453   1.317
 4351SOL    HW213953   1.296   6.578   1.225
 4352SOL     OW13954   6.661   4.176   1.559
 4352SOL    HW113955   6.621   4.100   1.507
 4352SOL    HW213956   6.760   4.176   1.547
 4353SOL     OW13957   3.542   3.599   0.392
 4353SOL    HW113958   3.501   3.512   0.365
 4353SOL    HW213959   3.620   3.618   0.333
 4354SOL     OW13960   1.601   1.757   6.527
 4354SOL    HW113961   1.680   1.806   6.563
 4354SOL    HW213962   1.593   1.669   6.573
 4355SOL     OW13963   1.986   0.010   2.757
 4355SOL    HW113964   1.901   6.985   2.776
 4355SOL    HW213965   2.039   6.983   2.689
 4356SOL     OW13966   4.579   3.338   5.456
 4356SOL    HW113967   4.566   3.307   5.550
 4356SOL    HW213968   4.494   3.328   5.405
 4357SOL     OW13969   6.621   1.138   1.445
 4357SOL    HW113970   6.526   1.141   1.414
 4357SOL    HW213971   6.626   1.087   1.531
 4358SOL     OW13972   6.683   0.276   0.365
 4358SOL    HW113973   6.732   0.313   0.286
 4358SOL    HW213974   6.748   0.230   0.426
 4359SOL     OW13975   1.095   1.126   0.057
 4359SOL    HW113976   1.105   1.217   0.097
 4359SOL    HW213977   1.150   1.060   0.108
 4360SOL     OW13978   0.603   2.679   4.557
 4360SOL    HW113979   0.572   2.772   4.541
 4360SOL    HW213980   0.681   2.659   4.499
 4361SOL     OW13981   1.920   3.854   1.322
 4361SOL    HW113982   1.949   3.940   1.279
 4361SOL    HW213983   1.922   3.864   1.421
 4362SOL     OW13984   6.929   5.923   4.031
 4362SOL    HW113985   6.892   6.000   3.980
 4362SOL    HW213986   6.859   5.852   4.040
 4363SOL     OW13987   4.652   1.400   1.592
 4363SOL    HW113988   4.624   1.453   1.672
 4363SOL    HW213989   4.592   1.321   1.582
 4364SOL     OW13990   3.302   4.147   3.424
 4364SOL    HW113991   3.232   4.140   3.353
 4364SOL    HW213992   3.392   4.154   3.380
 4365SOL     OW13993   2.838   0.932   2.035
 4365SOL    HW113994   2.917   0.990   2.054
 4365SOL    HW213995   2.789   0.913   2.120
 4366SOL     OW13996   6.295   6.369   6.567
 4366SOL    HW113997   6.343   6.331   6.488
 4366SOL    HW213998   6.228   6.437   6.537
 4367SOL     OW13999   2.614   4.882   3.745
 4367SOL    HW114000   2.522   4.843   3.751
 4367SOL    HW214001   2.625   4.929   3.657
 4368SOL     OW14002   3.829   5.475   1.686
 4368SOL    HW114003   3.745   5.428   1.659
 4368SOL    HW214004   3.812   5.574   1.689
 4369SOL     OW14005   4.803   5.102   3.307
 4369SOL    HW114006   4.724   5.040   3.307
 4369SOL    HW214007   4.774   5.193   3.339
 4370SOL     OW14008   3.522   4.038   1.457
 4370SOL    HW114009   3.561   4.015   1.546
 4370SOL    HW214010   3.577   3.997   1.385
 4371SOL     OW14011   2.387   1.535   2.852
 4371SOL    HW114012   2.368   1.616   2.907
 4371SOL    HW214013   2.486   1.518   2.851
 4372SOL     OW14014   2.419   2.650   4.232
 4372SOL    HW114015   2.491   2.623   4.169
 4372SOL    HW214016   2.452   2.642   4.326
 4373SOL     OW14017   4.444   0.571   6.705
 4373SOL    HW114018   4.393   0.612   6.630
 4373SOL    HW214019   4.514   0.636   6.737
 4374SOL     OW14020   2.227   1.703   1.630
 4374SOL    HW114021   2.222   1.669   1.724
 4374SOL    HW214022   2.323   1.717   1.604
 4375SOL     OW14023   3.943   6.077   2.817
 4375SOL    HW114024   4.017   6.018   2.849
 4375SOL    HW214025   3.891   6.029   2.746
 4376SOL     OW14026   6.509   0.656   1.981
 4376SOL    HW114027   6.597   0.631   2.023
 4376SOL    HW214028   6.502   0.755   1.975
 4377SOL     OW14029   5.958   5.886   0.502
 4377SOL    HW114030   5.873   5.935   0.481
 4377SOL    HW214031   5.937   5.806   0.558
 4378SOL     OW14032   1.643   4.080   2.920
 4378SOL    HW114033   1.648   4.045   2.826
 4378SOL    HW214034   1.669   4.007   2.983
 4379SOL     OW14035   2.233   1.117   1.841
 4379SOL    HW114036   2.138   1.141   1.820
 4379SOL    HW214037   2.261   1.162   1.926
 4380SOL     OW14038   1.774   6.415   3.930
 4380SOL    HW114039   1.872   6.436   3.920
 4380SOL    HW214040   1.723   6.500   3.936
 4381SOL     OW14041   2.178   3.982   4.766
 4381SOL    HW114042   2.143   3.906   4.712
 4381SOL    HW214043   2.211   3.948   4.854
 4382SOL     OW14044   6.187   3.838   6.263
 4382SOL    HW114045   6.159   3.792   6.348
 4382SOL    HW214046   6.274   3.885   6.279
 4383SOL     OW14047   0.490   2.658   5.465
 4383SOL    HW114048   0.469   2.750   5.498
 4383SOL    HW214049   0.541   2.609   5.536
 4384SOL     OW14050   5.454   0.972   6.718
 4384SOL    HW114051   5.396   0.988   6.639
 4384SOL    HW214052   5.489   0.878   6.715
 4385SOL     OW14053   6.710   3.024   4.599
 4385SOL    HW114054   6.797   3.024   4.649
 4385SOL    HW214055   6.659   2.942   4.622
 4386SOL     OW14056   0.714   3.789   6.900
 4386SOL    HW114057   0.790   3.727   6.919
 4386SOL    HW214058   0.705   3.799   6.801
 4387SOL     OW14059   1.037   1.614   1.943
 4387SOL    HW114060   1.080   1.645   1.858
 4387SOL    HW214061   0.953   1.565   1.921
 4388SOL     OW14062   5.015   1.120   6.375
 4388SOL    HW114063   4.940   1.084   6.430
 4388SOL    HW214064   5.030   1.060   6.296
 4389SOL     OW14065   5.237   1.662   0.479
 4389SOL    HW114066   5.178   1.740   0.456
 4389SOL    HW214067   5.275   1.623   0.396
 4390SOL     OW14068   3.818   1.878   2.171
 4390SOL    HW114069   3.726   1.878   2.211
 4390SOL    HW214070   3.812   1.860   2.073
 4391SOL     OW14071   1.838   5.418   6.280
 4391SOL    HW114072   1.746   5.402   6.246
 4391SOL    HW214073   1.904   5.407   6.206
 4392SOL     OW14074   6.270   3.522   4.978
 4392SOL    HW114075   6.353   3.484   4.937
 4392SOL    HW214076   6.290   3.555   5.070
 4393SOL     OW14077   5.535   6.288   2.987
 4393SOL    HW114078   5.623   6.276   2.940
 4393SOL    HW214079   5.508   6.384   2.983
 4394SOL     OW14080   6.255   5.361   2.620
 4394SOL    HW114081   6.275   5.348   2.523
 4394SOL    HW214082   6.322   5.423   2.661
 4395SOL     OW14083   4.008   1.560   2.090
 4395SOL    HW114084   4.035   1.653   2.113
 4395SOL    HW214085   4.036   1.539   1.997
 4396SOL     OW14086   2.857   1.955   4.282
 4396SOL    HW114087   2.773   2.005   4.301
 4396SOL    HW214088   2.835   1.865   4.245
 4397SOL     OW14089   0.642   1.467   4.792
 4397SOL    HW114090   0.545   1.442   4.802
 4397SOL    HW214091   0.651   1.566   4.798
 4398SOL     OW14092   1.449   4.641   5.167
 4398SOL    HW114093   1.480   4.573   5.102
 4398SOL    HW214094   1.375   4.695   5.126
 4399SOL     OW14095   1.930   0.393   2.188
 4399SOL    HW114096   2.013   0.338   2.180
 4399SOL    HW214097   1.954   0.488   2.205
 4400SOL     OW14098   2.199   0.203   4.937
 4400SOL    HW114099   2.184   0.137   4.864
 4400SOL    HW214100   2.211   0.294   4.898
 4401SOL     OW14101   5.214   6.621   6.567
 4401SOL    HW114102   5.199   6.653   6.660
 4401SOL    HW214103   5.159   6.676   6.504
 4402SOL     OW14104   1.974   6.429   2.299
 4402SOL    HW114105   1.997   6.461   2.207
 4402SOL    HW214106   2.037   6.356   2.326
 4403SOL     OW14107   0.368   0.124   3.590
 4403SOL    HW114108   0.452   0.134   3.644
 4403SOL    HW214109   0.340   0.028   3.590
 4404SOL     OW14110   0.869   3.948   5.543
 4404SOL    HW114111   0.781   3.932   5.498
 4404SOL    HW214112   0.903   4.039   5.518
 4405SOL     OW14113   2.753   4.103   0.165
 4405SOL    HW114114   2.828   4.036   0.163
 4405SOL    HW214115   2.758   4.156   0.250
 4406SOL     OW14116   5.707   4.768   1.652
 4406SOL    HW114117   5.664   4.854   1.680
 4406SOL    HW214118   5.689   4.697   1.720
 4407SOL     OW14119   7.008   4.694   0.709
 4407SOL    HW114120   6.951   4.617   0.737
 4407SOL    HW214121   0.080   4.665   0.705
 4408SOL     OW14122   4.621   1.056   0.960
 4408SOL    HW114123   4.570   1.048   1.046
 4408SOL    HW214124   4.579   1.127   0.903
 4409SOL     OW14125   4.148   0.609   2.425
 4409SOL    HW114126   4.242   0.574   2.418
 4409SOL    HW214127   4.125   0.658   2.341
 4410SOL     OW14128   1.939   5.462   0.468
 4410SOL    HW114129   1.954   5.374   0.421
 4410SOL    HW214130   1.842   5.485   0.464
 4411SOL     OW14131   3.890   3.202   3.783
 4411SOL    HW114132   3.929   3.254   3.859
 4411SOL    HW214133   3.831   3.261   3.728
 4412SOL     OW14134   3.485   1.283   4.510
 4412SOL    HW114135   3.421   1.352   4.544
 4412SOL    HW214136   3.578   1.308   4.536
 4413SOL     OW14137   4.540   5.859   4.675
 4413SOL    HW114138   4.597   5.817   4.746
 4413SOL    HW214139   4.599   5.902   4.607
 4414SOL     OW14140   4.212   4.938   2.139
 4414SOL    HW114141   4.179   4.864   2.080
 4414SOL    HW214142   4.138   5.004   2.154
 4415SOL     OW14143   4.054   4.220   6.336
 4415SOL    HW114144   4.037   4.126   6.365
 4415SOL    HW214145   3.985   4.280   6.376
 4416SOL     OW14146   3.316   1.211   4.018
 4416SOL    HW114147   3.394   1.234   3.960
 4416SOL    HW214148   3.287   1.117   3.999
 4417SOL     OW14149   6.676   4.708   3.086
 4417SOL    HW114150   6.721   4.619   3.095
 4417SOL    HW214151   6.624   4.727   3.169
 4418SOL     OW14152   5.517   0.670   3.879
 4418SOL    HW114153   5.600   0.616   3.861
 4418SOL    HW214154   5.537   0.767   3.866
 4419SOL     OW14155   5.622   6.377   0.255
 4419SOL    HW114156   5.637   6.316   0.177
 4419SOL    HW214157   5.604   6.323   0.336
 4420SOL     OW14158   4.982   1.766   1.144
 4420SOL    HW114159   4.966   1.729   1.236
 4420SOL    HW214160   5.053   1.712   1.099
 4421SOL     OW14161   1.969   1.047   3.271
 4421SOL    HW114162   1.876   1.034   3.235
 4421SOL    HW214163   2.034   1.049   3.195
 4422SOL     OW14164   2.150   3.806   6.129
 4422SOL    HW114165   2.190   3.823   6.039
 4422SOL    HW214166   2.168   3.884   6.188
 4423SOL     OW14167   1.386   2.631   5.943
 4423SOL    HW114168   1.338   2.693   5.882
 4423SOL    HW214169   1.400   2.543   5.898
 4424SOL     OW14170   5.298   6.626   4.012
 4424SOL    HW114171   5.327   6.676   4.093
 4424SOL    HW214172   5.356   6.545   4.000
 4425SOL     OW14173   3.409   5.877   5.908
 4425SOL    HW114174   3.354   5.922   5.837
 4425SOL    HW214175   3.454   5.946   5.964
 4426SOL     OW14176   0.069   1.812   4.985
 4426SOL    HW114177   7.008   1.860   5.008
 4426SOL    HW214178   0.082   1.735   5.047
 4427SOL     OW14179   6.728   6.774   3.040
 4427SOL    HW114180   6.778   6.746   2.958
 4427SOL    HW214181   6.639   6.727   3.042
 4428SOL     OW14182   3.191   5.002   2.107
 4428SOL    HW114183   3.200   5.086   2.052
 4428SOL    HW214184   3.279   4.978   2.146
 4429SOL     OW14185   2.625   0.915   3.588
 4429SOL    HW114186   2.660   0.904   3.680
 4429SOL    HW214187   2.552   0.984   3.588
 4430SOL     OW14188   5.544   3.116   4.503
 4430SOL    HW114189   5.525   3.206   4.464
 4430SOL    HW214190   5.467   3.088   4.560
 4431SOL     OW14191   1.539   0.978   2.169
 4431SOL    HW114192   1.567   1.053   2.109
 4431SOL    HW214193   1.446   0.951   2.145
 4432SOL     OW14194   3.419   4.106   3.661
 4432SOL    HW114195   3.518   4.104   3.646
 4432SOL    HW214196   3.373   4.126   3.574
 4433SOL     OW14197   5.950   0.490   4.593
 4433SOL    HW114198   5.994   0.543   4.666
 4433SOL    HW214199   5.914   0.405   4.631
 4434SOL     OW14200   4.012   1.868   3.205
 4434SOL    HW114201   4.038   1.913   3.290
 4434SOL    HW214202   4.019   1.934   3.130
 4435SOL     OW14203   4.115   3.823   0.973
 4435SOL    HW114204   4.082   3.802   1.065
 4435SOL    HW214205   4.116   3.922   0.960
 4436SOL     OW14206   3.685   1.946   0.318
 4436SOL    HW114207   3.652   1.871   0.376
 4436SOL    HW214208   3.610   2.009   0.300
 4437SOL     OW14209   5.838   1.128   3.832
 4437SOL    HW114210   5.866   1.041   3.793
 4437SOL    HW214211   5.847   1.200   3.763
 4438SOL     OW14212   4.182   1.377   6.994
 4438SOL    HW114213   4.150   1.450   0.031
 4438SOL    HW214214   4.253   1.413   6.934
 4439SOL     OW14215   0.458   5.965   1.279
 4439SOL    HW114216   0.525   5.962   1.353
 4439SOL    HW214217   0.366   5.974   1.317
 4440SOL     OW14218   1.905   4.504   0.753
 4440SOL    HW114219   1.897   4.476   0.657
 4440SOL    HW214220   2.001   4.522   0.775
 4441SOL     OW14221   6.596   2.043   2.742
 4441SOL    HW114222   6.533   2.112   2.778
 4441SOL    HW214223   6.554   1.953   2.747
 4442SOL     OW14224   2.954   5.957   4.186
 4442SOL    HW114225   3.005   5.886   4.233
 4442SOL    HW214226   3.018   6.025   4.149
 4443SOL     OW14227   6.664   2.773   0.700
 4443SOL    HW114228   6.743   2.822   0.664
 4443SOL    HW214229   6.594   2.764   0.629
 4444SOL     OW14230   3.719   5.507   6.189
 4444SOL    HW114231   3.771   5.435   6.236
 4444SOL    HW214232   3.671   5.468   6.110
 4445SOL     OW14233   0.206   0.450   1.097
 4445SOL    HW114234   0.286   0.424   1.151
 4445SOL    HW214235   0.135   0.379   1.107
 4446SOL     OW14236   6.257   1.702   1.672
 4446SOL    HW114237   6.206   1.732   1.592
 4446SOL    HW214238   6.269   1.780   1.734
 4447SOL     OW14239   5.967   3.404   6.028
 4447SOL    HW114240   5.887   3.418   6.086
 4447SOL    HW214241   5.964   3.469   5.952
 4448SOL     OW14242   3.284   4.113   0.799
 4448SOL    HW114243   3.271   4.022   0.759
 4448SOL    HW214244   3.198   4.163   0.796
 4449SOL     OW14245   4.151   0.903   6.001
 4449SOL    HW114246   4.147   0.953   6.087
 4449SOL    HW214247   4.230   0.842   6.000
 4450SOL     OW14248   3.957   3.543   4.165
 4450SOL    HW114249   3.869   3.532   4.118
 4450SOL    HW214250   3.957   3.629   4.216
 4451SOL     OW14251   5.713   4.305   3.142
 4451SOL    HW114252   5.768   4.334   3.063
 4451SOL    HW214253   5.706   4.206   3.143
 4452SOL     OW14254   5.718   6.537   4.832
 4452SOL    HW114255   5.637   6.592   4.851
 4452SOL    HW214256   5.801   6.590   4.849
 4453SOL     OW14257   6.762   3.000   1.278
 4453SOL    HW114258   6.716   2.989   1.366
 4453SOL    HW214259   6.696   2.984   1.204
 4454SOL     OW14260   5.487   2.099   6.727
 4454SOL    HW114261   5.529   2.017   6.766
 4454SOL    HW214262   5.554   2.145   6.668
 4455SOL     OW14263   3.954   0.509   5.982
 4455SOL    HW114264   3.989   0.415   5.976
 4455SOL    HW214265   3.949   0.537   6.078
 4456SOL     OW14266   3.091   5.170   2.644
 4456SOL    HW114267   3.026   5.245   2.637
 4456SOL    HW214268   3.099   5.140   2.739
 4457SOL     OW14269   4.447   2.222   0.163
 4457SOL    HW114270   4.361   2.256   0.200
 4457SOL    HW214271   4.489   2.158   0.227
 4458SOL     OW14272   1.168   4.082   0.077
 4458SOL    HW114273   1.144   4.090   7.004
 4458SOL    HW214274   1.195   3.988   0.098
 4459SOL     OW14275   4.957   0.530   3.518
 4459SOL    HW114276   4.881   0.574   3.566
 4459SOL    HW214277   4.961   0.433   3.542
 4460SOL     OW14278   3.046   3.244   5.272
 4460SOL    HW114279   3.041   3.144   5.269
 4460SOL    HW214280   3.132   3.274   5.233
 4461SOL     OW14281   0.676   0.513   2.779
 4461SOL    HW114282   0.723   0.434   2.740
 4461SOL    HW214283   0.700   0.522   2.876
 4462SOL     OW14284   0.071   3.395   2.088
 4462SOL    HW114285   0.124   3.480   2.078
 4462SOL    HW214286   0.043   3.385   2.184
 4463SOL     OW14287   3.040   2.749   7.009
 4463SOL    HW114288   3.138   2.759   6.992
 4463SOL    HW214289   2.989   2.808   6.946
 4464SOL     OW14290   6.143   4.431   6.937
 4464SOL    HW114291   6.137   4.435   6.837
 4464SOL    HW214292   6.117   4.520   6.974
 4465SOL     OW14293   2.628   5.320   3.032
 4465SOL    HW114294   2.528   5.314   3.025
 4465SOL    HW214295   2.660   5.401   2.983
 4466SOL     OW14296   0.964   0.593   2.459
 4466SOL    HW114297   0.984   0.583   2.362
 4466SOL    HW214298   0.979   0.505   2.506
 4467SOL     OW14299   1.369   6.755   3.790
 4467SOL    HW114300   1.320   6.693   3.851
 4467SOL    HW214301   1.367   6.848   3.827
 4468SOL     OW14302   1.521   2.839   0.811
 4468SOL    HW114303   1.599   2.780   0.832
 4468SOL    HW214304   1.462   2.847   0.892
 4469SOL     OW14305   3.815   0.462   1.831
 4469SOL    HW114306   3.725   0.467   1.875
 4469SOL    HW214307   3.863   0.380   1.863
 4470SOL     OW14308   6.114   3.452   2.022
 4470SOL    HW114309   6.055   3.521   1.981
 4470SOL    HW214310   6.193   3.497   2.064
 4471SOL     OW14311   6.830   1.699   0.521
 4471SOL    HW114312   6.753   1.732   0.575
 4471SOL    HW214313   6.855   1.768   0.453
 4472SOL     OW14314   2.062   2.838   3.561
 4472SOL    HW114315   2.037   2.744   3.540
 4472SOL    HW214316   1.996   2.877   3.625
 4473SOL     OW14317   6.771   2.591   3.535
 4473SOL    HW114318   6.755   2.599   3.633
 4473SOL    HW214319   6.838   2.659   3.506
 4474SOL     OW14320   3.633   0.903   2.098
 4474SOL    HW114321   3.603   0.920   2.192
 4474SOL    HW214322   3.693   0.824   2.096
 4475SOL     OW14323   1.890   3.890   2.503
 4475SOL    HW114324   1.878   3.798   2.466
 4475SOL    HW214325   1.987   3.905   2.524
 4476SOL     OW14326   4.873   6.235   4.090
 4476SOL    HW114327   4.829   6.280   4.168
 4476SOL    HW214328   4.967   6.266   4.083
 4477SOL     OW14329   1.287   0.356   5.593
 4477SOL    HW114330   1.221   0.330   5.523
 4477SOL    HW214331   1.379   0.357   5.554
 4478SOL     OW14332   3.485   6.017   2.415
 4478SOL    HW114333   3.461   5.922   2.436
 4478SOL    HW214334   3.454   6.076   2.490
 4479SOL     OW14335   0.441   0.748   1.047
 4479SOL    HW114336   0.346   0.770   1.024
 4479SOL    HW214337   0.497   0.753   0.964
 4480SOL     OW14338   1.511   3.383   5.544
 4480SOL    HW114339   1.584   3.375   5.612
 4480SOL    HW214340   1.550   3.413   5.457
 4481SOL     OW14341   2.721   6.888   4.901
 4481SOL    HW114342   2.800   6.839   4.937
 4481SOL    HW214343   2.751   6.957   4.835
 4482SOL     OW14344   0.401   4.225   4.136
 4482SOL    HW114345   0.356   4.308   4.168
 4482SOL    HW214346   0.499   4.231   4.153
 4483SOL     OW14347   5.119   3.506   2.193
 4483SOL    HW114348   5.147   3.579   2.130
 4483SOL    HW214349   5.200   3.466   2.236
 4484SOL     OW14350   3.303   2.672   5.414
 4484SOL    HW114351   3.358   2.745   5.454
 4484SOL    HW214352   3.249   2.628   5.486
 4485SOL     OW14353   5.272   2.183   5.735
 4485SOL    HW114354   5.332   2.255   5.771
 4485SOL    HW214355   5.291   2.097   5.783
 4486SOL     OW14356   5.366   3.622   4.405
 4486SOL    HW114357   5.271   3.591   4.411
 4486SOL    HW214358   5.394   3.661   4.492
 4487SOL     OW14359   2.379   3.040   6.518
 4487SOL    HW114360   2.368   3.139   6.531
 4487SOL    HW214361   2.466   3.022   6.473
 4488SOL     OW14362   6.084   3.434   5.275
 4488SOL    HW114363   6.103   3.374   5.353
 4488SOL    HW214364   6.024   3.386   5.211
 4489SOL     OW14365   5.577   5.526   4.314
 4489SOL    HW114366   5.594   5.429   4.296
 4489SOL    HW214367   5.540   5.569   4.232
 4490SOL     OW14368   6.030   2.648   2.499
 4490SOL    HW114369   6.043   2.554   2.530
 4490SOL    HW214370   6.109   2.677   2.444
 4491SOL     OW14371   0.275   3.008   4.223
 4491SOL    HW114372   0.270   3.069   4.302
 4491SOL    HW214373   0.255   2.914   4.252
 4492SOL     OW14374   5.101   3.292   1.046
 4492SOL    HW114375   5.004   3.270   1.034
 4492SOL    HW214376   5.125   3.288   1.142
 4493SOL     OW14377   4.719   5.991   5.290
 4493SOL    HW114378   4.689   5.896   5.294
 4493SOL    HW214379   4.658   6.048   5.345
 4494SOL     OW14380   6.713   1.319   5.575
 4494SOL    HW114381   6.638   1.334   5.510
 4494SOL    HW214382   6.797   1.361   5.539
 4495SOL     OW14383   4.652   5.797   4.137
 4495SOL    HW114384   4.658   5.753   4.227
 4495SOL    HW214385   4.686   5.891   4.144
 4496SOL     OW14386   4.188   6.071   1.093
 4496SOL    HW114387   4.159   6.165   1.077
 4496SOL    HW214388   4.244   6.039   1.016
 4497SOL     OW14389   4.982   0.593   6.624
 4497SOL    HW114390   5.081   0.600   6.611
 4497SOL    HW214391   4.952   0.499   6.606
 4498SOL     OW14392   0.255   2.960   6.622
 4498SOL    HW114393   0.174   2.911   6.653
 4498SOL    HW214394   0.301   2.908   6.551
 4499SOL     OW14395   0.359   3.642   3.677
 4499SOL    HW114396   0.328   3.573   3.742
 4499SOL    HW214397   0.295   3.720   3.678
 4500SOL     OW14398   2.946   3.291   4.106
 4500SOL    HW114399   2.856   3.305   4.149
 4500SOL    HW214400   2.987   3.206   4.140
 4501SOL     OW14401   6.728   2.824   5.525
 4501SOL    HW114402   6.777   2.742   5.494
 4501SOL    HW214403   6.774   2.906   5.492
 4502SOL     OW14404   1.456   1.720   0.298
 4502SOL    HW114405   1.506   1.788   0.245
 4502SOL    HW214406   1.493   1.716   0.391
 4503SOL     OW14407   3.522   0.064   2.814
 4503SOL    HW114408   3.438   0.013   2.796
 4503SOL    HW214409   3.558   0.101   2.729
 4504SOL     OW14410   6.816   1.093   4.711
 4504SOL    HW114411   6.883   1.126   4.777
 4504SOL    HW214412   6.848   1.006   4.672
 4505SOL     OW14413   6.352   5.750   3.350
 4505SOL    HW114414   6.359   5.796   3.261
 4505SOL    HW214415   6.407   5.800   3.418
 4506SOL     OW14416   4.392   2.400   4.015
 4506SOL    HW114417   4.306   2.446   3.991
 4506SOL    HW214418   4.409   2.411   4.113
 4507SOL     OW14419   5.347   4.655   2.490
 4507SOL    HW114420   5.337   4.747   2.450
 4507SOL    HW214421   5.429   4.612   2.451
 4508SOL     OW14422   0.984   5.002   6.033
 4508SOL    HW114423   1.046   4.925   6.042
 4508SOL    HW214424   0.957   5.035   6.123
 4509SOL     OW14425   5.092   1.795   3.547
 4509SOL    HW114426   5.164   1.734   3.578
 4509SOL    HW214427   5.008   1.775   3.598
 4510SOL     OW14428   4.795   0.231   5.084
 4510SOL    HW114429   4.858   0.255   5.010
 4510SOL    HW214430   4.822   0.277   5.168
 4511SOL     OW14431   6.941   3.568   6.653
 4511SOL    HW114432   6.891   3.496   6.701
 4511SOL    HW214433   7.016   3.528   6.600
 4512SOL     OW14434   2.725   0.073   5.768
 4512SOL    HW114435   2.724   0.143   5.697
 4512SOL    HW214436   2.792   0.002   5.744
 4513SOL     OW14437   5.019   6.543   0.728
 4513SOL    HW114438   5.032   6.514   0.633
 4513SOL    HW214439   4.961   6.476   0.775
 4514SOL     OW14440   5.117   1.133   5.285
 4514SOL    HW114441   5.207   1.174   5.268
 4514SOL    HW214442   5.069   1.186   5.355
 4515SOL     OW14443   0.445   3.650   5.595
 4515SOL    HW114444   0.536   3.656   5.637
 4515SOL    HW214445   0.397   3.737   5.606
 4516SOL     OW14446   1.801   0.769   6.295
 4516SOL    HW114447   1.741   0.742   6.220
 4516SOL    HW214448   1.769   0.856   6.333
 4517SOL     OW14449   1.999   0.840   6.960
 4517SOL    HW114450   1.990   0.875   6.866
 4517SOL    HW214451   1.914   0.857   7.010
 4518SOL     OW14452   6.739   1.134   3.578
 4518SOL    HW114453   6.664   1.198   3.564
 4518SOL    HW214454   6.786   1.119   3.491
 4519SOL     OW14455   5.692   7.016   2.141
 4519SOL    HW114456   5.746   6.950   2.193
 4519SOL    HW214457   5.595   6.995   2.150
 4520SOL     OW14458   5.553   6.226   3.659
 4520SOL    HW114459   5.609   6.286   3.601
 4520SOL    HW214460   5.521   6.148   3.605
 4521SOL     OW14461   5.339   1.722   3.903
 4521SOL    HW114462   5.330   1.699   3.806
 4521SOL    HW214463   5.278   1.798   3.926
 4522SOL     OW14464   5.823   6.937   3.579
 4522SOL    HW114465   5.883   6.978   3.648
 4522SOL    HW214466   5.840   6.839   3.574
 4523SOL     OW14467   1.272   4.416   0.010
 4523SOL    HW114468   1.177   4.401   7.009
 4523SOL    HW214469   1.278   4.484   0.083
 4524SOL     OW14470   5.510   2.130   4.229
 4524SOL    HW114471   5.410   2.122   4.223
 4524SOL    HW214472   5.540   2.106   4.321
 4525SOL     OW14473   5.709   1.199   2.853
 4525SOL    HW114474   5.775   1.167   2.920
 4525SOL    HW214475   5.757   1.249   2.781
 4526SOL     OW14476   5.255   0.642   0.946
 4526SOL    HW114477   5.215   0.726   0.985
 4526SOL    HW214478   5.340   0.620   0.995
 4527SOL     OW14479   4.580   1.153   3.872
 4527SOL    HW114480   4.622   1.118   3.788
 4527SOL    HW214481   4.495   1.201   3.849
 4528SOL     OW14482   4.396   6.731   6.549
 4528SOL    HW114483   4.397   6.814   6.604
 4528SOL    HW214484   4.490   6.706   6.525
 4529SOL     OW14485   3.315   1.845   4.518
 4529SOL    HW114486   3.385   1.774   4.505
 4529SOL    HW214487   3.234   1.822   4.465
 4530SOL     OW14488   0.054   3.443   5.572
 4530SOL    HW114489   6.995   3.458   5.628
 4530SOL    HW214490   0.035   3.470   5.478
 4531SOL     OW14491   0.569   3.544   3.568
 4531SOL    HW114492   0.486   3.591   3.597
 4531SOL    HW214493   0.584   3.463   3.624
 4532SOL     OW14494   6.357   1.375   3.119
 4532SOL    HW114495   6.334   1.288   3.164
 4532SOL    HW214496   6.279   1.406   3.065
 4533SOL     OW14497   1.096   0.370   2.577
 4533SOL    HW114498   1.077   0.274   2.600
 4533SOL    HW214499   1.195   0.385   2.576
 4534SOL     OW14500   5.777   4.161   5.017
 4534SOL    HW114501   5.814   4.149   4.925
 4534SOL    HW214502   5.683   4.195   5.012
 4535SOL     OW14503   4.895   1.800   2.489
 4535SOL    HW114504   4.931   1.868   2.553
 4535SOL    HW214505   4.820   1.750   2.532
 4536SOL     OW14506   4.454   2.146   3.975
 4536SOL    HW114507   4.517   2.101   4.038
 4536SOL    HW214508   4.458   2.245   3.989
 4537SOL     OW14509   3.715   3.434   6.040
 4537SOL    HW114510   3.743   3.455   6.134
 4537SOL    HW214511   3.795   3.434   5.981
 4538SOL     OW14512   2.901   0.808   3.908
 4538SOL    HW114513   2.828   0.861   3.864
 4538SOL    HW214514   2.923   0.850   3.996
 4539SOL     OW14515   2.285   1.008   3.998
 4539SOL    HW114516   2.239   1.095   3.980
 4539SOL    HW214517   2.299   0.959   3.912
 4540SOL     OW14518   3.041   3.188   4.506
 4540SOL    HW114519   3.001   3.279   4.490
 4540SOL    HW214520   2.977   3.132   4.558
 4541SOL     OW14521   5.340   1.237   0.587
 4541SOL    HW114522   5.369   1.251   0.493
 4541SOL    HW214523   5.274   1.308   0.613
 4542SOL     OW14524   6.566   6.773   2.144
 4542SOL    HW114525   6.543   6.861   2.101
 4542SOL    HW214526   6.545   6.699   2.081
 4543SOL     OW14527   5.172   1.896   0.798
 4543SOL    HW114528   5.126   1.985   0.798
 4543SOL    HW214529   5.113   1.828   0.754
 4544SOL     OW14530   3.330   6.458   6.063
 4544SOL    HW114531   3.319   6.369   6.020
 4544SOL    HW214532   3.352   6.446   6.160
 4545SOL     OW14533   5.953   2.438   4.505
 4545SOL    HW114534   5.987   2.368   4.569
 4545SOL    HW214535   5.869   2.478   4.540
 4546SOL     OW14536   1.349   1.517   6.464
 4546SOL    HW114537   1.277   1.472   6.410
 4546SOL    HW214538   1.327   1.509   6.561
 4547SOL     OW14539   6.694   2.753   3.188
 4547SOL    HW114540   6.726   2.793   3.274
 4547SOL    HW214541   6.615   2.695   3.206
 4548SOL     OW14542   1.158   4.285   4.748
 4548SOL    HW114543   1.220   4.316   4.676
 4548SOL    HW214544   1.200   4.297   4.837
 4549SOL     OW14545   5.739   3.756   2.208
 4549SOL    HW114546   5.803   3.808   2.265
 4549SOL    HW214547   5.672   3.818   2.167
 4550SOL     OW14548   0.832   6.324   2.949
 4550SOL    HW114549   0.815   6.361   2.858
 4550SOL    HW214550   0.905   6.377   2.993
 4551SOL     OW14551   6.099   2.052   6.409
 4551SOL    HW114552   6.145   2.119   6.350
 4551SOL    HW214553   6.072   2.095   6.495
 4552SOL     OW14554   6.588   3.063   0.689
 4552SOL    HW114555   6.567   3.140   0.629
 4552SOL    HW214556   6.665   3.011   0.651
 4553SOL     OW14557   3.790   4.172   6.716
 4553SOL    HW114558   3.745   4.139   6.799
 4553SOL    HW214559   3.757   4.120   6.637
 4554SOL     OW14560   4.572   0.692   1.643
 4554SOL    HW114561   4.488   0.700   1.697
 4554SOL    HW214562   4.550   0.683   1.546
 4555SOL     OW14563   3.606   1.776   5.604
 4555SOL    HW114564   3.643   1.869   5.601
 4555SOL    HW214565   3.529   1.773   5.668
 4556SOL     OW14566   4.560   2.168   3.687
 4556SOL    HW114567   4.525   2.150   3.778
 4556SOL    HW214568   4.512   2.247   3.648
 4557SOL     OW14569   5.328   6.626   5.057
 4557SOL    HW114570   5.316   6.725   5.053
 4557SOL    HW214571   5.395   6.604   5.129
 4558SOL     OW14572   6.863   3.466   5.731
 4558SOL    HW114573   6.797   3.540   5.718
 4558SOL    HW214574   6.916   3.483   5.814
 4559SOL     OW14575   0.660   4.616   1.869
 4559SOL    HW114576   0.699   4.524   1.860
 4559SOL    HW214577   0.712   4.668   1.936
 4560SOL     OW14578   4.523   4.913   3.837
 4560SOL    HW114579   4.432   4.950   3.857
 4560SOL    HW214580   4.577   4.982   3.790
 4561SOL     OW14581   3.225   0.375   1.123
 4561SOL    HW114582   3.134   0.336   1.137
 4561SOL    HW214583   3.216   0.466   1.082
 4562SOL     OW14584   3.002   6.264   5.359
 4562SOL    HW114585   2.982   6.359   5.333
 4562SOL    HW214586   3.051   6.263   5.446
 4563SOL     OW14587   0.478   4.152   0.383
 4563SOL    HW114588   0.534   4.082   0.339
 4563SOL    HW214589   0.430   4.205   0.313
 4564SOL     OW14590   0.554   6.970   0.928
 4564SOL    HW114591   0.573   6.880   0.888
 4564SOL    HW214592   0.485   6.961   0.999
 4565SOL     OW14593   0.251   1.307   5.715
 4565SOL    HW114594   0.283   1.325   5.808
 4565SOL    HW214595   0.168   1.251   5.718
 4566SOL     OW14596   6.621   1.371   0.972
 4566SOL    HW114597   6.705   1.317   0.968
 4566SOL    HW214598   6.642   1.467   0.957
 4567SOL     OW14599   0.289   0.832   0.082
 4567SOL    HW114600   0.229   0.765   0.039
 4567SOL    HW214601   0.234   0.899   0.132
 4568SOL     OW14602   0.841   5.092   5.636
 4568SOL    HW114603   0.748   5.063   5.613
 4568SOL    HW214604   0.895   5.012   5.662
 4569SOL     OW14605   1.699   1.021   3.150
 4569SOL    HW114606   1.715   0.957   3.075
 4569SOL    HW214607   1.601   1.030   3.166
 4570SOL     OW14608   0.410   5.300   3.146
 4570SOL    HW114609   0.400   5.389   3.102
 4570SOL    HW214610   0.326   5.247   3.134
 4571SOL     OW14611   2.758   3.202   5.791
 4571SOL    HW114612   2.757   3.155   5.703
 4571SOL    HW214613   2.814   3.285   5.784
 4572SOL     OW14614   0.938   6.744   6.540
 4572SOL    HW114615   0.989   6.671   6.495
 4572SOL    HW214616   0.945   6.735   6.639
 4573SOL     OW14617   6.223   6.332   0.422
 4573SOL    HW114618   6.300   6.273   0.400
 4573SOL    HW214619   6.255   6.409   0.478
 4574SOL     OW14620   6.528   3.933   1.178
 4574SOL    HW114621   6.455   3.993   1.145
 4574SOL    HW214622   6.501   3.894   1.266
 4575SOL     OW14623   6.336   1.870   6.733
 4575SOL    HW114624   6.347   1.874   6.634
 4575SOL    HW214625   6.378   1.951   6.774
 4576SOL     OW14626   2.063   6.187   6.842
 4576SOL    HW114627   2.161   6.205   6.840
 4576SOL    HW214628   2.043   6.118   6.912
 4577SOL     OW14629   0.803   2.224   3.979
 4577SOL    HW114630   0.870   2.280   3.931
 4577SOL    HW214631   0.809   2.242   4.077
 4578SOL     OW14632   1.269   3.540   3.862
 4578SOL    HW114633   1.341   3.553   3.793
 4578SOL    HW214634   1.298   3.470   3.927
 4579SOL     OW14635   5.354   2.343   2.668
 4579SOL    HW114636   5.350   2.361   2.766
 4579SOL    HW214637   5.374   2.427   2.619
 4580SOL     OW14638   4.748   5.562   0.130
 4580SOL    HW114639   4.769   5.538   0.225
 4580SOL    HW214640   4.708   5.654   0.127
 4581SOL     OW14641   3.398   5.611   3.001
 4581SOL    HW114642   3.339   5.659   2.936
 4581SOL    HW214643   3.344   5.544   3.052
 4582SOL     OW14644   5.455   6.179   4.878
 4582SOL    HW114645   5.439   6.120   4.799
 4582SOL    HW214646   5.369   6.193   4.927
 4583SOL     OW14647   3.102   1.049   4.910
 4583SOL    HW114648   3.021   0.991   4.905
 4583SOL    HW214649   3.120   1.091   4.821
 4584SOL     OW14650   0.272   5.030   5.738
 4584SOL    HW114651   0.364   4.998   5.760
 4584SOL    HW214652   0.225   4.961   5.684
 4585SOL     OW14653   3.210   6.509   2.686
 4585SOL    HW114654   3.291   6.515   2.744
 4585SOL    HW214655   3.133   6.554   2.732
 4586SOL     OW14656   3.740   5.347   0.191
 4586SOL    HW114657   3.644   5.368   0.211
 4586SOL    HW214658   3.755   5.248   0.198
 4587SOL     OW14659   3.937   3.832   2.002
 4587SOL    HW114660   3.965   3.888   2.079
 4587SOL    HW214661   4.018   3.786   1.963
 4588SOL     OW14662   4.042   4.253   5.619
 4588SOL    HW114663   4.101   4.288   5.546
 4588SOL    HW214664   4.095   4.247   5.704
 4589SOL     OW14665   5.621   1.114   1.814
 4589SOL    HW114666   5.576   1.190   1.768
 4589SOL    HW214667   5.720   1.122   1.801
 4590SOL     OW14668   5.164   5.762   1.421
 4590SOL    HW114669   5.140   5.667   1.440
 4590SOL    HW214670   5.119   5.792   1.337
 4591SOL     OW14671   0.320   6.030   5.218
 4591SOL    HW114672   0.253   6.063   5.284
 4591SOL    HW214673   0.368   5.951   5.257
 4592SOL     OW14674   3.937   2.154   2.133
 4592SOL    HW114675   3.872   2.084   2.160
 4592SOL    HW214676   4.019   2.148   2.191
 4593SOL     OW14677   3.785   5.793   4.304
 4593SOL    HW114678   3.699   5.765   4.261
 4593SOL    HW214679   3.855   5.804   4.234
 4594SOL     OW14680   3.110   1.456   1.570
 4594SOL    HW114681   3.185   1.487   1.511
 4594SOL    HW214682   3.023   1.467   1.522
 4595SOL     OW14683   3.743   2.549   6.049
 4595SOL    HW114684   3.702   2.541   6.140
 4595SOL    HW214685   3.681   2.601   5.990
 4596SOL     OW14686   5.968   6.406   2.469
 4596SOL    HW114687   5.970   6.484   2.407
 4596SOL    HW214688   5.933   6.326   2.421
 4597SOL     OW14689   5.048   4.615   6.865
 4597SOL    HW114690   5.050   4.686   6.795
 4597SOL    HW214691   4.987   4.642   6.939
 4598SOL     OW14692   2.110   4.876   0.081
 4598SOL    HW114693   2.124   4.935   0.002
 4598SOL    HW214694   2.160   4.790   0.067
 4599SOL     OW14695   1.751   5.036   0.593
 4599SOL    HW114696   1.739   4.941   0.566
 4599SOL    HW214697   1.827   5.043   0.658
 4600SOL     OW14698   1.567   5.038   5.573
 4600SOL    HW114699   1.533   5.132   5.577
 4600SOL    HW214700   1.546   4.998   5.484
 4601SOL     OW14701   1.800   6.936   5.425
 4601SOL    HW114702   1.860   7.015   5.437
 4601SOL    HW214703   1.756   6.913   5.511
 4602SOL     OW14704   0.881   5.960   0.645
 4602SOL    HW114705   0.962   5.990   0.595
 4602SOL    HW214706   0.892   5.981   0.742
 4603SOL     OW14707   3.495   6.700   1.595
 4603SOL    HW114708   3.535   6.639   1.527
 4603SOL    HW214709   3.443   6.772   1.550
 4604SOL     OW14710   4.306   0.592   2.109
 4604SOL    HW114711   4.311   0.576   2.208
 4604SOL    HW214712   4.355   0.676   2.087
 4605SOL     OW14713   4.368   0.958   3.157
 4605SOL    HW114714   4.290   1.013   3.187
 4605SOL    HW214715   4.338   0.894   3.087
 4606SOL     OW14716   1.294   6.758   1.278
 4606SOL    HW114717   1.258   6.847   1.304
 4606SOL    HW214718   1.392   6.753   1.299
 4607SOL     OW14719   2.319   2.823   1.221
 4607SOL    HW114720   2.279   2.836   1.312
 4607SOL    HW214721   2.246   2.815   1.153
 4608SOL     OW14722   0.541   5.441   3.727
 4608SOL    HW114723   0.542   5.521   3.787
 4608SOL    HW214724   0.601   5.457   3.648
 4609SOL     OW14725   4.168   4.958   6.161
 4609SOL    HW114726   4.247   4.967   6.100
 4609SOL    HW214727   4.128   5.048   6.177
 4610SOL     OW14728   5.167   2.102   0.441
 4610SOL    HW114729   5.191   2.127   0.535
 4610SOL    HW214730   5.154   2.184   0.386
 4611SOL     OW14731   6.485   6.123   5.832
 4611SOL    HW114732   6.438   6.114   5.744
 4611SOL    HW214733   6.584   6.122   5.817
 4612SOL     OW14734   0.904   5.791   6.982
 4612SOL    HW114735   0.977   5.809   0.023
 4612SOL    HW214736   0.876   5.695   6.988
 4613SOL     OW14737   2.906   5.883   2.557
 4613SOL    HW114738   2.838   5.932   2.503
 4613SOL    HW214739   2.986   5.942   2.569
 4614SOL     OW14740   0.754   4.249   5.117
 4614SOL    HW114741   0.805   4.318   5.066
 4614SOL    HW214742   0.707   4.188   5.053
 4615SOL     OW14743   1.684   0.629   0.166
 4615SOL    HW114744   1.746   0.592   0.234
 4615SOL    HW214745   1.714   0.602   0.074
 4616SOL     OW14746   5.667   0.245   5.897
 4616SOL    HW114747   5.748   0.243   5.839
 4616SOL    HW214748   5.668   0.327   5.953
 4617SOL     OW14749   1.171   2.392   2.153
 4617SOL    HW114750   1.123   2.414   2.068
 4617SOL    HW214751   1.217   2.474   2.188
 4618SOL     OW14752   1.883   2.670   5.145
 4618SOL    HW114753   1.867   2.660   5.244
 4618SOL    HW214754   1.900   2.766   5.124
 4619SOL     OW14755   3.604   6.175   3.192
 4619SOL    HW114756   3.687   6.134   3.229
 4619SOL    HW214757   3.600   6.272   3.218
 4620SOL     OW14758   3.560   4.176   0.146
 4620SOL    HW114759   3.545   4.079   0.165
 4620SOL    HW214760   3.492   4.230   0.194
 4621SOL     OW14761   4.851   1.858   3.255
 4621SOL    HW114762   4.930   1.813   3.213
 4621SOL    HW214763   4.771   1.846   3.196
 4622SOL     OW14764   1.943   4.000   0.421
 4622SOL    HW114765   1.870   3.941   0.454
 4622SOL    HW214766   1.985   3.959   0.340
 4623SOL     OW14767   6.735   6.570   0.774
 4623SOL    HW114768   6.712   6.660   0.737
 4623SOL    HW214769   6.652   6.518   0.792
 4624SOL     OW14770   5.499   0.139   3.253
 4624SOL    HW114771   5.531   0.118   3.345
 4624SOL    HW214772   5.505   0.057   3.196
 4625SOL     OW14773   1.689   4.567   0.349
 4625SOL    HW114774   1.589   4.577   0.343
 4625SOL    HW214775   1.726   4.559   0.256
 4626SOL     OW14776   5.864   5.599   2.300
 4626SOL    HW114777   5.853   5.664   2.225
 4626SOL    HW214778   5.862   5.647   2.387
 4627SOL     OW14779   3.483   5.423   3.937
 4627SOL    HW114780   3.480   5.368   3.854
 4627SOL    HW214781   3.408   5.489   3.936
 4628SOL     OW14782   5.572   3.719   3.673
 4628SOL    HW114783   5.487   3.771   3.682
 4628SOL    HW214784   5.596   3.711   3.576
 4629SOL     OW14785   2.483   4.972   4.744
 4629SOL    HW114786   2.547   4.969   4.821
 4629SOL    HW214787   2.419   5.047   4.757
 4630SOL     OW14788   3.799   5.698   2.377
 4630SOL    HW114789   3.739   5.619   2.370
 4630SOL    HW214790   3.875   5.677   2.439
 4631SOL     OW14791   2.319   6.302   3.688
 4631SOL    HW114792   2.392   6.302   3.756
 4631SOL    HW214793   2.231   6.297   3.734
 4632SOL     OW14794   4.075   5.152   2.680
 4632SOL    HW114795   3.979   5.125   2.687
 4632SOL    HW214796   4.131   5.072   2.657
 4633SOL     OW14797   6.059   1.695   3.449
 4633SOL    HW114798   6.130   1.625   3.445
 4633SOL    HW214799   6.020   1.708   3.358
 4634SOL     OW14800   2.033   4.793   6.655
 4634SOL    HW114801   2.066   4.813   6.563
 4634SOL    HW214802   2.040   4.875   6.711
 4635SOL     OW14803   5.461   3.603   2.126
 4635SOL    HW114804   5.482   3.677   2.063
 4635SOL    HW214805   5.500   3.623   2.216
 4636SOL     OW14806   2.044   5.331   6.914
 4636SOL    HW114807   1.944   5.340   6.907
 4636SOL    HW214808   2.087   5.401   6.856
 4637SOL     OW14809   1.095   0.444   0.080
 4637SOL    HW114810   1.172   0.503   0.058
 4637SOL    HW214811   1.128   0.363   0.130
 4638SOL     OW14812   4.285   2.680   6.916
 4638SOL    HW114813   4.265   2.752   6.982
 4638SOL    HW214814   4.204   2.663   6.860
 4639SOL     OW14815   2.068   4.394   5.040
 4639SOL    HW114816   2.092   4.385   4.943
 4639SOL    HW214817   2.118   4.471   5.079
 4640SOL     OW14818   5.302   5.194   4.059
 4640SOL    HW114819   5.247   5.198   4.143
 4640SOL    HW214820   5.307   5.100   4.027
 4641SOL     OW14821   2.802   6.295   4.621
 4641SOL    HW114822   2.708   6.324   4.604
 4641SOL    HW214823   2.845   6.265   4.536
 4642SOL     OW14824   0.933   6.207   4.840
 4642SOL    HW114825   0.938   6.211   4.741
 4642SOL    HW214826   0.878   6.127   4.868
 4643SOL     OW14827   5.136   2.760   1.068
 4643SOL    HW114828   5.040   2.786   1.066
 4643SOL    HW214829   5.190   2.835   1.107
 4644SOL     OW14830   0.959   4.946   5.218
 4644SOL    HW114831   0.876   4.954   5.163
 4644SOL    HW214832   1.018   5.025   5.201
 4645SOL     OW14833   1.029   0.897   4.521
 4645SOL    HW114834   0.955   0.964   4.506
 4645SOL    HW214835   0.997   0.806   4.494
 4646SOL     OW14836   2.774   6.317   3.474
 4646SOL    HW114837   2.776   6.405   3.427
 4646SOL    HW214838   2.819   6.248   3.418
 4647SOL     OW14839   1.580   0.181   3.681
 4647SOL    HW114840   1.608   0.155   3.774
 4647SOL    HW214841   1.652   0.236   3.639
 4648SOL     OW14842   4.003   0.653   1.833
 4648SOL    HW114843   3.958   0.737   1.864
 4648SOL    HW214844   3.937   0.577   1.836
 4649SOL     OW14845   5.371   6.801   5.730
 4649SOL    HW114846   5.371   6.859   5.648
 4649SOL    HW214847   5.407   6.853   5.807
 4650SOL     OW14848   4.640   5.714   3.853
 4650SOL    HW114849   4.621   5.741   3.948
 4650SOL    HW214850   4.558   5.674   3.813
 4651SOL     OW14851   7.008   1.410   1.188
 4651SOL    HW114852   6.956   1.349   1.127
 4651SOL    HW214853   6.999   1.504   1.156
 4652SOL     OW14854   0.572   0.058   4.230
 4652SOL    HW114855   0.594   0.100   4.142
 4652SOL    HW214856   0.656   0.042   4.282
 4653SOL     OW14857   5.952   5.154   6.925
 4653SOL    HW114858   6.048   5.149   6.952
 4653SOL    HW214859   5.901   5.202   6.997
 4654SOL     OW14860   0.347   6.594   0.231
 4654SOL    HW114861   0.361   6.497   0.252
 4654SOL    HW214862   0.423   6.627   0.175
 4655SOL     OW14863   6.639   5.622   1.618
 4655SOL    HW114864   6.677   5.704   1.661
 4655SOL    HW214865   6.578   5.576   1.683
 4656SOL     OW14866   1.067   0.573   3.573
 4656SOL    HW114867   1.032   0.586   3.480
 4656SOL    HW214868   1.005   0.615   3.638
 4657SOL     OW14869   4.816   6.236   1.188
 4657SOL    HW114870   4.737   6.228   1.248
 4657SOL    HW214871   4.878   6.305   1.225
 4658SOL     OW14872   4.600   1.487   2.669
 4658SOL    HW114873   4.639   1.414   2.612
 4658SOL    HW214874   4.519   1.452   2.716
 4659SOL     OW14875   2.707   3.963   5.407
 4659SOL    HW114876   2.621   3.958   5.357
 4659SOL    HW214877   2.689   3.952   5.505
 4660SOL     OW14878   1.313   2.927   5.573
 4660SOL    HW114879   1.407   2.947   5.598
 4660SOL    HW214880   1.280   2.995   5.508
 4661SOL     OW14881   4.001   3.766   5.393
 4661SOL    HW114882   3.991   3.855   5.438
 4661SOL    HW214883   3.936   3.760   5.317
 4662SOL     OW14884   4.391   0.657   4.895
 4662SOL    HW114885   4.311   0.712   4.871
 4662SOL    HW214886   4.409   0.666   4.993
 4663SOL     OW14887   0.910   2.026   2.490
 4663SOL    HW114888   0.903   1.930   2.462
 4663SOL    HW214889   0.949   2.080   2.416
 4664SOL     OW14890   2.195   2.076   0.680
 4664SOL    HW114891   2.114   2.089   0.737
 4664SOL    HW214892   2.277   2.083   0.736
 4665SOL     OW14893   4.167   0.092   0.886
 4665SOL    HW114894   4.097   0.058   0.823
 4665SOL    HW214895   4.123   0.127   0.968
 4666SOL     OW14896   1.517   2.334   0.944
 4666SOL    HW114897   1.465   2.371   0.867
 4666SOL    HW214898   1.580   2.403   0.978
 4667SOL     OW14899   6.128   4.479   1.324
 4667SOL    HW114900   6.110   4.548   1.254
 4667SOL    HW214901   6.085   4.393   1.297
 4668SOL     OW14902   5.541   2.582   2.918
 4668SOL    HW114903   5.470   2.622   2.859
 4668SOL    HW214904   5.513   2.489   2.944
 4669SOL     OW14905   3.503   6.921   0.075
 4669SOL    HW114906   3.416   6.901   0.121
 4669SOL    HW214907   3.490   6.913   7.000
 4670SOL     OW14908   3.094   2.285   5.392
 4670SOL    HW114909   3.139   2.323   5.311
 4670SOL    HW214910   3.082   2.186   5.379
 4671SOL     OW14911   6.502   2.366   2.595
 4671SOL    HW114912   6.542   2.458   2.596
 4671SOL    HW214913   6.554   2.307   2.533
 4672SOL     OW14914   2.888   4.869   5.984
 4672SOL    HW114915   2.825   4.803   6.026
 4672SOL    HW214916   2.868   4.875   5.886
 4673SOL     OW14917   4.921   6.396   0.946
 4673SOL    HW114918   4.860   6.441   1.012
 4673SOL    HW214919   4.998   6.355   0.994
 4674SOL     OW14920   4.792   0.184   6.879
 4674SOL    HW114921   4.839   0.097   6.867
 4674SOL    HW214922   4.858   0.254   6.906
 4675SOL     OW14923   0.263   2.683   6.525
 4675SOL    HW114924   0.186   2.683   6.461
 4675SOL    HW214925   0.349   2.685   6.474
 4676SOL     OW14926   6.667   5.724   3.423
 4676SOL    HW114927   6.613   5.645   3.391
 4676SOL    HW214928   6.605   5.801   3.441
 4677SOL     OW14929   2.720   1.515   0.616
 4677SOL    HW114930   2.810   1.546   0.583
 4677SOL    HW214931   2.661   1.496   0.538
 4678SOL     OW14932   1.941   4.439   3.021
 4678SOL    HW114933   1.859   4.386   3.001
 4678SOL    HW214934   1.934   4.529   2.979
 4679SOL     OW14935   4.377   0.213   1.847
 4679SOL    HW114936   4.409   0.233   1.754
 4679SOL    HW214937   4.292   0.161   1.841
 4680SOL     OW14938   3.851   1.327   6.440
 4680SOL    HW114939   3.815   1.318   6.533
 4680SOL    HW214940   3.792   1.277   6.377
 4681SOL     OW14941   5.123   4.336   0.063
 4681SOL    HW114942   5.176   4.282   0.128
 4681SOL    HW214943   5.184   4.398   0.013
 4682SOL     OW14944   4.832   4.751   5.646
 4682SOL    HW114945   4.883   4.754   5.560
 4682SOL    HW214946   4.895   4.766   5.723
 4683SOL     OW14947   5.401   5.441   2.934
 4683SOL    HW114948   5.464   5.450   2.857
 4683SOL    HW214949   5.339   5.365   2.917
 4684SOL     OW14950   4.833   6.846   5.597
 4684SOL    HW114951   4.837   6.896   5.511
 4684SOL    HW214952   4.915   6.790   5.607
 4685SOL     OW14953   1.904   4.721   6.306
 4685SOL    HW114954   1.851   4.718   6.391
 4685SOL    HW214955   1.982   4.783   6.318
 4686SOL     OW14956   4.084   5.745   6.520
 4686SOL    HW114957   4.019   5.817   6.495
 4686SOL    HW214958   4.035   5.672   6.570
 4687SOL     OW14959   4.923   3.044   4.100
 4687SOL    HW114960   4.893   3.109   4.030
 4687SOL    HW214961   5.018   3.019   4.083
 4688SOL     OW14962   5.779   3.140   4.977
 4688SOL    HW114963   5.869   3.147   4.934
 4688SOL    HW214964   5.786   3.086   5.061
 4689SOL     OW14965   4.854   0.722   0.402
 4689SOL    HW114966   4.824   0.646   0.459
 4689SOL    HW214967   4.855   0.806   0.456
 4690SOL     OW14968   1.247   0.240   0.583
 4690SOL    HW114969   1.177   0.201   0.523
 4690SOL    HW214970   1.277   0.328   0.548
 4691SOL     OW14971   2.984   3.472   0.811
 4691SOL    HW114972   3.047   3.485   0.886
 4691SOL    HW214973   2.971   3.375   0.794
 4692SOL     OW14974   5.663   5.208   2.723
 4692SOL    HW114975   5.700   5.242   2.810
 4692SOL    HW214976   5.696   5.266   2.648
 4693SOL     OW14977   0.983   1.385   2.871
 4693SOL    HW114978   0.950   1.324   2.799
 4693SOL    HW214979   1.052   1.338   2.926
 4694SOL     OW14980   2.661   1.201   0.010
 4694SOL    HW114981   2.563   1.191   0.029
 4694SOL    HW214982   2.702   1.262   0.077
 4695SOL     OW14983   1.368   4.771   1.039
 4695SOL    HW114984   1.371   4.672   1.043
 4695SOL    HW214985   1.454   4.809   1.076
 4696SOL     OW14986   6.905   5.081   6.683
 4696SOL    HW114987   6.936   5.126   6.599
 4696SOL    HW214988   6.941   5.130   6.762
 4697SOL     OW14989   1.217   3.798   1.224
 4697SOL    HW114990   1.161   3.815   1.142
 4697SOL    HW214991   1.159   3.757   1.295
 4698SOL     OW14992   4.645   5.995   3.053
 4698SOL    HW114993   4.608   6.082   3.020
 4698SOL    HW214994   4.570   5.937   3.085
 4699SOL     OW14995   0.775   6.343   2.018
 4699SOL    HW114996   0.700   6.405   1.993
 4699SOL    HW214997   0.753   6.251   1.987
 4700SOL     OW14998   7.015   1.873   2.611
 4700SOL    HW114999   0.018   1.779   2.636
 4700SOL    HW215000   0.069   1.934   2.626
 4701SOL     OW15001   2.922   1.800   0.093
 4701SOL    HW115002   3.022   1.804   0.089
 4701SOL    HW215003   2.883   1.887   0.064
 4702SOL     OW15004   4.927   4.916   0.526
 4702SOL    HW115005   4.925   5.000   0.471
 4702SOL    HW215006   4.930   4.941   0.623
 4703SOL     OW15007   0.569   0.127   2.751
 4703SOL    HW115008   0.478   0.145   2.714
 4703SOL    HW215009   0.575   0.032   2.780
 4704SOL     OW15010   6.356   6.069   6.283
 4704SOL    HW115011   6.370   6.009   6.205
 4704SOL    HW215012   6.262   6.102   6.284
 4705SOL     OW15013   4.191   2.458   1.245
 4705SOL    HW115014   4.122   2.488   1.311
 4705SOL    HW215015   4.147   2.434   1.159
 4706SOL     OW15016   2.772   0.680   0.238
 4706SOL    HW115017   2.774   0.776   0.210
 4706SOL    HW215018   2.678   0.649   0.248
 4707SOL     OW15019   1.218   6.792   0.951
 4707SOL    HW115020   1.195   6.695   0.940
 4707SOL    HW215021   1.278   6.803   1.030
 4708SOL     OW15022   1.366   2.009   6.178
 4708SOL    HW115023   1.287   2.065   6.155
 4708SOL    HW215024   1.359   1.979   6.273
 4709SOL     OW15025   4.605   5.449   5.295
 4709SOL    HW115026   4.645   5.537   5.268
 4709SOL    HW215027   4.593   5.392   5.213
 4710SOL     OW15028   4.888   0.026   5.809
 4710SOL    HW115029   4.928   7.020   5.722
 4710SOL    HW215030   4.954   0.011   5.882
 4711SOL     OW15031   6.132   1.832   1.469
 4711SOL    HW115032   6.179   1.887   1.400
 4711SOL    HW215033   6.033   1.849   1.463
 4712SOL     OW15034   3.045   4.815   6.226
 4712SOL    HW115035   2.984   4.810   6.147
 4712SOL    HW215036   3.122   4.752   6.212
 4713SOL     OW15037   3.610   4.458   0.513
 4713SOL    HW115038   3.688   4.484   0.570
 4713SOL    HW215039   3.629   4.369   0.471
 4714SOL     OW15040   0.904   1.168   6.194
 4714SOL    HW115041   0.892   1.267   6.203
 4714SOL    HW215042   1.000   1.145   6.210
 4715SOL     OW15043   5.863   3.336   1.850
 4715SOL    HW115044   5.963   3.338   1.845
 4715SOL    HW215045   5.835   3.288   1.933
 4716SOL     OW15046   3.786   6.710   5.766
 4716SOL    HW115047   3.862   6.714   5.830
 4716SOL    HW215048   3.749   6.617   5.763
 4717SOL     OW15049   0.822   5.906   3.975
 4717SOL    HW115050   0.850   5.886   4.068
 4717SOL    HW215051   0.877   5.981   3.938
 4718SOL     OW15052   6.048   1.673   1.172
 4718SOL    HW115053   5.979   1.670   1.100
 4718SOL    HW215054   6.069   1.768   1.195
 4719SOL     OW15055   4.903   3.167   1.944
 4719SOL    HW115056   4.826   3.108   1.969
 4719SOL    HW215057   4.901   3.249   2.002
 4720SOL     OW15058   2.444   5.477   5.692
 4720SOL    HW115059   2.354   5.467   5.735
 4720SOL    HW215060   2.514   5.486   5.763
 4721SOL     OW15061   0.149   2.001   2.231
 4721SOL    HW115062   0.071   1.939   2.238
 4721SOL    HW215063   0.128   2.085   2.282
 4722SOL     OW15064   1.221   5.972   6.567
 4722SOL    HW115065   1.239   6.038   6.494
 4722SOL    HW215066   1.187   6.021   6.648
 4723SOL     OW15067   2.195   3.420   5.492
 4723SOL    HW115068   2.201   3.414   5.591
 4723SOL    HW215069   2.287   3.412   5.452
 4724SOL     OW15070   6.630   0.241   4.561
 4724SOL    HW115071   6.585   0.153   4.548
 4724SOL    HW215072   6.563   0.308   4.593
 4725SOL     OW15073   6.383   5.214   0.585
 4725SOL    HW115074   6.393   5.164   0.499
 4725SOL    HW215075   6.346   5.153   0.655
 4726SOL     OW15076   1.704   3.214   6.216
 4726SOL    HW115077   1.655   3.226   6.302
 4726SOL    HW215078   1.798   3.185   6.235
 4727SOL     OW15079   0.917   6.436   1.156
 4727SOL    HW115080   0.975   6.479   1.226
 4727SOL    HW215081   0.874   6.508   1.101
 4728SOL     OW15082   5.837   1.331   1.966
 4728SOL    HW115083   5.783   1.406   1.929
 4728SOL    HW215084   5.884   1.284   1.891
 4729SOL     OW15085   4.644   0.876   0.557
 4729SOL    HW115086   4.627   0.948   0.489
 4729SOL    HW215087   4.628   0.786   0.515
 4730SOL     OW15088   3.069   6.219   4.678
 4730SOL    HW115089   3.003   6.294   4.675
 4730SOL    HW215090   3.160   6.255   4.697
 4731SOL     OW15091   2.971   0.855   0.430
 4731SOL    HW115092   2.976   0.761   0.397
 4731SOL    HW215093   3.060   0.899   0.418
 4732SOL     OW15094   0.795   3.580   5.271
 4732SOL    HW115095   0.858   3.555   5.345
 4732SOL    HW215096   0.768   3.675   5.281
 4733SOL     OW15097   1.662   3.821   3.856
 4733SOL    HW115098   1.611   3.841   3.772
 4733SOL    HW215099   1.600   3.780   3.923
 4734SOL     OW15100   4.055   3.088   0.318
 4734SOL    HW115101   4.154   3.091   0.310
 4734SOL    HW215102   4.014   3.150   0.251
 4735SOL     OW15103   0.044   5.243   4.447
 4735SOL    HW115104   0.010   5.149   4.443
 4735SOL    HW215105   0.143   5.242   4.467
 4736SOL     OW15106   6.217   1.461   5.986
 4736SOL    HW115107   6.207   1.555   6.021
 4736SOL    HW215108   6.128   1.415   5.989
 4737SOL     OW15109   3.195   4.125   1.540
 4737SOL    HW115110   3.154   4.205   1.584
 4737SOL    HW215111   3.126   4.053   1.531
 4738SOL     OW15112   1.733   6.440   2.990
 4738SOL    HW115113   1.669   6.491   3.047
 4738SOL    HW215114   1.734   6.478   2.897
 4739SOL     OW15115   5.022   1.585   3.040
 4739SOL    HW115116   4.997   1.665   2.986
 4739SOL    HW215117   5.119   1.564   3.026
 4740SOL     OW15118   0.426   1.579   0.791
 4740SOL    HW115119   0.418   1.654   0.726
 4740SOL    HW215120   0.336   1.559   0.831
 4741SOL     OW15121   4.843   3.288   1.256
 4741SOL    HW115122   4.938   3.272   1.284
 4741SOL    HW215123   4.782   3.225   1.303
 4742SOL     OW15124   2.771   0.026   0.146
 4742SOL    HW115125   2.805   0.056   0.057
 4742SOL    HW215126   2.767   0.104   0.209
 4743SOL     OW15127   1.568   3.169   5.228
 4743SOL    HW115128   1.623   3.225   5.165
 4743SOL    HW215129   1.617   3.160   5.315
 4744SOL     OW15130   3.023   3.829   6.123
 4744SOL    HW115131   2.977   3.843   6.035
 4744SOL    HW215132   3.026   3.915   6.173
 4745SOL     OW15133   2.837   6.053   5.651
 4745SOL    HW115134   2.844   6.082   5.556
 4745SOL    HW215135   2.741   6.057   5.680
 4746SOL     OW15136   5.540   6.579   2.422
 4746SOL    HW115137   5.442   6.564   2.438
 4746SOL    HW215138   5.593   6.523   2.486
 4747SOL     OW15139   1.642   3.812   6.678
 4747SOL    HW115140   1.722   3.786   6.731
 4747SOL    HW215141   1.570   3.844   6.740
 4748SOL     OW15142   0.965   4.964   0.570
 4748SOL    HW115143   0.886   4.948   0.510
 4748SOL    HW215144   1.039   4.901   0.545
 4749SOL     OW15145   2.729   6.728   5.274
 4749SOL    HW115146   2.717   6.678   5.188
 4749SOL    HW215147   2.664   6.803   5.279
 4750SOL     OW15148   0.207   3.558   3.382
 4750SOL    HW115149   0.170   3.466   3.368
 4750SOL    HW215150   0.165   3.598   3.464
 4751SOL     OW15151   2.558   2.685   1.178
 4751SOL    HW115152   2.475   2.740   1.186
 4751SOL    HW215153   2.634   2.733   1.223
 4752SOL     OW15154   2.786   0.313   6.703
 4752SOL    HW115155   2.837   0.262   6.633
 4752SOL    HW215156   2.688   0.300   6.689
 4753SOL     OW15157   5.491   0.789   4.326
 4753SOL    HW115158   5.528   0.881   4.312
 4753SOL    HW215159   5.561   0.722   4.299
 4754SOL     OW15160   6.307   0.308   4.925
 4754SOL    HW115161   6.290   0.383   4.988
 4754SOL    HW215162   6.224   0.254   4.913
 4755SOL     OW15163   2.331   0.477   0.637
 4755SOL    HW115164   2.399   0.434   0.696
 4755SOL    HW215165   2.376   0.540   0.574
 4756SOL     OW15166   5.543   3.354   1.076
 4756SOL    HW115167   5.590   3.402   1.002
 4756SOL    HW215168   5.561   3.256   1.070
 4757SOL     OW15169   1.912   2.198   1.225
 4757SOL    HW115170   1.934   2.230   1.317
 4757SOL    HW215171   1.965   2.250   1.158
 4758SOL     OW15172   1.951   6.310   4.235
 4758SOL    HW115173   1.851   6.312   4.235
 4758SOL    HW215174   1.983   6.259   4.156
 4759SOL     OW15175   5.434   5.318   4.469
 4759SOL    HW115176   5.411   5.221   4.472
 4759SOL    HW215177   5.491   5.341   4.549
 4760SOL     OW15178   3.244   1.590   0.500
 4760SOL    HW115179   3.198   1.674   0.471
 4760SOL    HW215180   3.336   1.587   0.463
 4761SOL     OW15181   0.554   6.243   6.660
 4761SOL    HW115182   0.645   6.260   6.621
 4761SOL    HW215183   0.497   6.195   6.593
 4762SOL     OW15184   1.852   5.830   2.894
 4762SOL    HW115185   1.890   5.855   2.983
 4762SOL    HW215186   1.834   5.913   2.841
 4763SOL     OW15187   6.456   6.624   3.555
 4763SOL    HW115188   6.377   6.584   3.508
 4763SOL    HW215189   6.512   6.674   3.490
 4764SOL     OW15190   5.134   3.832   5.364
 4764SOL    HW115191   5.168   3.908   5.308
 4764SOL    HW215192   5.092   3.763   5.305
 4765SOL     OW15193   5.251   1.021   4.563
 4765SOL    HW115194   5.173   1.078   4.588
 4765SOL    HW215195   5.326   1.079   4.531
 4766SOL     OW15196   4.664   6.078   4.164
 4766SOL    HW115197   4.710   6.154   4.118
 4766SOL    HW215198   4.666   6.094   4.263
 4767SOL     OW15199   3.855   5.010   5.844
 4767SOL    HW115200   3.913   4.931   5.862
 4767SOL    HW215201   3.901   5.070   5.779
 4768SOL     OW15202   4.422   2.010   5.478
 4768SOL    HW115203   4.496   1.947   5.455
 4768SOL    HW215204   4.387   1.989   5.569
 4769SOL     OW15205   4.964   4.517   0.244
 4769SOL    HW115206   5.019   4.488   0.165
 4769SOL    HW215207   4.976   4.615   0.259
 4770SOL     OW15208   1.565   0.536   4.614
 4770SOL    HW115209   1.590   0.562   4.707
 4770SOL    HW215210   1.466   0.529   4.606
 4771SOL     OW15211   3.075   5.346   5.674
 4771SOL    HW115212   2.987   5.360   5.719
 4771SOL    HW215213   3.117   5.435   5.656
 4772SOL     OW15214   3.275   4.482   1.108
 4772SOL    HW115215   3.310   4.575   1.103
 4772SOL    HW215216   3.316   4.435   1.187
 4773SOL     OW15217   6.921   5.663   4.715
 4773SOL    HW115218   6.960   5.604   4.644
 4773SOL    HW215219   6.865   5.734   4.673
 4774SOL     OW15220   1.234   2.496   1.597
 4774SOL    HW115221   1.296   2.503   1.675
 4774SOL    HW215222   1.182   2.410   1.604
 4775SOL     OW15223   5.028   6.842   2.757
 4775SOL    HW115224   5.119   6.805   2.742
 4775SOL    HW215225   4.970   6.824   2.678
 4776SOL     OW15226   1.388   6.233   5.399
 4776SOL    HW115227   1.313   6.273   5.452
 4776SOL    HW215228   1.413   6.144   5.438
 4777SOL     OW15229   2.973   4.451   1.018
 4777SOL    HW115230   2.979   4.542   0.979
 4777SOL    HW215231   3.042   4.440   1.089
 4778SOL     OW15232   6.338   2.704   2.843
 4778SOL    HW115233   6.309   2.635   2.777
 4778SOL    HW215234   6.423   2.675   2.887
 4779SOL     OW15235   6.325   6.046   2.355
 4779SOL    HW115236   6.406   6.087   2.312
 4779SOL    HW215237   6.339   5.948   2.365
 4780SOL     OW15238   6.648   0.503   0.498
 4780SOL    HW115239   6.676   0.427   0.440
 4780SOL    HW215240   6.574   0.554   0.452
 4781SOL     OW15241   2.154   5.960   1.850
 4781SOL    HW115242   2.142   5.861   1.846
 4781SOL    HW215243   2.147   5.991   1.944
 4782SOL     OW15244   3.775   6.412   7.022
 4782SOL    HW115245   3.680   6.409   0.027
 4782SOL    HW215246   3.800   6.324   6.980
 4783SOL     OW15247   4.812   4.691   6.989
 4783SOL    HW115248   4.724   4.643   6.992
 4783SOL    HW215249   4.797   4.788   6.970
 4784SOL     OW15250   5.943   4.082   6.874
 4784SOL    HW115251   6.014   4.046   6.934
 4784SOL    HW215252   5.909   4.169   6.909
 4785SOL     OW15253   6.422   5.544   1.771
 4785SOL    HW115254   6.501   5.590   1.813
 4785SOL    HW215255   6.348   5.538   1.838
 4786SOL     OW15256   2.363   1.815   0.904
 4786SOL    HW115257   2.374   1.895   0.963
 4786SOL    HW215258   2.447   1.801   0.851
 4787SOL     OW15259   3.911   1.349   2.957
 4787SOL    HW115260   3.978   1.416   2.989
 4787SOL    HW215261   3.880   1.375   2.865
 4788SOL     OW15262   1.089   5.465   5.651
 4788SOL    HW115263   1.068   5.561   5.635
 4788SOL    HW215264   1.181   5.457   5.691
 4789SOL     OW15265   4.908   0.759   0.943
 4789SOL    HW115266   4.928   0.811   0.859
 4789SOL    HW215267   4.889   0.664   0.920
 4790SOL     OW15268   6.909   2.633   5.473
 4790SOL    HW115269   6.939   2.710   5.416
 4790SOL    HW215270   6.952   2.549   5.441
 4791SOL     OW15271   6.029   2.200   1.203
 4791SOL    HW115272   6.103   2.210   1.269
 4791SOL    HW215273   6.038   2.270   1.132
 4792SOL     OW15274   2.157   3.298   3.162
 4792SOL    HW115275   2.126   3.390   3.186
 4792SOL    HW215276   2.170   3.292   3.063
 4793SOL     OW15277   1.888   2.870   6.132
 4793SOL    HW115278   1.947   2.857   6.212
 4793SOL    HW215279   1.842   2.785   6.109
 4794SOL     OW15280   4.505   0.445   3.323
 4794SOL    HW115281   4.454   0.441   3.237
 4794SOL    HW215282   4.594   0.400   3.310
 4795SOL     OW15283   6.701   1.964   4.117
 4795SOL    HW115284   6.761   1.991   4.193
 4795SOL    HW215285   6.633   2.035   4.102
 4796SOL     OW15286   5.034   1.947   5.638
 4796SOL    HW115287   5.028   2.026   5.699
 4796SOL    HW215288   5.036   1.978   5.543
 4797SOL     OW15289   1.707   6.469   6.065
 4797SOL    HW115290   1.711   6.569   6.062
 4797SOL    HW215291   1.779   6.435   6.126
 4798SOL     OW15292   6.981   3.346   4.985
 4798SOL    HW115293   7.015   3.439   4.969
 4798SOL    HW215294   6.924   3.318   4.908
 4799SOL     OW15295   4.783   2.659   6.970
 4799SOL    HW115296   4.786   2.743   6.916
 4799SOL    HW215297   4.688   2.639   6.995
 4800SOL     OW15298   3.056   3.564   6.005
 4800SOL    HW115299   2.976   3.511   5.977
 4800SOL    HW215300   3.027   3.653   6.040
 4801SOL     OW15301   3.078   1.887   0.843
 4801SOL    HW115302   3.140   1.858   0.769
 4801SOL    HW215303   3.042   1.978   0.821
 4802SOL     OW15304   1.132   6.180   1.871
 4802SOL    HW115305   1.217   6.200   1.821
 4802SOL    HW215306   1.057   6.169   1.806
 4803SOL     OW15307   1.158   5.511   0.804
 4803SOL    HW115308   1.147   5.493   0.706
 4803SOL    HW215309   1.148   5.609   0.821
 4804SOL     OW15310   5.211   5.706   6.656
 4804SOL    HW115311   5.277   5.690   6.582
 4804SOL    HW215312   5.193   5.804   6.664
 4805SOL     OW15313   6.138   0.606   1.780
 4805SOL    HW115314   6.079   0.670   1.732
 4805SOL    HW215315   6.083   0.534   1.823
 4806SOL     OW15316   0.785   4.676   3.500
 4806SOL    HW115317   0.758   4.592   3.453
 4806SOL    HW215318   0.740   4.681   3.589
 4807SOL     OW15319   0.909   4.710   0.455
 4807SOL    HW115320   0.844   4.785   0.448
 4807SOL    HW215321   0.869   4.636   0.509
 4808SOL     OW15322   6.105   3.679   6.487
 4808SOL    HW115323   6.172   3.618   6.530
 4808SOL    HW215324   6.070   3.744   6.555
 4809SOL     OW15325   3.618   4.081   6.904
 4809SOL    HW115326   3.536   4.066   6.849
 4809SOL    HW215327   3.593   4.114   6.995
 4810SOL     OW15328   0.907   5.115   2.484
 4810SOL    HW115329   0.999   5.154   2.477
 4810SOL    HW215330   0.882   5.105   2.580
 4811SOL     OW15331   2.270   4.786   1.589
 4811SOL    HW115332   2.326   4.769   1.509
 4811SOL    HW215333   2.266   4.704   1.645
 4812SOL     OW15334   6.459   5.107   4.138
 4812SOL    HW115335   6.389   5.136   4.204
 4812SOL    HW215336   6.424   5.118   4.045
 4813SOL     OW15337   4.945   1.717   0.703
 4813SOL    HW115338   4.879   1.669   0.761
 4813SOL    HW215339   4.907   1.728   0.611
 4814SOL     OW15340   5.938   3.656   0.178
 4814SOL    HW115341   5.889   3.722   0.235
 4814SOL    HW215342   5.933   3.684   0.082
 4815SOL     OW15343   5.479   4.666   2.941
 4815SOL    HW115344   5.548   4.640   2.873
 4815SOL    HW215345   5.525   4.703   3.022
 4816SOL     OW15346   1.202   5.594   1.185
 4816SOL    HW115347   1.107   5.586   1.156
 4816SOL    HW215348   1.240   5.503   1.201
 4817SOL     OW15349   0.364   2.179   6.991
 4817SOL    HW115350   0.440   2.171   6.926
 4817SOL    HW215351   0.277   2.169   6.943
 4818SOL     OW15352   1.440   0.374   5.256
 4818SOL    HW115353   1.474   0.335   5.341
 4818SOL    HW215354   1.431   0.473   5.266
 4819SOL     OW15355   1.039   2.064   0.678
 4819SOL    HW115356   1.054   2.021   0.589
 4819SOL    HW215357   1.113   2.039   0.740
 4820SOL     OW15358   6.088   2.971   1.272
 4820SOL    HW115359   6.044   2.998   1.358
 4820SOL    HW215360   6.165   2.911   1.292
 4821SOL     OW15361   0.949   5.876   2.655
 4821SOL    HW115362   0.875   5.892   2.589
 4821SOL    HW215363   0.930   5.927   2.739
 4822SOL     OW15364   2.097   2.261   4.545
 4822SOL    HW115365   2.054   2.312   4.470
 4822SOL    HW215366   2.188   2.232   4.518
 4823SOL     OW15367   2.164   1.227   4.186
 4823SOL    HW115368   2.115   1.140   4.174
 4823SOL    HW215369   2.121   1.297   4.129
 4824SOL     OW15370   4.961   3.125   5.267
 4824SOL    HW115371   5.057   3.131   5.240
 4824SOL    HW215372   4.953   3.071   5.350
 4825SOL     OW15373   1.443   2.815   4.731
 4825SOL    HW115374   1.475   2.906   4.758
 4825SOL    HW215375   1.446   2.754   4.810
 4826SOL     OW15376   5.559   0.814   0.389
 4826SOL    HW115377   5.569   0.866   0.474
 4826SOL    HW215378   5.477   0.844   0.341
 4827SOL     OW15379   6.258   1.516   0.722
 4827SOL    HW115380   6.250   1.418   0.739
 4827SOL    HW215381   6.263   1.565   0.809
 4828SOL     OW15382   4.857   1.997   0.707
 4828SOL    HW115383   4.766   1.995   0.665
 4828SOL    HW215384   4.900   1.907   0.697
 4829SOL     OW15385   4.074   0.354   5.060
 4829SOL    HW115386   3.992   0.411   5.064
 4829SOL    HW215387   4.054   0.265   5.100
 4830SOL     OW15388   3.805   6.118   4.921
 4830SOL    HW115389   3.773   6.060   4.996
 4830SOL    HW215390   3.894   6.087   4.890
 4831SOL     OW15391   0.880   4.584   6.044
 4831SOL    HW115392   0.907   4.491   6.018
 4831SOL    HW215393   0.876   4.642   5.963
 4832SOL     OW15394   3.676   4.153   3.546
 4832SOL    HW115395   3.708   4.237   3.591
 4832SOL    HW215396   3.729   4.076   3.581
 4833SOL     OW15397   6.150   1.273   2.938
 4833SOL    HW115398   6.122   1.357   2.892
 4833SOL    HW215399   6.241   1.246   2.907
 4834SOL     OW15400   2.863   6.203   1.708
 4834SOL    HW115401   2.908   6.114   1.708
 4834SOL    HW215402   2.877   6.247   1.797
 4835SOL     OW15403   5.701   2.184   6.574
 4835SOL    HW115404   5.657   2.134   6.499
 4835SOL    HW215405   5.690   2.282   6.560
 4836SOL     OW15406   5.320   2.302   4.807
 4836SOL    HW115407   5.411   2.298   4.766
 4836SOL    HW215408   5.284   2.209   4.819
 4837SOL     OW15409   7.015   3.857   2.804
 4837SOL    HW115410   6.924   3.884   2.834
 4837SOL    HW215411   0.034   3.932   2.753
 4838SOL     OW15412   2.098   5.709   0.003
 4838SOL    HW115413   2.012   5.661   7.012
 4838SOL    HW215414   2.129   5.696   0.098
 4839SOL     OW15415   0.935   3.859   0.425
 4839SOL    HW115416   0.858   3.904   0.380
 4839SOL    HW215417   0.907   3.768   0.455
 4840SOL     OW15418   6.537   4.734   6.353
 4840SOL    HW115419   6.533   4.713   6.255
 4840SOL    HW215420   6.447   4.723   6.394
 4841SOL     OW15421   2.820   5.130   2.896
 4841SOL    HW115422   2.770   5.091   2.973
 4841SOL    HW215423   2.758   5.182   2.839
 4842SOL     OW15424   3.430   4.937   3.059
 4842SOL    HW115425   3.343   4.917   3.105
 4842SOL    HW215426   3.413   4.951   2.962
 4843SOL     OW15427   6.096   2.671   1.085
 4843SOL    HW115428   6.052   2.582   1.092
 4843SOL    HW215429   6.142   2.693   1.171
 4844SOL     OW15430   0.216   3.298   6.100
 4844SOL    HW115431   0.315   3.296   6.108
 4844SOL    HW215432   0.175   3.304   6.191
 4845SOL     OW15433   5.370   4.746   6.682
 4845SOL    HW115434   5.354   4.844   6.669
 4845SOL    HW215435   5.449   4.718   6.628
 4846SOL     OW15436   0.201   2.482   3.952
 4846SOL    HW115437   0.124   2.521   3.902
 4846SOL    HW215438   0.277   2.466   3.889
 4847SOL     OW15439   2.453   0.968   6.308
 4847SOL    HW115440   2.370   0.923   6.275
 4847SOL    HW215441   2.428   1.050   6.360
 4848SOL     OW15442   2.313   0.792   4.860
 4848SOL    HW115443   2.390   0.759   4.806
 4848SOL    HW215444   2.329   0.887   4.887
 4849SOL     OW15445   1.627   5.718   0.902
 4849SOL    HW115446   1.576   5.708   0.987
 4849SOL    HW215447   1.683   5.636   0.886
 4850SOL     OW15448   4.449   1.215   1.600
 4850SOL    HW115449   4.352   1.199   1.586
 4850SOL    HW215450   4.476   1.184   1.691
 4851SOL     OW15451   3.099   6.306   5.631
 4851SOL    HW115452   3.156   6.228   5.657
 4851SOL    HW215453   3.154   6.390   5.633
 4852SOL     OW15454   1.927   5.843   4.739
 4852SOL    HW115455   1.853   5.910   4.740
 4852SOL    HW215456   1.907   5.772   4.672
 4853SOL     OW15457   3.905   1.172   3.897
 4853SOL    HW115458   3.830   1.166   3.962
 4853SOL    HW215459   3.959   1.254   3.915
 4854SOL     OW15460   4.327   6.689   2.211
 4854SOL    HW115461   4.390   6.733   2.274
 4854SOL    HW215462   4.285   6.609   2.255
 4855SOL     OW15463   5.955   2.244   4.987
 4855SOL    HW115464   6.012   2.181   5.039
 4855SOL    HW215465   5.920   2.315   5.048
 4856SOL     OW15466   1.815   3.412   3.070
 4856SOL    HW115467   1.834   3.314   3.078
 4856SOL    HW215468   1.894   3.464   3.099
 4857SOL     OW15469   2.949   2.173   3.401
 4857SOL    HW115470   2.979   2.164   3.496
 4857SOL    HW215471   2.910   2.264   3.387
 4858SOL     OW15472   6.925   6.487   4.972
 4858SOL    HW115473   6.993   6.467   4.902
 4858SOL    HW215474   6.873   6.404   4.992
 4859SOL     OW15475   0.583   5.073   2.744
 4859SOL    HW115476   0.490   5.109   2.745
 4859SOL    HW215477   0.591   5.001   2.676
 4860SOL     OW15478   4.167   3.987   0.282
 4860SOL    HW115479   4.103   3.975   0.207
 4860SOL    HW215480   4.256   3.950   0.257
 4861SOL     OW15481   5.828   5.369   6.775
 4861SOL    HW115482   5.747   5.412   6.815
 4861SOL    HW215483   5.834   5.274   6.804
 4862SOL     OW15484   2.166   4.619   5.148
 4862SOL    HW115485   2.130   4.677   5.221
 4862SOL    HW215486   2.224   4.674   5.088
 4863SOL     OW15487   5.318   3.147   2.164
 4863SOL    HW115488   5.397   3.090   2.141
 4863SOL    HW215489   5.242   3.126   2.102
 4864SOL     OW15490   2.747   1.148   1.911
 4864SOL    HW115491   2.815   1.214   1.944
 4864SOL    HW215492   2.772   1.056   1.943
 4865SOL     OW15493   1.792   6.069   4.715
 4865SOL    HW115494   1.781   6.116   4.803
 4865SOL    HW215495   1.845   6.126   4.653
 4866SOL     OW15496   5.756   4.958   1.425
 4866SOL    HW115497   5.718   4.923   1.339
 4866SOL    HW215498   5.746   4.890   1.497
 4867SOL     OW15499   5.085   5.497   3.020
 4867SOL    HW115500   5.184   5.505   3.023
 4867SOL    HW215501   5.059   5.425   2.956
 4868SOL     OW15502   0.267   5.542   1.846
 4868SOL    HW115503   0.223   5.462   1.804
 4868SOL    HW215504   0.366   5.532   1.839
 4869SOL     OW15505   0.567   2.162   1.640
 4869SOL    HW115506   0.475   2.198   1.628
 4869SOL    HW215507   0.581   2.086   1.578
 4870SOL     OW15508   6.069   5.590   1.850
 4870SOL    HW115509   6.058   5.508   1.794
 4870SOL    HW215510   6.064   5.671   1.792
 4871SOL     OW15511   0.340   1.550   4.982
 4871SOL    HW115512   0.401   1.629   4.983
 4871SOL    HW215513   0.271   1.560   5.053
 4872SOL     OW15514   0.477   6.231   4.271
 4872SOL    HW115515   0.563   6.266   4.309
 4872SOL    HW215516   0.401   6.286   4.305
 4873SOL     OW15517   6.877   4.585   3.862
 4873SOL    HW115518   6.908   4.572   3.956
 4873SOL    HW215519   6.942   4.643   3.813
 4874SOL     OW15520   6.294   3.952   2.615
 4874SOL    HW115521   6.319   4.043   2.650
 4874SOL    HW215522   6.195   3.941   2.622
 4875SOL     OW15523   4.792   2.400   1.062
 4875SOL    HW115524   4.811   2.349   0.978
 4875SOL    HW215525   4.737   2.344   1.124
 4876SOL     OW15526   6.184   0.890   4.876
 4876SOL    HW115527   6.137   0.970   4.914
 4876SOL    HW215528   6.249   0.855   4.943
 4877SOL     OW15529   6.291   1.597   0.452
 4877SOL    HW115530   6.292   1.571   0.548
 4877SOL    HW215531   6.376   1.643   0.428
 4878SOL     OW15532   6.586   1.457   2.654
 4878SOL    HW115533   6.618   1.362   2.660
 4878SOL    HW215534   6.548   1.473   2.563
 4879SOL     OW15535   4.529   5.175   3.572
 4879SOL    HW115536   4.465   5.116   3.522
 4879SOL    HW215537   4.554   5.252   3.514
 4880SOL     OW15538   6.285   3.420   6.538
 4880SOL    HW115539   6.333   3.389   6.456
 4880SOL    HW215540   6.264   3.341   6.596
 4881SOL     OW15541   2.237   6.804   6.425
 4881SOL    HW115542   2.242   6.767   6.333
 4881SOL    HW215543   2.213   6.731   6.489
 4882SOL     OW15544   5.852   1.310   4.284
 4882SOL    HW115545   5.784   1.297   4.212
 4882SOL    HW215546   5.940   1.335   4.243
 4883SOL     OW15547   5.098   4.853   2.257
 4883SOL    HW115548   5.043   4.858   2.340
 4883SOL    HW215549   5.185   4.901   2.271
 4884SOL     OW15550   4.681   0.223   1.137
 4884SOL    HW115551   4.750   0.225   1.210
 4884SOL    HW215552   4.625   0.306   1.141
 4885SOL     OW15553   2.779   6.238   2.152
 4885SOL    HW115554   2.709   6.204   2.089
 4885SOL    HW215555   2.842   6.164   2.174
 4886SOL     OW15556   6.771   5.463   6.111
 4886SOL    HW115557   6.709   5.516   6.169
 4886SOL    HW215558   6.858   5.450   6.158
 4887SOL     OW15559   6.987   0.937   2.863
 4887SOL    HW115560   0.032   0.964   2.931
 4887SOL    HW215561   7.022   0.955   2.771
 4888SOL     OW15562   1.985   6.812   4.454
 4888SOL    HW115563   1.892   6.845   4.468
 4888SOL    HW215564   2.020   6.775   4.540
 4889SOL     OW15565   6.806   0.746   6.479
 4889SOL    HW115566   6.773   0.834   6.445
 4889SOL    HW215567   6.749   0.672   6.444
 4890SOL     OW15568   0.555   2.081   5.659
 4890SOL    HW115569   0.491   2.006   5.673
 4890SOL    HW215570   0.556   2.106   5.562
 4891SOL     OW15571   1.315   5.913   0.326
 4891SOL    HW115572   1.344   5.817   0.328
 4891SOL    HW215573   1.259   5.933   0.406
 4892SOL     OW15574   2.530   5.936   2.276
 4892SOL    HW115575   2.443   5.919   2.322
 4892SOL    HW215576   2.582   5.851   2.270
 4893SOL     OW15577   6.346   4.395   0.396
 4893SOL    HW115578   6.305   4.455   0.327
 4893SOL    HW215579   6.388   4.317   0.351
 4894SOL     OW15580   2.323   1.432   1.699
 4894SOL    HW115581   2.383   1.353   1.714
 4894SOL    HW215582   2.283   1.426   1.608
 4895SOL     OW15583   0.678   5.081   2.001
 4895SOL    HW115584   0.592   5.039   1.972
 4895SOL    HW215585   0.680   5.088   2.101
 4896SOL     OW15586   2.408   5.319   2.696
 4896SOL    HW115587   2.362   5.394   2.648
 4896SOL    HW215588   2.507   5.325   2.680
 4897SOL     OW15589   2.441   5.375   6.075
 4897SOL    HW115590   2.507   5.349   6.004
 4897SOL    HW215591   2.403   5.292   6.117
 4898SOL     OW15592   5.871   1.579   5.116
 4898SOL    HW115593   5.880   1.551   5.021
 4898SOL    HW215594   5.780   1.554   5.149
 4899SOL     OW15595   6.320   4.673   3.434
 4899SOL    HW115596   6.352   4.579   3.423
 4899SOL    HW215597   6.220   4.675   3.435
 4900SOL     OW15598   2.066   6.223   5.741
 4900SOL    HW115599   2.048   6.307   5.792
 4900SOL    HW215600   2.041   6.236   5.645
 4901SOL     OW15601   2.994   0.073   5.019
 4901SOL    HW115602   2.935   0.152   5.038
 4901SOL    HW215603   2.974   0.001   5.086
 4902SOL     OW15604   2.874   2.206   4.917
 4902SOL    HW115605   2.963   2.223   4.960
 4902SOL    HW215606   2.888   2.161   4.829
 4903SOL     OW15607   3.189   6.920   6.356
 4903SOL    HW115608   3.221   6.993   6.417
 4903SOL    HW215609   3.091   6.932   6.339
 4904SOL     OW15610   1.347   0.298   3.652
 4904SOL    HW115611   1.363   0.396   3.640
 4904SOL    HW215612   1.433   0.253   3.680
 4905SOL     OW15613   4.207   1.649   2.381
 4905SOL    HW115614   4.291   1.687   2.420
 4905SOL    HW215615   4.207   1.549   2.392
 4906SOL     OW15616   3.656   0.989   6.611
 4906SOL    HW115617   3.673   0.903   6.564
 4906SOL    HW215618   3.571   1.029   6.578
 4907SOL     OW15619   4.670   6.686   1.556
 4907SOL    HW115620   4.632   6.741   1.482
 4907SOL    HW215621   4.658   6.733   1.643
 4908SOL     OW15622   4.826   4.947   6.567
 4908SOL    HW115623   4.755   4.877   6.580
 4908SOL    HW215624   4.791   5.035   6.600
 4909SOL     OW15625   6.314   0.350   5.649
 4909SOL    HW115626   6.355   0.424   5.703
 4909SOL    HW215627   6.243   0.305   5.703
 4910SOL     OW15628   5.911   6.885   4.531
 4910SOL    HW115629   5.917   6.785   4.526
 4910SOL    HW215630   5.998   6.921   4.565
 4911SOL     OW15631   6.736   2.460   5.982
 4911SOL    HW115632   6.695   2.393   5.920
 4911SOL    HW215633   6.802   2.516   5.932
 4912SOL     OW15634   5.744   2.095   1.569
 4912SOL    HW115635   5.752   2.055   1.660
 4912SOL    HW215636   5.651   2.079   1.534
 4913SOL     OW15637   3.799   3.631   3.622
 4913SOL    HW115638   3.754   3.708   3.667
 4913SOL    HW215639   3.768   3.627   3.527
 4914SOL     OW15640   3.513   0.212   4.622
 4914SOL    HW115641   3.469   0.171   4.702
 4914SOL    HW215642   3.610   0.189   4.623
 4915SOL     OW15643   4.657   0.537   4.576
 4915SOL    HW115644   4.682   0.559   4.482
 4915SOL    HW215645   4.726   0.575   4.638
 4916SOL     OW15646   2.147   1.140   3.084
 4916SOL    HW115647   2.126   1.121   2.988
 4916SOL    HW215648   2.242   1.169   3.092
 4917SOL     OW15649   1.481   4.679   0.675
 4917SOL    HW115650   1.400   4.698   0.732
 4917SOL    HW215651   1.563   4.679   0.732
 4918SOL     OW15652   3.217   0.157   2.840
 4918SOL    HW115653   3.218   0.169   2.939
 4918SOL    HW215654   3.283   0.219   2.798
 4919SOL     OW15655   2.024   1.926   1.171
 4919SOL    HW115656   2.120   1.923   1.143
 4919SOL    HW215657   1.998   2.021   1.189
 4920SOL     OW15658   4.426   0.355   6.294
 4920SOL    HW115659   4.512   0.304   6.286
 4920SOL    HW215660   4.445   0.453   6.296
 4921SOL     OW15661   1.752   4.143   1.153
 4921SOL    HW115662   1.711   4.230   1.124
 4921SOL    HW215663   1.750   4.078   1.078
 4922SOL     OW15664   1.623   3.558   4.925
 4922SOL    HW115665   1.535   3.532   4.963
 4922SOL    HW215666   1.654   3.643   4.967
 4923SOL     OW15667   3.994   1.365   1.395
 4923SOL    HW115668   4.024   1.456   1.425
 4923SOL    HW215669   3.955   1.372   1.303
 4924SOL     OW15670   2.163   2.561   6.159
 4924SOL    HW115671   2.092   2.571   6.089
 4924SOL    HW215672   2.149   2.628   6.232
 4925SOL     OW15673   6.148   6.492   0.790
 4925SOL    HW115674   6.094   6.426   0.842
 4925SOL    HW215675   6.222   6.526   0.847
 4926SOL     OW15676   4.624   2.285   1.222
 4926SOL    HW115677   4.635   2.263   1.318
 4926SOL    HW215678   4.529   2.272   1.195
 4927SOL     OW15679   3.949   3.982   4.210
 4927SOL    HW115680   3.955   3.896   4.262
 4927SOL    HW215681   3.878   4.039   4.249
 4928SOL     OW15682   0.069   6.982   6.412
 4928SOL    HW115683   0.125   6.906   6.443
 4928SOL    HW215684   0.105   0.044   6.450
 4929SOL     OW15685   1.281   4.372   5.006
 4929SOL    HW115686   1.373   4.339   4.986
 4929SOL    HW215687   1.266   4.372   5.104
 4930SOL     OW15688   6.531   0.400   1.858
 4930SOL    HW115689   6.582   0.413   1.773
 4930SOL    HW215690   6.528   0.486   1.909
 4931SOL     OW15691   0.252   6.803   0.736
 4931SOL    HW115692   0.290   6.739   0.669
 4931SOL    HW215693   0.153   6.799   0.733
 4932SOL     OW15694   2.108   3.337   1.764
 4932SOL    HW115695   2.189   3.359   1.818
 4932SOL    HW215696   2.033   3.311   1.826
 4933SOL     OW15697   2.802   6.871   4.422
 4933SOL    HW115698   2.864   6.945   4.447
 4933SOL    HW215699   2.838   6.784   4.455
 4934SOL     OW15700   1.619   5.023   2.653
 4934SOL    HW115701   1.558   4.949   2.680
 4934SOL    HW215702   1.577   5.111   2.677
 4935SOL     OW15703   0.838   1.636   7.019
 4935SOL    HW115704   0.777   1.557   7.014
 4935SOL    HW215705   0.793   1.709   0.048
 4936SOL     OW15706   2.264   5.170   2.363
 4936SOL    HW115707   2.363   5.184   2.356
 4936SOL    HW215708   2.218   5.259   2.370
 4937SOL     OW15709   0.121   3.013   6.170
 4937SOL    HW115710   0.119   2.952   6.249
 4937SOL    HW215711   0.031   3.056   6.160
 4938SOL     OW15712   3.118   5.128   1.368
 4938SOL    HW115713   3.158   5.037   1.380
 4938SOL    HW215714   3.071   5.132   1.280
 4939SOL     OW15715   1.062   1.861   3.626
 4939SOL    HW115716   1.047   1.875   3.528
 4939SOL    HW215717   1.065   1.763   3.645
 4940SOL     OW15718   0.800   1.648   5.993
 4940SOL    HW115719   0.746   1.649   5.908
 4940SOL    HW215720   0.897   1.642   5.970
 4941SOL     OW15721   4.222   2.636   5.399
 4941SOL    HW115722   4.137   2.650   5.450
 4941SOL    HW215723   4.208   2.564   5.331
 4942SOL     OW15724   5.574   3.543   4.815
 4942SOL    HW115725   5.545   3.623   4.763
 4942SOL    HW215726   5.518   3.535   4.898
 4943SOL     OW15727   5.037   3.979   5.649
 4943SOL    HW115728   5.121   3.942   5.688
 4943SOL    HW215729   4.988   3.907   5.600
 4944SOL     OW15730   2.487   4.315   1.785
 4944SOL    HW115731   2.445   4.252   1.719
 4944SOL    HW215732   2.582   4.330   1.760
 4945SOL     OW15733   1.211   6.861   5.275
 4945SOL    HW115734   1.146   6.880   5.349
 4945SOL    HW215735   1.204   6.933   5.206
 4946SOL     OW15736   0.574   5.117   6.902
 4946SOL    HW115737   0.589   5.120   7.001
 4946SOL    HW215738   0.650   5.161   6.855
 4947SOL     OW15739   2.546   0.656   1.100
 4947SOL    HW115740   2.603   0.594   1.045
 4947SOL    HW215741   2.570   0.750   1.080
 4948SOL     OW15742   2.319   2.768   2.781
 4948SOL    HW115743   2.313   2.693   2.847
 4948SOL    HW215744   2.320   2.731   2.688
 4949SOL     OW15745   6.843   4.218   4.928
 4949SOL    HW115746   6.926   4.214   4.984
 4949SOL    HW215747   6.763   4.220   4.987
 4950SOL     OW15748   1.918   4.009   5.595
 4950SOL    HW115749   1.926   3.914   5.626
 4950SOL    HW215750   1.934   4.013   5.497
 4951SOL     OW15751   6.470   0.565   4.425
 4951SOL    HW115752   6.438   0.531   4.514
 4951SOL    HW215753   6.391   0.595   4.371
 4952SOL     OW15754   0.407   6.655   5.981
 4952SOL    HW115755   0.423   6.737   6.036
 4952SOL    HW215756   0.356   6.588   6.035
 4953SOL     OW15757   1.356   6.651   3.288
 4953SOL    HW115758   1.257   6.669   3.285
 4953SOL    HW215759   1.396   6.702   3.364
 4954SOL     OW15760   3.249   3.437   0.040
 4954SOL    HW115761   3.211   3.346   0.021
 4954SOL    HW215762   3.241   3.494   6.982
 4955SOL     OW15763   2.726   6.778   0.142
 4955SOL    HW115764   2.805   6.748   0.197
 4955SOL    HW215765   2.731   6.877   0.129
 4956SOL     OW15766   3.154   0.375   4.918
 4956SOL    HW115767   3.188   0.374   4.824
 4956SOL    HW215768   3.057   0.352   4.919
 4957SOL     OW15769   5.512   2.616   1.229
 4957SOL    HW115770   5.512   2.716   1.238
 4957SOL    HW215771   5.418   2.584   1.216
 4958SOL     OW15772   0.998   5.574   6.235
 4958SOL    HW115773   0.986   5.670   6.260
 4958SOL    HW215774   1.090   5.560   6.197
 4959SOL     OW15775   5.752   1.633   0.687
 4959SOL    HW115776   5.693   1.565   0.643
 4959SOL    HW215777   5.818   1.668   0.621
 4960SOL     OW15778   4.303   4.722   4.276
 4960SOL    HW115779   4.241   4.762   4.208
 4960SOL    HW215780   4.254   4.711   4.363
 4961SOL     OW15781   3.197   0.842   6.057
 4961SOL    HW115782   3.228   0.888   5.974
 4961SOL    HW215783   3.163   0.910   6.122
 4962SOL     OW15784   5.687   2.835   0.270
 4962SOL    HW115785   5.605   2.779   0.280
 4962SOL    HW215786   5.698   2.862   0.174
 4963SOL     OW15787   0.586   5.854   0.617
 4963SOL    HW115788   0.582   5.785   0.545
 4963SOL    HW215789   0.661   5.917   0.599
 4964SOL     OW15790   2.233   0.266   4.571
 4964SOL    HW115791   2.174   0.214   4.510
 4964SOL    HW215792   2.309   0.209   4.602
 4965SOL     OW15793   0.449   6.929   1.962
 4965SOL    HW115794   0.372   6.898   1.905
 4965SOL    HW215795   0.534   6.893   1.924
 4966SOL     OW15796   3.076   0.094   4.779
 4966SOL    HW115797   3.049   0.074   4.873
 4966SOL    HW215798   3.176   0.101   4.774
 4967SOL     OW15799   3.356   4.841   6.028
 4967SOL    HW115800   3.258   4.831   6.044
 4967SOL    HW215801   3.374   4.843   5.930
 4968SOL     OW15802   0.361   1.200   2.907
 4968SOL    HW115803   0.404   1.262   2.973
 4968SOL    HW215804   0.332   1.117   2.954
 4969SOL     OW15805   2.155   6.108   2.643
 4969SOL    HW115806   2.183   6.197   2.681
 4969SOL    HW215807   2.136   6.045   2.717
 4970SOL     OW15808   2.325   1.851   1.275
 4970SOL    HW115809   2.394   1.785   1.246
 4970SOL    HW215810   2.321   1.856   1.374
 4971SOL     OW15811   6.144   5.600   2.821
 4971SOL    HW115812   6.054   5.559   2.806
 4971SOL    HW215813   6.133   5.693   2.858
 4972SOL     OW15814   0.510   3.795   0.987
 4972SOL    HW115815   0.575   3.870   0.975
 4972SOL    HW215816   0.477   3.765   0.897
 4973SOL     OW15817   1.268   6.773   1.757
 4973SOL    HW115818   1.250   6.847   1.693
 4973SOL    HW215819   1.334   6.804   1.826
 4974SOL     OW15820   5.827   5.037   0.619
 4974SOL    HW115821   5.784   5.111   0.671
 4974SOL    HW215822   5.821   4.952   0.671
 4975SOL     OW15823   5.988   4.023   6.319
 4975SOL    HW115824   6.048   3.956   6.274
 4975SOL    HW215825   6.022   4.041   6.411
 4976SOL     OW15826   2.039   1.962   4.074
 4976SOL    HW115827   2.099   1.913   4.011
 4976SOL    HW215828   2.025   1.907   4.156
 4977SOL     OW15829   4.429   5.131   0.352
 4977SOL    HW115830   4.436   5.121   0.253
 4977SOL    HW215831   4.496   5.197   0.384
 4978SOL     OW15832   5.877   4.514   5.152
 4978SOL    HW115833   5.876   4.508   5.052
 4978SOL    HW215834   5.920   4.431   5.190
 4979SOL     OW15835   6.647   6.889   5.961
 4979SOL    HW115836   6.636   6.977   6.008
 4979SOL    HW215837   6.732   6.846   5.989
 4980SOL     OW15838   5.228   5.367   3.797
 4980SOL    HW115839   5.247   5.362   3.895
 4980SOL    HW215840   5.212   5.274   3.762
 4981SOL     OW15841   3.879   5.151   0.989
 4981SOL    HW115842   3.892   5.098   0.905
 4981SOL    HW215843   3.914   5.244   0.975
 4982SOL     OW15844   3.396   1.913   6.012
 4982SOL    HW115845   3.362   2.007   6.008
 4982SOL    HW215846   3.346   1.862   6.082
 4983SOL     OW15847   5.986   3.784   6.082
 4983SOL    HW115848   6.063   3.802   6.143
 4983SOL    HW215849   6.019   3.762   5.991
 4984SOL     OW15850   5.626   3.679   2.839
 4984SOL    HW115851   5.690   3.638   2.905
 4984SOL    HW215852   5.536   3.687   2.881
 4985SOL     OW15853   6.145   6.824   3.324
 4985SOL    HW115854   6.072   6.888   3.300
 4985SOL    HW215855   6.222   6.874   3.363
 4986SOL     OW15856   6.836   4.925   0.335
 4986SOL    HW115857   6.902   4.874   0.391
 4986SOL    HW215858   6.744   4.914   0.374
 4987SOL     OW15859   0.482   6.435   2.716
 4987SOL    HW115860   0.579   6.433   2.690
 4987SOL    HW215861   0.454   6.345   2.749
 4988SOL     OW15862   5.355   0.998   2.155
 4988SOL    HW115863   5.301   0.921   2.190
 4988SOL    HW215864   5.430   0.963   2.098
 4989SOL     OW15865   5.448   6.409   1.147
 4989SOL    HW115866   5.489   6.351   1.076
 4989SOL    HW215867   5.518   6.433   1.214
 4990SOL     OW15868   2.765   1.635   5.993
 4990SOL    HW115869   2.667   1.620   5.980
 4990SOL    HW215870   2.783   1.734   5.996
 4991SOL     OW15871   6.381   5.684   4.302
 4991SOL    HW115872   6.310   5.678   4.372
 4991SOL    HW215873   6.349   5.640   4.218
 4992SOL     OW15874   5.046   0.189   2.216
 4992SOL    HW115875   5.086   0.177   2.307
 4992SOL    HW215876   5.011   0.282   2.207
 4993SOL     OW15877   3.358   6.284   5.212
 4993SOL    HW115878   3.287   6.301   5.143
 4993SOL    HW215879   3.428   6.224   5.174
 4994SOL     OW15880   1.725   6.886   4.471
 4994SOL    HW115881   1.720   6.980   4.503
 4994SOL    HW215882   1.646   6.835   4.505
 4995SOL     OW15883   1.170   2.026   5.087
 4995SOL    HW115884   1.185   1.967   5.166
 4995SOL    HW215885   1.096   1.989   5.031
 4996SOL     OW15886   0.047   1.816   3.509
 4996SOL    HW115887   0.139   1.850   3.527
 4996SOL    HW215888   7.019   1.884   3.456
 4997SOL     OW15889   4.364   2.379   2.352
 4997SOL    HW115890   4.305   2.375   2.433
 4997SOL    HW215891   4.418   2.463   2.355
 4998SOL     OW15892   2.172   3.193   4.785
 4998SOL    HW115893   2.142   3.280   4.824
 4998SOL    HW215894   2.213   3.137   4.856
 4999SOL     OW15895   6.567   3.442   5.214
 4999SOL    HW115896   6.543   3.508   5.143
 4999SOL    HW215897   6.622   3.487   5.284
 5000SOL     OW15898   3.378   0.328   3.036
 5000SOL    HW115899   3.393   0.337   2.937
 5000SOL    HW215900   3.432   0.253   3.072
 5001SOL     OW15901   1.610   5.006   1.895
 5001SOL    HW115902   1.689   5.002   1.834
 5001SOL    HW215903   1.640   5.036   1.986
 5002SOL     OW15904   1.201   3.601   2.202
 5002SOL    HW115905   1.116   3.627   2.155
 5002SOL    HW215906   1.220   3.668   2.275
 5003SOL     OW15907   3.682   5.594   2.907
 5003SOL    HW115908   3.652   5.548   2.824
 5003SOL    HW215909   3.605   5.604   2.969
 5004SOL     OW15910   2.619   4.989   5.051
 5004SOL    HW115911   2.639   5.085   5.070
 5004SOL    HW215912   2.571   4.948   5.129
 5005SOL     OW15913   3.307   2.944   0.250
 5005SOL    HW115914   3.339   2.981   0.163
 5005SOL    HW215915   3.384   2.937   0.314
 5006SOL     OW15916   5.275   0.583   1.913
 5006SOL    HW115917   5.209   0.627   1.852
 5006SOL    HW215918   5.228   0.554   1.996
 5007SOL     OW15919   0.603   6.648   1.054
 5007SOL    HW115920   0.612   6.687   0.962
 5007SOL    HW215921   0.688   6.604   1.080
 5008SOL     OW15922   5.162   6.404   1.601
 5008SOL    HW115923   5.176   6.427   1.697
 5008SOL    HW215924   5.250   6.387   1.558
 5009SOL     OW15925   0.136   1.966   0.729
 5009SOL    HW115926   0.173   1.874   0.720
 5009SOL    HW215927   0.132   2.009   0.638
 5010SOL     OW15928   4.245   3.064   1.444
 5010SOL    HW115929   4.181   3.115   1.501
 5010SOL    HW215930   4.335   3.107   1.448
 5011SOL     OW15931   1.688   4.755   2.198
 5011SOL    HW115932   1.606   4.746   2.141
 5011SOL    HW215933   1.676   4.831   2.261
 5012SOL     OW15934   5.496   3.431   5.504
 5012SOL    HW115935   5.558   3.503   5.536
 5012SOL    HW215936   5.526   3.343   5.539
 5013SOL     OW15937   5.451   1.750   6.793
 5013SOL    HW115938   5.509   1.669   6.792
 5013SOL    HW215939   5.481   1.813   6.864
 5014SOL     OW15940   5.743   4.610   1.199
 5014SOL    HW115941   5.835   4.620   1.162
 5014SOL    HW215942   5.705   4.700   1.220
 5015SOL     OW15943   5.059   1.784   4.729
 5015SOL    HW115944   5.090   1.755   4.820
 5015SOL    HW215945   5.110   1.734   4.659
 5016SOL     OW15946   2.092   2.849   5.813
 5016SOL    HW115947   1.993   2.835   5.817
 5016SOL    HW215948   2.124   2.886   5.900
 5017SOL     OW15949   2.576   2.509   1.406
 5017SOL    HW115950   2.562   2.531   1.310
 5017SOL    HW215951   2.604   2.414   1.415
 5018SOL     OW15952   1.292   4.671   3.048
 5018SOL    HW115953   1.320   4.630   2.961
 5018SOL    HW215954   1.210   4.727   3.035
 5019SOL     OW15955   1.305   5.472   5.829
 5019SOL    HW115956   1.373   5.404   5.803
 5019SOL    HW215957   1.349   5.561   5.837
 5020SOL     OW15958   5.167   6.973   7.002
 5020SOL    HW115959   5.230   0.007   6.950
 5020SOL    HW215960   5.195   6.877   6.995
 5021SOL     OW15961   0.695   1.375   0.145
 5021SOL    HW115962   0.717   1.293   0.197
 5021SOL    HW215963   0.606   1.410   0.173
 5022SOL     OW15964   1.675   1.690   1.266
 5022SOL    HW115965   1.649   1.785   1.248
 5022SOL    HW215966   1.735   1.657   1.193
 5023SOL     OW15967   0.016   3.285   1.844
 5023SOL    HW115968   0.069   3.201   1.859
 5023SOL    HW215969   0.024   3.344   1.924
 5024SOL     OW15970   5.826   5.163   1.626
 5024SOL    HW115971   5.788   5.088   1.572
 5024SOL    HW215972   5.753   5.230   1.644
 5025SOL     OW15973   4.122   1.513   3.014
 5025SOL    HW115974   4.099   1.477   3.105
 5025SOL    HW215975   4.186   1.590   3.024
 5026SOL     OW15976   6.013   5.949   5.144
 5026SOL    HW115977   6.087   5.909   5.198
 5026SOL    HW215978   6.017   6.048   5.151
 5027SOL     OW15979   0.057   6.316   1.846
 5027SOL    HW115980   0.078   6.385   1.916
 5027SOL    HW215981   7.018   6.248   1.884
 5028SOL     OW15982   0.333   2.318   2.332
 5028SOL    HW115983   0.387   2.239   2.358
 5028SOL    HW215984   0.236   2.293   2.330
 5029SOL     OW15985   6.628   2.213   2.386
 5029SOL    HW115986   6.650   2.305   2.354
 5029SOL    HW215987   6.710   2.169   2.422
 5030SOL     OW15988   0.031   6.141   6.588
 5030SOL    HW115989   0.034   6.052   6.633
 5030SOL    HW215990   0.048   6.213   6.656
 5031SOL     OW15991   6.609   0.821   5.885
 5031SOL    HW115992   6.697   0.828   5.838
 5031SOL    HW215993   6.556   0.905   5.870
 5032SOL     OW15994   1.835   2.384   6.741
 5032SOL    HW115995   1.774   2.371   6.820
 5032SOL    HW215996   1.909   2.446   6.766
 5033SOL     OW15997   2.437   6.857   5.635
 5033SOL    HW115998   2.476   6.934   5.686
 5033SOL    HW215999   2.505   6.784   5.627
 5034SOL     OW16000   5.992   0.297   3.513
 5034SOL    HW116001   6.070   0.239   3.539
 5034SOL    HW216002   5.978   0.367   3.583
 5035SOL     OW16003   0.669   3.762   6.174
 5035SOL    HW116004   0.737   3.734   6.106
 5035SOL    HW216005   0.591   3.700   6.170
 5036SOL     OW16006   0.531   4.794   0.016
 5036SOL    HW116007   0.530   4.796   6.939
 5036SOL    HW216008   0.579   4.874   0.051
 5037SOL     OW16009   5.852   3.991   1.743
 5037SOL    HW116010   5.807   4.033   1.664
 5037SOL    HW216011   5.792   3.921   1.782
 5038SOL     OW16012   3.425   4.063   5.754
 5038SOL    HW116013   3.440   3.968   5.726
 5038SOL    HW216014   3.498   4.091   5.816
 5039SOL     OW16015   2.717   4.709   6.110
 5039SOL    HW116016   2.748   4.693   6.204
 5039SOL    HW216017   2.653   4.637   6.083
 5040SOL     OW16018   1.632   6.418   5.597
 5040SOL    HW116019   1.662   6.361   5.673
 5040SOL    HW216020   1.568   6.488   5.630
 5041SOL     OW16021   1.723   1.823   2.731
 5041SOL    HW116022   1.754   1.890   2.798
 5041SOL    HW216023   1.669   1.752   2.776
 5042SOL     OW16024   6.311   3.001   0.180
 5042SOL    HW116025   6.360   3.055   0.249
 5042SOL    HW216026   6.272   2.920   0.223
 5043SOL     OW16027   3.095   0.159   6.047
 5043SOL    HW116028   3.133   0.164   5.955
 5043SOL    HW216029   3.164   0.187   6.113
 5044SOL     OW16030   0.577   6.630   6.881
 5044SOL    HW116031   0.545   6.683   6.960
 5044SOL    HW216032   0.642   6.561   6.912
 5045SOL     OW16033   5.492   0.363   6.215
 5045SOL    HW116034   5.512   0.363   6.313
 5045SOL    HW216035   5.474   0.269   6.185
 5046SOL     OW16036   3.575   4.111   2.861
 5046SOL    HW116037   3.659   4.068   2.895
 5046SOL    HW216038   3.528   4.157   2.936
 5047SOL     OW16039   1.168   4.243   2.713
 5047SOL    HW116040   1.130   4.208   2.798
 5047SOL    HW216041   1.178   4.343   2.720
 5048SOL     OW16042   0.961   1.641   2.787
 5048SOL    HW116043   0.965   1.546   2.816
 5048SOL    HW216044   0.978   1.646   2.688
 5049SOL     OW16045   5.533   2.048   6.356
 5049SOL    HW116046   5.479   2.131   6.372
 5049SOL    HW216047   5.474   1.968   6.366
 5050SOL     OW16048   2.168   0.872   1.758
 5050SOL    HW116049   2.137   0.901   1.668
 5050SOL    HW216050   2.184   0.952   1.816
 5051SOL     OW16051   4.154   4.431   0.847
 5051SOL    HW116052   4.081   4.461   0.909
 5051SOL    HW216053   4.123   4.350   0.797
 5052SOL     OW16054   2.476   1.108   6.068
 5052SOL    HW116055   2.490   1.206   6.082
 5052SOL    HW216056   2.466   1.062   6.156
 5053SOL     OW16057   2.212   3.901   3.812
 5053SOL    HW116058   2.186   3.863   3.901
 5053SOL    HW216059   2.202   3.831   3.741
 5054SOL     OW16060   3.221   5.468   4.490
 5054SOL    HW116061   3.254   5.555   4.526
 5054SOL    HW216062   3.221   5.400   4.563
 5055SOL     OW16063   1.902   2.246   5.740
 5055SOL    HW116064   1.985   2.300   5.728
 5055SOL    HW216065   1.882   2.237   5.838
 5056SOL     OW16066   5.869   4.342   6.938
 5056SOL    HW116067   5.956   4.387   6.959
 5056SOL    HW216068   5.808   4.348   7.017
 5057SOL     OW16069   6.560   5.944   3.935
 5057SOL    HW116070   6.627   5.870   3.929
 5057SOL    HW216071   6.562   5.997   3.850
 5058SOL     OW16072   2.839   3.099   5.533
 5058SOL    HW116073   2.917   3.044   5.503
 5058SOL    HW216074   2.754   3.050   5.512
 5059SOL     OW16075   6.310   1.132   3.218
 5059SOL    HW116076   6.346   1.056   3.164
 5059SOL    HW216077   6.232   1.101   3.272
 5060SOL     OW16078   0.797   2.112   5.765
 5060SOL    HW116079   0.707   2.094   5.725
 5060SOL    HW216080   0.844   2.182   5.712
 5061SOL     OW16081   4.374   2.666   1.681
 5061SOL    HW116082   4.279   2.635   1.686
 5061SOL    HW216083   4.434   2.586   1.671
 5062SOL     OW16084   5.591   0.812   3.107
 5062SOL    HW116085   5.636   0.723   3.100
 5062SOL    HW216086   5.564   0.843   3.016
 5063SOL     OW16087   0.909   6.870   1.877
 5063SOL    HW116088   0.912   6.840   1.973
 5063SOL    HW216089   0.978   6.821   1.824
 5064SOL     OW16090   4.880   3.837   1.298
 5064SOL    HW116091   4.976   3.864   1.305
 5064SOL    HW216092   4.874   3.741   1.270
 5065SOL     OW16093   2.186   0.579   3.493
 5065SOL    HW116094   2.205   0.504   3.429
 5065SOL    HW216095   2.260   0.586   3.560
 5066SOL     OW16096   4.867   5.055   2.203
 5066SOL    HW116097   4.804   4.992   2.249
 5066SOL    HW216098   4.899   5.123   2.269
 5067SOL     OW16099   4.944   0.970   1.709
 5067SOL    HW116100   5.009   0.984   1.635
 5067SOL    HW216101   4.856   0.941   1.670
 5068SOL     OW16102   3.579   4.509   1.067
 5068SOL    HW116103   3.521   4.433   1.036
 5068SOL    HW216104   3.639   4.538   0.993
 5069SOL     OW16105   1.908   3.741   5.644
 5069SOL    HW116106   1.830   3.728   5.706
 5069SOL    HW216107   1.918   3.659   5.587
 5070SOL     OW16108   4.815   4.302   4.125
 5070SOL    HW116109   4.754   4.273   4.200
 5070SOL    HW216110   4.894   4.240   4.121
 5071SOL     OW16111   4.203   2.212   3.506
 5071SOL    HW116112   4.252   2.298   3.521
 5071SOL    HW216113   4.137   2.223   3.432
 5072SOL     OW16114   1.030   0.335   1.212
 5072SOL    HW116115   1.023   0.246   1.258
 5072SOL    HW216116   1.021   0.408   1.279
 5073SOL     OW16117   0.180   5.578   2.268
 5073SOL    HW116118   0.220   5.620   2.350
 5073SOL    HW216119   0.230   5.607   2.187
 5074SOL     OW16120   3.410   2.975   1.296
 5074SOL    HW116121   3.454   3.038   1.359
 5074SOL    HW216122   3.396   2.887   1.342
 5075SOL     OW16123   0.863   2.211   0.033
 5075SOL    HW116124   0.819   2.296   0.061
 5075SOL    HW216125   0.801   2.134   0.048
 5076SOL     OW16126   3.564   1.216   0.916
 5076SOL    HW116127   3.614   1.250   0.996
 5076SOL    HW216128   3.611   1.244   0.833
 5077SOL     OW16129   1.206   4.251   5.304
 5077SOL    HW116130   1.299   4.213   5.306
 5077SOL    HW216131   1.208   4.346   5.335
 5078SOL     OW16132   2.268   1.344   3.601
 5078SOL    HW116133   2.348   1.375   3.550
 5078SOL    HW216134   2.210   1.422   3.624
 5079SOL     OW16135   2.514   3.272   6.013
 5079SOL    HW116136   2.466   3.229   5.937
 5079SOL    HW216137   2.601   3.226   6.028
 5080SOL     OW16138   6.053   6.541   6.204
 5080SOL    HW116139   5.999   6.494   6.272
 5080SOL    HW216140   6.092   6.474   6.140
 5081SOL     OW16141   3.398   2.983   4.474
 5081SOL    HW116142   3.351   2.933   4.547
 5081SOL    HW216143   3.496   2.968   4.481
 5082SOL     OW16144   4.573   5.838   6.569
 5082SOL    HW116145   4.652   5.850   6.628
 5082SOL    HW216146   4.558   5.741   6.551
 5083SOL     OW16147   2.427   7.011   2.956
 5083SOL    HW116148   2.523   6.995   2.978
 5083SOL    HW216149   2.370   6.945   3.005
 5084SOL     OW16150   0.423   4.755   4.728
 5084SOL    HW116151   0.453   4.828   4.788
 5084SOL    HW216152   0.406   4.791   4.636
 5085SOL     OW16153   4.852   3.686   6.374
 5085SOL    HW116154   4.778   3.710   6.438
 5085SOL    HW216155   4.823   3.709   6.281
 5086SOL     OW16156   6.873   5.259   3.470
 5086SOL    HW116157   6.885   5.338   3.530
 5086SOL    HW216158   6.887   5.287   3.375
 5087SOL     OW16159   0.984   4.789   1.870
 5087SOL    HW116160   0.930   4.765   1.950
 5087SOL    HW216161   1.029   4.707   1.834
 5088SOL     OW16162   6.511   1.289   5.249
 5088SOL    HW116163   6.490   1.386   5.238
 5088SOL    HW216164   6.584   1.263   5.185
 5089SOL     OW16165   5.125   3.265   4.429
 5089SOL    HW116166   5.042   3.226   4.389
 5089SOL    HW216167   5.201   3.256   4.364
 5090SOL     OW16168   2.152   3.783   2.984
 5090SOL    HW116169   2.097   3.851   2.934
 5090SOL    HW216170   2.153   3.697   2.933
 5091SOL     OW16171   0.445   6.995   2.260
 5091SOL    HW116172   0.447   6.985   2.160
 5091SOL    HW216173   0.403   6.914   2.301
 5092SOL     OW16174   3.856   3.129   1.369
 5092SOL    HW116175   3.866   3.072   1.451
 5092SOL    HW216176   3.931   3.195   1.366
 5093SOL     OW16177   2.653   1.473   1.340
 5093SOL    HW116178   2.605   1.541   1.285
 5093SOL    HW216179   2.599   1.390   1.346
 5094SOL     OW16180   2.150   6.077   5.423
 5094SOL    HW116181   2.181   6.014   5.352
 5094SOL    HW216182   2.130   6.166   5.381
 5095SOL     OW16183   6.709   2.819   4.800
 5095SOL    HW116184   6.623   2.860   4.832
 5095SOL    HW216185   6.688   2.733   4.753
 5096SOL     OW16186   4.317   4.083   0.777
 5096SOL    HW116187   4.371   4.164   0.753
 5096SOL    HW216188   4.273   4.047   0.695
 5097SOL     OW16189   1.451   0.558   6.784
 5097SOL    HW116190   1.450   0.523   6.690
 5097SOL    HW216191   1.540   0.543   6.825
 5098SOL     OW16192   1.568   0.763   1.736
 5098SOL    HW116193   1.584   0.687   1.800
 5098SOL    HW216194   1.559   0.848   1.787
 5099SOL     OW16195   0.640   6.341   6.910
 5099SOL    HW116196   0.605   6.308   6.822
 5099SOL    HW216197   0.583   6.307   6.984
 5100SOL     OW16198   3.834   5.729   5.406
 5100SOL    HW116199   3.840   5.653   5.342
 5100SOL    HW216200   3.905   5.720   5.476
 5101SOL     OW16201   4.560   6.648   0.395
 5101SOL    HW116202   4.582   6.746   0.390
 5101SOL    HW216203   4.591   6.611   0.482
 5102SOL     OW16204   5.769   0.674   4.528
 5102SOL    HW116205   5.707   0.627   4.465
 5102SOL    HW216206   5.844   0.612   4.553
 5103SOL     OW16207   0.495   1.349   4.359
 5103SOL    HW116208   0.520   1.438   4.322
 5103SOL    HW216209   0.558   1.325   4.433
 5104SOL     OW16210   1.922   6.697   2.901
 5104SOL    HW116211   1.848   6.664   2.842
 5104SOL    HW216212   1.884   6.735   2.985
 5105SOL     OW16213   3.264   2.296   0.099
 5105SOL    HW116214   3.329   2.365   0.131
 5105SOL    HW216215   3.258   2.299   7.023
 5106SOL     OW16216   3.199   0.904   0.670
 5106SOL    HW116217   3.297   0.922   0.660
 5106SOL    HW216218   3.184   0.805   0.679
 5107SOL     OW16219   3.718   0.841   0.794
 5107SOL    HW116220   3.647   0.773   0.811
 5107SOL    HW216221   3.784   0.804   0.728
 5108SOL     OW16222   2.936   3.850   4.650
 5108SOL    HW116223   2.960   3.897   4.565
 5108SOL    HW216224   2.900   3.759   4.628
 5109SOL     OW16225   1.289   0.942   0.640
 5109SOL    HW116226   1.248   0.859   0.678
 5109SOL    HW216227   1.231   1.021   0.661
 5110SOL     OW16228   0.526   0.452   6.410
 5110SOL    HW116229   0.520   0.520   6.336
 5110SOL    HW216230   0.502   0.362   6.374
 5111SOL     OW16231   2.443   1.347   5.386
 5111SOL    HW116232   2.431   1.401   5.303
 5111SOL    HW216233   2.416   1.252   5.368
 5112SOL     OW16234   0.481   6.686   2.610
 5112SOL    HW116235   0.471   6.599   2.658
 5112SOL    HW216236   0.578   6.709   2.604
 5113SOL     OW16237   2.287   6.813   1.788
 5113SOL    HW116238   2.290   6.904   1.747
 5113SOL    HW216239   2.342   6.750   1.734
 5114SOL     OW16240   2.944   2.228   0.369
 5114SOL    HW116241   2.891   2.144   0.371
 5114SOL    HW216242   3.040   2.208   0.346
 5115SOL     OW16243   2.064   4.909   4.676
 5115SOL    HW116244   1.988   4.970   4.698
 5115SOL    HW216245   2.138   4.962   4.634
 5116SOL     OW16246   5.733   6.518   6.589
 5116SOL    HW116247   5.738   6.449   6.662
 5116SOL    HW216248   5.782   6.600   6.617
 5117SOL     OW16249   2.685   4.697   4.546
 5117SOL    HW116250   2.594   4.727   4.573
 5117SOL    HW216251   2.729   4.651   4.623
 5118SOL     OW16252   4.866   0.504   0.566
 5118SOL    HW116253   4.881   0.432   0.498
 5118SOL    HW216254   4.781   0.487   0.615
 5119SOL     OW16255   5.719   0.800   1.631
 5119SOL    HW116256   5.653   0.801   1.556
 5119SOL    HW216257   5.670   0.790   1.718
 5120SOL     OW16258   4.260   1.410   4.055
 5120SOL    HW116259   4.352   1.414   4.017
 5120SOL    HW216260   4.194   1.390   3.982
 5121SOL     OW16261   2.544   2.330   0.410
 5121SOL    HW116262   2.628   2.345   0.462
 5121SOL    HW216263   2.466   2.328   0.473
 5122SOL     OW16264   2.882   0.181   3.589
 5122SOL    HW116265   2.796   0.168   3.539
 5122SOL    HW216266   2.865   0.173   3.687
 5123SOL     OW16267   6.135   2.068   5.101
 5123SOL    HW116268   6.155   1.980   5.058
 5123SOL    HW216269   6.215   2.127   5.095
 5124SOL     OW16270   2.968   5.138   5.049
 5124SOL    HW116271   3.011   5.051   5.026
 5124SOL    HW216272   2.913   5.170   4.972
 5125SOL     OW16273   6.108   2.743   4.234
 5125SOL    HW116274   6.066   2.721   4.146
 5125SOL    HW216275   6.169   2.668   4.262
 5126SOL     OW16276   6.331   5.402   6.041
 5126SOL    HW116277   6.289   5.311   6.036
 5126SOL    HW216278   6.259   5.471   6.049
 5127SOL     OW16279   6.963   4.034   0.599
 5127SOL    HW116280   7.003   4.088   0.673
 5127SOL    HW216281   7.022   4.038   0.519
 5128SOL     OW16282   0.499   0.206   6.297
 5128SOL    HW116283   0.425   0.189   6.232
 5128SOL    HW216284   0.513   0.124   6.353
 5129SOL     OW16285   4.964   0.086   2.747
 5129SOL    HW116286   4.931   0.094   2.653
 5129SOL    HW216287   4.998   7.017   2.762
 5130SOL     OW16288   1.541   5.919   4.318
 5130SOL    HW116289   1.547   5.995   4.382
 5130SOL    HW216290   1.459   5.865   4.338
 5131SOL     OW16291   2.953   4.771   3.708
 5131SOL    HW116292   2.881   4.704   3.727
 5131SOL    HW216293   2.996   4.798   3.794
 5132SOL     OW16294   3.423   1.479   6.297
 5132SOL    HW116295   3.342   1.528   6.330
 5132SOL    HW216296   3.397   1.389   6.263
 5133SOL     OW16297   2.530   5.339   6.603
 5133SOL    HW116298   2.611   5.293   6.568
 5133SOL    HW216299   2.480   5.381   6.527
 5134SOL     OW16300   6.612   0.851   2.323
 5134SOL    HW116301   6.652   0.760   2.317
 5134SOL    HW216302   6.545   0.853   2.398
 5135SOL     OW16303   5.144   3.432   4.103
 5135SOL    HW116304   5.047   3.418   4.126
 5135SOL    HW216305   5.201   3.374   4.161
 5136SOL     OW16306   5.309   0.345   6.570
 5136SOL    HW116307   5.264   0.429   6.601
 5136SOL    HW216308   5.247   0.295   6.509
 5137SOL     OW16309   5.158   3.521   4.873
 5137SOL    HW116310   5.101   3.486   4.947
 5137SOL    HW216311   5.100   3.544   4.794
 5138SOL     OW16312   3.113   4.036   4.743
 5138SOL    HW116313   3.126   4.045   4.842
 5138SOL    HW216314   3.068   3.949   4.723
 5139SOL     OW16315   0.700   6.849   4.734
 5139SOL    HW116316   0.685   6.919   4.665
 5139SOL    HW216317   0.621   6.788   4.738
 5140SOL     OW16318   3.979   1.615   5.403
 5140SOL    HW116319   3.947   1.647   5.492
 5140SOL    HW216320   4.056   1.672   5.373
 5141SOL     OW16321   6.770   3.743   1.329
 5141SOL    HW116322   6.735   3.675   1.393
 5141SOL    HW216323   6.695   3.803   1.300
 5142SOL     OW16324   5.519   6.714   4.887
 5142SOL    HW116325   5.494   6.810   4.873
 5142SOL    HW216326   5.445   6.668   4.937
 5143SOL     OW16327   0.601   4.392   4.485
 5143SOL    HW116328   0.550   4.427   4.563
 5143SOL    HW216329   0.697   4.420   4.492
 5144SOL     OW16330   1.883   4.478   5.824
 5144SOL    HW116331   1.940   4.556   5.800
 5144SOL    HW216332   1.787   4.500   5.803
 5145SOL     OW16333   3.923   5.949   5.890
 5145SOL    HW116334   3.983   6.029   5.896
 5145SOL    HW216335   3.833   5.977   5.858
 5146SOL     OW16336   3.521   3.857   5.143
 5146SOL    HW116337   3.530   3.786   5.214
 5146SOL    HW216338   3.433   3.904   5.155
 5147SOL     OW16339   6.119   5.397   3.937
 5147SOL    HW116340   6.043   5.403   4.002
 5147SOL    HW216341   6.084   5.415   3.844
 5148SOL     OW16342   0.255   1.186   2.260
 5148SOL    HW116343   0.222   1.250   2.329
 5148SOL    HW216344   0.178   1.130   2.227
 5149SOL     OW16345   5.808   5.640   4.923
 5149SOL    HW116346   5.848   5.731   4.909
 5149SOL    HW216347   5.836   5.580   4.848
 5150SOL     OW16348   1.956   4.473   4.008
 5150SOL    HW116349   1.881   4.533   3.978
 5150SOL    HW216350   1.973   4.488   4.105
 5151SOL     OW16351   6.868   4.430   2.115
 5151SOL    HW116352   6.784   4.439   2.060
 5151SOL    HW216353   6.855   4.360   2.185
 5152SOL     OW16354   2.199   5.570   6.809
 5152SOL    HW116355   2.180   5.644   6.873
 5152SOL    HW216356   2.291   5.534   6.825
 5153SOL     OW16357   0.356   2.072   1.175
 5153SOL    HW116358   0.301   2.146   1.213
 5153SOL    HW216359   0.431   2.111   1.121
 5154SOL     OW16360   1.047   2.573   5.763
 5154SOL    HW116361   1.120   2.625   5.809
 5154SOL    HW216362   0.973   2.635   5.738
 5155SOL     OW16363   4.007   0.223   2.306
 5155SOL    HW116364   4.056   0.165   2.241
 5155SOL    HW216365   4.055   0.221   2.394
 5156SOL     OW16366   5.644   4.581   5.263
 5156SOL    HW116367   5.670   4.675   5.284
 5156SOL    HW216368   5.719   4.536   5.214
 5157SOL     OW16369   3.276   1.841   2.414
 5157SOL    HW116370   3.211   1.893   2.358
 5157SOL    HW216371   3.257   1.743   2.404
 5158SOL     OW16372   4.263   2.250   0.777
 5158SOL    HW116373   4.266   2.280   0.682
 5158SOL    HW216374   4.350   2.271   0.821
 5159SOL     OW16375   5.934   3.087   5.808
 5159SOL    HW116376   5.926   3.008   5.746
 5159SOL    HW216377   5.853   3.145   5.798
 5160SOL     OW16378   0.063   4.763   3.218
 5160SOL    HW116379   0.134   4.834   3.213
 5160SOL    HW216380   7.003   4.797   3.175
 5161SOL     OW16381   1.683   3.907   0.272
 5161SOL    HW116382   1.593   3.905   0.314
 5161SOL    HW216383   1.697   3.994   0.225
 5162SOL     OW16384   1.205   5.387   2.687
 5162SOL    HW116385   1.123   5.438   2.661
 5162SOL    HW216386   1.274   5.449   2.724
 5163SOL     OW16387   3.508   6.450   0.519
 5163SOL    HW116388   3.444   6.524   0.539
 5163SOL    HW216389   3.478   6.401   0.437
 5164SOL     OW16390   3.276   2.707   0.081
 5164SOL    HW116391   3.240   2.627   0.128
 5164SOL    HW216392   3.294   2.780   0.147
 5165SOL     OW16393   0.438   4.183   5.941
 5165SOL    HW116394   0.361   4.162   6.002
 5165SOL    HW216395   0.403   4.206   5.850
 5166SOL     OW16396   2.605   5.030   2.670
 5166SOL    HW116397   2.587   5.125   2.642
 5166SOL    HW216398   2.552   5.010   2.752
 5167SOL     OW16399   6.439   4.278   5.359
 5167SOL    HW116400   6.468   4.300   5.452
 5167SOL    HW216401   6.345   4.245   5.361
 5168SOL     OW16402   5.257   3.207   2.932
 5168SOL    HW116403   5.310   3.273   2.878
 5168SOL    HW216404   5.196   3.156   2.873
 5169SOL     OW16405   4.009   2.193   3.289
 5169SOL    HW116406   4.034   2.264   3.223
 5169SOL    HW216407   3.915   2.164   3.274
 5170SOL     OW16408   1.480   3.508   5.157
 5170SOL    HW116409   1.550   3.502   5.228
 5170SOL    HW216410   1.393   3.476   5.195
 5171SOL     OW16411   6.929   4.168   6.185
 5171SOL    HW116412   7.017   4.172   6.233
 5171SOL    HW216413   6.943   4.188   6.088
 5172SOL     OW16414   1.715   3.800   2.959
 5172SOL    HW116415   1.742   3.746   2.879
 5172SOL    HW216416   1.734   3.748   3.043
 5173SOL     OW16417   4.284   5.439   5.236
 5173SOL    HW116418   4.329   5.451   5.147
 5173SOL    HW216419   4.317   5.355   5.278
 5174SOL     OW16420   2.249   5.031   3.787
 5174SOL    HW116421   2.159   5.047   3.747
 5174SOL    HW216422   2.319   5.069   3.727
 5175SOL     OW16423   2.532   3.696   6.606
 5175SOL    HW116424   2.455   3.746   6.644
 5175SOL    HW216425   2.572   3.638   6.677
 5176SOL     OW16426   5.270   4.589   6.405
 5176SOL    HW116427   5.248   4.493   6.388
 5176SOL    HW216428   5.247   4.612   6.500
 5177SOL     OW16429   5.333   6.802   0.709
 5177SOL    HW116430   5.282   6.803   0.796
 5177SOL    HW216431   5.277   6.846   0.638
 5178SOL     OW16432   1.604   4.459   1.711
 5178SOL    HW116433   1.505   4.467   1.720
 5178SOL    HW216434   1.646   4.549   1.726
 5179SOL     OW16435   4.873   4.556   4.008
 5179SOL    HW116436   4.806   4.631   4.004
 5179SOL    HW216437   4.831   4.477   4.053
 5180SOL     OW16438   3.857   1.258   1.667
 5180SOL    HW116439   3.810   1.223   1.586
 5180SOL    HW216440   3.789   1.287   1.735
 5181SOL     OW16441   6.271   0.783   2.146
 5181SOL    HW116442   6.346   0.849   2.137
 5181SOL    HW216443   6.310   0.692   2.163
 5182SOL     OW16444   4.493   4.536   2.335
 5182SOL    HW116445   4.451   4.542   2.244
 5182SOL    HW216446   4.427   4.563   2.404
 5183SOL     OW16447   3.746   1.788   3.140
 5183SOL    HW116448   3.739   1.720   3.067
 5183SOL    HW216449   3.842   1.809   3.157
 5184SOL     OW16450   1.835   2.418   3.648
 5184SOL    HW116451   1.790   2.503   3.674
 5184SOL    HW216452   1.810   2.394   3.554
 5185SOL     OW16453   4.813   1.002   3.053
 5185SOL    HW116454   4.799   1.091   3.008
 5185SOL    HW216455   4.796   0.929   2.987
 5186SOL     OW16456   5.805   2.057   6.077
 5186SOL    HW116457   5.707   2.060   6.098
 5186SOL    HW216458   5.822   2.106   5.992
 5187SOL     OW16459   1.162   5.843   5.279
 5187SOL    HW116460   1.065   5.853   5.259
 5187SOL    HW216461   1.216   5.895   5.212
 5188SOL     OW16462   6.414   6.152   1.612
 5188SOL    HW116463   6.390   6.156   1.516
 5188SOL    HW216464   6.349   6.205   1.666
 5189SOL     OW16465   4.478   6.057   6.994
 5189SOL    HW116466   4.458   6.155   6.999
 5189SOL    HW216467   4.471   6.017   0.061
 5190SOL     OW16468   0.656   3.457   4.008
 5190SOL    HW116469   0.693   3.411   3.928
 5190SOL    HW216470   0.556   3.453   4.006
 5191SOL     OW16471   3.217   6.113   2.173
 5191SOL    HW116472   3.170   6.200   2.188
 5191SOL    HW216473   3.316   6.129   2.172
 5192SOL     OW16474   1.751   6.045   1.417
 5192SOL    HW116475   1.842   6.084   1.431
 5192SOL    HW216476   1.752   5.948   1.442
 5193SOL     OW16477   5.309   5.814   5.704
 5193SOL    HW116478   5.279   5.801   5.609
 5193SOL    HW216479   5.359   5.733   5.735
 5194SOL     OW16480   3.473   2.527   6.632
 5194SOL    HW116481   3.542   2.524   6.705
 5194SOL    HW216482   3.467   2.621   6.597
 5195SOL     OW16483   0.475   0.522   4.019
 5195SOL    HW116484   0.395   0.496   4.072
 5195SOL    HW216485   0.512   0.608   4.054
 5196SOL     OW16486   5.451   6.839   2.200
 5196SOL    HW116487   5.363   6.805   2.164
 5196SOL    HW216488   5.519   6.766   2.194
 5197SOL     OW16489   2.294   3.811   6.632
 5197SOL    HW116490   2.327   3.872   6.560
 5197SOL    HW216491   2.204   3.840   6.662
 5198SOL     OW16492   4.768   5.842   2.781
 5198SOL    HW116493   4.836   5.885   2.841
 5198SOL    HW216494   4.677   5.874   2.805
 5199SOL     OW16495   1.199   5.964   0.611
 5199SOL    HW116496   1.195   5.889   0.677
 5199SOL    HW216497   1.213   6.051   0.660
 5200SOL     OW16498   6.805   3.902   4.918
 5200SOL    HW116499   6.717   3.935   4.885
 5200SOL    HW216500   6.862   3.980   4.944
 5201SOL     OW16501   0.855   6.645   2.939
 5201SOL    HW116502   0.941   6.691   2.917
 5201SOL    HW216503   0.849   6.630   3.037
 5202SOL     OW16504   4.954   2.885   6.423
 5202SOL    HW116505   4.991   2.973   6.451
 5202SOL    HW216506   4.946   2.825   6.503
 5203SOL     OW16507   2.398   2.029   6.267
 5203SOL    HW116508   2.468   2.047   6.197
 5203SOL    HW216509   2.388   2.109   6.326
 5204SOL     OW16510   3.660   5.046   0.054
 5204SOL    HW116511   3.589   4.979   0.077
 5204SOL    HW216512   3.728   5.048   0.127
 5205SOL     OW16513   1.096   6.446   0.162
 5205SOL    HW116514   1.066   6.406   0.249
 5205SOL    HW216515   1.193   6.427   0.148
 5206SOL     OW16516   0.301   4.574   5.034
 5206SOL    HW116517   0.256   4.607   4.951
 5206SOL    HW216518   0.354   4.649   5.074
 5207SOL     OW16519   1.231   6.068   3.507
 5207SOL    HW116520   1.287   6.150   3.515
 5207SOL    HW216521   1.175   6.057   3.589
 5208SOL     OW16522   3.533   1.936   6.572
 5208SOL    HW116523   3.630   1.936   6.546
 5208SOL    HW216524   3.522   1.880   6.655
 5209SOL     OW16525   5.811   6.056   3.485
 5209SOL    HW116526   5.714   6.033   3.496
 5209SOL    HW216527   5.852   5.994   3.418
 5210SOL     OW16528   5.565   2.274   5.544
 5210SOL    HW116529   5.613   2.218   5.476
 5210SOL    HW216530   5.614   2.360   5.558
 5211SOL     OW16531   3.649   2.878   4.772
 5211SOL    HW116532   3.732   2.887   4.828
 5211SOL    HW216533   3.619   2.782   4.773
 5212SOL     OW16534   5.989   1.120   0.276
 5212SOL    HW116535   6.060   1.136   0.208
 5212SOL    HW216536   6.016   1.163   0.363
 5213SOL     OW16537   4.526   3.803   6.517
 5213SOL    HW116538   4.457   3.732   6.531
 5213SOL    HW216539   4.532   3.860   6.598
 5214SOL     OW16540   4.961   1.632   5.909
 5214SOL    HW116541   5.045   1.590   5.874
 5214SOL    HW216542   4.923   1.574   5.981
 5215SOL     OW16543   5.669   4.907   3.405
 5215SOL    HW116544   5.702   5.002   3.408
 5215SOL    HW216545   5.574   4.906   3.374
 5216SOL     OW16546   4.294   5.566   1.998
 5216SOL    HW116547   4.348   5.613   1.928
 5216SOL    HW216548   4.199   5.596   1.992
 5217SOL     OW16549   3.308   5.141   4.276
 5217SOL    HW116550   3.404   5.168   4.280
 5217SOL    HW216551   3.253   5.215   4.236
 5218SOL     OW16552   0.843   1.239   3.344
 5218SOL    HW116553   0.942   1.242   3.360
 5218SOL    HW216554   0.799   1.313   3.395
 5219SOL     OW16555   4.269   0.589   5.766
 5219SOL    HW116556   4.300   0.573   5.672
 5219SOL    HW216557   4.173   0.614   5.765
 5220SOL     OW16558   1.068   6.226   2.415
 5220SOL    HW116559   1.109   6.177   2.492
 5220SOL    HW216560   1.124   6.305   2.392
 5221SOL     OW16561   5.526   1.882   3.647
 5221SOL    HW116562   5.502   1.960   3.590
 5221SOL    HW216563   5.565   1.915   3.733
 5222SOL     OW16564   3.205   6.238   3.666
 5222SOL    HW116565   3.188   6.231   3.568
 5222SOL    HW216566   3.302   6.217   3.684
 5223SOL     OW16567   5.335   1.350   0.927
 5223SOL    HW116568   5.428   1.314   0.918
 5223SOL    HW216569   5.339   1.447   0.948
 5224SOL     OW16570   6.901   2.578   4.206
 5224SOL    HW116571   6.989   2.613   4.238
 5224SOL    HW216572   6.875   2.498   4.260
 5225SOL     OW16573   0.553   0.035   3.411
 5225SOL    HW116574   0.475   0.061   3.468
 5225SOL    HW216575   0.571   0.107   3.343
 5226SOL     OW16576   0.422   5.470   4.771
 5226SOL    HW116577   0.405   5.568   4.781
 5226SOL    HW216578   0.454   5.433   4.859
 5227SOL     OW16579   1.463   4.554   4.148
 5227SOL    HW116580   1.380   4.518   4.107
 5227SOL    HW216581   1.450   4.650   4.171
 5228SOL     OW16582   6.443   2.088   1.130
 5228SOL    HW116583   6.471   2.082   1.034
 5228SOL    HW216584   6.518   2.127   1.184
 5229SOL     OW16585   1.870   4.736   7.011
 5229SOL    HW116586   1.938   4.767   0.054
 5229SOL    HW216587   1.902   4.652   6.967
 5230SOL     OW16588   0.706   6.338   0.925
 5230SOL    HW116589   0.697   6.244   0.958
 5230SOL    HW216590   0.733   6.336   0.828
 5231SOL     OW16591   4.010   3.511   4.804
 5231SOL    HW116592   4.092   3.546   4.758
 5231SOL    HW216593   4.035   3.479   4.895
 5232SOL     OW16594   3.335   1.836   5.722
 5232SOL    HW116595   3.272   1.888   5.664
 5232SOL    HW216596   3.311   1.853   5.818
 5233SOL     OW16597   5.957   0.418   1.976
 5233SOL    HW116598   6.049   0.394   2.007
 5233SOL    HW216599   5.890   0.361   2.023
 5234SOL     OW16600   2.069   0.635   0.114
 5234SOL    HW116601   2.046   0.698   0.040
 5234SOL    HW216602   2.012   0.552   0.105
 5235SOL     OW16603   1.777   3.134   1.249
 5235SOL    HW116604   1.724   3.218   1.259
 5235SOL    HW216605   1.874   3.156   1.238
 5236SOL     OW16606   5.959   3.861   2.373
 5236SOL    HW116607   6.002   3.945   2.340
 5236SOL    HW216608   6.004   3.781   2.332
 5237SOL     OW16609   2.279   0.766   5.450
 5237SOL    HW116610   2.331   0.787   5.532
 5237SOL    HW216611   2.230   0.680   5.462
 5238SOL     OW16612   1.244   4.819   0.800
 5238SOL    HW116613   1.295   4.836   0.884
 5238SOL    HW216614   1.147   4.805   0.821
 5239SOL     OW16615   3.933   3.750   4.335
 5239SOL    HW116616   3.836   3.777   4.336
 5239SOL    HW216617   3.959   3.721   4.427
 5240SOL     OW16618   3.128   1.847   6.465
 5240SOL    HW116619   3.042   1.852   6.516
 5240SOL    HW216620   3.178   1.933   6.477
 5241SOL     OW16621   0.470   5.334   6.031
 5241SOL    HW116622   0.468   5.246   6.078
 5241SOL    HW216623   0.549   5.338   5.970
 5242SOL     OW16624   0.204   6.345   5.663
 5242SOL    HW116625   0.177   6.360   5.758
 5242SOL    HW216626   0.268   6.416   5.635
 5243SOL     OW16627   1.176   5.729   1.905
 5243SOL    HW116628   1.191   5.752   1.809
 5243SOL    HW216629   1.260   5.742   1.957
 5244SOL     OW16630   3.129   4.073   5.816
 5244SOL    HW116631   3.101   4.154   5.867
 5244SOL    HW216632   3.228   4.076   5.800
 5245SOL     OW16633   4.758   4.527   0.423
 5245SOL    HW116634   4.824   4.522   0.348
 5245SOL    HW216635   4.687   4.595   0.400
 5246SOL     OW16636   5.588   4.579   2.386
 5246SOL    HW116637   5.557   4.484   2.391
 5246SOL    HW216638   5.686   4.583   2.405
 5247SOL     OW16639   1.026   6.429   0.434
 5247SOL    HW116640   1.072   6.461   0.517
 5247SOL    HW216641   1.011   6.330   0.441
 5248SOL     OW16642   5.953   0.227   4.681
 5248SOL    HW116643   5.940   0.168   4.760
 5248SOL    HW216644   5.986   0.172   4.604
 5249SOL     OW16645   0.469   4.960   4.905
 5249SOL    HW116646   0.524   4.936   4.985
 5249SOL    HW216647   0.399   5.026   4.932
 5250SOL     OW16648   1.165   0.961   5.200
 5250SOL    HW116649   1.070   0.992   5.193
 5250SOL    HW216650   1.180   0.887   5.134
 5251SOL     OW16651   0.419   3.556   0.724
 5251SOL    HW116652   0.390   3.652   0.735
 5251SOL    HW216653   0.420   3.533   0.627
 5252SOL     OW16654   2.403   5.430   1.118
 5252SOL    HW116655   2.431   5.512   1.167
 5252SOL    HW216656   2.467   5.411   1.044
 5253SOL     OW16657   5.858   3.841   4.763
 5253SOL    HW116658   5.771   3.834   4.714
 5253SOL    HW216659   5.880   3.753   4.805
 5254SOL     OW16660   5.190   0.711   2.951
 5254SOL    HW116661   5.102   0.712   2.904
 5254SOL    HW216662   5.181   0.663   3.038
 5255SOL     OW16663   4.667   0.193   6.238
 5255SOL    HW116664   4.638   0.098   6.250
 5255SOL    HW216665   4.713   0.204   6.150
 5256SOL     OW16666   4.457   0.649   3.492
 5256SOL    HW116667   4.493   0.569   3.444
 5256SOL    HW216668   4.485   0.732   3.443
 5257SOL     OW16669   4.842   0.109   2.491
 5257SOL    HW116670   4.754   0.141   2.526
 5257SOL    HW216671   4.835   0.089   2.394
 5258SOL     OW16672   5.129   3.244   1.330
 5258SOL    HW116673   5.098   3.166   1.383
 5258SOL    HW216674   5.199   3.293   1.381
 5259SOL     OW16675   4.364   6.075   1.373
 5259SOL    HW116676   4.339   6.014   1.448
 5259SOL    HW216677   4.290   6.077   1.305
 5260SOL     OW16678   5.379   3.567   1.139
 5260SOL    HW116679   5.445   3.607   1.076
 5260SOL    HW216680   5.379   3.467   1.129
 5261SOL     OW16681   1.661   3.036   6.700
 5261SOL    HW116682   1.604   3.086   6.634
 5261SOL    HW216683   1.631   2.941   6.705
 5262SOL     OW16684   2.528   0.385   2.921
 5262SOL    HW116685   2.616   0.400   2.967
 5262SOL    HW216686   2.526   0.292   2.883
 5263SOL     OW16687   1.570   1.051   5.266
 5263SOL    HW116688   1.569   1.133   5.324
 5263SOL    HW216689   1.599   0.972   5.321
 5264SOL     OW16690   6.415   0.749   2.857
 5264SOL    HW116691   6.336   0.772   2.800
 5264SOL    HW216692   6.482   0.699   2.803
 5265SOL     OW16693   5.157   4.523   3.178
 5265SOL    HW116694   5.119   4.455   3.241
 5265SOL    HW216695   5.172   4.480   3.089
 5266SOL     OW16696   2.547   0.592   2.390
 5266SOL    HW116697   2.510   0.517   2.446
 5266SOL    HW216698   2.480   0.665   2.384
 5267SOL     OW16699   4.851   4.674   6.203
 5267SOL    HW116700   4.886   4.583   6.226
 5267SOL    HW216701   4.753   4.678   6.227
 5268SOL     OW16702   6.383   6.775   6.003
 5268SOL    HW116703   6.472   6.795   5.961
 5268SOL    HW216704   6.310   6.817   5.949
 5269SOL     OW16705   2.046   0.165   4.382
 5269SOL    HW116706   1.996   0.187   4.465
 5269SOL    HW216707   2.018   0.227   4.309
 5270SOL     OW16708   5.207   1.527   2.368
 5270SOL    HW116709   5.246   1.493   2.283
 5270SOL    HW216710   5.269   1.505   2.444
 5271SOL     OW16711   5.182   5.064   5.237
 5271SOL    HW116712   5.178   5.128   5.160
 5271SOL    HW216713   5.129   4.982   5.214
 5272SOL     OW16714   1.597   6.184   2.699
 5272SOL    HW116715   1.538   6.103   2.699
 5272SOL    HW216716   1.564   6.249   2.768
 5273SOL     OW16717   0.002   3.299   2.843
 5273SOL    HW116718   0.066   3.222   2.850
 5273SOL    HW216719   0.020   3.363   2.917
 5274SOL     OW16720   6.381   5.612   2.670
 5274SOL    HW116721   6.364   5.663   2.585
 5274SOL    HW216722   6.299   5.612   2.726
 5275SOL     OW16723   3.702   1.895   6.258
 5275SOL    HW116724   3.696   1.796   6.247
 5275SOL    HW216725   3.798   1.923   6.267
 5276SOL     OW16726   1.037   0.491   1.016
 5276SOL    HW116727   1.129   0.503   0.978
 5276SOL    HW216728   1.038   0.419   1.085
 5277SOL     OW16729   1.770   2.532   3.016
 5277SOL    HW116730   1.689   2.581   3.048
 5277SOL    HW216731   1.852   2.583   3.039
 5278SOL     OW16732   5.347   0.135   4.287
 5278SOL    HW116733   5.349   0.046   4.243
 5278SOL    HW216734   5.413   0.196   4.242
 5279SOL     OW16735   1.690   5.399   6.658
 5279SOL    HW116736   1.705   5.437   6.566
 5279SOL    HW216737   1.686   5.299   6.652
 5280SOL     OW16738   2.623   6.462   5.821
 5280SOL    HW116739   2.694   6.445   5.753
 5280SOL    HW216740   2.533   6.449   5.779
 5281SOL     OW16741   0.561   1.770   3.367
 5281SOL    HW116742   0.601   1.846   3.419
 5281SOL    HW216743   0.503   1.715   3.428
 5282SOL     OW16744   2.060   1.353   3.240
 5282SOL    HW116745   2.057   1.260   3.204
 5282SOL    HW216746   2.154   1.388   3.235
 5283SOL     OW16747   2.944   0.357   2.277
 5283SOL    HW116748   3.023   0.361   2.216
 5283SOL    HW216749   2.970   0.389   2.368
 5284SOL     OW16750   4.934   2.787   2.786
 5284SOL    HW116751   4.872   2.800   2.709
 5284SOL    HW216752   5.024   2.827   2.764
 5285SOL     OW16753   1.384   4.307   4.499
 5285SOL    HW116754   1.432   4.379   4.448
 5285SOL    HW216755   1.410   4.218   4.461
 5286SOL     OW16756   0.216   3.995   1.454
 5286SOL    HW116757   0.169   3.912   1.423
 5286SOL    HW216758   0.209   4.001   1.554
 5287SOL     OW16759   1.549   5.853   1.596
 5287SOL    HW116760   1.530   5.912   1.675
 5287SOL    HW216761   1.533   5.905   1.511
 5288SOL     OW16762   3.925   0.805   2.605
 5288SOL    HW116763   3.907   0.786   2.509
 5288SOL    HW216764   4.017   0.773   2.629
 5289SOL     OW16765   1.608   5.401   6.161
 5289SOL    HW116766   1.611   5.326   6.095
 5289SOL    HW216767   1.520   5.401   6.207
 5290SOL     OW16768   1.544   3.905   5.683
 5290SOL    HW116769   1.595   3.819   5.692
 5290SOL    HW216770   1.568   3.948   5.595
 5291SOL     OW16771   2.898   4.921   5.717
 5291SOL    HW116772   2.980   4.979   5.724
 5291SOL    HW216773   2.818   4.973   5.748
 5292SOL     OW16774   6.362   4.968   6.637
 5292SOL    HW116775   6.317   5.029   6.703
 5292SOL    HW216776   6.460   4.986   6.637
 5293SOL     OW16777   1.085   0.372   4.212
 5293SOL    HW116778   1.088   0.469   4.234
 5293SOL    HW216779   1.175   0.342   4.182
 5294SOL     OW16780   6.021   2.717   4.490
 5294SOL    HW116781   6.049   2.762   4.405
 5294SOL    HW216782   5.996   2.622   4.471
 5295SOL     OW16783   4.065   1.149   2.576
 5295SOL    HW116784   4.110   1.113   2.659
 5295SOL    HW216785   3.966   1.144   2.587
 5296SOL     OW16786   2.518   4.942   6.877
 5296SOL    HW116787   2.587   5.009   6.903
 5296SOL    HW216788   2.440   4.990   6.835
 5297SOL     OW16789   2.648   2.640   0.880
 5297SOL    HW116790   2.614   2.727   0.913
 5297SOL    HW216791   2.632   2.632   0.781
 5298SOL     OW16792   1.115   5.410   0.030
 5298SOL    HW116793   1.156   5.500   0.015
 5298SOL    HW216794   1.142   5.376   0.120
 5299SOL     OW16795   2.354   3.004   0.960
 5299SOL    HW116796   2.292   3.077   0.931
 5299SOL    HW216797   2.301   2.931   1.003
 5300SOL     OW16798   1.001   6.215   1.052
 5300SOL    HW116799   0.939   6.286   1.086
 5300SOL    HW216800   1.090   6.223   1.097
 5301SOL     OW16801   3.453   2.776   6.507
 5301SOL    HW116802   3.509   2.859   6.504
 5301SOL    HW216803   3.360   2.797   6.477
 5302SOL     OW16804   5.762   5.593   4.052
 5302SOL    HW116805   5.663   5.604   4.042
 5302SOL    HW216806   5.795   5.521   3.990
 5303SOL     OW16807   6.507   5.514   3.388
 5303SOL    HW116808   6.433   5.581   3.383
 5303SOL    HW216809   6.503   5.453   3.309
 5304SOL     OW16810   5.321   1.033   6.494
 5304SOL    HW116811   5.249   1.100   6.514
 5304SOL    HW216812   5.281   0.956   6.443
 5305SOL     OW16813   0.959   5.318   2.843
 5305SOL    HW116814   0.928   5.225   2.825
 5305SOL    HW216815   1.058   5.324   2.830
 5306SOL     OW16816   0.901   4.157   4.728
 5306SOL    HW116817   0.977   4.222   4.722
 5306SOL    HW216818   0.889   4.111   4.640
 5307SOL     OW16819   4.468   1.032   0.209
 5307SOL    HW116820   4.560   1.035   0.249
 5307SOL    HW216821   4.425   1.122   0.219
 5308SOL     OW16822   0.916   5.764   3.663
 5308SOL    HW116823   0.831   5.713   3.671
 5308SOL    HW216824   0.913   5.845   3.721
 5309SOL     OW16825   4.128   4.680   1.618
 5309SOL    HW116826   4.112   4.743   1.542
 5309SOL    HW216827   4.226   4.661   1.625
 5310SOL     OW16828   6.049   3.638   2.278
 5310SOL    HW116829   6.147   3.626   2.265
 5310SOL    HW216830   6.001   3.608   2.195
 5311SOL     OW16831   6.117   5.521   0.132
 5311SOL    HW116832   6.201   5.542   0.082
 5311SOL    HW216833   6.123   5.558   0.224
 5312SOL     OW16834   0.522   5.381   2.022
 5312SOL    HW116835   0.557   5.421   2.107
 5312SOL    HW216836   0.551   5.286   2.015
 5313SOL     OW16837   1.484   3.753   6.402
 5313SOL    HW116838   1.489   3.653   6.397
 5313SOL    HW216839   1.551   3.787   6.467
 5314SOL     OW16840   3.328   6.608   0.268
 5314SOL    HW116841   3.318   6.514   0.302
 5314SOL    HW216842   3.425   6.629   0.255
 5315SOL     OW16843   4.762   3.151   1.680
 5315SOL    HW116844   4.706   3.102   1.747
 5315SOL    HW216845   4.859   3.141   1.704
 5316SOL     OW16846   0.719   4.029   4.927
 5316SOL    HW116847   0.765   3.943   4.949
 5316SOL    HW216848   0.768   4.074   4.852
 5317SOL     OW16849   6.661   6.717   5.178
 5317SOL    HW116850   6.759   6.717   5.156
 5317SOL    HW216851   6.610   6.667   5.109
 5318SOL     OW16852   0.098   2.476   6.566
 5318SOL    HW116853   0.187   2.516   6.545
 5318SOL    HW216854   0.068   2.508   6.656
 5319SOL     OW16855   3.749   6.797   0.020
 5319SOL    HW116856   3.695   6.880   0.004
 5319SOL    HW216857   3.791   6.768   6.958
 5320SOL     OW16858   5.708   5.005   0.164
 5320SOL    HW116859   5.734   5.096   0.132
 5320SOL    HW216860   5.773   4.938   0.128
 5321SOL     OW16861   1.020   4.273   3.532
 5321SOL    HW116862   0.941   4.329   3.507
 5321SOL    HW216863   1.025   4.266   3.632
 5322SOL     OW16864   4.248   6.154   6.577
 5322SOL    HW116865   4.152   6.182   6.579
 5322SOL    HW216866   4.289   6.170   6.667
 5323SOL     OW16867   3.581   2.197   6.772
 5323SOL    HW116868   3.574   2.297   6.777
 5323SOL    HW216869   3.635   2.172   6.692
 5324SOL     OW16870   4.060   1.845   0.655
 5324SOL    HW116871   4.039   1.797   0.740
 5324SOL    HW216872   4.020   1.937   0.658
 5325SOL     OW16873   4.850   0.652   4.734
 5325SOL    HW116874   4.847   0.752   4.735
 5325SOL    HW216875   4.935   0.622   4.692
 5326SOL     OW16876   0.376   5.249   3.838
 5326SOL    HW116877   0.320   5.242   3.756
 5326SOL    HW216878   0.459   5.300   3.817
 5327SOL     OW16879   5.577   3.277   4.838
 5327SOL    HW116880   5.581   3.377   4.831
 5327SOL    HW216881   5.666   3.242   4.868
 5328SOL     OW16882   4.673   2.502   5.442
 5328SOL    HW116883   4.753   2.522   5.385
 5328SOL    HW216884   4.617   2.584   5.451
 5329SOL     OW16885   6.646   4.717   6.696
 5329SOL    HW116886   6.617   4.783   6.627
 5329SOL    HW216887   6.734   4.678   6.670
 5330SOL     OW16888   3.491   3.889   5.471
 5330SOL    HW116889   3.586   3.902   5.497
 5330SOL    HW216890   3.447   3.978   5.458
 5331SOL     OW16891   4.964   1.092   0.818
 5331SOL    HW116892   4.922   1.123   0.903
 5331SOL    HW216893   5.054   1.054   0.837
 5332SOL     OW16894   0.450   4.091   1.327
 5332SOL    HW116895   0.504   4.150   1.387
 5332SOL    HW216896   0.359   4.080   1.365
 5333SOL     OW16897   1.087   1.202   3.050
 5333SOL    HW116898   1.082   1.240   3.142
 5333SOL    HW216899   1.129   1.111   3.054
 5334SOL     OW16900   3.899   6.941   4.231
 5334SOL    HW116901   3.982   6.980   4.271
 5334SOL    HW216902   3.898   6.958   4.132
 5335SOL     OW16903   6.161   5.549   2.319
 5335SOL    HW116904   6.176   5.450   2.326
 5335SOL    HW216905   6.064   5.569   2.334
 5336SOL     OW16906   2.614   1.862   3.240
 5336SOL    HW116907   2.552   1.929   3.281
 5336SOL    HW216908   2.709   1.886   3.260
 5337SOL     OW16909   5.473   4.266   2.087
 5337SOL    HW116910   5.514   4.177   2.067
 5337SOL    HW216911   5.544   4.333   2.106
 5338SOL     OW16912   6.164   0.873   5.635
 5338SOL    HW116913   6.185   0.776   5.617
 5338SOL    HW216914   6.065   0.884   5.645
 5339SOL     OW16915   6.506   2.178   3.977
 5339SOL    HW116916   6.470   2.198   3.886
 5339SOL    HW216917   6.542   2.261   4.018
 5340SOL     OW16918   5.503   2.441   0.955
 5340SOL    HW116919   5.467   2.470   1.044
 5340SOL    HW216920   5.594   2.402   0.968
 5341SOL     OW16921   3.617   4.311   6.387
 5341SOL    HW116922   3.524   4.345   6.372
 5341SOL    HW216923   3.618   4.212   6.371
 5342SOL     OW16924   4.110   6.925   3.682
 5342SOL    HW116925   4.066   6.986   3.616
 5342SOL    HW216926   4.197   6.894   3.644
 5343SOL     OW16927   3.691   3.262   4.452
 5343SOL    HW116928   3.773   3.259   4.509
 5343SOL    HW216929   3.610   3.258   4.510
 5344SOL     OW16930   1.840   2.168   1.722
 5344SOL    HW116931   1.931   2.143   1.688
 5344SOL    HW216932   1.849   2.238   1.793
 5345SOL     OW16933   3.314   6.657   0.607
 5345SOL    HW116934   3.334   6.716   0.685
 5345SOL    HW216935   3.215   6.650   0.595
 5346SOL     OW16936   3.458   6.104   4.426
 5346SOL    HW116937   3.545   6.150   4.409
 5346SOL    HW216938   3.471   6.034   4.497
 5347SOL     OW16939   0.011   2.849   1.863
 5347SOL    HW116940   0.023   2.760   1.908
 5347SOL    HW216941   0.025   2.838   1.764
 5348SOL     OW16942   6.643   1.910   0.862
 5348SOL    HW116943   6.694   1.936   0.944
 5348SOL    HW216944   6.576   1.981   0.840
 5349SOL     OW16945   2.112   2.774   0.577
 5349SOL    HW116946   2.211   2.778   0.588
 5349SOL    HW216947   2.088   2.807   0.485
 5350SOL     OW16948   1.593   6.636   5.296
 5350SOL    HW116949   1.594   6.559   5.361
 5350SOL    HW216950   1.638   6.608   5.211
 5351SOL     OW16951   6.712   5.144   2.168
 5351SOL    HW116952   6.785   5.211   2.154
 5351SOL    HW216953   6.704   5.086   2.087
 5352SOL     OW16954   2.217   5.204   3.174
 5352SOL    HW116955   2.239   5.216   3.078
 5352SOL    HW216956   2.137   5.145   3.183
 5353SOL     OW16957   3.591   4.979   4.207
 5353SOL    HW116958   3.586   4.902   4.143
 5353SOL    HW216959   3.566   4.948   4.299
 5354SOL     OW16960   2.245   5.009   1.967
 5354SOL    HW116961   2.286   4.919   1.981
 5354SOL    HW216962   2.270   5.043   1.877
 5355SOL     OW16963   6.845   4.027   4.417
 5355SOL    HW116964   6.805   4.065   4.501
 5355SOL    HW216965   6.775   3.974   4.369
 5356SOL     OW16966   5.878   4.577   2.398
 5356SOL    HW116967   5.889   4.575   2.497
 5356SOL    HW216968   5.947   4.637   2.357
 5357SOL     OW16969   3.289   6.007   0.332
 5357SOL    HW116970   3.382   5.970   0.333
 5357SOL    HW216971   3.225   5.935   0.306
 5358SOL     OW16972   4.763   1.103   6.941
 5358SOL    HW116973   4.802   1.114   6.849
 5358SOL    HW216974   4.829   1.055   6.999
 5359SOL     OW16975   1.354   1.257   5.424
 5359SOL    HW116976   1.443   1.277   5.383
 5359SOL    HW216977   1.295   1.337   5.415
 5360SOL     OW16978   4.046   6.246   4.275
 5360SOL    HW116979   3.959   6.196   4.270
 5360SOL    HW216980   4.103   6.207   4.346
 5361SOL     OW16981   2.766   0.873   5.151
 5361SOL    HW116982   2.791   0.969   5.164
 5361SOL    HW216983   2.686   0.852   5.208
 5362SOL     OW16984   6.535   6.373   3.181
 5362SOL    HW116985   6.605   6.368   3.110
 5362SOL    HW216986   6.501   6.466   3.188
 5363SOL     OW16987   0.349   0.134   5.642
 5363SOL    HW116988   0.354   0.083   5.556
 5363SOL    HW216989   0.351   0.071   5.719
 5364SOL     OW16990   6.781   6.561   2.757
 5364SOL    HW116991   6.758   6.645   2.708
 5364SOL    HW216992   6.804   6.489   2.692
 5365SOL     OW16993   3.759   2.894   0.585
 5365SOL    HW116994   3.786   2.951   0.508
 5365SOL    HW216995   3.840   2.867   0.637
 5366SOL     OW16996   5.972   5.948   1.516
 5366SOL    HW116997   5.955   6.045   1.502
 5366SOL    HW216998   5.963   5.899   1.429
 5367SOL     OW16999   0.605   6.757   0.794
 5367SOL    HW117000   0.675   6.779   0.727
 5367SOL    HW217001   0.558   6.673   0.767
 5368SOL     OW17002   5.912   0.381   2.728
 5368SOL    HW117003   5.859   0.451   2.777
 5368SOL    HW217004   5.882   0.290   2.757
 5369SOL     OW17005   2.713   6.638   1.179
 5369SOL    HW117006   2.675   6.640   1.271
 5369SOL    HW217007   2.640   6.650   1.112
 5370SOL     OW17008   4.681   2.229   1.576
 5370SOL    HW117009   4.630   2.149   1.609
 5370SOL    HW217010   4.741   2.202   1.501
 5371SOL     OW17011   0.436   3.796   5.018
 5371SOL    HW117012   0.515   3.759   4.969
 5371SOL    HW217013   0.466   3.839   5.103
 5372SOL     OW17014   1.723   6.048   3.180
 5372SOL    HW117015   1.651   5.994   3.136
 5372SOL    HW217016   1.779   5.987   3.237
 5373SOL     OW17017   3.411   6.989   4.463
 5373SOL    HW117018   3.508   6.975   4.445
 5373SOL    HW217019   3.382   6.926   4.536
 5374SOL     OW17020   2.089   4.254   0.604
 5374SOL    HW117021   2.003   4.284   0.563
 5374SOL    HW217022   2.090   4.154   0.608
 5375SOL     OW17023   0.843   5.526   4.303
 5375SOL    HW117024   0.746   5.502   4.301
 5375SOL    HW217025   0.854   5.618   4.342
 5376SOL     OW17026   1.860   2.892   1.086
 5376SOL    HW117027   1.812   2.840   1.156
 5376SOL    HW217028   1.856   2.989   1.108
 5377SOL     OW17029   7.014   6.719   2.497
 5377SOL    HW117030   0.037   6.802   2.467
 5377SOL    HW217031   6.929   6.744   2.544
 5378SOL     OW17032   7.005   0.440   2.389
 5378SOL    HW117033   0.081   0.435   2.395
 5378SOL    HW217034   6.966   0.350   2.409
 5379SOL     OW17035   1.220   4.800   5.148
 5379SOL    HW117036   1.160   4.836   5.077
 5379SOL    HW217037   1.170   4.794   5.234
 5380SOL     OW17038   2.735   1.342   2.529
 5380SOL    HW117039   2.756   1.244   2.518
 5380SOL    HW217040   2.641   1.359   2.499
 5381SOL     OW17041   6.525   4.761   2.087
 5381SOL    HW117042   6.574   4.721   2.164
 5381SOL    HW217043   6.467   4.691   2.044
 5382SOL     OW17044   2.555   1.290   1.766
 5382SOL    HW117045   2.604   1.377   1.755
 5382SOL    HW217046   2.617   1.222   1.804
 5383SOL     OW17047   2.005   2.195   5.282
 5383SOL    HW117048   2.084   2.222   5.337
 5383SOL    HW217049   2.001   2.252   5.200
 5384SOL     OW17050   6.139   6.642   5.509
 5384SOL    HW117051   6.237   6.636   5.489
 5384SOL    HW217052   6.087   6.630   5.424
 5385SOL     OW17053   3.286   3.234   4.094
 5385SOL    HW117054   3.314   3.328   4.109
 5385SOL    HW217055   3.257   3.193   4.181
 5386SOL     OW17056   5.342   1.397   4.280
 5386SOL    HW117057   5.242   1.402   4.283
 5386SOL    HW217058   5.379   1.488   4.263
 5387SOL     OW17059   2.342   0.275   3.583
 5387SOL    HW117060   2.370   0.238   3.672
 5387SOL    HW217061   2.374   0.214   3.511
 5388SOL     OW17062   0.271   1.778   3.983
 5388SOL    HW117063   0.237   1.867   3.952
 5388SOL    HW217064   0.215   1.746   4.059
 5389SOL     OW17065   4.030   1.319   3.599
 5389SOL    HW117066   3.966   1.343   3.525
 5389SOL    HW217067   4.054   1.222   3.592
 5390SOL     OW17068   4.817   4.069   3.367
 5390SOL    HW117069   4.731   4.111   3.337
 5390SOL    HW217070   4.845   4.000   3.301
 5391SOL     OW17071   2.164   1.649   0.881
 5391SOL    HW117072   2.080   1.669   0.931
 5391SOL    HW217073   2.227   1.726   0.892
 5392SOL     OW17074   5.290   3.457   1.419
 5392SOL    HW117075   5.267   3.501   1.505
 5392SOL    HW217076   5.300   3.527   1.347
 5393SOL     OW17077   4.611   6.778   5.770
 5393SOL    HW117078   4.697   6.827   5.751
 5393SOL    HW217079   4.554   6.779   5.688
 5394SOL     OW17080   0.191   5.334   0.642
 5394SOL    HW117081   0.116   5.400   0.650
 5394SOL    HW217082   0.154   5.242   0.632
 5395SOL     OW17083   4.274   0.867   1.371
 5395SOL    HW117084   4.350   0.815   1.409
 5395SOL    HW217085   4.197   0.864   1.435
 5396SOL     OW17086   5.434   4.203   1.609
 5396SOL    HW117087   5.353   4.200   1.668
 5396SOL    HW217088   5.480   4.291   1.620
 5397SOL     OW17089   0.444   3.080   1.336
 5397SOL    HW117090   0.353   3.056   1.302
 5397SOL    HW217091   0.464   3.026   1.417
 5398SOL     OW17092   3.346   2.103   3.445
 5398SOL    HW117093   3.371   2.006   3.440
 5398SOL    HW217094   3.264   2.119   3.392
 5399SOL     OW17095   2.745   6.363   1.057
 5399SOL    HW117096   2.776   6.456   1.035
 5399SOL    HW217097   2.760   6.345   1.155
 5400SOL     OW17098   3.342   3.626   6.890
 5400SOL    HW117099   3.299   3.596   6.805
 5400SOL    HW217100   3.312   3.719   6.910
 5401SOL     OW17101   6.044   3.770   1.651
 5401SOL    HW117102   6.014   3.841   1.714
 5401SOL    HW217103   6.041   3.804   1.557
 5402SOL     OW17104   2.512   5.727   1.837
 5402SOL    HW117105   2.590   5.691   1.889
 5402SOL    HW217106   2.444   5.656   1.826
 5403SOL     OW17107   5.822   2.374   5.762
 5403SOL    HW117108   5.756   2.413   5.826
 5403SOL    HW217109   5.915   2.403   5.786
 5404SOL     OW17110   0.897   0.165   2.466
 5404SOL    HW117111   0.807   0.140   2.429
 5404SOL    HW217112   0.962   0.174   2.391
 5405SOL     OW17113   5.986   6.321   0.257
 5405SOL    HW117114   6.080   6.331   0.289
 5405SOL    HW217115   5.923   6.332   0.334
 5406SOL     OW17116   2.241   0.231   5.733
 5406SOL    HW117117   2.302   0.259   5.659
 5406SOL    HW217118   2.229   0.132   5.731
 5407SOL     OW17119   3.981   1.654   1.810
 5407SOL    HW117120   4.052   1.722   1.794
 5407SOL    HW217121   4.000   1.573   1.755
 5408SOL     OW17122   3.442   1.049   5.069
 5408SOL    HW117123   3.512   1.084   5.008
 5408SOL    HW217124   3.387   0.980   5.021
 5409SOL     OW17125   6.888   1.969   3.368
 5409SOL    HW117126   6.819   1.927   3.309
 5409SOL    HW217127   6.848   2.046   3.417
 5410SOL     OW17128   1.303   2.861   6.834
 5410SOL    HW117129   1.348   2.855   6.745
 5410SOL    HW217130   1.284   2.956   6.856
 5411SOL     OW17131   6.191   4.566   5.397
 5411SOL    HW117132   6.126   4.622   5.346
 5411SOL    HW217133   6.277   4.615   5.407
 5412SOL     OW17134   3.976   1.171   7.000
 5412SOL    HW117135   3.885   1.177   0.019
 5412SOL    HW217136   4.026   1.255   7.018
 5413SOL     OW17137   0.812   0.177   1.404
 5413SOL    HW117138   0.771   0.155   1.316
 5413SOL    HW217139   0.875   0.103   1.431
 5414SOL     OW17140   6.543   3.215   5.627
 5414SOL    HW117141   6.642   3.212   5.619
 5414SOL    HW217142   6.502   3.200   5.537
 5415SOL     OW17143   0.921   6.129   1.715
 5415SOL    HW117144   0.828   6.140   1.748
 5415SOL    HW217145   0.925   6.157   1.619
 5416SOL     OW17146   3.445   4.770   6.302
 5416SOL    HW117147   3.475   4.683   6.263
 5416SOL    HW217148   3.434   4.837   6.229
 5417SOL     OW17149   4.561   6.735   4.303
 5417SOL    HW117150   4.643   6.792   4.313
 5417SOL    HW217151   4.544   6.719   4.206
 5418SOL     OW17152   5.249   0.748   4.429
 5418SOL    HW117153   5.323   0.764   4.364
 5418SOL    HW217154   5.233   0.831   4.482
 5419SOL     OW17155   3.133   5.296   0.543
 5419SOL    HW117156   3.141   5.226   0.614
 5419SOL    HW217157   3.201   5.367   0.559
 5420SOL     OW17158   1.930   2.865   1.851
 5420SOL    HW117159   1.988   2.933   1.807
 5420SOL    HW217160   1.836   2.875   1.817
 5421SOL     OW17161   2.349   4.374   3.308
 5421SOL    HW117162   2.378   4.365   3.212
 5421SOL    HW217163   2.269   4.434   3.313
 5422SOL     OW17164   1.494   5.989   5.546
 5422SOL    HW117165   1.417   5.976   5.608
 5422SOL    HW217166   1.579   5.991   5.598
 5423SOL     OW17167   5.702   3.453   6.627
 5423SOL    HW117168   5.762   3.447   6.706
 5423SOL    HW217169   5.607   3.462   6.657
 5424SOL     OW17170   6.124   3.538   4.220
 5424SOL    HW117171   6.036   3.535   4.268
 5424SOL    HW217172   6.112   3.504   4.127
 5425SOL     OW17173   5.391   1.660   4.183
 5425SOL    HW117174   5.378   1.706   4.095
 5425SOL    HW217175   5.382   1.726   4.257
 5426SOL     OW17176   6.184   4.880   3.796
 5426SOL    HW117177   6.281   4.859   3.800
 5426SOL    HW217178   6.170   4.978   3.786
 5427SOL     OW17179   5.196   4.945   0.755
 5427SOL    HW117180   5.195   4.847   0.772
 5427SOL    HW217181   5.284   4.983   0.783
 5428SOL     OW17182   6.430   7.009   2.422
 5428SOL    HW117183   6.401   6.914   2.421
 5428SOL    HW217184   6.366   0.041   2.369
 5429SOL     OW17185   1.494   0.857   5.060
 5429SOL    HW117186   1.397   0.837   5.073
 5429SOL    HW217187   1.540   0.861   5.149
 5430SOL     OW17188   2.363   2.425   5.870
 5430SOL    HW117189   2.445   2.368   5.863
 5430SOL    HW217190   2.389   2.520   5.885
 5431SOL     OW17191   3.386   5.004   6.608
 5431SOL    HW117192   3.293   5.040   6.595
 5431SOL    HW217193   3.444   5.035   6.532
 5432SOL     OW17194   3.759   6.136   5.762
 5432SOL    HW117195   3.694   6.121   5.687
 5432SOL    HW217196   3.731   6.217   5.814
 5433SOL     OW17197   0.399   1.331   2.574
 5433SOL    HW117198   0.473   1.366   2.517
 5433SOL    HW217199   0.316   1.321   2.518
 5434SOL     OW17200   4.503   1.467   4.830
 5434SOL    HW117201   4.482   1.405   4.755
 5434SOL    HW217202   4.496   1.562   4.798
 5435SOL     OW17203   6.104   1.957   1.116
 5435SOL    HW117204   6.069   2.042   1.156
 5435SOL    HW217205   6.201   1.948   1.138
 5436SOL     OW17206   5.640   4.260   4.527
 5436SOL    HW117207   5.552   4.213   4.534
 5436SOL    HW217208   5.690   4.225   4.448
 5437SOL     OW17209   2.560   5.131   5.587
 5437SOL    HW117210   2.602   5.040   5.579
 5437SOL    HW217211   2.487   5.128   5.655
 5438SOL     OW17212   6.030   3.944   2.650
 5438SOL    HW117213   5.995   3.945   2.557
 5438SOL    HW217214   5.972   3.884   2.706
 5439SOL     OW17215   6.856   2.089   0.255
 5439SOL    HW117216   6.816   2.181   0.260
 5439SOL    HW217217   6.884   2.070   0.161
 5440SOL     OW17218   6.810   0.205   3.194
 5440SOL    HW117219   6.743   0.177   3.262
 5440SOL    HW217220   6.763   0.227   3.108
 5441SOL     OW17221   4.795   2.702   3.596
 5441SOL    HW117222   4.884   2.669   3.568
 5441SOL    HW217223   4.733   2.625   3.610
 5442SOL     OW17224   3.357   6.479   3.580
 5442SOL    HW117225   3.281   6.419   3.552
 5442SOL    HW217226   3.322   6.571   3.598
 5443SOL     OW17227   3.309   5.822   4.154
 5443SOL    HW117228   3.244   5.808   4.228
 5443SOL    HW217229   3.399   5.786   4.181
 5444SOL     OW17230   0.205   0.991   3.040
 5444SOL    HW117231   0.187   1.078   3.086
 5444SOL    HW217232   0.240   0.925   3.106
 5445SOL     OW17233   6.488   4.066   3.861
 5445SOL    HW117234   6.521   4.000   3.928
 5445SOL    HW217235   6.467   4.019   3.775
 5446SOL     OW17236   5.767   5.239   4.720
 5446SOL    HW117237   5.849   5.274   4.765
 5446SOL    HW217238   5.687   5.288   4.754
 5447SOL     OW17239   1.491   1.913   1.049
 5447SOL    HW117240   1.560   1.937   1.117
 5447SOL    HW217241   1.399   1.927   1.087
 5448SOL     OW17242   6.137   4.125   4.314
 5448SOL    HW117243   6.129   4.214   4.359
 5448SOL    HW217244   6.226   4.119   4.269
 5449SOL     OW17245   1.729   1.208   0.835
 5449SOL    HW117246   1.694   1.166   0.919
 5449SOL    HW217247   1.672   1.180   0.758
 5450SOL     OW17248   2.904   6.824   1.040
 5450SOL    HW117249   2.894   6.803   0.943
 5450SOL    HW217250   2.856   6.755   1.094
 5451SOL     OW17251   2.411   5.574   3.647
 5451SOL    HW117252   2.319   5.536   3.654
 5451SOL    HW217253   2.442   5.569   3.552
 5452SOL     OW17254   2.919   4.345   0.296
 5452SOL    HW117255   2.996   4.323   0.237
 5452SOL    HW217256   2.885   4.262   0.340
 5453SOL     OW17257   5.579   4.103   1.135
 5453SOL    HW117258   5.632   4.187   1.140
 5453SOL    HW217259   5.576   4.059   1.224
 5454SOL     OW17260   5.757   5.207   5.410
 5454SOL    HW117261   5.821   5.233   5.338
 5454SOL    HW217262   5.782   5.254   5.495
 5455SOL     OW17263   6.707   2.324   2.961
 5455SOL    HW117264   6.625   2.269   2.978
 5455SOL    HW217265   6.777   2.267   2.918
 5456SOL     OW17266   2.705   0.260   0.273
 5456SOL    HW117267   2.630   0.274   0.208
 5456SOL    HW217268   2.668   0.231   0.361
 5457SOL     OW17269   0.125   2.103   1.458
 5457SOL    HW117270   0.142   2.031   1.524
 5457SOL    HW217271   0.070   2.176   1.500
 5458SOL     OW17272   0.483   4.867   0.438
 5458SOL    HW117273   0.496   4.771   0.414
 5458SOL    HW217274   0.407   4.904   0.385
 5459SOL     OW17275   3.191   3.544   6.605
 5459SOL    HW117276   3.153   3.589   6.524
 5459SOL    HW217277   3.154   3.452   6.613
 5460SOL     OW17278   3.858   6.705   3.036
 5460SOL    HW117279   3.825   6.686   3.128
 5460SOL    HW217280   3.956   6.686   3.031
 5461SOL     OW17281   0.490   0.914   5.572
 5461SOL    HW117282   0.499   1.013   5.565
 5461SOL    HW217283   0.490   0.887   5.669
 5462SOL     OW17284   6.171   6.996   1.349
 5462SOL    HW117285   6.106   6.985   1.274
 5462SOL    HW217286   6.245   0.035   1.321
 5463SOL     OW17287   0.216   1.447   0.047
 5463SOL    HW117288   0.153   1.380   0.087
 5463SOL    HW217289   0.181   1.477   6.982
 5464SOL     OW17290   6.914   0.308   4.528
 5464SOL    HW117291   6.904   0.244   4.451
 5464SOL    HW217292   6.826   0.320   4.574
 5465SOL     OW17293   4.936   0.917   4.727
 5465SOL    HW117294   4.981   0.839   4.770
 5465SOL    HW217295   5.001   0.992   4.716
 5466SOL     OW17296   5.403   3.100   4.731
 5466SOL    HW117297   5.314   3.128   4.766
 5466SOL    HW217298   5.473   3.164   4.765
 5467SOL     OW17299   5.053   4.317   3.300
 5467SOL    HW117300   5.013   4.324   3.391
 5467SOL    HW217301   4.997   4.257   3.243
 5468SOL     OW17302   6.694   2.660   3.803
 5468SOL    HW117303   6.609   2.611   3.783
 5468SOL    HW217304   6.674   2.736   3.865
 5469SOL     OW17305   2.791   6.410   5.625
 5469SOL    HW117306   2.872   6.351   5.631
 5469SOL    HW217307   2.743   6.393   5.539
 5470SOL     OW17308   3.883   5.521   3.199
 5470SOL    HW117309   3.824   5.493   3.274
 5470SOL    HW217310   3.857   5.613   3.170
 5471SOL     OW17311   6.124   0.205   3.185
 5471SOL    HW117312   6.116   0.282   3.249
 5471SOL    HW217313   6.086   0.123   3.227
 5472SOL     OW17314   2.433   4.098   6.896
 5472SOL    HW117315   2.408   4.003   6.920
 5472SOL    HW217316   2.351   4.155   6.897
 5473SOL     OW17317   1.208   3.447   1.858
 5473SOL    HW117318   1.275   3.434   1.932
 5473SOL    HW217319   1.253   3.432   1.770
 5474SOL     OW17320   0.937   4.498   3.840
 5474SOL    HW117321   0.984   4.585   3.856
 5474SOL    HW217322   0.855   4.494   3.897
 5475SOL     OW17323   2.137   2.815   1.013
 5475SOL    HW117324   2.080   2.870   0.952
 5475SOL    HW217325   2.079   2.756   1.068
 5476SOL     OW17326   2.451   4.105   5.434
 5476SOL    HW117327   2.453   4.071   5.339
 5476SOL    HW217328   2.420   4.032   5.494
 5477SOL     OW17329   2.287   4.625   2.219
 5477SOL    HW117330   2.189   4.623   2.241
 5477SOL    HW217331   2.306   4.557   2.148
 5478SOL     OW17332   2.940   6.203   4.381
 5478SOL    HW117333   3.031   6.172   4.351
 5478SOL    HW217334   2.886   6.227   4.300
 5479SOL     OW17335   5.508   0.702   6.463
 5479SOL    HW117336   5.521   0.604   6.450
 5479SOL    HW217337   5.544   0.729   6.552
 5480SOL     OW17338   5.920   5.388   4.200
 5480SOL    HW117339   5.848   5.456   4.197
 5480SOL    HW217340   5.885   5.300   4.166
 5481SOL     OW17341   4.825   1.402   4.671
 5481SOL    HW117342   4.852   1.419   4.766
 5481SOL    HW217343   4.753   1.332   4.669
 5482SOL     OW17344   3.701   4.414   1.674
 5482SOL    HW117345   3.678   4.493   1.730
 5482SOL    HW217346   3.618   4.377   1.632
 5483SOL     OW17347   6.899   1.980   5.389
 5483SOL    HW117348   6.816   1.998   5.337
 5483SOL    HW217349   6.968   2.050   5.367
 5484SOL     OW17350   4.336   1.218   3.744
 5484SOL    HW117351   4.302   1.312   3.746
 5484SOL    HW217352   4.278   1.163   3.683
 5485SOL     OW17353   4.128   0.049   4.358
 5485SOL    HW117354   4.173   6.985   4.336
 5485SOL    HW217355   4.179   0.095   4.430
 5486SOL     OW17356   2.314   6.494   5.062
 5486SOL    HW117357   2.361   6.543   5.135
 5486SOL    HW217358   2.359   6.511   4.974
 5487SOL     OW17359   5.740   2.605   6.969
 5487SOL    HW117360   5.823   2.610   0.001
 5487SOL    HW217361   5.759   2.642   6.878
 5488SOL     OW17362   6.137   0.055   1.613
 5488SOL    HW117363   6.156   0.153   1.611
 5488SOL    HW217364   6.150   0.016   1.522
 5489SOL     OW17365   0.232   4.452   1.946
 5489SOL    HW117366   0.263   4.527   2.005
 5489SOL    HW217367   0.254   4.365   1.990
 5490SOL     OW17368   3.129   0.336   1.540
 5490SOL    HW117369   3.151   0.319   1.636
 5490SOL    HW217370   3.196   0.289   1.482
 5491SOL     OW17371   0.963   4.225   0.665
 5491SOL    HW117372   1.028   4.159   0.703
 5491SOL    HW217373   1.001   4.317   0.673
 5492SOL     OW17374   0.288   3.511   5.952
 5492SOL    HW117375   0.287   3.523   5.853
 5492SOL    HW217376   0.289   3.413   5.974
 5493SOL     OW17377   2.929   3.688   4.384
 5493SOL    HW117378   3.001   3.757   4.390
 5493SOL    HW217379   2.906   3.672   4.288
 5494SOL     OW17380   0.426   3.243   5.898
 5494SOL    HW117381   0.342   3.265   5.848
 5494SOL    HW217382   0.419   3.150   5.935
 5495SOL     OW17383   4.662   1.463   1.106
 5495SOL    HW117384   4.702   1.502   1.188
 5495SOL    HW217385   4.572   1.425   1.127
 5496SOL     OW17386   4.085   0.866   3.381
 5496SOL    HW117387   4.001   0.920   3.389
 5496SOL    HW217388   4.073   0.778   3.426
 5497SOL     OW17389   6.962   1.127   4.939
 5497SOL    HW117390   0.009   1.073   4.893
 5497SOL    HW217391   7.003   1.208   4.980
 5498SOL     OW17392   6.493   5.967   0.974
 5498SOL    HW117393   6.515   5.971   1.072
 5498SOL    HW217394   6.569   5.924   0.925
 5499SOL     OW17395   0.361   0.824   4.642
 5499SOL    HW117396   0.360   0.836   4.742
 5499SOL    HW217397   0.338   0.730   4.620
 5500SOL     OW17398   0.947   0.596   0.293
 5500SOL    HW117399   0.992   0.551   0.216
 5500SOL    HW217400   0.865   0.544   0.318
 5501SOL     OW17401   3.149   1.396   0.237
 5501SOL    HW117402   3.075   1.340   0.274
 5501SOL    HW217403   3.152   1.385   0.137
 5502SOL     OW17404   5.180   3.817   6.938
 5502SOL    HW117405   5.127   3.902   6.938
 5502SOL    HW217406   5.141   3.754   7.005
 5503SOL     OW17407   7.010   4.540   1.882
 5503SOL    HW117408   0.083   4.517   1.901
 5503SOL    HW217409   6.952   4.497   1.950
 5504SOL     OW17410   4.783   1.573   5.735
 5504SOL    HW117411   4.744   1.482   5.746
 5504SOL    HW217412   4.853   1.589   5.805
 5505SOL     OW17413   2.137   5.258   4.406
 5505SOL    HW117414   2.075   5.336   4.394
 5505SOL    HW217415   2.123   5.192   4.332
 5506SOL     OW17416   0.822   3.617   0.503
 5506SOL    HW117417   0.788   3.611   0.597
 5506SOL    HW217418   0.759   3.568   0.442
 5507SOL     OW17419   4.000   1.002   4.732
 5507SOL    HW117420   4.005   1.013   4.633
 5507SOL    HW217421   3.925   0.940   4.755
 5508SOL     OW17422   0.964   1.315   0.371
 5508SOL    HW117423   0.943   1.316   0.468
 5508SOL    HW217424   0.883   1.342   0.318
 5509SOL     OW17425   0.350   5.998   6.672
 5509SOL    HW117426   0.277   6.062   6.697
 5509SOL    HW217427   0.382   6.018   6.579
 5510SOL     OW17428   4.622   5.589   0.521
 5510SOL    HW117429   4.714   5.577   0.559
 5510SOL    HW217430   4.610   5.683   0.491
 5511SOL     OW17431   1.493   0.955   3.381
 5511SOL    HW117432   1.511   0.900   3.463
 5511SOL    HW217433   1.539   0.914   3.302
 5512SOL     OW17434   5.248   2.405   0.824
 5512SOL    HW117435   5.214   2.317   0.857
 5512SOL    HW217436   5.348   2.407   0.832
 5513SOL     OW17437   3.762   4.356   5.974
 5513SOL    HW117438   3.752   4.455   5.988
 5513SOL    HW217439   3.852   4.327   6.007
 5514SOL     OW17440   4.070   0.279   4.241
 5514SOL    HW117441   4.096   0.189   4.276
 5514SOL    HW217442   4.065   0.344   4.317
 5515SOL     OW17443   0.686   5.459   2.287
 5515SOL    HW117444   0.717   5.466   2.381
 5515SOL    HW217445   0.756   5.412   2.232
 5516SOL     OW17446   1.854   3.572   6.281
 5516SOL    HW117447   1.875   3.489   6.332
 5516SOL    HW217448   1.768   3.560   6.231
 5517SOL     OW17449   2.125   3.331   2.211
 5517SOL    HW117450   2.039   3.378   2.232
 5517SOL    HW217451   2.170   3.377   2.134
 5518SOL     OW17452   5.690   6.335   6.770
 5518SOL    HW117453   5.711   6.238   6.784
 5518SOL    HW217454   5.689   6.382   6.858
 5519SOL     OW17455   5.605   3.742   3.378
 5519SOL    HW117456   5.511   3.745   3.345
 5519SOL    HW217457   5.665   3.788   3.313
 5520SOL     OW17458   6.366   6.745   2.367
 5520SOL    HW117459   6.318   6.657   2.360
 5520SOL    HW217460   6.428   6.755   2.290
 5521SOL     OW17461   5.571   6.533   2.144
 5521SOL    HW117462   5.524   6.570   2.224
 5521SOL    HW217463   5.603   6.608   2.086
 5522SOL     OW17464   5.758   5.327   0.660
 5522SOL    HW117465   5.794   5.346   0.752
 5522SOL    HW217466   5.690   5.396   0.637
 5523SOL     OW17467   3.917   1.304   2.169
 5523SOL    HW117468   4.006   1.287   2.212
 5523SOL    HW217469   3.905   1.402   2.153
 5524SOL     OW17470   4.955   0.393   4.166
 5524SOL    HW117471   4.937   0.328   4.240
 5524SOL    HW217472   4.989   0.479   4.204
 5525SOL     OW17473   0.033   2.398   0.724
 5525SOL    HW117474   0.058   2.382   0.628
 5525SOL    HW217475   0.058   2.491   0.750
 5526SOL     OW17476   4.775   5.612   3.165
 5526SOL    HW117477   4.745   5.637   3.257
 5526SOL    HW217478   4.844   5.678   3.134
 5527SOL     OW17479   5.309   3.227   4.251
 5527SOL    HW117480   5.307   3.129   4.230
 5527SOL    HW217481   5.402   3.254   4.274
 5528SOL     OW17482   1.211   0.717   0.162
 5528SOL    HW117483   1.259   0.657   0.099
 5528SOL    HW217484   1.256   0.716   0.251
 5529SOL     OW17485   3.568   7.004   4.096
 5529SOL    HW117486   3.509   6.923   4.099
 5529SOL    HW217487   3.534   0.048   4.160
 5530SOL     OW17488   5.739   2.270   0.979
 5530SOL    HW117489   5.764   2.179   0.947
 5530SOL    HW217490   5.713   2.265   1.076
 5531SOL     OW17491   3.718   3.747   2.197
 5531SOL    HW117492   3.802   3.796   2.218
 5531SOL    HW217493   3.647   3.811   2.168
 5532SOL     OW17494   1.011   3.516   1.011
 5532SOL    HW117495   1.106   3.487   1.005
 5532SOL    HW217496   0.984   3.561   0.925
 5533SOL     OW17497   3.817   2.123   2.904
 5533SOL    HW117498   3.890   2.075   2.953
 5533SOL    HW217499   3.772   2.187   2.967
 5534SOL     OW17500   0.465   1.552   6.579
 5534SOL    HW117501   0.531   1.620   6.548
 5534SOL    HW217502   0.513   1.474   6.619
 5535SOL     OW17503   0.555   2.461   3.466
 5535SOL    HW117504   0.554   2.372   3.511
 5535SOL    HW217505   0.650   2.493   3.459
 5536SOL     OW17506   3.682   1.220   4.097
 5536SOL    HW117507   3.695   1.319   4.095
 5536SOL    HW217508   3.737   1.180   4.170
 5537SOL     OW17509   2.585   1.342   2.152
 5537SOL    HW117510   2.645   1.263   2.167
 5537SOL    HW217511   2.508   1.315   2.095
 5538SOL     OW17512   2.928   5.990   5.367
 5538SOL    HW117513   2.976   6.077   5.354
 5538SOL    HW217514   2.829   6.005   5.358
 5539SOL     OW17515   1.051   3.688   1.428
 5539SOL    HW117516   0.951   3.684   1.430
 5539SOL    HW217517   1.084   3.729   1.513
 5540SOL     OW17518   4.495   4.449   3.967
 5540SOL    HW117519   4.438   4.370   3.945
 5540SOL    HW217520   4.539   4.482   3.883
 5541SOL     OW17521   5.241   6.784   6.231
 5541SOL    HW117522   5.182   6.737   6.166
 5541SOL    HW217523   5.185   6.819   6.307
 5542SOL     OW17524   4.619   3.438   6.198
 5542SOL    HW117525   4.603   3.384   6.280
 5542SOL    HW217526   4.565   3.522   6.202
 5543SOL     OW17527   3.354   4.155   6.047
 5543SOL    HW117528   3.264   4.191   6.023
 5543SOL    HW217529   3.352   4.120   6.140
 5544SOL     OW17530   4.868   5.306   0.061
 5544SOL    HW117531   4.826   5.248   0.131
 5544SOL    HW217532   4.849   5.402   0.082
 5545SOL     OW17533   4.770   1.065   2.327
 5545SOL    HW117534   4.820   1.149   2.346
 5545SOL    HW217535   4.672   1.081   2.340
 5546SOL     OW17536   0.238   4.696   4.199
 5546SOL    HW117537   0.323   4.681   4.250
 5546SOL    HW217538   0.207   4.790   4.213
 5547SOL     OW17539   2.935   6.755   5.050
 5547SOL    HW117540   2.980   6.808   5.123
 5547SOL    HW217541   2.888   6.676   5.090
 5548SOL     OW17542   6.651   1.798   5.584
 5548SOL    HW117543   6.729   1.772   5.641
 5548SOL    HW217544   6.575   1.825   5.643
 5549SOL     OW17545   5.059   4.818   6.682
 5549SOL    HW117546   5.125   4.857   6.619
 5549SOL    HW217547   4.967   4.825   6.642
 5550SOL     OW17548   3.037   5.433   2.367
 5550SOL    HW117549   3.064   5.422   2.272
 5550SOL    HW217550   3.109   5.398   2.427
 5551SOL     OW17551   2.129   0.415   2.466
 5551SOL    HW117552   2.047   0.426   2.410
 5551SOL    HW217553   2.103   0.401   2.561
 5552SOL     OW17554   6.629   0.504   7.018
 5552SOL    HW117555   6.572   0.584   6.999
 5552SOL    HW217556   6.574   0.421   7.006
 5553SOL     OW17557   3.941   6.687   0.164
 5553SOL    HW117558   3.901   6.599   0.191
 5553SOL    HW217559   3.879   6.734   0.101
 5554SOL     OW17560   2.958   1.924   5.002
 5554SOL    HW117561   2.973   1.899   5.098
 5554SOL    HW217562   3.040   1.966   4.965
 5555SOL     OW17563   0.226   4.399   4.240
 5555SOL    HW117564   0.233   4.496   4.214
 5555SOL    HW217565   0.138   4.363   4.209
 5556SOL     OW17566   0.300   2.561   4.433
 5556SOL    HW117567   0.267   2.603   4.517
 5556SOL    HW217568   0.307   2.462   4.446
 5557SOL     OW17569   3.783   5.276   3.055
 5557SOL    HW117570   3.868   5.238   3.094
 5557SOL    HW217571   3.783   5.375   3.066
 5558SOL     OW17572   5.415   3.768   6.331
 5558SOL    HW117573   5.345   3.706   6.296
 5558SOL    HW217574   5.410   3.770   6.431
 5559SOL     OW17575   2.309   6.749   2.320
 5559SOL    HW117576   2.373   6.695   2.375
 5559SOL    HW217577   2.257   6.810   2.379
 5560SOL     OW17578   0.611   6.647   3.638
 5560SOL    HW117579   0.515   6.627   3.614
 5560SOL    HW217580   0.635   6.737   3.602
 5561SOL     OW17581   2.387   1.493   3.957
 5561SOL    HW117582   2.325   1.436   3.904
 5561SOL    HW217583   2.481   1.480   3.925
 5562SOL     OW17584   2.207   2.661   0.014
 5562SOL    HW117585   2.209   2.629   0.108
 5562SOL    HW217586   2.294   2.636   6.993
 5563SOL     OW17587   4.863   6.623   2.342
 5563SOL    HW117588   4.825   6.562   2.273
 5563SOL    HW217589   4.890   6.570   2.422
 5564SOL     OW17590   4.918   1.870   1.562
 5564SOL    HW117591   4.861   1.817   1.624
 5564SOL    HW217592   4.863   1.902   1.485
 5565SOL     OW17593   4.462   1.107   6.316
 5565SOL    HW117594   4.519   1.188   6.328
 5565SOL    HW217595   4.476   1.046   6.394
 5566SOL     OW17596   1.975   5.544   1.241
 5566SOL    HW117597   1.938   5.480   1.307
 5566SOL    HW217598   2.064   5.577   1.273
 5567SOL     OW17599   0.983   4.667   1.332
 5567SOL    HW117600   0.929   4.584   1.325
 5567SOL    HW217601   0.936   4.733   1.390
 5568SOL     OW17602   4.913   2.528   2.511
 5568SOL    HW117603   4.934   2.476   2.593
 5568SOL    HW217604   4.829   2.580   2.525
 5569SOL     OW17605   3.513   2.081   1.560
 5569SOL    HW117606   3.432   2.097   1.617
 5569SOL    HW217607   3.587   2.046   1.618
 5570SOL     OW17608   6.089   4.326   4.859
 5570SOL    HW117609   6.112   4.260   4.930
 5570SOL    HW217610   6.167   4.386   4.842
 5571SOL     OW17611   0.434   6.876   6.682
 5571SOL    HW117612   0.511   6.936   6.701
 5571SOL    HW217613   0.413   6.822   6.763
 5572SOL     OW17614   2.217   3.049   6.278
 5572SOL    HW117615   2.276   3.059   6.357
 5572SOL    HW217616   2.146   3.120   6.279
 5573SOL     OW17617   1.307   3.044   0.178
 5573SOL    HW117618   1.333   3.119   0.118
 5573SOL    HW217619   1.215   3.012   0.154
 5574SOL     OW17620   0.184   1.055   4.062
 5574SOL    HW117621   0.186   1.065   3.963
 5574SOL    HW217622   0.233   1.131   4.104
 5575SOL     OW17623   1.334   1.051   1.816
 5575SOL    HW117624   1.287   0.967   1.790
 5575SOL    HW217625   1.433   1.037   1.810
 5576SOL     OW17626   6.616   6.080   1.806
 5576SOL    HW117627   6.546   6.095   1.736
 5576SOL    HW217628   6.692   6.028   1.767
 5577SOL     OW17629   2.765   2.686   6.049
 5577SOL    HW117630   2.777   2.594   6.086
 5577SOL    HW217631   2.853   2.732   6.046
 5578SOL     OW17632   4.247   2.660   0.977
 5578SOL    HW117633   4.151   2.686   0.985
 5578SOL    HW217634   4.278   2.621   1.063
 5579SOL     OW17635   6.624   3.627   5.840
 5579SOL    HW117636   6.551   3.690   5.815
 5579SOL    HW217637   6.584   3.540   5.868
 5580SOL     OW17638   4.876   1.674   6.893
 5580SOL    HW117639   4.814   1.689   6.816
 5580SOL    HW217640   4.881   1.576   6.913
 5581SOL     OW17641   2.614   6.970   1.000
 5581SOL    HW117642   2.553   6.956   1.077
 5581SOL    HW217643   2.699   6.918   1.015
 5582SOL     OW17644   3.379   3.204   3.652
 5582SOL    HW117645   3.470   3.162   3.650
 5582SOL    HW217646   3.311   3.134   3.671
 5583SOL     OW17647   3.887   6.448   2.672
 5583SOL    HW117648   3.899   6.512   2.596
 5583SOL    HW217649   3.973   6.400   2.689
 5584SOL     OW17650   5.486   4.051   4.104
 5584SOL    HW117651   5.497   4.147   4.128
 5584SOL    HW217652   5.435   4.004   4.176
 5585SOL     OW17653   5.296   0.994   3.982
 5585SOL    HW117654   5.323   1.087   4.007
 5585SOL    HW217655   5.224   0.962   4.043
 5586SOL     OW17656   1.228   2.439   0.109
 5586SOL    HW117657   1.287   2.516   0.133
 5586SOL    HW217658   1.285   2.360   0.083
 5587SOL     OW17659   4.009   6.625   2.481
 5587SOL    HW117660   4.073   6.559   2.443
 5587SOL    HW217661   4.036   6.718   2.454
 5588SOL     OW17662   1.540   6.762   4.639
 5588SOL    HW117663   1.562   6.667   4.660
 5588SOL    HW217664   1.570   6.820   4.714
 5589SOL     OW17665   4.922   3.257   6.713
 5589SOL    HW117666   4.980   3.234   6.791
 5589SOL    HW217667   4.969   3.233   6.628
 5590SOL     OW17668   6.655   5.446   2.924
 5590SOL    HW117669   6.630   5.459   2.828
 5590SOL    HW217670   6.601   5.370   2.962
 5591SOL     OW17671   5.829   0.137   6.785
 5591SOL    HW117672   5.874   0.187   6.711
 5591SOL    HW217673   5.732   0.161   6.787
 5592SOL     OW17674   2.149   4.170   2.821
 5592SOL    HW117675   2.164   4.190   2.918
 5592SOL    HW217676   2.052   4.183   2.800
 5593SOL     OW17677   6.852   2.682   5.742
 5593SOL    HW117678   6.881   2.604   5.685
 5593SOL    HW217679   6.790   2.740   5.689
 5594SOL     OW17680   2.137   1.483   0.204
 5594SOL    HW117681   2.175   1.575   0.195
 5594SOL    HW217682   2.091   1.458   0.119
 5595SOL     OW17683   6.460   0.439   5.209
 5595SOL    HW117684   6.494   0.347   5.226
 5595SOL    HW217685   6.537   0.498   5.183
 5596SOL     OW17686   5.525   6.961   3.002
 5596SOL    HW117687   5.625   6.954   3.003
 5596SOL    HW217688   5.496   7.004   2.916
 5597SOL     OW17689   5.272   2.672   5.499
 5597SOL    HW117690   5.209   2.688   5.575
 5597SOL    HW217691   5.239   2.596   5.443
 5598SOL     OW17692   4.878   2.119   3.749
 5598SOL    HW117693   4.785   2.125   3.713
 5598SOL    HW217694   4.875   2.124   3.849
 5599SOL     OW17695   5.591   3.976   2.011
 5599SOL    HW117696   5.619   3.895   1.958
 5599SOL    HW217697   5.496   3.997   1.990
 5600SOL     OW17698   2.533   0.214   2.709
 5600SOL    HW117699   2.483   0.129   2.693
 5600SOL    HW217700   2.514   0.279   2.636
 5601SOL     OW17701   4.737   2.481   5.932
 5601SOL    HW117702   4.817   2.452   5.985
 5601SOL    HW217703   4.663   2.415   5.943
 5602SOL     OW17704   7.005   1.560   3.142
 5602SOL    HW117705   6.957   1.563   3.230
 5602SOL    HW217706   6.951   1.508   3.076
 5603SOL     OW17707   4.462   2.665   5.182
 5603SOL    HW117708   4.474   2.762   5.161
 5603SOL    HW217709   4.401   2.655   5.260
 5604SOL     OW17710   0.993   1.498   4.362
 5604SOL    HW117711   0.931   1.444   4.305
 5604SOL    HW217712   0.958   1.499   4.456
 5605SOL     OW17713   1.163   0.429   5.319
 5605SOL    HW117714   1.109   0.491   5.261
 5605SOL    HW217715   1.260   0.444   5.301
 5606SOL     OW17716   4.274   1.617   0.614
 5606SOL    HW117717   4.261   1.539   0.676
 5606SOL    HW217718   4.210   1.690   0.640
 5607SOL     OW17719   6.123   2.229   3.213
 5607SOL    HW117720   6.066   2.296   3.167
 5607SOL    HW217721   6.215   2.265   3.225
 5608SOL     OW17722   6.393   0.868   3.149
 5608SOL    HW117723   6.409   0.849   3.246
 5608SOL    HW217724   6.431   0.795   3.093
 5609SOL     OW17725   4.647   6.548   0.166
 5609SOL    HW117726   4.704   6.603   0.105
 5609SOL    HW217727   4.633   6.597   0.252
 5610SOL     OW17728   5.448   3.964   0.442
 5610SOL    HW117729   5.466   4.045   0.498
 5610SOL    HW217730   5.522   3.952   0.376
 5611SOL     OW17731   0.681   5.083   2.290
 5611SOL    HW117732   0.657   4.993   2.326
 5611SOL    HW217733   0.740   5.131   2.355
 5612SOL     OW17734   2.974   2.596   0.778
 5612SOL    HW117735   2.944   2.560   0.866
 5612SOL    HW217736   2.904   2.656   0.740
 5613SOL     OW17737   7.001   4.271   4.572
 5613SOL    HW117738   6.912   4.279   4.617
 5613SOL    HW217739   0.047   4.250   4.640
 5614SOL     OW17740   6.471   1.929   4.516
 5614SOL    HW117741   6.569   1.917   4.500
 5614SOL    HW217742   6.456   1.960   4.610
 5615SOL     OW17743   0.206   1.668   2.310
 5615SOL    HW117744   0.288   1.623   2.276
 5615SOL    HW217745   0.202   1.762   2.275
 5616SOL     OW17746   2.478   1.703   5.312
 5616SOL    HW117747   2.516   1.625   5.262
 5616SOL    HW217748   2.495   1.787   5.261
 5617SOL     OW17749   1.378   4.671   4.517
 5617SOL    HW117750   1.422   4.581   4.514
 5617SOL    HW217751   1.405   4.724   4.436
 5618SOL     OW17752   6.102   5.345   3.394
 5618SOL    HW117753   6.163   5.294   3.332
 5618SOL    HW217754   6.065   5.283   3.463
 5619SOL     OW17755   3.793   2.935   3.758
 5619SOL    HW117756   3.856   2.859   3.742
 5619SOL    HW217757   3.843   3.015   3.789
 5620SOL     OW17758   4.452   4.396   5.507
 5620SOL    HW117759   4.415   4.320   5.453
 5620SOL    HW217760   4.383   4.428   5.572
 5621SOL     OW17761   1.517   3.132   6.466
 5621SOL    HW117762   1.420   3.110   6.464
 5621SOL    HW217763   1.571   3.050   6.449
 5622SOL     OW17764   4.625   6.534   5.399
 5622SOL    HW117765   4.661   6.490   5.481
 5622SOL    HW217766   4.527   6.512   5.391
 5623SOL     OW17767   4.800   6.762   4.909
 5623SOL    HW117768   4.734   6.712   4.964
 5623SOL    HW217769   4.850   6.827   4.967
 5624SOL     OW17770   0.802   5.219   3.224
 5624SOL    HW117771   0.752   5.191   3.142
 5624SOL    HW217772   0.781   5.315   3.245
 5625SOL     OW17773   1.057   5.134   4.913
 5625SOL    HW117774   1.092   5.221   4.878
 5625SOL    HW217775   1.066   5.132   5.012
 5626SOL     OW17776   2.193   4.550   4.526
 5626SOL    HW117777   2.171   4.566   4.622
 5626SOL    HW217778   2.287   4.518   4.519
 5627SOL     OW17779   0.346   5.743   5.769
 5627SOL    HW117780   0.390   5.654   5.760
 5627SOL    HW217781   0.296   5.746   5.856
 5628SOL     OW17782   2.992   2.878   0.829
 5628SOL    HW117783   3.056   2.920   0.765
 5628SOL    HW217784   3.039   2.808   0.882
 5629SOL     OW17785   3.919   2.810   1.197
 5629SOL    HW117786   3.847   2.878   1.207
 5629SOL    HW217787   3.987   2.823   1.269
 5630SOL     OW17788   1.577   3.729   6.040
 5630SOL    HW117789   1.664   3.775   6.058
 5630SOL    HW217790   1.568   3.650   6.101
 5631SOL     OW17791   5.194   1.218   1.903
 5631SOL    HW117792   5.194   1.141   1.840
 5631SOL    HW217793   5.188   1.185   1.997
 5632SOL     OW17794   5.216   1.520   6.260
 5632SOL    HW117795   5.193   1.422   6.257
 5632SOL    HW217796   5.143   1.569   6.307
 5633SOL     OW17797   0.323   5.231   4.566
 5633SOL    HW117798   0.300   5.291   4.643
 5633SOL    HW217799   0.422   5.232   4.551
 5634SOL     OW17800   1.771   5.239   4.467
 5634SOL    HW117801   1.818   5.196   4.390
 5634SOL    HW217802   1.783   5.183   4.549
 5635SOL     OW17803   2.849   6.638   6.658
 5635SOL    HW117804   2.814   6.724   6.694
 5635SOL    HW217805   2.874   6.649   6.562
 5636SOL     OW17806   5.921   1.142   5.677
 5636SOL    HW117807   5.980   1.124   5.756
 5636SOL    HW217808   5.967   1.205   5.615
 5637SOL     OW17809   5.515   6.714   4.159
 5637SOL    HW117810   5.588   6.648   4.141
 5637SOL    HW217811   5.551   6.807   4.146
 5638SOL     OW17812   5.644   5.627   1.213
 5638SOL    HW117813   5.628   5.671   1.125
 5638SOL    HW217814   5.733   5.657   1.249
 5639SOL     OW17815   1.243   0.795   1.815
 5639SOL    HW117816   1.265   0.766   1.909
 5639SOL    HW217817   1.145   0.805   1.805
 5640SOL     OW17818   2.543   6.596   2.435
 5640SOL    HW117819   2.600   6.572   2.513
 5640SOL    HW217820   2.590   6.572   2.350
 5641SOL     OW17821   0.535   4.707   6.014
 5641SOL    HW117822   0.478   4.637   5.972
 5641SOL    HW217823   0.569   4.675   6.102
 5642SOL     OW17824   1.330   5.105   5.835
 5642SOL    HW117825   1.282   5.056   5.762
 5642SOL    HW217826   1.294   5.075   5.924
 5643SOL     OW17827   3.400   0.903   4.732
 5643SOL    HW117828   3.325   0.944   4.680
 5643SOL    HW217829   3.365   0.876   4.822
 5644SOL     OW17830   4.992   0.816   3.867
 5644SOL    HW117831   4.988   0.718   3.850
 5644SOL    HW217832   5.036   0.833   3.955
 5645SOL     OW17833   6.257   4.755   2.617
 5645SOL    HW117834   6.160   4.737   2.634
 5645SOL    HW217835   6.289   4.826   2.680
 5646SOL     OW17836   2.237   5.258   3.513
 5646SOL    HW117837   2.195   5.171   3.489
 5646SOL    HW217838   2.170   5.316   3.560
 5647SOL     OW17839   6.394   6.442   6.819
 5647SOL    HW117840   6.435   6.533   6.810
 5647SOL    HW217841   6.365   6.410   6.729
 5648SOL     OW17842   1.666   0.795   2.948
 5648SOL    HW117843   1.579   0.824   2.909
 5648SOL    HW217844   1.666   0.696   2.960
 5649SOL     OW17845   1.420   6.328   5.888
 5649SOL    HW117846   1.342   6.274   5.857
 5649SOL    HW217847   1.505   6.287   5.855
 5650SOL     OW17848   0.495   5.307   1.086
 5650SOL    HW117849   0.439   5.254   1.150
 5650SOL    HW217850   0.438   5.335   1.009
 5651SOL     OW17851   6.848   1.210   1.579
 5651SOL    HW117852   6.914   1.174   1.513
 5651SOL    HW217853   6.756   1.181   1.552
 5652SOL     OW17854   5.496   6.299   2.048
 5652SOL    HW117855   5.549   6.374   2.089
 5652SOL    HW217856   5.533   6.277   1.958
 5653SOL     OW17857   0.376   6.475   6.692
 5653SOL    HW117858   0.441   6.523   6.751
 5653SOL    HW217859   0.413   6.467   6.600
 5654SOL     OW17860   6.959   6.270   5.658
 5654SOL    HW117861   0.032   6.293   5.655
 5654SOL    HW217862   6.940   6.213   5.738
 5655SOL     OW17863   1.597   3.167   4.416
 5655SOL    HW117864   1.661   3.217   4.475
 5655SOL    HW217865   1.593   3.072   4.445
 5656SOL     OW17866   2.282   4.278   0.151
 5656SOL    HW117867   2.324   4.203   0.202
 5656SOL    HW217868   2.320   4.365   0.181
 5657SOL     OW17869   5.368   0.123   1.099
 5657SOL    HW117870   5.379   0.108   1.001
 5657SOL    HW217871   5.271   0.119   1.123
 5658SOL     OW17872   3.417   6.271   5.681
 5658SOL    HW117873   3.420   6.181   5.639
 5658SOL    HW217874   3.388   6.263   5.776
 5659SOL     OW17875   3.174   4.024   3.199
 5659SOL    HW117876   3.242   3.964   3.156
 5659SOL    HW217877   3.084   4.004   3.162
 5660SOL     OW17878   5.537   0.615   5.812
 5660SOL    HW117879   5.457   0.598   5.869
 5660SOL    HW217880   5.619   0.588   5.861
 5661SOL     OW17881   6.905   4.980   6.301
 5661SOL    HW117882   6.993   4.934   6.308
 5661SOL    HW217883   6.832   4.916   6.326
 5662SOL     OW17884   2.662   4.985   3.996
 5662SOL    HW117885   2.688   4.903   4.047
 5662SOL    HW217886   2.645   4.960   3.900
 5663SOL     OW17887   1.585   4.210   6.852
 5663SOL    HW117888   1.668   4.155   6.851
 5663SOL    HW217889   1.541   4.204   6.941
 5664SOL     OW17890   6.753   3.696   4.080
 5664SOL    HW117891   6.785   3.728   3.990
 5664SOL    HW217892   6.656   3.672   4.074
 5665SOL     OW17893   2.138   1.774   0.071
 5665SOL    HW117894   2.189   1.853   0.106
 5665SOL    HW217895   2.064   1.806   0.012
 5666SOL     OW17896   5.355   6.159   0.578
 5666SOL    HW117897   5.356   6.071   0.627
 5666SOL    HW217898   5.368   6.233   0.643
 5667SOL     OW17899   0.612   4.648   3.730
 5667SOL    HW117900   0.547   4.573   3.718
 5667SOL    HW217901   0.595   4.693   3.818
 5668SOL     OW17902   5.233   2.313   6.175
 5668SOL    HW117903   5.213   2.331   6.079
 5668SOL    HW217904   5.187   2.229   6.203
 5669SOL     OW17905   0.769   3.258   6.556
 5669SOL    HW117906   0.686   3.240   6.609
 5669SOL    HW217907   0.755   3.340   6.500
 5670SOL     OW17908   0.193   3.244   3.589
 5670SOL    HW117909   0.282   3.218   3.553
 5670SOL    HW217910   0.200   3.335   3.631
 5671SOL     OW17911   0.811   6.249   6.518
 5671SOL    HW117912   0.809   6.274   6.421
 5671SOL    HW217913   0.842   6.327   6.572
 5672SOL     OW17914   4.508   4.838   6.858
 5672SOL    HW117915   4.547   4.926   6.828
 5672SOL    HW217916   4.416   4.853   6.894
 5673SOL     OW17917   0.723   6.503   2.377
 5673SOL    HW117918   0.750   6.408   2.359
 5673SOL    HW217919   0.677   6.541   2.297
 5674SOL     OW17920   6.753   3.767   3.459
 5674SOL    HW117921   6.782   3.795   3.367
 5674SOL    HW217922   6.757   3.846   3.520
 5675SOL     OW17923   4.415   1.676   6.338
 5675SOL    HW117924   4.390   1.757   6.392
 5675SOL    HW217925   4.383   1.687   6.244
 5676SOL     OW17926   2.072   1.931   1.936
 5676SOL    HW117927   2.171   1.943   1.931
 5676SOL    HW217928   2.028   2.020   1.921
 5677SOL     OW17929   0.765   2.222   2.643
 5677SOL    HW117930   0.785   2.306   2.592
 5677SOL    HW217931   0.795   2.143   2.589
 5678SOL     OW17932   2.534   6.630   3.071
 5678SOL    HW117933   2.586   6.715   3.082
 5678SOL    HW217934   2.549   6.571   3.150
 5679SOL     OW17935   1.016   0.523   3.147
 5679SOL    HW117936   0.961   0.461   3.091
 5679SOL    HW217937   1.108   0.486   3.156
 5680SOL     OW17938   1.492   5.367   0.607
 5680SOL    HW117939   1.435   5.300   0.654
 5680SOL    HW217940   1.479   5.359   0.508
 5681SOL     OW17941   0.706   3.473   6.342
 5681SOL    HW117942   0.693   3.448   6.246
 5681SOL    HW217943   0.726   3.571   6.348
 5682SOL     OW17944   2.017   4.761   5.333
 5682SOL    HW117945   1.986   4.807   5.416
 5682SOL    HW217946   1.937   4.727   5.282
 5683SOL     OW17947   4.017   1.907   7.004
 5683SOL    HW117948   4.057   1.926   0.070
 5683SOL    HW217949   4.068   1.833   6.960
 5684SOL     OW17950   3.951   3.026   4.556
 5684SOL    HW117951   3.995   2.946   4.596
 5684SOL    HW217952   3.950   3.100   4.624
 5685SOL     OW17953   1.323   3.901   1.765
 5685SOL    HW117954   1.392   3.875   1.832
 5685SOL    HW217955   1.341   3.995   1.734
 5686SOL     OW17956   3.158   0.196   6.477
 5686SOL    HW117957   3.058   0.191   6.472
 5686SOL    HW217958   3.191   0.121   6.534
 5687SOL     OW17959   6.928   3.750   4.726
 5687SOL    HW117960   6.860   3.748   4.652
 5687SOL    HW217961   6.891   3.801   4.803
 5688SOL     OW17962   6.650   1.511   0.155
 5688SOL    HW117963   6.590   1.453   0.100
 5688SOL    HW217964   6.648   1.604   0.120
 5689SOL     OW17965   4.109   0.928   6.993
 5689SOL    HW117966   4.065   0.838   6.988
 5689SOL    HW217967   4.040   0.998   7.011
 5690SOL     OW17968   2.131   6.066   0.828
 5690SOL    HW117969   2.197   6.101   0.894
 5690SOL    HW217970   2.108   5.971   0.849
 5691SOL     OW17971   2.628   6.061   1.813
 5691SOL    HW117972   2.701   6.113   1.769
 5691SOL    HW217973   2.588   5.997   1.748
 5692SOL     OW17974   6.895   3.146   6.146
 5692SOL    HW117975   6.874   3.164   6.050
 5692SOL    HW217976   6.886   3.231   6.198
 5693SOL     OW17977   5.910   3.013   2.453
 5693SOL    HW117978   5.904   2.977   2.360
 5693SOL    HW217979   6.004   3.010   2.485
 5694SOL     OW17980   0.681   1.687   3.669
 5694SOL    HW117981   0.748   1.749   3.628
 5694SOL    HW217982   0.641   1.731   3.750
 5695SOL     OW17983   0.766   2.802   2.965
 5695SOL    HW117984   0.851   2.788   3.015
 5695SOL    HW217985   0.693   2.749   3.008
 5696SOL     OW17986   1.659   6.825   3.255
 5696SOL    HW117987   1.576   6.827   3.311
 5696SOL    HW217988   1.679   6.730   3.230
 5697SOL     OW17989   5.816   2.037   0.918
 5697SOL    HW117990   5.791   2.001   1.008
 5697SOL    HW217991   5.877   1.972   0.872
 5698SOL     OW17992   0.343   3.141   2.148
 5698SOL    HW117993   0.328   3.239   2.166
 5698SOL    HW217994   0.346   3.091   2.235
 5699SOL     OW17995   6.195   2.550   3.090
 5699SOL    HW117996   6.151   2.481   3.033
 5699SOL    HW217997   6.151   2.639   3.074
 5700SOL     OW17998   6.522   6.525   4.517
 5700SOL    HW117999   6.483   6.463   4.585
 5700SOL    HW218000   6.531   6.477   4.429
 5701SOL     OW18001   1.421   5.871   3.497
 5701SOL    HW118002   1.359   5.948   3.511
 5701SOL    HW218003   1.368   5.790   3.471
 5702SOL     OW18004   1.456   0.635   5.319
 5702SOL    HW118005   1.401   0.686   5.385
 5702SOL    HW218006   1.531   0.693   5.286
 5703SOL     OW18007   5.096   4.217   1.023
 5703SOL    HW118008   5.176   4.156   1.019
 5703SOL    HW218009   5.018   4.167   1.059
 5704SOL     OW18010   4.376   5.318   2.350
 5704SOL    HW118011   4.448   5.300   2.284
 5704SOL    HW218012   4.387   5.259   2.430
 5705SOL     OW18013   5.297   0.921   0.312
 5705SOL    HW118014   5.219   0.980   0.292
 5705SOL    HW218015   5.282   0.875   0.399
 5706SOL     OW18016   0.883   2.415   0.555
 5706SOL    HW118017   0.823   2.346   0.516
 5706SOL    HW218018   0.953   2.439   0.488
 5707SOL     OW18019   0.809   6.726   0.187
 5707SOL    HW118020   0.901   6.752   0.216
 5707SOL    HW218021   0.814   6.670   0.105
 5708SOL     OW18022   5.156   6.297   1.062
 5708SOL    HW118023   5.233   6.277   1.001
 5708SOL    HW218024   5.173   6.256   1.151
 5709SOL     OW18025   1.190   6.981   3.650
 5709SOL    HW118026   1.223   6.888   3.666
 5709SOL    HW218027   1.253   0.023   3.692
 5710SOL     OW18028   2.731   3.096   6.050
 5710SOL    HW118029   2.783   3.026   6.099
 5710SOL    HW218030   2.785   3.131   5.973
 5711SOL     OW18031   4.595   0.325   2.985
 5711SOL    HW118032   4.624   0.407   3.033
 5711SOL    HW218033   4.497   0.311   2.997
 5712SOL     OW18034   0.772   5.832   5.730
 5712SOL    HW118035   0.863   5.810   5.764
 5712SOL    HW218036   0.741   5.759   5.669
 5713SOL     OW18037   1.447   2.500   1.359
 5713SOL    HW118038   1.372   2.478   1.421
 5713SOL    HW218039   1.507   2.421   1.350
 5714SOL     OW18040   0.953   5.930   6.716
 5714SOL    HW118041   0.917   5.887   6.799
 5714SOL    HW218042   1.033   5.879   6.685
 5715SOL     OW18043   1.407   6.386   3.385
 5715SOL    HW118044   1.453   6.329   3.317
 5715SOL    HW218045   1.375   6.470   3.341
 5716SOL     OW18046   1.125   4.076   6.360
 5716SOL    HW118047   1.203   4.015   6.350
 5716SOL    HW218048   1.112   4.128   6.275
 5717SOL     OW18049   2.123   5.920   0.480
 5717SOL    HW118050   2.202   5.906   0.539
 5717SOL    HW218051   2.146   5.986   0.408
 5718SOL     OW18052   0.954   3.958   6.517
 5718SOL    HW118053   1.022   3.997   6.455
 5718SOL    HW218054   0.869   4.011   6.512
 5719SOL     OW18055   2.164   1.330   6.084
 5719SOL    HW118056   2.142   1.235   6.062
 5719SOL    HW218057   2.224   1.368   6.014
 5720SOL     OW18058   1.168   4.701   4.685
 5720SOL    HW118059   1.250   4.681   4.633
 5720SOL    HW218060   1.164   4.642   4.765
 5721SOL     OW18061   6.876   3.764   0.913
 5721SOL    HW118062   6.856   3.691   0.978
 5721SOL    HW218063   6.960   3.742   0.863
 5722SOL     OW18064   5.728   1.981   4.911
 5722SOL    HW118065   5.791   1.949   4.841
 5722SOL    HW218066   5.736   2.080   4.921
 5723SOL     OW18067   4.146   3.354   0.149
 5723SOL    HW118068   4.100   3.313   0.071
 5723SOL    HW218069   4.078   3.399   0.207
 5724SOL     OW18070   3.854   2.515   5.291
 5724SOL    HW118071   3.840   2.417   5.309
 5724SOL    HW218072   3.947   2.529   5.257
 5725SOL     OW18073   6.014   5.591   3.710
 5725SOL    HW118074   5.926   5.575   3.666
 5725SOL    HW218075   6.087   5.579   3.643
 5726SOL     OW18076   6.567   3.401   4.107
 5726SOL    HW118077   6.519   3.488   4.094
 5726SOL    HW218078   6.521   3.329   4.055
 5727SOL     OW18079   1.025   2.363   3.884
 5727SOL    HW118080   1.125   2.357   3.892
 5727SOL    HW218081   1.002   2.440   3.824
 5728SOL     OW18082   4.645   1.334   6.492
 5728SOL    HW118083   4.570   1.386   6.533
 5728SOL    HW218084   4.667   1.256   6.550
 5729SOL     OW18085   0.767   1.692   0.427
 5729SOL    HW118086   0.727   1.616   0.374
 5729SOL    HW218087   0.849   1.660   0.474
 5730SOL     OW18088   4.197   5.027   5.741
 5730SOL    HW118089   4.168   4.956   5.676
 5730SOL    HW218090   4.265   4.989   5.803
 5731SOL     OW18091   2.010   6.528   3.886
 5731SOL    HW118092   2.081   6.571   3.942
 5731SOL    HW218093   1.958   6.599   3.838
 5732SOL     OW18094   6.735   4.523   5.469
 5732SOL    HW118095   6.817   4.568   5.433
 5732SOL    HW218096   6.654   4.560   5.424
 5733SOL     OW18097   3.273   0.634   5.465
 5733SOL    HW118098   3.321   0.626   5.553
 5733SOL    HW218099   3.246   0.543   5.434
 5734SOL     OW18100   1.738   6.338   6.448
 5734SOL    HW118101   1.713   6.242   6.463
 5734SOL    HW218102   1.678   6.396   6.503
 5735SOL     OW18103   4.013   1.113   3.050
 5735SOL    HW118104   4.084   1.143   3.114
 5735SOL    HW218105   3.954   1.190   3.027
 5736SOL     OW18106   5.457   4.229   0.486
 5736SOL    HW118107   5.532   4.295   0.480
 5736SOL    HW218108   5.389   4.262   0.551
 5737SOL     OW18109   5.563   6.181   0.016
 5737SOL    HW118110   5.628   6.134   6.981
 5737SOL    HW218111   5.505   6.114   0.063
 5738SOL     OW18112   3.249   2.374   6.613
 5738SOL    HW118113   3.336   2.424   6.603
 5738SOL    HW218114   3.173   2.436   6.595
 5739SOL     OW18115   1.187   5.967   5.537
 5739SOL    HW118116   1.094   6.006   5.537
 5739SOL    HW218117   1.224   5.969   5.444
 5740SOL     OW18118   4.142   4.135   0.989
 5740SOL    HW118119   4.198   4.106   0.912
 5740SOL    HW218120   4.172   4.225   1.021
 5741SOL     OW18121   0.084   3.943   4.420
 5741SOL    HW118122   7.010   3.965   4.429
 5741SOL    HW218123   0.131   4.016   4.369
 5742SOL     OW18124   4.377   6.118   2.269
 5742SOL    HW118125   4.366   6.106   2.367
 5742SOL    HW218126   4.371   6.029   2.224
 5743SOL     OW18127   2.263   5.908   5.629
 5743SOL    HW118128   2.265   5.823   5.578
 5743SOL    HW218129   2.210   5.977   5.579
 5744SOL     OW18130   4.925   1.263   1.702
 5744SOL    HW118131   4.952   1.170   1.727
 5744SOL    HW218132   4.880   1.261   1.612
 5745SOL     OW18133   1.920   0.785   3.403
 5745SOL    HW118134   1.927   0.880   3.374
 5745SOL    HW218135   2.010   0.751   3.430
 5746SOL     OW18136   5.181   6.819   1.757
 5746SOL    HW118137   5.102   6.763   1.784
 5746SOL    HW218138   5.265   6.769   1.776
 5747SOL     OW18139   1.363   4.997   1.729
 5747SOL    HW118140   1.413   5.037   1.805
 5747SOL    HW218141   1.378   5.053   1.647
 5748SOL     OW18142   1.327   0.168   1.555
 5748SOL    HW118143   1.282   0.251   1.588
 5748SOL    HW218144   1.408   0.192   1.501
 5749SOL     OW18145   1.956   6.688   5.410
 5749SOL    HW118146   1.973   6.713   5.315
 5749SOL    HW218147   1.915   6.765   5.459
 5750SOL     OW18148   6.095   6.309   4.910
 5750SOL    HW118149   6.190   6.281   4.894
 5750SOL    HW218150   6.058   6.258   4.988
 5751SOL     OW18151   2.528   2.579   5.088
 5751SOL    HW118152   2.620   2.539   5.088
 5751SOL    HW218153   2.505   2.608   4.995
 5752SOL     OW18154   5.222   0.268   0.494
 5752SOL    HW118155   5.221   0.357   0.539
 5752SOL    HW218156   5.232   0.196   0.563
 5753SOL     OW18157   3.402   3.966   4.391
 5753SOL    HW118158   3.394   4.037   4.321
 5753SOL    HW218159   3.421   4.008   4.479
 5754SOL     OW18160   0.440   5.304   1.446
 5754SOL    HW118161   0.540   5.306   1.456
 5754SOL    HW218162   0.402   5.391   1.476
 5755SOL     OW18163   1.622   1.880   6.174
 5755SOL    HW118164   1.547   1.944   6.163
 5755SOL    HW218165   1.683   1.884   6.095
 5756SOL     OW18166   0.397   0.466   2.727
 5756SOL    HW118167   0.471   0.489   2.790
 5756SOL    HW218168   0.309   0.486   2.770
 5757SOL     OW18169   0.159   5.334   4.038
 5757SOL    HW118170   0.131   5.429   4.026
 5757SOL    HW218171   0.226   5.309   3.968
 5758SOL     OW18172   2.044   1.116   2.840
 5758SOL    HW118173   1.998   1.196   2.801
 5758SOL    HW218174   2.125   1.095   2.786
 5759SOL     OW18175   4.820   0.687   6.945
 5759SOL    HW118176   4.836   0.600   6.899
 5759SOL    HW218177   4.845   0.679   0.018
 5760SOL     OW18178   6.286   1.982   0.698
 5760SOL    HW118179   6.287   2.081   0.685
 5760SOL    HW218180   6.345   1.939   0.630
 5761SOL     OW18181   6.318   4.632   5.903
 5761SOL    HW118182   6.269   4.559   5.951
 5761SOL    HW218183   6.320   4.613   5.805
 5762SOL     OW18184   4.949   4.301   1.304
 5762SOL    HW118185   4.912   4.247   1.228
 5762SOL    HW218186   4.924   4.258   1.391
 5763SOL     OW18187   6.757   5.544   0.874
 5763SOL    HW118188   6.810   5.520   0.955
 5763SOL    HW218189   6.673   5.490   0.872
 5764SOL     OW18190   5.083   4.799   4.820
 5764SOL    HW118191   5.147   4.792   4.897
 5764SOL    HW218192   4.993   4.826   4.854
 5765SOL     OW18193   6.470   3.268   0.500
 5765SOL    HW118194   6.501   3.348   0.551
 5765SOL    HW218195   6.432   3.296   0.412
 5766SOL     OW18196   1.697   2.070   5.722
 5766SOL    HW118197   1.643   2.108   5.647
 5766SOL    HW218198   1.763   2.138   5.755
 5767SOL     OW18199   2.147   0.344   0.840
 5767SOL    HW118200   2.074   0.353   0.907
 5767SOL    HW218201   2.108   0.338   0.748
 5768SOL     OW18202   0.998   6.503   4.265
 5768SOL    HW118203   1.089   6.542   4.256
 5768SOL    HW218204   0.931   6.565   4.224
 5769SOL     OW18205   2.293   5.562   4.301
 5769SOL    HW118206   2.234   5.568   4.220
 5769SOL    HW218207   2.241   5.522   4.377
 5770SOL     OW18208   6.630   5.953   6.348
 5770SOL    HW118209   6.667   5.966   6.256
 5770SOL    HW218210   6.560   6.022   6.365
 5771SOL     OW18211   1.243   7.019   4.577
 5771SOL    HW118212   1.266   6.923   4.560
 5771SOL    HW218213   1.223   0.007   4.674
 5772SOL     OW18214   5.430   0.931   1.769
 5772SOL    HW118215   5.442   0.836   1.798
 5772SOL    HW218216   5.517   0.980   1.780
 5773SOL     OW18217   4.323   0.469   3.045
 5773SOL    HW118218   4.263   0.426   3.113
 5773SOL    HW218219   4.304   0.430   2.955
 5774SOL     OW18220   2.888   6.426   4.048
 5774SOL    HW118221   2.856   6.438   3.954
 5774SOL    HW218222   2.988   6.426   4.050
 5775SOL     OW18223   1.337   0.378   2.867
 5775SOL    HW118224   1.393   0.413   2.943
 5775SOL    HW218225   1.241   0.378   2.893
 5776SOL     OW18226   0.542   0.939   3.963
 5776SOL    HW118227   0.503   0.941   3.871
 5776SOL    HW218228   0.579   0.848   3.982
 5777SOL     OW18229   6.976   0.252   5.001
 5777SOL    HW118230   6.908   0.310   5.047
 5777SOL    HW218231   6.958   0.156   5.023
 5778SOL     OW18232   1.653   0.219   0.035
 5778SOL    HW118233   1.600   0.279   0.095
 5778SOL    HW218234   1.691   0.144   0.089
 5779SOL     OW18235   4.451   2.527   1.154
 5779SOL    HW118236   4.372   2.478   1.190
 5779SOL    HW218237   4.486   2.590   1.224
 5780SOL     OW18238   6.310   6.015   3.992
 5780SOL    HW118239   6.401   5.987   3.963
 5780SOL    HW218240   6.265   5.940   4.040
 5781SOL     OW18241   6.688   5.082   4.545
 5781SOL    HW118242   6.613   5.024   4.576
 5781SOL    HW218243   6.651   5.171   4.517
 5782SOL     OW18244   1.389   1.812   1.346
 5782SOL    HW118245   1.316   1.872   1.312
 5782SOL    HW218246   1.416   1.749   1.273
 5783SOL     OW18247   1.369   0.488   1.855
 5783SOL    HW118248   1.339   0.486   1.760
 5783SOL    HW218249   1.456   0.537   1.862
 5784SOL     OW18250   0.194   5.775   6.024
 5784SOL    HW118251   0.101   5.811   6.033
 5784SOL    HW218252   0.260   5.849   6.042
 5785SOL     OW18253   1.948   1.760   0.299
 5785SOL    HW118254   1.965   1.770   0.201
 5785SOL    HW218255   2.012   1.818   0.350
 5786SOL     OW18256   0.704   4.118   0.792
 5786SOL    HW118257   0.691   4.200   0.848
 5786SOL    HW218258   0.798   4.115   0.759
 5787SOL     OW18259   3.401   2.008   4.702
 5787SOL    HW118260   3.372   1.937   4.637
 5787SOL    HW218261   3.331   2.018   4.773
 5788SOL     OW18262   2.866   1.209   1.180
 5788SOL    HW118263   2.886   1.137   1.247
 5788SOL    HW218264   2.949   1.263   1.164
 5789SOL     OW18265   3.555   4.379   6.973
 5789SOL    HW118266   3.499   4.352   6.894
 5789SOL    HW218267   3.548   4.309   0.021
 5790SOL     OW18268   1.286   4.624   4.925
 5790SOL    HW118269   1.303   4.527   4.945
 5790SOL    HW218270   1.238   4.666   5.002
 5791SOL     OW18271   3.606   1.552   2.412
 5791SOL    HW118272   3.598   1.649   2.389
 5791SOL    HW218273   3.630   1.543   2.509
 5792SOL     OW18274   6.356   3.443   2.670
 5792SOL    HW118275   6.415   3.523   2.656
 5792SOL    HW218276   6.325   3.408   2.582
 5793SOL     OW18277   5.356   1.236   4.079
 5793SOL    HW118278   5.366   1.281   3.990
 5793SOL    HW218279   5.364   1.304   4.152
 5794SOL     OW18280   2.334   0.730   0.515
 5794SOL    HW118281   2.276   0.741   0.597
 5794SOL    HW218282   2.352   0.819   0.475
 5795SOL     OW18283   6.388   0.434   6.669
 5795SOL    HW118284   6.473   0.433   6.617
 5795SOL    HW218285   6.376   0.523   6.713
 5796SOL     OW18286   4.823   1.446   6.061
 5796SOL    HW118287   4.726   1.434   6.043
 5796SOL    HW218288   4.845   1.413   6.153
 5797SOL     OW18289   4.818   2.199   6.191
 5797SOL    HW118290   4.725   2.225   6.216
 5797SOL    HW218291   4.869   2.280   6.161
 5798SOL     OW18292   0.617   4.603   5.267
 5798SOL    HW118293   0.612   4.638   5.360
 5798SOL    HW218294   0.642   4.506   5.268
 5799SOL     OW18295   0.694   0.510   3.358
 5799SOL    HW118296   0.773   0.572   3.359
 5799SOL    HW218297   0.708   0.437   3.425
 5800SOL     OW18298   6.294   6.152   2.044
 5800SOL    HW118299   6.248   6.181   1.960
 5800SOL    HW218300   6.334   6.061   2.030
 5801SOL     OW18301   2.083   2.616   3.345
 5801SOL    HW118302   2.106   2.519   3.354
 5801SOL    HW218303   2.166   2.670   3.356
 5802SOL     OW18304   0.935   3.969   2.219
 5802SOL    HW118305   1.034   3.954   2.227
 5802SOL    HW218306   0.888   3.919   2.291
 5803SOL     OW18307   2.552   5.161   2.317
 5803SOL    HW118308   2.633   5.200   2.360
 5803SOL    HW218309   2.574   5.135   2.223
 5804SOL     OW18310   0.594   5.826   3.839
 5804SOL    HW118311   0.592   5.874   3.751
 5804SOL    HW218312   0.680   5.846   3.886
 5805SOL     OW18313   2.395   3.457   0.037
 5805SOL    HW118314   2.309   3.418   0.071
 5805SOL    HW218315   2.379   3.499   6.971
 5806SOL     OW18316   6.843   5.216   4.713
 5806SOL    HW118317   6.940   5.193   4.708
 5806SOL    HW218318   6.793   5.170   4.640
 5807SOL     OW18319   0.666   4.081   1.920
 5807SOL    HW118320   0.650   3.983   1.909
 5807SOL    HW218321   0.673   4.124   1.830
 5808SOL     OW18322   5.828   5.904   4.860
 5808SOL    HW118323   5.855   5.994   4.895
 5808SOL    HW218324   5.778   5.915   4.775
 5809SOL     OW18325   5.620   2.029   4.504
 5809SOL    HW118326   5.701   1.981   4.471
 5809SOL    HW218327   5.567   1.968   4.563
 5810SOL     OW18328   4.073   1.609   4.935
 5810SOL    HW118329   4.156   1.605   4.991
 5810SOL    HW218330   4.008   1.540   4.968
 5811SOL     OW18331   3.631   1.000   4.832
 5811SOL    HW118332   3.665   1.085   4.791
 5811SOL    HW218333   3.573   0.953   4.766
 5812SOL     OW18334   6.344   2.572   4.284
 5812SOL    HW118335   6.326   2.603   4.377
 5812SOL    HW218336   6.432   2.609   4.253
 5813SOL     OW18337   2.025   2.349   0.986
 5813SOL    HW118338   2.053   2.416   1.054
 5813SOL    HW218339   2.024   2.390   0.895
 5814SOL     OW18340   6.013   4.645   1.732
 5814SOL    HW118341   6.077   4.704   1.781
 5814SOL    HW218342   6.063   4.574   1.683
 5815SOL     OW18343   3.749   2.009   4.197
 5815SOL    HW118344   3.655   2.003   4.232
 5815SOL    HW218345   3.746   2.049   4.105
 5816SOL     OW18346   4.503   5.200   0.056
 5816SOL    HW118347   4.439   5.264   0.098
 5816SOL    HW218348   4.482   5.191   6.983
 5817SOL     OW18349   5.537   3.744   5.942
 5817SOL    HW118350   5.593   3.744   6.024
 5817SOL    HW218351   5.474   3.822   5.944
 5818SOL     OW18352   6.280   6.030   4.857
 5818SOL    HW118353   6.309   5.986   4.943
 5818SOL    HW218354   6.354   6.087   4.822
 5819SOL     OW18355   3.532   6.599   6.808
 5819SOL    HW118356   3.626   6.631   6.822
 5819SOL    HW218357   3.510   6.602   6.711
 5820SOL     OW18358   4.549   5.234   3.842
 5820SOL    HW118359   4.612   5.311   3.835
 5820SOL    HW218360   4.527   5.200   3.750
 5821SOL     OW18361   0.151   6.642   1.404
 5821SOL    HW118362   0.166   6.562   1.346
 5821SOL    HW218363   0.108   6.615   1.489
 5822SOL     OW18364   1.646   2.545   1.659
 5822SOL    HW118365   1.564   2.522   1.712
 5822SOL    HW218366   1.727   2.511   1.707
 5823SOL     OW18367   2.081   0.942   5.684
 5823SOL    HW118368   2.074   1.003   5.606
 5823SOL    HW218369   2.024   0.861   5.670
 5824SOL     OW18370   6.645   5.545   2.178
 5824SOL    HW118371   6.740   5.539   2.206
 5824SOL    HW218372   6.605   5.630   2.211
 5825SOL     OW18373   1.315   1.701   5.627
 5825SOL    HW118374   1.400   1.704   5.680
 5825SOL    HW218375   1.303   1.787   5.578
 5826SOL     OW18376   6.765   5.285   5.675
 5826SOL    HW118377   6.803   5.301   5.766
 5826SOL    HW218378   6.768   5.370   5.623
 5827SOL     OW18379   2.306   4.363   5.287
 5827SOL    HW118380   2.248   4.430   5.240
 5827SOL    HW218381   2.264   4.273   5.281
 5828SOL     OW18382   6.302   1.976   1.304
 5828SOL    HW118383   6.376   2.001   1.241
 5828SOL    HW218384   6.280   2.053   1.363
 5829SOL     OW18385   1.383   0.646   3.330
 5829SOL    HW118386   1.330   0.587   3.270
 5829SOL    HW218387   1.465   0.678   3.282
 5830SOL     OW18388   5.209   6.618   5.847
 5830SOL    HW118389   5.140   6.609   5.775
 5830SOL    HW218390   5.279   6.683   5.819
 5831SOL     OW18391   0.759   1.219   5.204
 5831SOL    HW118392   0.722   1.240   5.114
 5831SOL    HW218393   0.796   1.126   5.204
 5832SOL     OW18394   2.865   4.684   6.808
 5832SOL    HW118395   2.853   4.753   6.736
 5832SOL    HW218396   2.777   4.640   6.826
 5833SOL     OW18397   3.463   3.479   4.540
 5833SOL    HW118398   3.405   3.547   4.494
 5833SOL    HW218399   3.429   3.388   4.520
 5834SOL     OW18400   0.165   3.072   6.879
 5834SOL    HW118401   0.263   3.065   6.864
 5834SOL    HW218402   0.116   3.057   6.793
 5835SOL     OW18403   5.332   3.147   3.893
 5835SOL    HW118404   5.258   3.091   3.929
 5835SOL    HW218405   5.298   3.201   3.815
 5836SOL     OW18406   2.619   6.506   2.186
 5836SOL    HW118407   2.661   6.419   2.160
 5836SOL    HW218408   2.534   6.519   2.135
 5837SOL     OW18409   4.147   3.856   6.079
 5837SOL    HW118410   4.083   3.933   6.074
 5837SOL    HW218411   4.097   3.770   6.085
 5838SOL     OW18412   2.771   2.334   0.552
 5838SOL    HW118413   2.851   2.331   0.491
 5838SOL    HW218414   2.783   2.266   0.624
 5839SOL     OW18415   0.805   1.721   2.425
 5839SOL    HW118416   0.852   1.644   2.467
 5839SOL    HW218417   0.808   1.712   2.325
 5840SOL     OW18418   0.438   5.559   6.152
 5840SOL    HW118419   0.365   5.551   6.219
 5840SOL    HW218420   0.434   5.482   6.089
 5841SOL     OW18421   5.051   2.006   2.598
 5841SOL    HW118422   5.083   2.057   2.679
 5841SOL    HW218423   5.121   2.011   2.527
 5842SOL     OW18424   4.677   3.111   1.418
 5842SOL    HW118425   4.592   3.157   1.393
 5842SOL    HW218426   4.689   3.116   1.517
 5843SOL     OW18427   1.951   4.067   3.040
 5843SOL    HW118428   1.930   3.989   2.982
 5843SOL    HW218429   2.021   4.042   3.107
 5844SOL     OW18430   1.953   6.490   5.805
 5844SOL    HW118431   1.909   6.530   5.885
 5844SOL    HW218432   2.038   6.539   5.786
 5845SOL     OW18433   0.299   0.655   2.332
 5845SOL    HW118434   0.232   0.633   2.403
 5845SOL    HW218435   0.329   0.750   2.341
 5846SOL     OW18436   6.951   2.969   4.718
 5846SOL    HW118437   6.985   3.050   4.765
 5846SOL    HW218438   6.965   2.888   4.776
 5847SOL     OW18439   2.447   2.569   1.983
 5847SOL    HW118440   2.398   2.488   1.953
 5847SOL    HW218441   2.460   2.631   1.906
 5848SOL     OW18442   2.347   6.161   3.293
 5848SOL    HW118443   2.353   6.223   3.215
 5848SOL    HW218444   2.258   6.172   3.337
 5849SOL     OW18445   0.557   0.393   5.848
 5849SOL    HW118446   0.473   0.439   5.876
 5849SOL    HW218447   0.557   0.299   5.881
 5850SOL     OW18448   6.774   3.079   2.028
 5850SOL    HW118449   6.771   3.008   2.099
 5850SOL    HW218450   6.787   3.036   1.939
 5851SOL     OW18451   4.853   3.730   2.918
 5851SOL    HW118452   4.835   3.828   2.907
 5851SOL    HW218453   4.838   3.703   3.013
 5852SOL     OW18454   6.343   5.843   3.060
 5852SOL    HW118455   6.259   5.852   3.007
 5852SOL    HW218456   6.383   5.933   3.075
 5853SOL     OW18457   3.824   6.090   4.282
 5853SOL    HW118458   3.820   5.990   4.288
 5853SOL    HW218459   3.783   6.130   4.363
 5854SOL     OW18460   5.428   4.670   5.974
 5854SOL    HW118461   5.335   4.682   5.939
 5854SOL    HW218462   5.479   4.755   5.962
 5855SOL     OW18463   0.371   1.328   4.805
 5855SOL    HW118464   0.313   1.358   4.729
 5855SOL    HW218465   0.367   1.395   4.879
 5856SOL     OW18466   2.131   5.495   3.678
 5856SOL    HW118467   2.057   5.562   3.680
 5856SOL    HW218468   2.151   5.465   3.771
 5857SOL     OW18469   6.383   2.005   6.065
 5857SOL    HW118470   6.419   1.912   6.058
 5857SOL    HW218471   6.359   2.039   5.975
 5858SOL     OW18472   2.580   2.144   2.223
 5858SOL    HW118473   2.666   2.094   2.237
 5858SOL    HW218474   2.596   2.220   2.160
 5859SOL     OW18475   5.739   6.144   1.327
 5859SOL    HW118476   5.755   6.077   1.255
 5859SOL    HW218477   5.804   6.220   1.316
 5860SOL     OW18478   0.780   3.335   1.878
 5860SOL    HW118479   0.816   3.314   1.969
 5860SOL    HW218480   0.845   3.304   1.809
 5861SOL     OW18481   4.481   1.896   4.433
 5861SOL    HW118482   4.410   1.843   4.480
 5861SOL    HW218483   4.438   1.956   4.366
 5862SOL     OW18484   5.182   5.269   1.207
 5862SOL    HW118485   5.121   5.295   1.282
 5862SOL    HW218486   5.180   5.169   1.194
 5863SOL     OW18487   2.921   1.547   4.946
 5863SOL    HW118488   2.936   1.562   4.848
 5863SOL    HW218489   2.972   1.616   4.997
 5864SOL     OW18490   4.226   3.523   1.735
 5864SOL    HW118491   4.307   3.470   1.711
 5864SOL    HW218492   4.200   3.504   1.830
 5865SOL     OW18493   5.936   0.450   5.084
 5865SOL    HW118494   5.852   0.432   5.034
 5865SOL    HW218495   6.003   0.379   5.063
 5866SOL     OW18496   4.126   4.389   0.134
 5866SOL    HW118497   4.220   4.420   0.141
 5866SOL    HW218498   4.087   4.380   0.226
 5867SOL     OW18499   1.346   3.826   0.712
 5867SOL    HW118500   1.307   3.791   0.627
 5867SOL    HW218501   1.299   3.910   0.738
 5868SOL     OW18502   1.075   1.646   5.922
 5868SOL    HW118503   1.122   1.581   5.862
 5868SOL    HW218504   1.127   1.657   6.007
 5869SOL     OW18505   1.689   5.830   3.518
 5869SOL    HW118506   1.728   5.816   3.427
 5869SOL    HW218507   1.589   5.835   3.511
 5870SOL     OW18508   5.086   5.848   4.921
 5870SOL    HW118509   5.042   5.894   4.999
 5870SOL    HW218510   5.078   5.907   4.840
 5871SOL     OW18511   4.028   2.560   1.445
 5871SOL    HW118512   4.019   2.511   1.532
 5871SOL    HW218513   4.075   2.647   1.461
 5872SOL     OW18514   3.731   6.469   1.189
 5872SOL    HW118515   3.752   6.477   1.091
 5872SOL    HW218516   3.809   6.429   1.237
 5873SOL     OW18517   2.841   2.159   1.648
 5873SOL    HW118518   2.800   2.140   1.737
 5873SOL    HW218519   2.909   2.232   1.658
 5874SOL     OW18520   2.908   3.912   6.865
 5874SOL    HW118521   2.866   3.829   6.905
 5874SOL    HW218522   2.837   3.980   6.849
 5875SOL     OW18523   4.352   0.712   6.456
 5875SOL    HW118524   4.276   0.742   6.399
 5875SOL    HW218525   4.406   0.791   6.484
 5876SOL     OW18526   3.231   3.848   0.729
 5876SOL    HW118527   3.234   3.760   0.680
 5876SOL    HW218528   3.265   3.836   0.822
 5877SOL     OW18529   0.510   0.426   0.872
 5877SOL    HW118530   0.519   0.432   0.971
 5877SOL    HW218531   0.570   0.354   0.837
 5878SOL     OW18532   6.023   5.404   4.456
 5878SOL    HW118533   6.070   5.325   4.497
 5878SOL    HW218534   5.990   5.380   4.365
 5879SOL     OW18535   1.840   3.783   6.901
 5879SOL    HW118536   1.920   3.755   6.847
 5879SOL    HW218537   1.846   3.744   6.993
 5880SOL     OW18538   5.283   4.544   6.997
 5880SOL    HW118539   5.215   4.594   6.943
 5880SOL    HW218540   5.335   4.609   0.029
 5881SOL     OW18541   1.224   6.858   2.072
 5881SOL    HW118542   1.189   6.772   2.109
 5881SOL    HW218543   1.308   6.841   2.020
 5882SOL     OW18544   0.202   5.591   6.300
 5882SOL    HW118545   0.156   5.502   6.301
 5882SOL    HW218546   0.133   5.663   6.289
 5883SOL     OW18547   0.357   1.657   6.841
 5883SOL    HW118548   0.261   1.638   6.860
 5883SOL    HW218549   0.385   1.609   6.758
 5884SOL     OW18550   4.883   0.952   4.359
 5884SOL    HW118551   4.925   1.043   4.352
 5884SOL    HW218552   4.835   0.945   4.447
 5885SOL     OW18553   0.304   5.701   2.521
 5885SOL    HW118554   0.220   5.731   2.567
 5885SOL    HW218555   0.354   5.781   2.488
 5886SOL     OW18556   0.483   2.073   4.017
 5886SOL    HW118557   0.513   2.158   4.060
 5886SOL    HW218558   0.489   1.998   4.083
 5887SOL     OW18559   2.469   2.363   1.646
 5887SOL    HW118560   2.543   2.323   1.592
 5887SOL    HW218561   2.483   2.462   1.654
 5888SOL     OW18562   1.852   0.227   0.972
 5888SOL    HW118563   1.868   0.310   1.025
 5888SOL    HW218564   1.808   0.250   0.885
 5889SOL     OW18565   6.771   1.364   6.905
 5889SOL    HW118566   6.674   1.387   6.911
 5889SOL    HW218567   6.821   1.440   6.865
 5890SOL     OW18568   2.281   0.705   2.460
 5890SOL    HW118569   2.268   0.656   2.547
 5890SOL    HW218570   2.195   0.703   2.408
 5891SOL     OW18571   2.786   3.703   7.005
 5891SOL    HW118572   2.780   3.665   0.074
 5891SOL    HW218573   2.847   3.646   6.950
 5892SOL     OW18574   1.185   5.308   1.958
 5892SOL    HW118575   1.145   5.236   1.901
 5892SOL    HW218576   1.281   5.286   1.977
 5893SOL     OW18577   2.381   4.463   2.015
 5893SOL    HW118578   2.394   4.385   2.077
 5893SOL    HW218579   2.401   4.434   1.922
 5894SOL     OW18580   0.816   5.699   4.502
 5894SOL    HW118581   0.768   5.634   4.560
 5894SOL    HW218582   0.766   5.786   4.500
 5895SOL     OW18583   5.247   3.568   3.875
 5895SOL    HW118584   5.336   3.525   3.862
 5895SOL    HW218585   5.192   3.512   3.938
 5896SOL     OW18586   4.384   1.773   1.069
 5896SOL    HW118587   4.357   1.815   0.982
 5896SOL    HW218588   4.482   1.786   1.083
 5897SOL     OW18589   3.825   0.898   1.788
 5897SOL    HW118590   3.731   0.911   1.756
 5897SOL    HW218591   3.889   0.928   1.717
 5898SOL     OW18592   2.827   0.885   4.870
 5898SOL    HW118593   2.825   0.789   4.842
 5898SOL    HW218594   2.823   0.890   4.970
 5899SOL     OW18595   5.790   5.834   6.930
 5899SOL    HW118596   5.801   5.845   0.006
 5899SOL    HW218597   5.862   5.775   6.895
 5900SOL     OW18598   6.970   4.479   2.941
 5900SOL    HW118599   0.010   4.405   2.964
 5900SOL    HW218600   6.912   4.498   3.020
 5901SOL     OW18601   3.327   0.646   1.007
 5901SOL    HW118602   3.264   0.684   1.074
 5901SOL    HW218603   3.415   0.694   1.013
 5902SOL     OW18604   6.242   3.436   5.782
 5902SOL    HW118605   6.216   3.501   5.710
 5902SOL    HW218606   6.245   3.344   5.744
 5903SOL     OW18607   4.960   4.383   5.911
 5903SOL    HW118608   4.912   4.296   5.925
 5903SOL    HW218609   5.012   4.379   5.826
 5904SOL     OW18610   1.061   4.492   0.742
 5904SOL    HW118611   1.027   4.584   0.763
 5904SOL    HW218612   1.096   4.449   0.826
 5905SOL     OW18613   6.810   0.145   3.582
 5905SOL    HW118614   6.829   0.206   3.659
 5905SOL    HW218615   6.894   0.099   3.554
 5906SOL     OW18616   4.594   1.673   3.812
 5906SOL    HW118617   4.600   1.722   3.899
 5906SOL    HW218618   4.589   1.739   3.737
 5907SOL     OW18619   0.680   5.971   0.312
 5907SOL    HW118620   0.721   5.987   0.223
 5907SOL    HW218621   0.644   5.878   0.316
 5908SOL     OW18622   6.253   3.646   0.384
 5908SOL    HW118623   6.265   3.703   0.466
 5908SOL    HW218624   6.192   3.570   0.406
 5909SOL     OW18625   6.242   4.998   6.400
 5909SOL    HW118626   6.299   5.042   6.331
 5909SOL    HW218627   6.288   5.001   6.488
 5910SOL     OW18628   0.239   4.312   1.674
 5910SOL    HW118629   0.197   4.351   1.757
 5910SOL    HW218630   0.225   4.213   1.674
 5911SOL     OW18631   6.443   4.536   6.769
 5911SOL    HW118632   6.500   4.611   6.735
 5911SOL    HW218633   6.348   4.554   6.747
 5912SOL     OW18634   5.794   2.744   6.724
 5912SOL    HW118635   5.742   2.811   6.671
 5912SOL    HW218636   5.873   2.789   6.766
 5913SOL     OW18637   3.339   3.267   6.368
 5913SOL    HW118638   3.240   3.254   6.361
 5913SOL    HW218639   3.368   3.339   6.307
 5914SOL     OW18640   2.702   5.624   6.451
 5914SOL    HW118641   2.730   5.678   6.372
 5914SOL    HW218642   2.618   5.574   6.430
 5915SOL     OW18643   5.534   4.455   1.710
 5915SOL    HW118644   5.619   4.497   1.741
 5915SOL    HW218645   5.456   4.505   1.747
 5916SOL     OW18646   4.558   6.137   5.462
 5916SOL    HW118647   4.486   6.084   5.419
 5916SOL    HW218648   4.537   6.234   5.456
 5917SOL     OW18649   3.674   3.819   3.765
 5917SOL    HW118650   3.698   3.771   3.849
 5917SOL    HW218651   3.575   3.816   3.751
 5918SOL     OW18652   2.033   3.143   5.411
 5918SOL    HW118653   2.097   3.219   5.423
 5918SOL    HW218654   1.975   3.161   5.331
 5919SOL     OW18655   4.130   2.386   0.989
 5919SOL    HW118656   4.186   2.348   0.915
 5919SOL    HW218657   4.078   2.464   0.955
 5920SOL     OW18658   3.836   0.376   0.233
 5920SOL    HW118659   3.750   0.427   0.227
 5920SOL    HW218660   3.823   0.283   0.199
 5921SOL     OW18661   3.655   5.196   5.836
 5921SOL    HW118662   3.724   5.123   5.834
 5921SOL    HW218663   3.576   5.167   5.782
 5922SOL     OW18664   6.561   5.367   3.593
 5922SOL    HW118665   6.539   5.271   3.575
 5922SOL    HW218666   6.540   5.422   3.511
 5923SOL     OW18667   5.509   0.894   0.864
 5923SOL    HW118668   5.529   0.802   0.898
 5923SOL    HW218669   5.560   0.961   0.919
 5924SOL     OW18670   0.278   1.556   4.210
 5924SOL    HW118671   0.291   1.463   4.176
 5924SOL    HW218672   0.233   1.552   4.300
 5925SOL     OW18673   4.036   5.660   2.577
 5925SOL    HW118674   4.063   5.564   2.563
 5925SOL    HW218675   3.998   5.671   2.668
 5926SOL     OW18676   3.934   5.091   2.131
 5926SOL    HW118677   3.861   5.024   2.143
 5926SOL    HW218678   3.937   5.119   2.035
 5927SOL     OW18679   1.530   4.262   3.111
 5927SOL    HW118680   1.561   4.229   3.200
 5927SOL    HW218681   1.594   4.231   3.040
 5928SOL     OW18682   3.584   0.239   1.108
 5928SOL    HW118683   3.517   0.288   1.164
 5928SOL    HW218684   3.610   0.297   1.031
 5929SOL     OW18685   0.500   6.268   5.921
 5929SOL    HW118686   0.484   6.276   6.019
 5929SOL    HW218687   0.493   6.173   5.893
 5930SOL     OW18688   0.020   2.377   3.616
 5930SOL    HW118689   6.977   2.371   3.691
 5930SOL    HW218690   0.100   2.322   3.638
 5931SOL     OW18691   6.579   5.505   4.004
 5931SOL    HW118692   6.637   5.584   3.980
 5931SOL    HW218693   6.636   5.429   4.033
 5932SOL     OW18694   2.010   6.887   0.748
 5932SOL    HW118695   2.068   6.846   0.678
 5932SOL    HW218696   1.923   6.914   0.707
 5933SOL     OW18697   0.608   5.950   3.575
 5933SOL    HW118698   0.625   6.047   3.592
 5933SOL    HW218699   0.671   5.918   3.504
 5934SOL     OW18700   3.711   4.127   4.267
 5934SOL    HW118701   3.744   4.154   4.358
 5934SOL    HW218702   3.620   4.164   4.252
 5935SOL     OW18703   4.217   3.591   5.677
 5935SOL    HW118704   4.216   3.690   5.659
 5935SOL    HW218705   4.204   3.542   5.590
 5936SOL     OW18706   4.340   3.796   0.526
 5936SOL    HW118707   4.438   3.792   0.547
 5936SOL    HW218708   4.289   3.811   0.611
 5937SOL     OW18709   0.670   4.802   2.667
 5937SOL    HW118710   0.653   4.823   2.763
 5937SOL    HW218711   0.729   4.721   2.661
 5938SOL     OW18712   1.000   5.067   4.154
 5938SOL    HW118713   0.923   5.082   4.092
 5938SOL    HW218714   1.006   5.143   4.218
 5939SOL     OW18715   2.914   6.893   3.306
 5939SOL    HW118716   2.843   6.840   3.352
 5939SOL    HW218717   2.939   6.972   3.362
 5940SOL     OW18718   4.226   5.761   1.184
 5940SOL    HW118719   4.215   5.857   1.158
 5940SOL    HW218720   4.151   5.734   1.245
 5941SOL     OW18721   6.152   3.232   1.870
 5941SOL    HW118722   6.159   3.316   1.923
 5941SOL    HW218723   6.243   3.195   1.853
 5942SOL     OW18724   4.849   2.888   0.135
 5942SOL    HW118725   4.942   2.888   0.172
 5942SOL    HW218726   4.853   2.903   0.036
 5943SOL     OW18727   3.517   5.382   0.537
 5943SOL    HW118728   3.489   5.425   0.623
 5943SOL    HW218729   3.595   5.322   0.553
 5944SOL     OW18730   5.984   2.385   1.009
 5944SOL    HW118731   5.890   2.355   0.993
 5944SOL    HW218732   6.033   2.391   0.922
 5945SOL     OW18733   6.229   4.902   5.299
 5945SOL    HW118734   6.201   4.923   5.206
 5945SOL    HW218735   6.161   4.937   5.363
 5946SOL     OW18736   2.950   3.400   5.747
 5946SOL    HW118737   3.034   3.353   5.721
 5946SOL    HW218738   2.955   3.495   5.715
 5947SOL     OW18739   4.145   3.438   1.986
 5947SOL    HW118740   4.138   3.503   2.061
 5947SOL    HW218741   4.157   3.346   2.023
 5948SOL     OW18742   4.132   5.154   3.067
 5948SOL    HW118743   4.148   5.251   3.087
 5948SOL    HW218744   4.053   5.122   3.120
 5949SOL     OW18745   4.029   3.490   1.543
 5949SOL    HW118746   4.096   3.493   1.617
 5949SOL    HW218747   4.072   3.520   1.457
 5950SOL     OW18748   5.004   2.717   5.662
 5950SOL    HW118749   5.089   2.710   5.714
 5950SOL    HW218750   4.973   2.625   5.637
 5951SOL     OW18751   0.020   5.528   4.467
 5951SOL    HW118752   0.117   5.546   4.482
 5951SOL    HW218753   0.004   5.429   4.464
 5952SOL     OW18754   5.458   4.962   3.883
 5952SOL    HW118755   5.519   4.920   3.950
 5952SOL    HW218756   5.513   5.007   3.811
 5953SOL     OW18757   6.170   2.726   5.141
 5953SOL    HW118758   6.108   2.647   5.150
 5953SOL    HW218759   6.221   2.719   5.055
 5954SOL     OW18760   0.022   4.187   5.919
 5954SOL    HW118761   0.087   4.260   5.897
 5954SOL    HW218762   7.022   4.137   5.836
 5955SOL     OW18763   5.175   5.471   2.666
 5955SOL    HW118764   5.185   5.397   2.732
 5955SOL    HW218765   5.166   5.558   2.715
 5956SOL     OW18766   3.625   1.323   5.824
 5956SOL    HW118767   3.544   1.379   5.807
 5956SOL    HW218768   3.705   1.383   5.831
 5957SOL     OW18769   4.467   0.773   5.705
 5957SOL    HW118770   4.480   0.795   5.608
 5957SOL    HW218771   4.381   0.724   5.717
 5958SOL     OW18772   6.555   5.841   2.281
 5958SOL    HW118773   6.581   5.867   2.187
 5958SOL    HW218774   6.611   5.892   2.346
 5959SOL     OW18775   3.909   2.202   5.712
 5959SOL    HW118776   3.947   2.279   5.763
 5959SOL    HW218777   3.852   2.236   5.637
 5960SOL     OW18778   3.646   5.713   4.681
 5960SOL    HW118779   3.713   5.785   4.664
 5960SOL    HW218780   3.664   5.636   4.620
 5961SOL     OW18781   5.331   0.965   2.924
 5961SOL    HW118782   5.285   0.879   2.947
 5961SOL    HW218783   5.425   0.947   2.895
 5962SOL     OW18784   4.946   6.082   0.992
 5962SOL    HW118785   4.958   6.122   0.901
 5962SOL    HW218786   4.902   6.149   1.052
 5963SOL     OW18787   3.516   3.108   4.739
 5963SOL    HW118788   3.553   3.020   4.768
 5963SOL    HW218789   3.425   3.094   4.700
 5964SOL     OW18790   0.061   5.231   5.657
 5964SOL    HW118791   0.006   5.224   5.574
 5964SOL    HW218792   0.121   5.151   5.664
 5965SOL     OW18793   0.743   2.454   0.126
 5965SOL    HW118794   0.747   2.479   0.223
 5965SOL    HW218795   0.734   2.537   0.071
 5966SOL     OW18796   2.188   5.835   4.893
 5966SOL    HW118797   2.113   5.783   4.852
 5966SOL    HW218798   2.154   5.925   4.921
 5967SOL     OW18799   3.895   6.143   0.376
 5967SOL    HW118800   3.876   6.238   0.400
 5967SOL    HW218801   3.981   6.138   0.324
 5968SOL     OW18802   5.073   0.697   1.747
 5968SOL    HW118803   5.066   0.778   1.689
 5968SOL    HW218804   4.981   0.667   1.774
 5969SOL     OW18805   0.039   0.661   6.500
 5969SOL    HW118806   6.971   0.699   6.511
 5969SOL    HW218807   0.055   0.593   6.571
 5970SOL     OW18808   0.811   4.179   2.597
 5970SOL    HW118809   0.853   4.123   2.668
 5970SOL    HW218810   0.882   4.214   2.535
 5971SOL     OW18811   1.415   1.233   3.126
 5971SOL    HW118812   1.360   1.198   3.051
 5971SOL    HW218813   1.395   1.330   3.140
 5972SOL     OW18814   5.391   6.358   6.900
 5972SOL    HW118815   5.455   6.416   6.850
 5972SOL    HW218816   5.440   6.277   6.935
 5973SOL     OW18817   1.842   3.664   2.369
 5973SOL    HW118818   1.899   3.666   2.288
 5973SOL    HW218819   1.746   3.672   2.342
 5974SOL     OW18820   5.610   4.653   6.556
 5974SOL    HW118821   5.581   4.582   6.492
 5974SOL    HW218822   5.684   4.619   6.613
 5975SOL     OW18823   3.466   2.019   0.814
 5975SOL    HW118824   3.533   2.075   0.862
 5975SOL    HW218825   3.400   2.078   0.768
 5976SOL     OW18826   2.996   3.506   5.072
 5976SOL    HW118827   3.017   3.547   4.983
 5976SOL    HW218828   3.070   3.527   5.136
 5977SOL     OW18829   2.482   5.092   1.039
 5977SOL    HW118830   2.388   5.086   1.071
 5977SOL    HW218831   2.507   5.008   0.992
 5978SOL     OW18832   4.942   5.894   3.297
 5978SOL    HW118833   4.943   5.846   3.209
 5978SOL    HW218834   4.959   5.991   3.282
 5979SOL     OW18835   6.566   6.984   2.685
 5979SOL    HW118836   6.529   6.985   2.592
 5979SOL    HW218837   6.508   0.017   2.744
 5980SOL     OW18838   3.611   3.319   0.265
 5980SOL    HW118839   3.664   3.239   0.293
 5980SOL    HW218840   3.660   3.369   0.194
 5981SOL     OW18841   6.009   1.570   1.756
 5981SOL    HW118842   6.096   1.614   1.734
 5981SOL    HW218843   5.992   1.496   1.692
 5982SOL     OW18844   6.905   2.617   1.563
 5982SOL    HW118845   6.967   2.690   1.592
 5982SOL    HW218846   6.894   2.619   1.464
 5983SOL     OW18847   1.903   0.780   4.331
 5983SOL    HW118848   1.938   0.861   4.378
 5983SOL    HW218849   1.858   0.720   4.396
 5984SOL     OW18850   6.430   6.578   4.986
 5984SOL    HW118851   6.516   6.615   4.951
 5984SOL    HW218852   6.448   6.491   5.032
 5985SOL     OW18853   6.633   3.110   4.349
 5985SOL    HW118854   6.709   3.146   4.295
 5985SOL    HW218855   6.662   3.096   4.444
 5986SOL     OW18856   3.389   3.472   4.185
 5986SOL    HW118857   3.425   3.562   4.161
 5986SOL    HW218858   3.298   3.483   4.225
 5987SOL     OW18859   4.516   0.781   4.679
 5987SOL    HW118860   4.494   0.729   4.761
 5987SOL    HW218861   4.498   0.725   4.598
 5988SOL     OW18862   5.569   6.922   5.464
 5988SOL    HW118863   5.637   6.909   5.392
 5988SOL    HW218864   5.607   6.892   5.552
 5989SOL     OW18865   2.566   5.954   0.408
 5989SOL    HW118866   2.516   5.878   0.365
 5989SOL    HW218867   2.501   6.010   0.461
 5990SOL     OW18868   3.871   4.549   0.608
 5990SOL    HW118869   3.831   4.567   0.699
 5990SOL    HW218870   3.894   4.635   0.564
 5991SOL     OW18871   3.575   5.415   5.978
 5991SOL    HW118872   3.573   5.493   5.915
 5991SOL    HW218873   3.597   5.332   5.927
 5992SOL     OW18874   3.363   0.607   2.848
 5992SOL    HW118875   3.337   0.703   2.857
 5992SOL    HW218876   3.459   0.596   2.875
 5993SOL     OW18877   3.275   6.020   6.165
 5993SOL    HW118878   3.210   5.949   6.191
 5993SOL    HW218879   3.252   6.105   6.212
 5994SOL     OW18880   6.692   2.466   2.298
 5994SOL    HW118881   6.717   2.524   2.377
 5994SOL    HW218882   6.727   2.508   2.214
 5995SOL     OW18883   5.878   5.203   2.490
 5995SOL    HW118884   5.815   5.206   2.412
 5995SOL    HW218885   5.914   5.295   2.507
 5996SOL     OW18886   1.252   6.160   0.214
 5996SOL    HW118887   1.162   6.150   0.173
 5996SOL    HW218888   1.288   6.070   0.239
 5997SOL     OW18889   1.015   5.724   2.958
 5997SOL    HW118890   1.105   5.693   2.928
 5997SOL    HW218891   0.947   5.704   2.888
 5998SOL     OW18892   6.324   2.160   1.981
 5998SOL    HW118893   6.311   2.193   1.888
 5998SOL    HW218894   6.236   2.155   2.027
 5999SOL     OW18895   1.802   1.564   2.550
 5999SOL    HW118896   1.839   1.584   2.459
 5999SOL    HW218897   1.810   1.645   2.608
 6000SOL     OW18898   4.145   0.077   1.756
 6000SOL    HW118899   4.123   0.150   1.692
 6000SOL    HW218900   4.163   7.016   1.706
 6001SOL     OW18901   0.424   3.999   6.451
 6001SOL    HW118902   0.476   4.002   6.365
 6001SOL    HW218903   0.390   3.907   6.466
 6002SOL     OW18904   6.816   0.141   1.332
 6002SOL    HW118905   6.784   0.101   1.246
 6002SOL    HW218906   6.909   0.176   1.320
 6003SOL     OW18907   0.098   2.343   4.162
 6003SOL    HW118908   0.123   2.394   4.079
 6003SOL    HW218909   0.058   2.406   4.228
 6004SOL     OW18910   0.539   4.266   3.178
 6004SOL    HW118911   0.624   4.260   3.127
 6004SOL    HW218912   0.473   4.320   3.125
 6005SOL     OW18913   4.554   5.297   4.580
 6005SOL    HW118914   4.492   5.249   4.518
 6005SOL    HW218915   4.626   5.235   4.610
 6006SOL     OW18916   2.590   0.524   6.734
 6006SOL    HW118917   2.605   0.621   6.752
 6006SOL    HW218918   2.678   0.480   6.715
 6007SOL     OW18919   5.004   3.659   5.185
 6007SOL    HW118920   5.049   3.572   5.165
 6007SOL    HW218921   4.905   3.649   5.172
 6008SOL     OW18922   1.745   4.919   5.742
 6008SOL    HW118923   1.673   4.977   5.703
 6008SOL    HW218924   1.721   4.822   5.729
 6009SOL     OW18925   3.968   0.774   3.981
 6009SOL    HW118926   3.954   0.777   4.080
 6009SOL    HW218927   4.012   0.687   3.957
 6010SOL     OW18928   1.587   3.833   3.507
 6010SOL    HW118929   1.526   3.808   3.432
 6010SOL    HW218930   1.534   3.880   3.578
 6011SOL     OW18931   4.827   2.641   2.996
 6011SOL    HW118932   4.872   2.701   2.929
 6011SOL    HW218933   4.897   2.594   3.050
 6012SOL     OW18934   5.387   0.823   0.061
 6012SOL    HW118935   5.451   0.749   0.082
 6012SOL    HW218936   5.344   0.854   0.146
 6013SOL     OW18937   5.765   2.978   2.675
 6013SOL    HW118938   5.814   3.009   2.594
 6013SOL    HW218939   5.711   3.053   2.713
 6014SOL     OW18940   4.127   3.093   0.959
 6014SOL    HW118941   4.158   3.010   0.913
 6014SOL    HW218942   4.187   3.114   1.036
 6015SOL     OW18943   5.689   2.258   4.897
 6015SOL    HW118944   5.658   2.332   4.838
 6015SOL    HW218945   5.780   2.279   4.933
 6016SOL     OW18946   6.748   1.443   6.108
 6016SOL    HW118947   6.752   1.470   6.012
 6016SOL    HW218948   6.812   1.368   6.124
 6017SOL     OW18949   0.445   4.556   2.630
 6017SOL    HW118950   0.371   4.508   2.583
 6017SOL    HW218951   0.533   4.514   2.607
 6018SOL     OW18952   3.142   0.906   6.868
 6018SOL    HW118953   3.225   0.855   6.846
 6018SOL    HW218954   3.092   0.925   6.784
 6019SOL     OW18955   6.633   1.705   4.111
 6019SOL    HW118956   6.665   1.800   4.116
 6019SOL    HW218957   6.711   1.644   4.104
 6020SOL     OW18958   2.159   5.124   1.465
 6020SOL    HW118959   2.224   5.195   1.491
 6020SOL    HW218960   2.123   5.080   1.547
 6021SOL     OW18961   4.161   1.220   2.320
 6021SOL    HW118962   4.181   1.151   2.252
 6021SOL    HW218963   4.137   1.176   2.407
 6022SOL     OW18964   5.120   1.940   4.473
 6022SOL    HW118965   5.070   1.946   4.387
 6022SOL    HW218966   5.057   1.925   4.548
 6023SOL     OW18967   5.917   1.182   1.770
 6023SOL    HW118968   5.949   1.240   1.695
 6023SOL    HW218969   5.968   1.096   1.769
 6024SOL     OW18970   0.596   4.845   2.916
 6024SOL    HW118971   0.551   4.929   2.886
 6024SOL    HW218972   0.610   4.847   3.014
 6025SOL     OW18973   3.607   1.846   2.807
 6025SOL    HW118974   3.621   1.842   2.906
 6025SOL    HW218975   3.509   1.841   2.787
 6026SOL     OW18976   0.135   3.757   4.594
 6026SOL    HW118977   0.117   3.813   4.513
 6026SOL    HW218978   0.051   3.746   4.647
 6027SOL     OW18979   1.279   3.532   6.211
 6027SOL    HW118980   1.193   3.516   6.259
 6027SOL    HW218981   1.260   3.562   6.118
 6028SOL     OW18982   0.965   4.272   0.390
 6028SOL    HW118983   0.915   4.216   0.322
 6028SOL    HW218984   0.962   4.226   0.479
 6029SOL     OW18985   2.424   6.538   4.834
 6029SOL    HW118986   2.394   6.456   4.784
 6029SOL    HW218987   2.417   6.618   4.775
 6030SOL     OW18988   4.124   6.328   2.714
 6030SOL    HW118989   4.115   6.284   2.625
 6030SOL    HW218990   4.162   6.264   2.780
 6031SOL     OW18991   3.909   5.223   3.449
 6031SOL    HW118992   3.966   5.175   3.383
 6031SOL    HW218993   3.831   5.265   3.403
 6032SOL     OW18994   2.201   4.106   3.253
 6032SOL    HW118995   2.192   4.168   3.175
 6032SOL    HW218996   2.245   4.154   3.329
 6033SOL     OW18997   2.934   1.760   2.349
 6033SOL    HW118998   3.010   1.716   2.396
 6033SOL    HW218999   2.858   1.696   2.340
 6034SOL     OW19000   1.004   5.288   4.284
 6034SOL    HW119001   1.042   5.292   4.376
 6034SOL    HW219002   0.925   5.349   4.277
 6035SOL     OW19003   0.010   0.412   2.721
 6035SOL    HW119004   0.073   0.389   2.795
 6035SOL    HW219005   7.010   0.329   2.670
 6036SOL     OW19006   6.201   5.968   4.601
 6036SOL    HW119007   6.138   5.890   4.601
 6036SOL    HW219008   6.220   5.995   4.695
 6037SOL     OW19009   4.515   4.967   6.195
 6037SOL    HW119010   4.513   4.899   6.269
 6037SOL    HW219011   4.483   5.055   6.230
 6038SOL     OW19012   1.197   2.976   6.192
 6038SOL    HW119013   1.187   2.878   6.178
 6038SOL    HW219014   1.249   3.015   6.116
 6039SOL     OW19015   3.153   3.028   2.782
 6039SOL    HW119016   3.200   3.073   2.707
 6039SOL    HW219017   3.056   3.054   2.781
 6040SOL     OW19018   0.334   2.235   6.569
 6040SOL    HW119019   0.320   2.136   6.564
 6040SOL    HW219020   0.325   2.274   6.477
 6041SOL     OW19021   2.218   0.625   5.093
 6041SOL    HW119022   2.229   0.724   5.087
 6041SOL    HW219023   2.202   0.588   5.002
 6042SOL     OW19024   5.162   5.752   2.054
 6042SOL    HW119025   5.098   5.730   2.128
 6042SOL    HW219026   5.159   5.851   2.037
 6043SOL     OW19027   0.781   4.314   5.592
 6043SOL    HW119028   0.728   4.267   5.663
 6043SOL    HW219029   0.873   4.276   5.589
 6044SOL     OW19030   1.685   1.964   1.242
 6044SOL    HW119031   1.733   2.047   1.216
 6044SOL    HW219032   1.662   1.967   1.340
 6045SOL     OW19033   6.481   5.043   0.972
 6045SOL    HW119034   6.539   5.020   1.050
 6045SOL    HW219035   6.409   5.106   1.001
 6046SOL     OW19036   3.073   2.046   6.832
 6046SOL    HW119037   3.017   2.002   6.903
 6046SOL    HW219038   3.149   1.986   6.808
 6047SOL     OW19039   5.780   2.682   2.397
 6047SOL    HW119040   5.867   2.666   2.443
 6047SOL    HW219041   5.795   2.687   2.298
 6048SOL     OW19042   4.574   5.964   4.393
 6048SOL    HW119043   4.667   5.929   4.395
 6048SOL    HW219044   4.510   5.888   4.380
 6049SOL     OW19045   6.053   3.143   6.068
 6049SOL    HW119046   6.064   3.242   6.065
 6049SOL    HW219047   6.011   3.111   5.983
 6050SOL     OW19048   2.808   5.220   4.836
 6050SOL    HW119049   2.885   5.205   4.773
 6050SOL    HW219050   2.743   5.283   4.793
 6051SOL     OW19051   2.091   1.659   4.608
 6051SOL    HW119052   2.005   1.711   4.611
 6051SOL    HW219053   2.164   1.717   4.572
 6052SOL     OW19054   6.323   6.826   0.768
 6052SOL    HW119055   6.325   6.730   0.794
 6052SOL    HW219056   6.265   6.838   0.688
 6053SOL     OW19057   3.308   0.851   6.365
 6053SOL    HW119058   3.301   0.754   6.340
 6053SOL    HW219059   3.395   0.888   6.333
 6054SOL     OW19060   2.519   3.952   0.184
 6054SOL    HW119061   2.554   3.858   0.182
 6054SOL    HW219062   2.595   4.016   0.200
 6055SOL     OW19063   5.356   1.389   5.600
 6055SOL    HW119064   5.393   1.394   5.693
 6055SOL    HW219065   5.344   1.482   5.564
 6056SOL     OW19066   4.992   2.941   4.736
 6056SOL    HW119067   4.991   2.861   4.797
 6056SOL    HW219068   5.030   3.019   4.786
 6057SOL     OW19069   5.141   2.961   4.495
 6057SOL    HW119070   5.153   3.059   4.481
 6057SOL    HW219071   5.074   2.946   4.568
 6058SOL     OW19072   4.991   2.567   1.935
 6058SOL    HW119073   4.988   2.511   1.851
 6058SOL    HW219074   4.956   2.658   1.915
 6059SOL     OW19075   4.984   5.237   4.506
 6059SOL    HW119076   5.027   5.154   4.539
 6059SOL    HW219077   4.893   5.216   4.471
 6060SOL     OW19078   3.323   4.384   6.311
 6060SOL    HW119079   3.289   4.449   6.379
 6060SOL    HW219080   3.297   4.291   6.337
 6061SOL     OW19081   3.928   2.029   1.583
 6061SOL    HW119082   3.854   2.095   1.593
 6061SOL    HW219083   4.014   2.069   1.616
 6062SOL     OW19084   1.792   1.628   4.845
 6062SOL    HW119085   1.853   1.706   4.853
 6062SOL    HW219086   1.698   1.657   4.861
 6063SOL     OW19087   3.569   1.421   6.800
 6063SOL    HW119088   3.525   1.436   6.712
 6063SOL    HW219089   3.633   1.344   6.793
 6064SOL     OW19090   2.415   6.133   1.540
 6064SOL    HW119091   2.496   6.192   1.549
 6064SOL    HW219092   2.417   6.064   1.612
 6065SOL     OW19093   6.037   6.574   2.260
 6065SOL    HW119094   6.107   6.617   2.203
 6065SOL    HW219095   5.969   6.530   2.202
 6066SOL     OW19096   4.631   2.018   6.423
 6066SOL    HW119097   4.555   2.031   6.359
 6066SOL    HW219098   4.692   2.097   6.418
 6067SOL     OW19099   5.488   1.656   5.999
 6067SOL    HW119100   5.563   1.709   5.962
 6067SOL    HW219101   5.481   1.672   6.098
 6068SOL     OW19102   5.729   3.017   4.659
 6068SOL    HW119103   5.649   3.058   4.616
 6068SOL    HW219104   5.714   3.010   4.757
 6069SOL     OW19105   6.633   3.202   5.093
 6069SOL    HW119106   6.610   3.225   4.999
 6069SOL    HW219107   6.622   3.283   5.151
 6070SOL     OW19108   2.146   2.310   0.114
 6070SOL    HW119109   2.246   2.315   0.122
 6070SOL    HW219110   2.122   2.279   0.021
 6071SOL     OW19111   5.834   4.756   4.779
 6071SOL    HW119112   5.745   4.778   4.738
 6071SOL    HW219113   5.826   4.675   4.836
 6072SOL     OW19114   0.177   6.894   2.108
 6072SOL    HW119115   0.117   6.898   2.029
 6072SOL    HW219116   0.245   6.822   2.095
 6073SOL     OW19117   6.291   4.107   0.649
 6073SOL    HW119118   6.351   4.187   0.645
 6073SOL    HW219119   6.197   4.135   0.629
 6074SOL     OW19120   1.326   6.257   4.567
 6074SOL    HW119121   1.285   6.340   4.603
 6074SOL    HW219122   1.288   6.238   4.476
 6075SOL     OW19123   6.953   2.053   0.015
 6075SOL    HW119124   0.022   2.015   0.008
 6075SOL    HW219125   6.912   2.058   6.947
 6076SOL     OW19126   2.154   6.029   4.406
 6076SOL    HW119127   2.232   5.997   4.460
 6076SOL    HW219128   2.077   5.965   4.417
 6077SOL     OW19129   4.741   6.099   1.984
 6077SOL    HW119130   4.796   6.183   1.984
 6077SOL    HW219131   4.756   6.049   2.069
 6078SOL     OW19132   3.847   5.127   1.416
 6078SOL    HW119133   3.902   5.208   1.438
 6078SOL    HW219134   3.772   5.119   1.481
 6079SOL     OW19135   3.060   3.113   6.303
 6079SOL    HW119136   3.034   3.087   6.209
 6079SOL    HW219137   3.019   3.201   6.326
 6080SOL     OW19138   6.875   0.698   1.650
 6080SOL    HW119139   6.822   0.676   1.569
 6080SOL    HW219140   6.833   0.774   1.699
 6081SOL     OW19141   6.218   3.077   5.091
 6081SOL    HW119142   6.196   3.028   5.006
 6081SOL    HW219143   6.223   3.013   5.167
 6082SOL     OW19144   2.445   2.017   3.418
 6082SOL    HW119145   2.538   2.005   3.455
 6082SOL    HW219146   2.389   1.938   3.445
 6083SOL     OW19147   0.359   5.312   6.811
 6083SOL    HW119148   0.413   5.254   6.872
 6083SOL    HW219149   0.328   5.258   6.733
 6084SOL     OW19150   0.013   5.538   3.597
 6084SOL    HW119151   0.092   5.541   3.657
 6084SOL    HW219152   6.970   5.472   3.632
 6085SOL     OW19153   0.276   4.222   0.210
 6085SOL    HW119154   0.212   4.170   0.154
 6085SOL    HW219155   0.225   4.271   0.282
 6086SOL     OW19156   3.179   1.702   5.325
 6086SOL    HW119157   3.174   1.622   5.264
 6086SOL    HW219158   3.264   1.700   5.376
 6087SOL     OW19159   4.095   6.000   0.567
 6087SOL    HW119160   4.073   6.094   0.540
 6087SOL    HW219161   4.059   5.937   0.498
 6088SOL     OW19162   5.970   6.599   4.476
 6088SOL    HW119163   5.960   6.574   4.573
 6088SOL    HW219164   6.012   6.524   4.426
 6089SOL     OW19165   6.742   3.533   1.500
 6089SOL    HW119166   6.776   3.521   1.593
 6089SOL    HW219167   6.721   3.443   1.461
 6090SOL     OW19168   2.161   6.375   5.509
 6090SOL    HW119169   2.094   6.380   5.435
 6090SOL    HW219170   2.186   6.468   5.537
 6091SOL     OW19171   2.345   1.840   2.215
 6091SOL    HW119172   2.331   1.834   2.116
 6091SOL    HW219173   2.268   1.887   2.257
 6092SOL     OW19174   3.347   0.454   3.267
 6092SOL    HW119175   3.336   0.399   3.184
 6092SOL    HW219176   3.331   0.551   3.245
 6093SOL     OW19177   1.039   3.315   3.224
 6093SOL    HW119178   1.085   3.375   3.158
 6093SOL    HW219179   0.959   3.362   3.261
 6094SOL     OW19180   4.113   1.140   1.510
 6094SOL    HW119181   4.053   1.060   1.500
 6094SOL    HW219182   4.071   1.219   1.465
 6095SOL     OW19183   4.123   3.619   6.761
 6095SOL    HW119184   4.105   3.637   6.664
 6095SOL    HW219185   4.197   3.678   6.792
 6096SOL     OW19186   5.898   0.550   4.157
 6096SOL    HW119187   5.901   0.485   4.080
 6096SOL    HW219188   5.945   0.511   4.235
 6097SOL     OW19189   1.719   0.211   2.124
 6097SOL    HW119190   1.636   0.229   2.176
 6097SOL    HW219191   1.783   0.287   2.137
 6098SOL     OW19192   1.214   2.535   6.689
 6098SOL    HW119193   1.296   2.518   6.742
 6098SOL    HW219194   1.146   2.582   6.745
 6099SOL     OW19195   0.200   6.012   0.496
 6099SOL    HW119196   0.135   6.069   0.445
 6099SOL    HW219197   0.193   6.033   0.593
 6100SOL     OW19198   4.810   3.810   0.026
 6100SOL    HW119199   4.879   3.878   0.001
 6100SOL    HW219200   4.850   3.744   0.091
 6101SOL     OW19201   6.348   2.008   4.761
 6101SOL    HW119202   6.270   2.024   4.700
 6101SOL    HW219203   6.320   1.953   4.839
 6102SOL     OW19204   3.270   0.278   3.458
 6102SOL    HW119205   3.294   0.341   3.385
 6102SOL    HW219206   3.347   0.270   3.522
 6103SOL     OW19207   0.558   2.468   2.418
 6103SOL    HW119208   0.612   2.399   2.371
 6103SOL    HW219209   0.460   2.450   2.404
 6104SOL     OW19210   5.923   1.726   5.694
 6104SOL    HW119211   5.867   1.644   5.677
 6104SOL    HW219212   5.867   1.808   5.682
 6105SOL     OW19213   1.709   0.933   5.490
 6105SOL    HW119214   1.786   0.906   5.548
 6105SOL    HW219215   1.671   1.020   5.522
 6106SOL     OW19216   1.676   3.651   5.778
 6106SOL    HW119217   1.664   3.553   5.770
 6106SOL    HW219218   1.636   3.683   5.864
 6107SOL     OW19219   2.342   4.891   4.125
 6107SOL    HW119220   2.419   4.914   4.065
 6107SOL    HW219221   2.327   4.792   4.124
 6108SOL     OW19222   0.920   2.725   2.038
 6108SOL    HW119223   0.838   2.730   1.981
 6108SOL    HW219224   0.972   2.810   2.030
 6109SOL     OW19225   5.038   3.165   6.460
 6109SOL    HW119226   5.009   3.181   6.366
 6109SOL    HW219227   5.137   3.180   6.467
 6110SOL     OW19228   3.563   2.858   6.783
 6110SOL    HW119229   3.561   2.948   6.827
 6110SOL    HW219230   3.495   2.856   6.710
 6111SOL     OW19231   2.468   4.479   2.420
 6111SOL    HW119232   2.474   4.440   2.512
 6111SOL    HW219233   2.442   4.408   2.355
 6112SOL     OW19234   3.062   0.104   3.383
 6112SOL    HW119235   2.982   0.095   3.442
 6112SOL    HW219236   3.133   0.157   3.430
 6113SOL     OW19237   1.019   1.234   5.802
 6113SOL    HW119238   0.925   1.263   5.817
 6113SOL    HW219239   1.075   1.258   5.881
 6114SOL     OW19240   4.604   5.045   0.866
 6114SOL    HW119241   4.638   5.001   0.949
 6114SOL    HW219242   4.638   5.139   0.861
 6115SOL     OW19243   5.239   0.043   3.573
 6115SOL    HW119244   5.170   6.994   3.572
 6115SOL    HW219245   5.271   0.059   3.480
 6116SOL     OW19246   2.773   0.945   0.156
 6116SOL    HW119247   2.788   1.004   0.236
 6116SOL    HW219248   2.710   0.990   0.093
 6117SOL     OW19249   0.179   0.628   5.675
 6117SOL    HW119250   0.099   0.599   5.728
 6117SOL    HW219251   0.201   0.557   5.608
 6118SOL     OW19252   6.389   0.717   1.739
 6118SOL    HW119253   6.408   0.704   1.836
 6118SOL    HW219254   6.299   0.680   1.717
 6119SOL     OW19255   0.293   3.540   5.095
 6119SOL    HW119256   0.268   3.542   4.998
 6119SOL    HW219257   0.321   3.631   5.125
 6120SOL     OW19258   4.490   6.984   3.895
 6120SOL    HW119259   4.556   6.991   3.970
 6120SOL    HW219260   4.462   0.052   3.867
 6121SOL     OW19261   0.539   3.470   4.990
 6121SOL    HW119262   0.589   3.547   4.952
 6121SOL    HW219263   0.454   3.502   5.030
 6122SOL     OW19264   3.891   0.022   1.553
 6122SOL    HW119265   3.822   6.989   1.598
 6122SOL    HW219266   3.921   0.094   1.615
 6123SOL     OW19267   6.852   0.405   6.739
 6123SOL    HW119268   6.868   0.307   6.724
 6123SOL    HW219269   6.783   0.438   6.675
 6124SOL     OW19270   1.880   1.357   0.223
 6124SOL    HW119271   1.972   1.335   0.253
 6124SOL    HW219272   1.858   1.451   0.250
 6125SOL     OW19273   2.396   5.772   0.326
 6125SOL    HW119274   2.371   5.702   0.259
 6125SOL    HW219275   2.326   5.844   0.327
 6126SOL     OW19276   6.928   6.550   4.307
 6126SOL    HW119277   6.850   6.581   4.252
 6126SOL    HW219278   7.011   6.555   4.252
 6127SOL     OW19279   2.709   0.437   2.203
 6127SOL    HW119280   2.796   0.405   2.240
 6127SOL    HW219281   2.657   0.483   2.275
 6128SOL     OW19282   6.164   3.347   0.436
 6128SOL    HW119283   6.081   3.345   0.381
 6128SOL    HW219284   6.201   3.254   0.443
 6129SOL     OW19285   6.711   3.940   3.017
 6129SOL    HW119286   6.769   4.016   3.047
 6129SOL    HW219287   6.767   3.859   3.002
 6130SOL     OW19288   6.268   1.903   4.082
 6130SOL    HW119289   6.346   1.961   4.057
 6130SOL    HW219290   6.196   1.915   4.014
 6131SOL     OW19291   6.824   1.672   5.140
 6131SOL    HW119292   6.885   1.737   5.184
 6131SOL    HW219293   6.864   1.580   5.143
 6132SOL     OW19294   5.074   1.105   0.288
 6132SOL    HW119295   4.986   1.099   0.336
 6132SOL    HW219296   5.114   1.195   0.303
 6133SOL     OW19297   0.921   2.418   2.507
 6133SOL    HW119298   0.921   2.491   2.439
 6133SOL    HW219299   1.001   2.359   2.493
 6134SOL     OW19300   3.951   4.602   6.358
 6134SOL    HW119301   3.920   4.517   6.400
 6134SOL    HW219302   3.961   4.672   6.429
 6135SOL     OW19303   0.320   0.191   1.677
 6135SOL    HW119304   0.238   0.222   1.630
 6135SOL    HW219305   0.307   0.199   1.776
 6136SOL     OW19306   0.977   2.605   2.305
 6136SOL    HW119307   1.035   2.548   2.246
 6136SOL    HW219308   0.928   2.672   2.249
 6137SOL     OW19309   5.651   1.940   3.899
 6137SOL    HW119310   5.745   1.968   3.918
 6137SOL    HW219311   5.633   1.851   3.942
 6138SOL     OW19312   4.215   6.017   1.864
 6138SOL    HW119313   4.301   6.052   1.899
 6138SOL    HW219314   4.139   6.054   1.918
 6139SOL     OW19315   2.374   1.989   5.631
 6139SOL    HW119316   2.353   2.024   5.540
 6139SOL    HW219317   2.289   1.971   5.680
 6140SOL     OW19318   0.651   6.141   1.714
 6140SOL    HW119319   0.612   6.061   1.759
 6140SOL    HW219320   0.598   6.222   1.739
 6141SOL     OW19321   5.710   6.012   6.013
 6141SOL    HW119322   5.616   5.986   6.036
 6141SOL    HW219323   5.743   6.080   6.079
 6142SOL     OW19324   6.768   5.270   0.689
 6142SOL    HW119325   6.676   5.307   0.677
 6142SOL    HW219326   6.786   5.255   0.787
 6143SOL     OW19327   6.282   4.832   0.577
 6143SOL    HW119328   6.369   4.785   0.558
 6143SOL    HW219329   6.293   4.890   0.657
 6144SOL     OW19330   5.986   4.774   2.772
 6144SOL    HW119331   6.004   4.832   2.852
 6144SOL    HW219332   5.935   4.827   2.704
 6145SOL     OW19333   4.692   5.644   4.360
 6145SOL    HW119334   4.741   5.666   4.444
 6145SOL    HW219335   4.694   5.546   4.344
 6146SOL     OW19336   3.670   0.622   3.503
 6146SOL    HW119337   3.605   0.613   3.579
 6146SOL    HW219338   3.684   0.533   3.460
 6147SOL     OW19339   1.451   4.048   4.426
 6147SOL    HW119340   1.524   4.006   4.373
 6147SOL    HW219341   1.439   3.999   4.513
 6148SOL     OW19342   0.085   6.914   4.939
 6148SOL    HW119343   0.020   6.879   4.871
 6148SOL    HW219344   0.036   6.933   5.024
 6149SOL     OW19345   3.689   5.160   1.915
 6149SOL    HW119346   3.787   5.144   1.904
 6149SOL    HW219347   3.673   5.256   1.937
 6150SOL     OW19348   4.031   4.784   6.561
 6150SOL    HW119349   4.020   4.718   6.635
 6150SOL    HW219350   4.003   4.874   6.593
 6151SOL     OW19351   6.212   3.695   5.638
 6151SOL    HW119352   6.226   3.766   5.708
 6151SOL    HW219353   6.200   3.739   5.549
 6152SOL     OW19354   5.698   5.590   5.311
 6152SOL    HW119355   5.697   5.625   5.405
 6152SOL    HW219356   5.754   5.650   5.254
 6153SOL     OW19357   4.905   3.519   1.925
 6153SOL    HW119358   4.825   3.507   1.866
 6153SOL    HW219359   4.894   3.464   2.008
 6154SOL     OW19360   5.918   1.741   2.769
 6154SOL    HW119361   6.009   1.781   2.775
 6154SOL    HW219362   5.875   1.770   2.683
 6155SOL     OW19363   1.978   2.240   4.082
 6155SOL    HW119364   1.970   2.145   4.052
 6155SOL    HW219365   1.979   2.244   4.182
 6156SOL     OW19366   4.661   4.940   2.326
 6156SOL    HW119367   4.670   4.845   2.353
 6156SOL    HW219368   4.564   4.966   2.328
 6157SOL     OW19369   1.533   1.514   4.193
 6157SOL    HW119370   1.554   1.417   4.202
 6157SOL    HW219371   1.443   1.525   4.151
 6158SOL     OW19372   4.238   0.929   5.733
 6158SOL    HW119373   4.333   0.903   5.754
 6158SOL    HW219374   4.181   0.912   5.813
 6159SOL     OW19375   4.828   2.161   1.349
 6159SOL    HW119376   4.789   2.208   1.269
 6159SOL    HW219377   4.927   2.170   1.348
 6160SOL     OW19378   4.416   6.664   6.238
 6160SOL    HW119379   4.492   6.652   6.302
 6160SOL    HW219380   4.357   6.738   6.270
 6161SOL     OW19381   6.023   1.345   5.201
 6161SOL    HW119382   5.984   1.436   5.192
 6161SOL    HW219383   6.115   1.344   5.162
 6162SOL     OW19384   1.409   6.290   3.640
 6162SOL    HW119385   1.416   6.321   3.545
 6162SOL    HW219386   1.324   6.324   3.680
 6163SOL     OW19387   5.542   6.076   1.518
 6163SOL    HW119388   5.613   6.082   1.448
 6163SOL    HW219389   5.585   6.059   1.607
 6164SOL     OW19390   2.927   3.084   1.571
 6164SOL    HW119391   2.830   3.073   1.594
 6164SOL    HW219392   2.936   3.129   1.483
 6165SOL     OW19393   4.901   0.327   6.539
 6165SOL    HW119394   4.839   0.399   6.509
 6165SOL    HW219395   4.851   0.240   6.543
 6166SOL     OW19396   4.016   0.585   6.255
 6166SOL    HW119397   4.073   0.663   6.281
 6166SOL    HW219398   3.951   0.565   6.328
 6167SOL     OW19399   1.248   4.007   3.109
 6167SOL    HW119400   1.239   4.065   3.190
 6167SOL    HW219401   1.339   3.965   3.108
 6168SOL     OW19402   0.455   3.380   1.335
 6168SOL    HW119403   0.486   3.423   1.250
 6168SOL    HW219404   0.453   3.281   1.324
 6169SOL     OW19405   1.477   3.196   1.369
 6169SOL    HW119406   1.529   3.111   1.382
 6169SOL    HW219407   1.539   3.268   1.339
 6170SOL     OW19408   1.077   3.765   5.466
 6170SOL    HW119409   1.136   3.787   5.389
 6170SOL    HW219410   1.005   3.834   5.475
 6171SOL     OW19411   0.476   2.755   0.643
 6171SOL    HW119412   0.506   2.662   0.667
 6171SOL    HW219413   0.480   2.813   0.724
 6172SOL     OW19414   1.301   3.037   2.410
 6172SOL    HW119415   1.394   3.046   2.447
 6172SOL    HW219416   1.298   2.958   2.348
 6173SOL     OW19417   6.471   5.081   2.875
 6173SOL    HW119418   6.456   5.157   2.938
 6173SOL    HW219419   6.420   5.001   2.907
 6174SOL     OW19420   5.601   6.016   3.839
 6174SOL    HW119421   5.591   6.025   3.740
 6174SOL    HW219422   5.694   6.039   3.865
 6175SOL     OW19423   4.090   0.548   3.863
 6175SOL    HW119424   4.122   0.567   3.771
 6175SOL    HW219425   4.060   0.453   3.869
 6176SOL     OW19426   5.720   4.099   5.747
 6176SOL    HW119427   5.754   4.074   5.837
 6176SOL    HW219428   5.630   4.059   5.733
 6177SOL     OW19429   5.806   1.628   1.973
 6177SOL    HW119430   5.761   1.709   1.936
 6177SOL    HW219431   5.900   1.624   1.942
 6178SOL     OW19432   5.351   5.075   1.974
 6178SOL    HW119433   5.377   5.155   2.028
 6178SOL    HW219434   5.397   4.994   2.010
 6179SOL     OW19435   6.862   4.629   2.749
 6179SOL    HW119436   6.916   4.584   2.820
 6179SOL    HW219437   6.898   4.722   2.734
 6180SOL     OW19438   2.628   4.593   0.899
 6180SOL    HW119439   2.725   4.616   0.903
 6180SOL    HW219440   2.573   4.675   0.915
 6181SOL     OW19441   4.901   6.380   5.971
 6181SOL    HW119442   4.928   6.288   5.946
 6181SOL    HW219443   4.879   6.432   5.887
 6182SOL     OW19444   4.222   2.870   6.227
 6182SOL    HW119445   4.212   2.949   6.287
 6182SOL    HW219446   4.132   2.832   6.207
 6183SOL     OW19447   1.994   2.005   3.166
 6183SOL    HW119448   2.085   2.004   3.208
 6183SOL    HW219449   1.956   2.097   3.171
 6184SOL     OW19450   3.311   6.657   6.369
 6184SOL    HW119451   3.303   6.757   6.364
 6184SOL    HW219452   3.310   6.619   6.277
 6185SOL     OW19453   0.315   3.753   6.545
 6185SOL    HW119454   0.361   3.676   6.589
 6185SOL    HW219455   0.262   3.804   6.612
 6186SOL     OW19456   5.801   1.230   0.694
 6186SOL    HW119457   5.766   1.224   0.600
 6186SOL    HW219458   5.733   1.274   0.752
 6187SOL     OW19459   5.159   2.908   3.988
 6187SOL    HW119460   5.221   2.913   4.066
 6187SOL    HW219461   5.122   2.816   3.980
 6188SOL     OW19462   1.850   1.602   6.065
 6188SOL    HW119463   1.853   1.650   6.152
 6188SOL    HW219464   1.758   1.608   6.026
 6189SOL     OW19465   4.164   4.841   2.952
 6189SOL    HW119466   4.192   4.788   3.032
 6189SOL    HW219467   4.206   4.932   2.956
 6190SOL     OW19468   0.219   3.933   4.824
 6190SOL    HW119469   0.313   3.925   4.791
 6190SOL    HW219470   0.159   3.878   4.765
 6191SOL     OW19471   2.758   2.734   6.479
 6191SOL    HW119472   2.831   2.684   6.432
 6191SOL    HW219473   2.670   2.698   6.450
 6192SOL     OW19474   2.561   2.022   6.536
 6192SOL    HW119475   2.626   2.008   6.461
 6192SOL    HW219476   2.505   1.940   6.546
 6193SOL     OW19477   4.639   6.080   1.318
 6193SOL    HW119478   4.547   6.118   1.324
 6193SOL    HW219479   4.633   5.981   1.307
 6194SOL     OW19480   6.954   0.307   6.345
 6194SOL    HW119481   7.007   0.261   6.416
 6194SOL    HW219482   6.865   0.262   6.335
 6195SOL     OW19483   4.938   5.895   4.162
 6195SOL    HW119484   4.929   5.809   4.113
 6195SOL    HW219485   4.913   5.971   4.102
 6196SOL     OW19486   5.087   3.976   2.514
 6196SOL    HW119487   5.138   4.041   2.457
 6196SOL    HW219488   5.031   3.918   2.455
 6197SOL     OW19489   2.149   5.678   1.856
 6197SOL    HW119490   2.099   5.679   1.769
 6197SOL    HW219491   2.206   5.595   1.860
 6198SOL     OW19492   4.556   0.005   1.022
 6198SOL    HW119493   4.593   0.081   1.076
 6198SOL    HW219494   4.610   6.947   1.039
 6199SOL     OW19495   0.150   0.845   0.411
 6199SOL    HW119496   0.099   0.800   0.484
 6199SOL    HW219497   0.086   0.888   0.347
 6200SOL     OW19498   0.784   1.665   5.500
 6200SOL    HW119499   0.852   1.593   5.509
 6200SOL    HW219500   0.825   1.744   5.453
 6201SOL     OW19501   0.484   3.250   5.473
 6201SOL    HW119502   0.427   3.307   5.532
 6201SOL    HW219503   0.433   3.168   5.447
 6202SOL     OW19504   4.912   0.850   2.238
 6202SOL    HW119505   4.881   0.942   2.262
 6202SOL    HW219506   4.963   0.853   2.152
 6203SOL     OW19507   6.114   5.905   2.148
 6203SOL    HW119508   6.179   5.975   2.178
 6203SOL    HW219509   6.163   5.833   2.099
 6204SOL     OW19510   1.160   5.896   4.956
 6204SOL    HW119511   1.102   5.900   4.875
 6204SOL    HW219512   1.223   5.819   4.949
 6205SOL     OW19513   6.305   4.712   1.311
 6205SOL    HW119514   6.229   4.744   1.367
 6205SOL    HW219515   6.381   4.685   1.369
 6206SOL     OW19516   6.270   1.578   2.233
 6206SOL    HW119517   6.230   1.506   2.175
 6206SOL    HW219518   6.226   1.577   2.322
 6207SOL     OW19519   2.422   6.195   5.520
 6207SOL    HW119520   2.337   6.247   5.512
 6207SOL    HW219521   2.448   6.190   5.617
 6208SOL     OW19522   3.808   2.217   5.299
 6208SOL    HW119523   3.845   2.124   5.308
 6208SOL    HW219524   3.738   2.218   5.228
 6209SOL     OW19525   3.095   5.913   6.982
 6209SOL    HW119526   3.185   5.924   0.000
 6209SOL    HW219527   3.099   5.840   6.913
 6210SOL     OW19528   4.840   4.027   2.814
 6210SOL    HW119529   4.939   4.030   2.806
 6210SOL    HW219530   4.798   4.067   2.733
 6211SOL     OW19531   2.941   6.539   5.360
 6211SOL    HW119532   2.887   6.613   5.320
 6211SOL    HW219533   3.039   6.559   5.351
 6212SOL     OW19534   2.391   4.945   4.399
 6212SOL    HW119535   2.485   4.979   4.404
 6212SOL    HW219536   2.356   4.960   4.306
 6213SOL     OW19537   4.420   6.864   0.179
 6213SOL    HW119538   4.339   6.858   0.238
 6213SOL    HW219539   4.453   6.771   0.160
 6214SOL     OW19540   5.561   5.990   5.502
 6214SOL    HW119541   5.625   6.044   5.557
 6214SOL    HW219542   5.477   6.042   5.489
 6215SOL     OW19543   3.316   3.019   6.682
 6215SOL    HW119544   3.281   2.966   6.605
 6215SOL    HW219545   3.309   3.116   6.661
 6216SOL     OW19546   6.109   1.945   2.188
 6216SOL    HW119547   6.029   1.886   2.186
 6216SOL    HW219548   6.110   1.998   2.273
 6217SOL     OW19549   0.917   4.515   2.923
 6217SOL    HW119550   0.948   4.493   3.015
 6217SOL    HW219551   0.823   4.482   2.911
 6218SOL     OW19552   3.630   0.204   6.943
 6218SOL    HW119553   3.549   0.169   6.897
 6218SOL    HW219554   3.651   0.146   7.022
 6219SOL     OW19555   1.465   1.169   4.616
 6219SOL    HW119556   1.376   1.151   4.574
 6219SOL    HW219557   1.462   1.146   4.713
 6220SOL     OW19558   3.189   1.255   5.481
 6220SOL    HW119559   3.197   1.265   5.381
 6220SOL    HW219560   3.277   1.278   5.523
 6221SOL     OW19561   5.863   0.166   0.029
 6221SOL    HW119562   5.869   0.148   6.954
 6221SOL    HW219563   5.948   0.206   0.061
 6222SOL     OW19564   0.561   0.661   2.578
 6222SOL    HW119565   0.536   0.636   2.484
 6222SOL    HW219566   0.623   0.593   2.615
 6223SOL     OW19567   1.687   5.139   3.061
 6223SOL    HW119568   1.590   5.116   3.060
 6223SOL    HW219569   1.698   5.237   3.044
 6224SOL     OW19570   3.631   1.053   5.780
 6224SOL    HW119571   3.623   1.152   5.792
 6224SOL    HW219572   3.714   1.033   5.728
 6225SOL     OW19573   3.602   2.483   6.861
 6225SOL    HW119574   3.595   2.558   6.928
 6225SOL    HW219575   3.697   2.454   6.855
 6226SOL     OW19576   1.343   1.552   3.965
 6226SOL    HW119577   1.375   1.644   3.942
 6226SOL    HW219578   1.407   1.484   3.930
 6227SOL     OW19579   3.649   5.413   5.376
 6227SOL    HW119580   3.639   5.314   5.382
 6227SOL    HW219581   3.712   5.436   5.302
 6228SOL     OW19582   0.766   2.722   2.647
 6228SOL    HW119583   0.714   2.640   2.625
 6228SOL    HW219584   0.778   2.729   2.746
 6229SOL     OW19585   0.546   3.200   4.897
 6229SOL    HW119586   0.632   3.156   4.923
 6229SOL    HW219587   0.546   3.294   4.932
 6230SOL     OW19588   1.004   2.120   3.365
 6230SOL    HW119589   0.968   2.173   3.442
 6230SOL    HW219590   1.061   2.178   3.307
 6231SOL     OW19591   5.511   5.324   0.306
 6231SOL    HW119592   5.561   5.241   0.332
 6231SOL    HW219593   5.558   5.404   0.342
 6232SOL     OW19594   6.664   1.213   0.140
 6232SOL    HW119595   6.714   1.255   0.064
 6232SOL    HW219596   6.721   1.215   0.222
 6233SOL     OW19597   6.079   2.715   1.782
 6233SOL    HW119598   6.010   2.683   1.718
 6233SOL    HW219599   6.068   2.813   1.797
 6234SOL     OW19600   0.546   0.109   5.359
 6234SOL    HW119601   0.591   0.195   5.384
 6234SOL    HW219602   0.490   0.124   5.277
 6235SOL     OW19603   0.110   0.523   1.394
 6235SOL    HW119604   0.189   0.566   1.351
 6235SOL    HW219605   0.049   0.594   1.431
 6236SOL     OW19606   0.032   5.063   0.646
 6236SOL    HW119607   6.982   5.117   0.606
 6236SOL    HW219608   0.065   4.997   0.578
 6237SOL     OW19609   3.750   0.430   6.829
 6237SOL    HW119610   3.841   0.464   6.854
 6237SOL    HW219611   3.733   0.343   6.875
 6238SOL     OW19612   4.592   6.422   3.187
 6238SOL    HW119613   4.615   6.515   3.156
 6238SOL    HW219614   4.536   6.428   3.270
 6239SOL     OW19615   3.941   0.937   1.284
 6239SOL    HW119616   3.972   0.862   1.226
 6239SOL    HW219617   3.923   1.018   1.228
 6240SOL     OW19618   3.277   3.709   5.481
 6240SOL    HW119619   3.223   3.773   5.536
 6240SOL    HW219620   3.365   3.751   5.457
 6241SOL     OW19621   3.963   0.668   3.525
 6241SOL    HW119622   3.876   0.695   3.566
 6241SOL    HW219623   4.034   0.663   3.596
 6242SOL     OW19624   3.121   0.438   3.079
 6242SOL    HW119625   3.116   0.535   3.104
 6242SOL    HW219626   3.201   0.423   3.021
 6243SOL     OW19627   0.161   0.018   5.952
 6243SOL    HW119628   0.186   6.955   5.910
 6243SOL    HW219629   0.112   0.075   5.886
 6244SOL     OW19630   5.166   3.586   3.526
 6244SOL    HW119631   5.148   3.494   3.489
 6244SOL    HW219632   5.222   3.578   3.608
 6245SOL     OW19633   1.213   4.270   1.965
 6245SOL    HW119634   1.130   4.324   1.960
 6245SOL    HW219635   1.192   4.181   2.006
 6246SOL     OW19636   1.067   0.943   4.789
 6246SOL    HW119637   1.101   1.036   4.804
 6246SOL    HW219638   1.058   0.926   4.691
 6247SOL     OW19639   1.720   6.415   3.366
 6247SOL    HW119640   1.685   6.374   3.450
 6247SOL    HW219641   1.686   6.364   3.287
 6248SOL     OW19642   3.577   3.897   0.200
 6248SOL    HW119643   3.489   3.851   0.190
 6248SOL    HW219644   3.633   3.848   0.267
 6249SOL     OW19645   6.674   2.615   0.920
 6249SOL    HW119646   6.648   2.661   1.005
 6249SOL    HW219647   6.689   2.683   0.849
 6250SOL     OW19648   6.692   6.803   0.665
 6250SOL    HW119649   6.618   6.865   0.637
 6250SOL    HW219650   6.752   6.787   0.587
 6251SOL     OW19651   4.119   6.242   4.932
 6251SOL    HW119652   4.066   6.164   4.899
 6251SOL    HW219653   4.206   6.247   4.884
 6252SOL     OW19654   2.619   4.528   6.848
 6252SOL    HW119655   2.607   4.466   6.770
 6252SOL    HW219656   2.643   4.476   6.929
 6253SOL     OW19657   2.251   5.095   4.594
 6253SOL    HW119658   2.313   5.044   4.535
 6253SOL    HW219659   2.205   5.166   4.541
 6254SOL     OW19660   6.583   0.033   0.562
 6254SOL    HW119661   6.516   7.010   0.504
 6254SOL    HW219662   6.537   0.099   0.621
 6255SOL     OW19663   2.117   1.897   0.484
 6255SOL    HW119664   2.124   1.977   0.543
 6255SOL    HW219665   2.095   1.816   0.539
 6256SOL     OW19666   4.583   5.340   2.590
 6256SOL    HW119667   4.567   5.242   2.575
 6256SOL    HW219668   4.662   5.370   2.536
 6257SOL     OW19669   3.981   2.821   0.109
 6257SOL    HW119670   4.081   2.829   0.116
 6257SOL    HW219671   3.940   2.912   0.117
 6258SOL     OW19672   3.393   6.815   4.687
 6258SOL    HW119673   3.469   6.781   4.742
 6258SOL    HW219674   3.336   6.739   4.656
 6259SOL     OW19675   2.192   0.881   6.175
 6259SOL    HW119676   2.172   0.791   6.215
 6259SOL    HW219677   2.175   0.878   6.077
 6260SOL     OW19678   3.485   0.237   0.337
 6260SOL    HW119679   3.549   0.180   0.284
 6260SOL    HW219680   3.467   0.193   0.425
 6261SOL     OW19681   4.360   6.535   0.577
 6261SOL    HW119682   4.345   6.564   0.483
 6261SOL    HW219683   4.458   6.533   0.596
 6262SOL     OW19684   1.620   6.087   2.355
 6262SOL    HW119685   1.679   6.027   2.408
 6262SOL    HW219686   1.633   6.182   2.385
 6263SOL     OW19687   0.889   6.594   5.210
 6263SOL    HW119688   0.910   6.604   5.113
 6263SOL    HW219689   0.870   6.684   5.250
 6264SOL     OW19690   1.955   0.205   1.767
 6264SOL    HW119691   2.051   0.208   1.796
 6264SOL    HW219692   1.925   0.110   1.759
 6265SOL     OW19693   4.237   3.320   0.817
 6265SOL    HW119694   4.201   3.227   0.820
 6265SOL    HW219695   4.337   3.318   0.820
 6266SOL     OW19696   4.539   6.225   2.984
 6266SOL    HW119697   4.582   6.285   2.916
 6266SOL    HW219698   4.518   6.278   3.066
 6267SOL     OW19699   2.103   0.003   4.790
 6267SOL    HW119700   2.123   6.946   4.733
 6267SOL    HW219701   2.032   7.003   4.857
 6268SOL     OW19702   3.101   0.889   1.831
 6268SOL    HW119703   3.035   0.820   1.798
 6268SOL    HW219704   3.171   0.844   1.886
 6269SOL     OW19705   6.152   6.952   1.970
 6269SOL    HW119706   6.082   6.997   2.025
 6269SOL    HW219707   6.230   7.013   1.959
 6270SOL     OW19708   0.449   0.112   6.928
 6270SOL    HW119709   0.511   0.067   6.863
 6270SOL    HW219710   0.359   0.122   6.887
 6271SOL     OW19711   6.222   2.575   6.426
 6271SOL    HW119712   6.233   2.670   6.452
 6271SOL    HW219713   6.222   2.568   6.326
 6272SOL     OW19714   0.508   1.591   0.476
 6272SOL    HW119715   0.586   1.653   0.483
 6272SOL    HW219716   0.535   1.499   0.504
 6273SOL     OW19717   0.369   5.572   2.997
 6273SOL    HW119718   0.320   5.546   2.914
 6273SOL    HW219719   0.306   5.568   3.075
 6274SOL     OW19720   3.011   0.011   4.539
 6274SOL    HW119721   3.019   0.052   4.630
 6274SOL    HW219722   3.035   6.938   4.544
 6275SOL     OW19723   2.331   5.842   0.638
 6275SOL    HW119724   2.313   5.822   0.734
 6275SOL    HW219725   2.397   5.775   0.602
 6276SOL     OW19726   3.286   5.741   3.442
 6276SOL    HW119727   3.349   5.760   3.367
 6276SOL    HW219728   3.192   5.737   3.408
 6277SOL     OW19729   5.125   2.211   0.993
 6277SOL    HW119730   5.205   2.203   1.053
 6277SOL    HW219731   5.059   2.139   1.016
 6278SOL     OW19732   4.170   0.796   4.818
 6278SOL    HW119733   4.110   0.863   4.774
 6278SOL    HW219734   4.206   0.733   4.749
 6279SOL     OW19735   4.052   5.993   0.834
 6279SOL    HW119736   4.056   5.994   0.734
 6279SOL    HW219737   4.143   5.976   0.871
 6280SOL     OW19738   0.059   1.534   6.511
 6280SOL    HW119739   6.983   1.539   6.515
 6280SOL    HW219740   0.089   1.443   6.540
 6281SOL     OW19741   6.576   4.437   3.956
 6281SOL    HW119742   6.601   4.351   3.999
 6281SOL    HW219743   6.659   4.489   3.935
 6282SOL     OW19744   5.854   2.805   4.986
 6282SOL    HW119745   5.923   2.737   4.961
 6282SOL    HW219746   5.893   2.868   5.054
 6283SOL     OW19747   1.030   4.358   4.151
 6283SOL    HW119748   1.022   4.383   4.247
 6283SOL    HW219749   1.094   4.420   4.105
 6284SOL     OW19750   1.445   5.512   6.459
 6284SOL    HW119751   1.503   5.433   6.440
 6284SOL    HW219752   1.365   5.483   6.510
 6285SOL     OW19753   0.659   2.945   3.483
 6285SOL    HW119754   0.737   2.976   3.429
 6285SOL    HW219755   0.677   2.854   3.519
 6286SOL     OW19756   0.641   3.428   4.285
 6286SOL    HW119757   0.659   3.445   4.188
 6286SOL    HW219758   0.546   3.449   4.305
 6287SOL     OW19759   3.698   5.100   5.381
 6287SOL    HW119760   3.775   5.056   5.336
 6287SOL    HW219761   3.694   5.071   5.477
 6288SOL     OW19762   5.061   4.519   1.678
 6288SOL    HW119763   5.012   4.437   1.706
 6288SOL    HW219764   5.028   4.548   1.588
 6289SOL     OW19765   2.497   4.834   6.565
 6289SOL    HW119766   2.464   4.927   6.578
 6289SOL    HW219767   2.446   4.771   6.624
 6290SOL     OW19768   6.094   5.429   6.356
 6290SOL    HW119769   6.053   5.423   6.265
 6290SOL    HW219770   6.023   5.417   6.426
 6291SOL     OW19771   3.338   3.743   3.613
 6291SOL    HW119772   3.275   3.778   3.683
 6291SOL    HW219773   3.352   3.645   3.626
 6292SOL     OW19774   2.669   2.069   5.067
 6292SOL    HW119775   2.733   2.113   5.005
 6292SOL    HW219776   2.688   1.971   5.071
 6293SOL     OW19777   4.531   1.679   0.662
 6293SOL    HW119778   4.578   1.593   0.685
 6293SOL    HW219779   4.436   1.659   0.637
 6294SOL     OW19780   4.616   0.177   3.455
 6294SOL    HW119781   4.519   0.191   3.475
 6294SOL    HW219782   4.642   0.083   3.478
 6295SOL     OW19783   5.428   5.114   4.749
 6295SOL    HW119784   5.439   5.081   4.843
 6295SOL    HW219785   5.481   5.197   4.737
 6296SOL     OW19786   0.351   4.335   5.363
 6296SOL    HW119787   0.354   4.400   5.439
 6296SOL    HW219788   0.442   4.326   5.323
 6297SOL     OW19789   5.878   0.277   5.692
 6297SOL    HW119790   5.919   0.212   5.629
 6297SOL    HW219791   5.813   0.336   5.643
 6298SOL     OW19792   6.925   3.787   6.310
 6298SOL    HW119793   6.988   3.779   6.233
 6298SOL    HW219794   6.843   3.837   6.280
 6299SOL     OW19795   5.866   2.703   1.584
 6299SOL    HW119796   5.896   2.653   1.503
 6299SOL    HW219797   5.810   2.782   1.555
 6300SOL     OW19798   5.970   0.711   6.445
 6300SOL    HW119799   5.881   0.666   6.450
 6300SOL    HW219800   6.021   0.693   6.529
 6301SOL     OW19801   2.952   6.011   6.533
 6301SOL    HW119802   2.863   5.983   6.496
 6301SOL    HW219803   3.003   5.930   6.562
 6302SOL     OW19804   2.054   1.388   5.560
 6302SOL    HW119805   2.033   1.466   5.502
 6302SOL    HW219806   2.112   1.418   5.636
 6303SOL     OW19807   0.621   6.525   5.901
 6303SOL    HW119808   0.602   6.431   5.930
 6303SOL    HW219809   0.539   6.581   5.916
 6304SOL     OW19810   3.977   1.342   3.310
 6304SOL    HW119811   3.991   1.441   3.308
 6304SOL    HW219812   3.887   1.320   3.272
 6305SOL     OW19813   6.177   6.035   0.590
 6305SOL    HW119814   6.097   6.000   0.541
 6305SOL    HW219815   6.170   6.134   0.599
 6306SOL     OW19816   0.298   3.759   4.147
 6306SOL    HW119817   0.332   3.807   4.066
 6306SOL    HW219818   0.198   3.758   4.147
 6307SOL     OW19819   3.278   2.952   3.708
 6307SOL    HW119820   3.201   3.002   3.747
 6307SOL    HW219821   3.356   2.956   3.771
 6308SOL     OW19822   1.062   1.909   5.828
 6308SOL    HW119823   1.097   1.818   5.851
 6308SOL    HW219824   1.005   1.903   5.746
 6309SOL     OW19825   0.164   0.227   3.705
 6309SOL    HW119826   0.257   0.190   3.704
 6309SOL    HW219827   0.167   0.325   3.682
 6310SOL     OW19828   2.211   6.396   2.734
 6310SOL    HW119829   2.171   6.462   2.670
 6310SOL    HW219830   2.165   6.402   2.822
 6311SOL     OW19831   5.057   1.881   6.073
 6311SOL    HW119832   5.013   1.816   6.011
 6311SOL    HW219833   5.141   1.841   6.110
 6312SOL     OW19834   1.100   6.359   6.444
 6312SOL    HW119835   1.097   6.281   6.382
 6312SOL    HW219836   1.095   6.444   6.392
 6313SOL     OW19837   6.121   6.907   2.944
 6313SOL    HW119838   6.132   7.006   2.935
 6313SOL    HW219839   6.202   6.868   2.988
 6314SOL     OW19840   3.185   0.289   2.132
 6314SOL    HW119841   3.128   0.222   2.179
 6314SOL    HW219842   3.261   0.242   2.087
 6315SOL     OW19843   2.464   1.692   4.926
 6315SOL    HW119844   2.395   1.762   4.908
 6315SOL    HW219845   2.547   1.736   4.960
 6316SOL     OW19846   4.755   1.947   5.193
 6316SOL    HW119847   4.683   1.882   5.218
 6316SOL    HW219848   4.733   2.037   5.233
 6317SOL     OW19849   4.985   3.584   2.569
 6317SOL    HW119850   4.937   3.525   2.504
 6317SOL    HW219851   4.958   3.679   2.554
 6318SOL     OW19852   4.485   7.011   6.451
 6318SOL    HW119853   4.456   6.953   6.375
 6318SOL    HW219854   4.413   0.052   6.474
 6319SOL     OW19855   6.833   2.018   5.038
 6319SOL    HW119856   6.770   2.034   5.114
 6319SOL    HW219857   6.899   2.093   5.033
 6320SOL     OW19858   7.020   6.283   4.570
 6320SOL    HW119859   6.944   6.331   4.524
 6320SOL    HW219860   0.058   6.245   4.501
 6321SOL     OW19861   4.761   3.142   0.432
 6321SOL    HW119862   4.725   3.071   0.372
 6321SOL    HW219863   4.710   3.227   0.417
 6322SOL     OW19864   3.186   1.861   0.443
 6322SOL    HW119865   3.228   1.846   0.533
 6322SOL    HW219866   3.222   1.946   0.404
 6323SOL     OW19867   1.132   2.002   1.512
 6323SOL    HW119868   1.219   1.992   1.559
 6323SOL    HW219869   1.103   1.914   1.475
 6324SOL     OW19870   3.856   1.730   0.510
 6324SOL    HW119871   3.941   1.772   0.541
 6324SOL    HW219872   3.778   1.774   0.555
 6325SOL     OW19873   2.135   2.883   2.965
 6325SOL    HW119874   2.213   2.863   2.906
 6325SOL    HW219875   2.053   2.892   2.909
 6326SOL     OW19876   5.542   5.252   6.654
 6326SOL    HW119877   5.502   5.218   6.569
 6326SOL    HW219878   5.555   5.351   6.648
 6327SOL     OW19879   0.368   1.790   4.295
 6327SOL    HW119880   0.343   1.710   4.241
 6327SOL    HW219881   0.464   1.813   4.277
 6328SOL     OW19882   4.277   3.305   6.774
 6328SOL    HW119883   4.276   3.313   6.873
 6328SOL    HW219884   4.186   3.328   6.737
 6329SOL     OW19885   0.967   3.046   5.196
 6329SOL    HW119886   1.022   3.113   5.245
 6329SOL    HW219887   0.937   2.975   5.260
 6330SOL     OW19888   6.129   6.728   1.434
 6330SOL    HW119889   6.165   6.819   1.413
 6330SOL    HW219890   6.036   6.736   1.470
 6331SOL     OW19891   6.538   3.634   4.998
 6331SOL    HW119892   6.485   3.706   4.953
 6331SOL    HW219893   6.589   3.582   4.930
 6332SOL     OW19894   0.856   2.998   1.081
 6332SOL    HW119895   0.901   2.947   1.154
 6332SOL    HW219896   0.879   3.095   1.089
 6333SOL     OW19897   4.464   0.343   5.616
 6333SOL    HW119898   4.387   0.281   5.629
 6333SOL    HW219899   4.548   0.290   5.606
 6334SOL     OW19900   2.914   1.320   2.045
 6334SOL    HW119901   2.934   1.418   2.047
 6334SOL    HW219902   2.994   1.271   2.010
 6335SOL     OW19903   4.189   0.939   0.241
 6335SOL    HW119904   4.285   0.965   0.242
 6335SOL    HW219905   4.151   0.954   0.150
 6336SOL     OW19906   0.551   2.816   6.400
 6336SOL    HW119907   0.537   2.902   6.351
 6336SOL    HW219908   0.616   2.759   6.350
 6337SOL     OW19909   4.112   5.352   4.957
 6337SOL    HW119910   4.101   5.315   4.864
 6337SOL    HW219911   4.165   5.436   4.952
 6338SOL     OW19912   3.068   2.117   4.271
 6338SOL    HW119913   2.981   2.068   4.278
 6338SOL    HW219914   3.113   2.117   4.360
 6339SOL     OW19915   0.687   3.738   3.898
 6339SOL    HW119916   0.677   3.808   3.968
 6339SOL    HW219917   0.668   3.648   3.937
 6340SOL     OW19918   2.504   3.969   0.981
 6340SOL    HW119919   2.483   4.061   0.948
 6340SOL    HW219920   2.586   3.935   0.934
 6341SOL     OW19921   6.970   4.011   4.005
 6341SOL    HW119922   6.929   3.992   3.916
 6341SOL    HW219923   6.999   3.925   4.048
 6342SOL     OW19924   3.543   1.604   0.726
 6342SOL    HW119925   3.580   1.557   0.646
 6342SOL    HW219926   3.475   1.545   0.771
 6343SOL     OW19927   4.205   6.932   6.738
 6343SOL    HW119928   4.127   6.968   6.789
 6343SOL    HW219929   4.199   6.960   6.642
 6344SOL     OW19930   5.919   1.986   4.219
 6344SOL    HW119931   5.849   2.049   4.186
 6344SOL    HW219932   5.950   1.928   4.144
 6345SOL     OW19933   4.600   2.789   1.774
 6345SOL    HW119934   4.506   2.755   1.775
 6345SOL    HW219935   4.601   2.885   1.803
 6346SOL     OW19936   0.116   5.135   4.884
 6346SOL    HW119937   0.054   5.203   4.923
 6346SOL    HW219938   0.200   5.131   4.938
 6347SOL     OW19939   1.756   1.390   1.052
 6347SOL    HW119940   1.724   1.483   1.036
 6347SOL    HW219941   1.765   1.342   0.965
 6348SOL     OW19942   0.808   3.144   6.021
 6348SOL    HW119943   0.761   3.232   6.013
 6348SOL    HW219944   0.741   3.070   6.013
 6349SOL     OW19945   1.399   0.444   0.472
 6349SOL    HW119946   1.466   0.477   0.538
 6349SOL    HW219947   1.336   0.518   0.448
 6350SOL     OW19948   0.790   5.153   3.553
 6350SOL    HW119949   0.710   5.184   3.501
 6350SOL    HW219950   0.774   5.167   3.650
 6351SOL     OW19951   6.413   3.678   3.348
 6351SOL    HW119952   6.454   3.665   3.439
 6351SOL    HW219953   6.371   3.592   3.319
 6352SOL     OW19954   2.520   0.683   4.685
 6352SOL    HW119955   2.613   0.664   4.655
 6352SOL    HW219956   2.460   0.608   4.658
 6353SOL     OW19957   2.288   6.278   0.134
 6353SOL    HW119958   2.302   6.375   0.156
 6353SOL    HW219959   2.331   6.257   0.046
 6354SOL     OW19960   3.874   6.086   3.208
 6354SOL    HW119961   3.941   6.084   3.282
 6354SOL    HW219962   3.903   6.150   3.137
 6355SOL     OW19963   2.863   5.729   0.136
 6355SOL    HW119964   2.953   5.688   0.121
 6355SOL    HW219965   2.867   5.827   0.112
 6356SOL     OW19966   5.296   4.943   0.459
 6356SOL    HW119967   5.256   4.917   0.547
 6356SOL    HW219968   5.261   5.032   0.430
 6357SOL     OW19969   6.315   2.764   2.430
 6357SOL    HW119970   6.349   2.846   2.385
 6357SOL    HW219971   6.305   2.690   2.363
 6358SOL     OW19972   0.117   1.804   6.451
 6358SOL    HW119973   0.091   1.708   6.452
 6358SOL    HW219974   0.081   1.848   6.369
 6359SOL     OW19975   6.357   6.514   0.569
 6359SOL    HW119976   6.270   6.545   0.608
 6359SOL    HW219977   6.412   6.472   0.640
 6360SOL     OW19978   0.791   3.705   4.248
 6360SOL    HW119979   0.729   3.631   4.223
 6360SOL    HW219980   0.788   3.777   4.179
 6361SOL     OW19981   1.162   0.711   0.751
 6361SOL    HW119982   1.229   0.669   0.812
 6361SOL    HW219983   1.074   0.717   0.796
 6362SOL     OW19984   1.634   6.083   6.443
 6362SOL    HW119985   1.686   6.048   6.521
 6362SOL    HW219986   1.631   6.013   6.371
 6363SOL     OW19987   2.946   5.209   4.265
 6363SOL    HW119988   2.917   5.249   4.352
 6363SOL    HW219989   2.935   5.109   4.270
 6364SOL     OW19990   2.797   2.734   5.383
 6364SOL    HW119991   2.809   2.635   5.378
 6364SOL    HW219992   2.703   2.758   5.356
 6365SOL     OW19993   5.583   6.660   4.424
 6365SOL    HW119994   5.553   6.688   4.333
 6365SOL    HW219995   5.614   6.565   4.421
 6366SOL     OW19996   0.534   5.792   5.052
 6366SOL    HW119997   0.555   5.696   5.071
 6366SOL    HW219998   0.490   5.833   5.132
 6367SOL     OW19999   3.186   2.132   2.691
 6367SOL    HW120000   3.274   2.120   2.645
 6367SOL    HW220001   3.113   2.144   2.623
 6368SOL     OW20002   4.200   4.702   4.512
 6368SOL    HW120003   4.175   4.625   4.571
 6368SOL    HW220004   4.117   4.752   4.487
 6369SOL     OW20005   1.938   0.261   4.637
 6369SOL    HW120006   1.918   0.359   4.625
 6369SOL    HW220007   2.020   0.250   4.693
 6370SOL     OW20008   5.478   4.270   3.438
 6370SOL    HW120009   5.578   4.271   3.444
 6370SOL    HW220010   5.438   4.264   3.529
 6371SOL     OW20011   5.416   4.064   2.512
 6371SOL    HW120012   5.348   4.058   2.439
 6371SOL    HW220013   5.453   3.973   2.530
 6372SOL     OW20014   1.202   1.414   2.375
 6372SOL    HW120015   1.285   1.384   2.328
 6372SOL    HW220016   1.127   1.423   2.310
 6373SOL     OW20017   5.584   4.367   2.798
 6373SOL    HW120018   5.670   4.381   2.847
 6373SOL    HW220019   5.566   4.268   2.791
 6374SOL     OW20020   4.493   3.683   1.111
 6374SOL    HW120021   4.413   3.666   1.052
 6374SOL    HW220022   4.575   3.647   1.066
 6375SOL     OW20023   0.558   2.063   1.967
 6375SOL    HW120024   0.478   2.018   2.007
 6375SOL    HW220025   0.551   2.061   1.867
 6376SOL     OW20026   4.012   1.740   5.930
 6376SOL    HW120027   4.001   1.837   5.911
 6376SOL    HW220028   4.001   1.723   6.028
 6377SOL     OW20029   6.956   1.904   5.657
 6377SOL    HW120030   0.002   1.971   5.685
 6377SOL    HW220031   6.923   1.927   5.566
 6378SOL     OW20032   5.368   5.166   3.524
 6378SOL    HW120033   5.460   5.129   3.536
 6378SOL    HW220034   5.308   5.127   3.594
 6379SOL     OW20035   0.739   4.723   5.845
 6379SOL    HW120036   0.645   4.726   5.878
 6379SOL    HW220037   0.750   4.646   5.783
 6380SOL     OW20038   6.652   2.647   4.591
 6380SOL    HW120039   6.710   2.685   4.519
 6380SOL    HW220040   6.683   2.554   4.613
 6381SOL     OW20041   4.193   2.640   0.599
 6381SOL    HW120042   4.141   2.557   0.585
 6381SOL    HW220043   4.267   2.623   0.664
 6382SOL     OW20044   3.400   1.861   1.110
 6382SOL    HW120045   3.303   1.881   1.124
 6382SOL    HW220046   3.436   1.920   1.038
 6383SOL     OW20047   1.945   3.168   2.453
 6383SOL    HW120048   1.906   3.225   2.381
 6383SOL    HW220049   2.038   3.140   2.426
 6384SOL     OW20050   5.810   3.270   2.350
 6384SOL    HW120051   5.848   3.209   2.420
 6384SOL    HW220052   5.797   3.361   2.389
 6385SOL     OW20053   6.701   4.128   1.821
 6385SOL    HW120054   6.660   4.149   1.732
 6385SOL    HW220055   6.667   4.192   1.890
 6386SOL     OW20056   1.582   3.484   6.719
 6386SOL    HW120057   1.653   3.453   6.783
 6386SOL    HW220058   1.602   3.578   6.691
 6387SOL     OW20059   5.883   1.470   0.398
 6387SOL    HW120060   5.791   1.509   0.391
 6387SOL    HW220061   5.887   1.386   0.342
 6388SOL     OW20062   6.071   5.374   1.680
 6388SOL    HW120063   6.019   5.289   1.674
 6388SOL    HW220064   6.153   5.368   1.625
 6389SOL     OW20065   0.997   0.018   1.192
 6389SOL    HW120066   1.048   7.012   1.111
 6389SOL    HW220067   0.899   0.015   1.172
 6390SOL     OW20068   6.687   0.185   5.817
 6390SOL    HW120069   6.691   0.285   5.811
 6390SOL    HW220070   6.672   0.147   5.726
 6391SOL     OW20071   1.579   1.031   5.895
 6391SOL    HW120072   1.646   1.092   5.854
 6391SOL    HW220073   1.510   1.085   5.944
 6392SOL     OW20074   3.166   6.271   3.350
 6392SOL    HW120075   3.219   6.198   3.308
 6392SOL    HW220076   3.069   6.246   3.350
 6393SOL     OW20077   6.043   5.824   1.729
 6393SOL    HW120078   6.018   5.873   1.645
 6393SOL    HW220079   6.113   5.876   1.778
 6394SOL     OW20080   2.498   5.382   0.852
 6394SOL    HW120081   2.404   5.388   0.817
 6394SOL    HW220082   2.518   5.287   0.875
 6395SOL     OW20083   6.709   3.472   2.025
 6395SOL    HW120084   6.750   3.495   2.113
 6395SOL    HW220085   6.719   3.373   2.009
 6396SOL     OW20086   6.459   3.912   6.347
 6396SOL    HW120087   6.552   3.927   6.312
 6396SOL    HW220088   6.438   3.981   6.416
 6397SOL     OW20089   6.443   1.127   2.410
 6397SOL    HW120090   6.530   1.167   2.382
 6397SOL    HW220091   6.377   1.135   2.336
 6398SOL     OW20092   1.807   6.713   1.990
 6398SOL    HW120093   1.723   6.676   1.950
 6398SOL    HW220094   1.793   6.809   2.014
 6399SOL     OW20095   1.293   0.193   6.656
 6399SOL    HW120096   1.331   0.182   6.749
 6399SOL    HW220097   1.366   0.222   6.594
 6400SOL     OW20098   2.324   4.922   2.481
 6400SOL    HW120099   2.291   4.953   2.571
 6400SOL    HW220100   2.305   4.993   2.413
 6401SOL     OW20101   5.762   5.020   3.040
 6401SOL    HW120102   5.787   5.108   3.083
 6401SOL    HW220103   5.663   5.007   3.048
 6402SOL     OW20104   2.292   2.872   4.165
 6402SOL    HW120105   2.366   2.814   4.198
 6402SOL    HW220106   2.269   2.847   4.071
 6403SOL     OW20107   6.105   6.080   6.042
 6403SOL    HW120108   6.182   6.017   6.047
 6403SOL    HW220109   6.137   6.171   6.016
 6404SOL     OW20110   4.210   1.677   2.705
 6404SOL    HW120111   4.191   1.704   2.611
 6404SOL    HW220112   4.214   1.577   2.711
 6405SOL     OW20113   4.474   0.687   4.402
 6405SOL    HW120114   4.546   0.740   4.358
 6405SOL    HW220115   4.482   0.591   4.376
 6406SOL     OW20116   1.683   3.157   1.834
 6406SOL    HW120117   1.615   3.197   1.896
 6406SOL    HW220118   1.679   3.205   1.747
 6407SOL     OW20119   2.008   6.937   4.181
 6407SOL    HW120120   2.024   6.990   4.263
 6407SOL    HW220121   1.919   6.891   4.187
 6408SOL     OW20122   5.862   0.561   0.581
 6408SOL    HW120123   5.851   0.528   0.487
 6408SOL    HW220124   5.959   0.558   0.606
 6409SOL     OW20125   6.950   4.882   2.689
 6409SOL    HW120126   0.012   4.913   2.731
 6409SOL    HW220127   6.873   4.929   2.733
 6410SOL     OW20128   2.043   1.098   6.177
 6410SOL    HW120129   2.102   1.017   6.181
 6410SOL    HW220130   1.950   1.071   6.200
 6411SOL     OW20131   1.204   2.547   2.454
 6411SOL    HW120132   1.110   2.572   2.428
 6411SOL    HW220133   1.206   2.452   2.482
 6412SOL     OW20134   2.122   0.389   6.529
 6412SOL    HW120135   2.143   0.475   6.574
 6412SOL    HW220136   2.190   0.370   6.458
 6413SOL     OW20137   3.423   4.988   4.506
 6413SOL    HW120138   3.344   5.026   4.457
 6413SOL    HW220139   3.396   4.963   4.598
 6414SOL     OW20140   6.147   0.247   0.020
 6414SOL    HW120141   6.148   0.275   6.948
 6414SOL    HW220142   6.181   0.153   0.028
 6415SOL     OW20143   1.434   3.528   4.195
 6415SOL    HW120144   1.386   3.539   4.282
 6415SOL    HW220145   1.517   3.475   4.208
 6416SOL     OW20146   2.289   6.686   6.196
 6416SOL    HW120147   2.358   6.639   6.251
 6416SOL    HW220148   2.212   6.625   6.179
 6417SOL     OW20149   4.950   2.993   0.876
 6417SOL    HW120150   4.880   3.023   0.811
 6417SOL    HW220151   4.912   2.996   0.969
 6418SOL     OW20152   5.300   4.115   3.010
 6418SOL    HW120153   5.323   4.092   3.104
 6418SOL    HW220154   5.294   4.214   2.999
 6419SOL     OW20155   1.266   5.122   3.633
 6419SOL    HW120156   1.190   5.184   3.613
 6419SOL    HW220157   1.231   5.037   3.672
 6420SOL     OW20158   2.074   1.519   3.695
 6420SOL    HW120159   1.978   1.492   3.689
 6420SOL    HW220160   2.087   1.582   3.771
 6421SOL     OW20161   4.058   0.662   0.874
 6421SOL    HW120162   3.997   0.677   0.796
 6421SOL    HW220163   4.152   0.677   0.846
 6422SOL     OW20164   6.553   1.640   5.132
 6422SOL    HW120165   6.649   1.653   5.106
 6422SOL    HW220166   6.503   1.726   5.119
 6423SOL     OW20167   4.698   5.580   4.776
 6423SOL    HW120168   4.619   5.533   4.736
 6423SOL    HW220169   4.752   5.623   4.704
 6424SOL     OW20170   1.442   4.099   4.946
 6424SOL    HW120171   1.541   4.107   4.957
 6424SOL    HW220172   1.421   4.078   4.850
 6425SOL     OW20173   6.489   5.588   3.069
 6425SOL    HW120174   6.574   5.562   3.025
 6425SOL    HW220175   6.464   5.681   3.043
 6426SOL     OW20176   5.747   5.388   3.634
 6426SOL    HW120177   5.803   5.350   3.708
 6426SOL    HW220178   5.662   5.424   3.670
 6427SOL     OW20179   2.978   3.892   3.527
 6427SOL    HW120180   2.933   3.809   3.559
 6427SOL    HW220181   2.928   3.928   3.448
 6428SOL     OW20182   5.301   3.424   0.157
 6428SOL    HW120183   5.208   3.440   0.191
 6428SOL    HW220184   5.365   3.481   0.209
 6429SOL     OW20185   0.506   1.220   5.665
 6429SOL    HW120186   0.550   1.274   5.594
 6429SOL    HW220187   0.407   1.234   5.660
 6430SOL     OW20188   6.712   0.559   4.315
 6430SOL    HW120189   6.618   0.558   4.348
 6430SOL    HW220190   6.717   0.611   4.230
 6431SOL     OW20191   4.476   5.825   2.812
 6431SOL    HW120192   4.463   5.733   2.773
 6431SOL    HW220193   4.413   5.838   2.889
 6432SOL     OW20194   3.987   4.254   6.088
 6432SOL    HW120195   4.019   4.229   6.179
 6432SOL    HW220196   3.951   4.172   6.042
 6433SOL     OW20197   3.293   5.052   0.136
 6433SOL    HW120198   3.199   5.071   0.109
 6433SOL    HW220199   3.318   4.959   0.108
 6434SOL     OW20200   2.708   0.403   6.348
 6434SOL    HW120201   2.647   0.373   6.274
 6434SOL    HW220202   2.770   0.474   6.313
 6435SOL     OW20203   5.645   6.774   1.028
 6435SOL    HW120204   5.710   6.715   0.980
 6435SOL    HW220205   5.552   6.751   1.002
 6436SOL     OW20206   1.179   3.555   3.110
 6436SOL    HW120207   1.156   3.649   3.135
 6436SOL    HW220208   1.265   3.554   3.059
 6437SOL     OW20209   1.534   2.845   6.961
 6437SOL    HW120210   1.444   2.846   6.918
 6437SOL    HW220211   1.598   2.794   6.903
 6438SOL     OW20212   0.720   4.916   6.197
 6438SOL    HW120213   0.703   4.922   6.098
 6438SOL    HW220214   0.684   4.829   6.231
 6439SOL     OW20215   5.250   0.785   2.287
 6439SOL    HW120216   5.174   0.722   2.270
 6439SOL    HW220217   5.278   0.777   2.383
 6440SOL     OW20218   2.787   1.065   6.062
 6440SOL    HW120219   2.721   1.047   5.990
 6440SOL    HW220220   2.745   1.123   6.132
 6441SOL     OW20221   1.193   0.804   1.526
 6441SOL    HW120222   1.212   0.821   1.623
 6441SOL    HW220223   1.098   0.824   1.506
 6442SOL     OW20224   2.778   1.803   4.760
 6442SOL    HW120225   2.859   1.767   4.713
 6442SOL    HW220226   2.696   1.781   4.707
 6443SOL     OW20227   3.255   2.638   5.717
 6443SOL    HW120228   3.238   2.616   5.813
 6443SOL    HW220229   3.205   2.573   5.659
 6444SOL     OW20230   6.103   2.177   4.330
 6444SOL    HW120231   6.128   2.124   4.410
 6444SOL    HW220232   6.008   2.157   4.304
 6445SOL     OW20233   3.846   3.403   3.347
 6445SOL    HW120234   3.836   3.450   3.259
 6445SOL    HW220235   3.760   3.358   3.371
 6446SOL     OW20236   0.082   2.292   0.460
 6446SOL    HW120237   0.129   2.248   0.384
 6446SOL    HW220238   0.022   2.225   0.505
 6447SOL     OW20239   6.195   4.437   1.607
 6447SOL    HW120240   6.156   4.438   1.514
 6447SOL    HW220241   6.294   4.445   1.602
 6448SOL     OW20242   5.098   4.900   1.412
 6448SOL    HW120243   5.033   4.837   1.454
 6448SOL    HW220244   5.059   4.992   1.410
 6449SOL     OW20245   2.954   5.432   2.005
 6449SOL    HW120246   3.032   5.410   2.063
 6449SOL    HW220247   2.985   5.439   1.910
 6450SOL     OW20248   0.844   4.153   0.172
 6450SOL    HW120249   0.787   4.077   0.205
 6450SOL    HW220250   0.904   4.121   0.099
 6451SOL     OW20251   2.657   1.127   5.601
 6451SOL    HW120252   2.750   1.090   5.609
 6451SOL    HW220253   2.598   1.081   5.668
 6452SOL     OW20254   4.785   4.085   2.344
 6452SOL    HW120255   4.761   4.178   2.315
 6452SOL    HW220256   4.841   4.041   2.273
 6453SOL     OW20257   2.597   0.141   1.614
 6453SOL    HW120258   2.593   0.222   1.557
 6453SOL    HW220259   2.628   0.166   1.706
 6454SOL     OW20260   0.590   1.365   2.807
 6454SOL    HW120261   0.521   1.346   2.736
 6454SOL    HW220262   0.548   1.352   2.897
 6455SOL     OW20263   6.213   2.760   3.819
 6455SOL    HW120264   6.298   2.709   3.831
 6455SOL    HW220265   6.220   2.817   3.737
 6456SOL     OW20266   1.250   0.743   2.778
 6456SOL    HW120267   1.226   0.658   2.825
 6456SOL    HW220268   1.169   0.780   2.733
 6457SOL     OW20269   5.464   0.148   1.371
 6457SOL    HW120270   5.396   0.191   1.431
 6457SOL    HW220271   5.468   0.199   1.285
 6458SOL     OW20272   1.437   5.294   4.879
 6458SOL    HW120273   1.351   5.342   4.898
 6458SOL    HW220274   1.499   5.304   4.958
 6459SOL     OW20275   6.173   2.989   2.557
 6459SOL    HW120276   6.185   2.892   2.575
 6459SOL    HW220277   6.229   3.042   2.621
 6460SOL     OW20278   5.773   5.314   5.646
 6460SOL    HW120279   5.835   5.251   5.693
 6460SOL    HW220280   5.789   5.407   5.679
 6461SOL     OW20281   2.983   4.187   7.003
 6461SOL    HW120282   2.934   4.101   6.990
 6461SOL    HW220283   2.928   4.262   6.969
 6462SOL     OW20284   1.142   3.045   4.502
 6462SOL    HW120285   1.080   3.082   4.433
 6462SOL    HW220286   1.120   3.082   4.592
 6463SOL     OW20287   5.441   6.837   0.375
 6463SOL    HW120288   5.453   6.930   0.339
 6463SOL    HW220289   5.518   6.780   0.348
 6464SOL     OW20290   1.873   5.995   5.174
 6464SOL    HW120291   1.951   6.029   5.121
 6464SOL    HW220292   1.805   6.068   5.183
 6465SOL     OW20293   0.075   3.131   2.598
 6465SOL    HW120294   0.085   3.064   2.671
 6465SOL    HW220295   7.003   3.132   2.567
 6466SOL     OW20296   6.720   1.020   6.382
 6466SOL    HW120297   6.639   1.056   6.429
 6466SOL    HW220298   6.788   1.092   6.372
 6467SOL     OW20299   4.053   0.208   1.108
 6467SOL    HW120300   3.993   0.277   1.068
 6467SOL    HW220301   3.998   0.141   1.157
 6468SOL     OW20302   3.672   6.636   1.788
 6468SOL    HW120303   3.596   6.662   1.727
 6468SOL    HW220304   3.756   6.631   1.735
 6469SOL     OW20305   3.849   1.930   3.538
 6469SOL    HW120306   3.949   1.939   3.539
 6469SOL    HW220307   3.810   1.996   3.474
 6470SOL     OW20308   5.781   2.650   0.862
 6470SOL    HW120309   5.760   2.747   0.870
 6470SOL    HW220310   5.722   2.608   0.793
 6471SOL     OW20311   0.816   6.273   5.747
 6471SOL    HW120312   0.720   6.246   5.762
 6471SOL    HW220313   0.871   6.192   5.732
 6472SOL     OW20314   6.545   5.860   2.766
 6472SOL    HW120315   6.515   5.783   2.709
 6472SOL    HW220316   6.473   5.883   2.831
 6473SOL     OW20317   1.903   1.547   5.117
 6473SOL    HW120318   1.824   1.586   5.165
 6473SOL    HW220319   1.879   1.533   5.021
 6474SOL     OW20320   3.902   5.356   5.882
 6474SOL    HW120321   3.878   5.453   5.885
 6474SOL    HW220322   3.818   5.300   5.888
 6475SOL     OW20323   6.106   4.273   3.760
 6475SOL    HW120324   6.196   4.290   3.801
 6475SOL    HW220325   6.117   4.240   3.666
 6476SOL     OW20326   4.662   3.308   6.689
 6476SOL    HW120327   4.758   3.283   6.702
 6476SOL    HW220328   4.655   3.376   6.615
 6477SOL     OW20329   6.171   5.280   0.864
 6477SOL    HW120330   6.207   5.363   0.906
 6477SOL    HW220331   6.075   5.295   0.839
 6478SOL     OW20332   3.257   6.447   2.416
 6478SOL    HW120333   3.352   6.449   2.386
 6478SOL    HW220334   3.253   6.448   2.516
 6479SOL     OW20335   3.476   5.926   4.663
 6479SOL    HW120336   3.536   5.846   4.668
 6479SOL    HW220337   3.394   5.910   4.717
 6480SOL     OW20338   2.399   1.159   0.106
 6480SOL    HW120339   2.357   1.076   0.068
 6480SOL    HW220340   2.344   1.238   0.079
 6481SOL     OW20341   3.431   2.392   1.702
 6481SOL    HW120342   3.368   2.316   1.718
 6481SOL    HW220343   3.514   2.377   1.757
 6482SOL     OW20344   6.363   2.359   6.760
 6482SOL    HW120345   6.286   2.328   6.705
 6482SOL    HW220346   6.423   2.417   6.704
 6483SOL     OW20347   0.373   6.261   3.659
 6483SOL    HW120348   0.283   6.305   3.656
 6483SOL    HW220349   0.373   6.193   3.733
 6484SOL     OW20350   3.029   1.403   2.599
 6484SOL    HW120351   3.051   1.308   2.621
 6484SOL    HW220352   2.936   1.408   2.562
 6485SOL     OW20353   2.140   5.595   4.071
 6485SOL    HW120354   2.108   5.512   4.027
 6485SOL    HW220355   2.225   5.625   4.028
 6486SOL     OW20356   1.218   5.451   2.238
 6486SOL    HW120357   1.302   5.398   2.253
 6486SOL    HW220358   1.180   5.429   2.149
 6487SOL     OW20359   1.446   6.600   5.726
 6487SOL    HW120360   1.401   6.689   5.726
 6487SOL    HW220361   1.438   6.559   5.817
 6488SOL     OW20362   3.897   5.732   4.923
 6488SOL    HW120363   3.818   5.671   4.923
 6488SOL    HW220364   3.935   5.737   5.015
 6489SOL     OW20365   3.104   3.497   6.288
 6489SOL    HW120366   3.097   3.513   6.190
 6489SOL    HW220367   3.147   3.576   6.332
 6490SOL     OW20368   3.069   1.019   6.236
 6490SOL    HW120369   2.985   1.027   6.182
 6490SOL    HW220370   3.048   0.973   6.322
 6491SOL     OW20371   3.208   0.868   1.458
 6491SOL    HW120372   3.196   0.937   1.528
 6491SOL    HW220373   3.271   0.798   1.490
 6492SOL     OW20374   3.735   3.577   4.922
 6492SOL    HW120375   3.788   3.593   4.839
 6492SOL    HW220376   3.644   3.542   4.898
 6493SOL     OW20377   1.072   4.507   6.482
 6493SOL    HW120378   1.087   4.524   6.384
 6493SOL    HW220379   1.149   4.545   6.534
 6494SOL     OW20380   0.086   6.797   2.747
 6494SOL    HW120381   0.119   6.733   2.817
 6494SOL    HW220382   0.055   6.746   2.668
 6495SOL     OW20383   0.097   0.821   4.446
 6495SOL    HW120384   0.171   0.827   4.378
 6495SOL    HW220385   0.068   0.726   4.456
 6496SOL     OW20386   5.958   0.389   2.291
 6496SOL    HW120387   5.863   0.383   2.263
 6496SOL    HW220388   6.016   0.403   2.211
 6497SOL     OW20389   1.010   0.525   1.416
 6497SOL    HW120390   1.015   0.624   1.432
 6497SOL    HW220391   0.921   0.491   1.445
 6498SOL     OW20392   0.834   3.726   4.523
 6498SOL    HW120393   0.809   3.639   4.565
 6498SOL    HW220394   0.789   3.735   4.435
 6499SOL     OW20395   5.398   3.491   5.025
 6499SOL    HW120396   5.406   3.407   5.079
 6499SOL    HW220397   5.310   3.493   4.978
 6500SOL     OW20398   0.508   3.933   2.695
 6500SOL    HW120399   0.472   3.955   2.786
 6500SOL    HW220400   0.564   4.010   2.663
 6501SOL     OW20401   6.961   1.013   0.744
 6501SOL    HW120402   7.005   1.102   0.730
 6501SOL    HW220403   6.881   1.025   0.803
 6502SOL     OW20404   0.264   3.841   1.918
 6502SOL    HW120405   0.292   3.767   1.858
 6502SOL    HW220406   0.344   3.881   1.963
 6503SOL     OW20407   5.987   0.894   3.824
 6503SOL    HW120408   5.961   0.869   3.917
 6503SOL    HW220409   6.076   0.938   3.824
 6504SOL     OW20410   3.480   6.387   6.282
 6504SOL    HW120411   3.518   6.461   6.336
 6504SOL    HW220412   3.412   6.337   6.336
 6505SOL     OW20413   4.997   6.050   6.064
 6505SOL    HW120414   5.086   6.031   6.023
 6505SOL    HW220415   4.926   6.045   5.993
 6506SOL     OW20416   6.969   2.720   3.416
 6506SOL    HW120417   6.964   2.658   3.337
 6506SOL    HW220418   0.031   2.772   3.412
 6507SOL     OW20419   2.657   5.992   5.993
 6507SOL    HW120420   2.734   5.985   6.056
 6507SOL    HW220421   2.645   5.906   5.944
 6508SOL     OW20422   1.698   0.529   2.970
 6508SOL    HW120423   1.793   0.520   3.000
 6508SOL    HW220424   1.688   0.487   2.880
 6509SOL     OW20425   4.790   1.827   4.703
 6509SOL    HW120426   4.887   1.802   4.709
 6509SOL    HW220427   4.780   1.926   4.706
 6510SOL     OW20428   5.118   5.431   6.768
 6510SOL    HW120429   5.159   5.517   6.738
 6510SOL    HW220430   5.098   5.436   6.866
 6511SOL     OW20431   4.451   1.285   5.020
 6511SOL    HW120432   4.476   1.196   4.981
 6511SOL    HW220433   4.458   1.355   4.949
 6512SOL     OW20434   3.098   6.928   2.268
 6512SOL    HW120435   3.023   6.986   2.300
 6512SOL    HW220436   3.069   6.876   2.188
 6513SOL     OW20437   1.940   5.679   3.752
 6513SOL    HW120438   1.852   5.681   3.800
 6513SOL    HW220439   1.955   5.767   3.706
 6514SOL     OW20440   5.692   0.969   4.632
 6514SOL    HW120441   5.632   0.901   4.590
 6514SOL    HW220442   5.762   0.922   4.687
 6515SOL     OW20443   1.729   3.179   3.379
 6515SOL    HW120444   1.802   3.129   3.333
 6515SOL    HW220445   1.751   3.187   3.476
 6516SOL     OW20446   6.988   3.114   1.156
 6516SOL    HW120447   6.916   3.073   1.213
 6516SOL    HW220448   6.945   3.166   1.082
 6517SOL     OW20449   6.771   1.933   1.104
 6517SOL    HW120450   6.835   2.001   1.139
 6517SOL    HW220451   6.708   1.907   1.176
 6518SOL     OW20452   0.638   0.497   2.088
 6518SOL    HW120453   0.727   0.463   2.057
 6518SOL    HW220454   0.602   0.562   2.022
 6519SOL     OW20455   0.316   1.603   2.787
 6519SOL    HW120456   0.381   1.536   2.751
 6519SOL    HW220457   0.299   1.584   2.884
 6520SOL     OW20458   7.005   5.272   6.875
 6520SOL    HW120459   0.054   5.314   6.820
 6520SOL    HW220460   0.004   5.281   6.972
 6521SOL     OW20461   2.070   2.766   4.314
 6521SOL    HW120462   2.099   2.673   4.295
 6521SOL    HW220463   2.116   2.829   4.251
 6522SOL     OW20464   2.563   4.637   5.112
 6522SOL    HW120465   2.510   4.671   5.034
 6522SOL    HW220466   2.655   4.611   5.081
 6523SOL     OW20467   3.859   0.526   6.466
 6523SOL    HW120468   3.850   0.613   6.514
 6523SOL    HW220469   3.797   0.459   6.506
 6524SOL     OW20470   2.741   2.895   1.702
 6524SOL    HW120471   2.701   2.828   1.639
 6524SOL    HW220472   2.839   2.878   1.711
 6525SOL     OW20473   1.826   4.948   2.906
 6525SOL    HW120474   1.772   4.966   2.824
 6525SOL    HW220475   1.778   4.984   2.986
 6526SOL     OW20476   0.783   0.440   1.531
 6526SOL    HW120477   0.781   0.355   1.477
 6526SOL    HW220478   0.831   0.423   1.617
 6527SOL     OW20479   6.532   1.988   6.966
 6527SOL    HW120480   6.592   2.014   6.890
 6527SOL    HW220481   6.529   2.062   0.010
 6528SOL     OW20482   6.064   1.279   5.480
 6528SOL    HW120483   6.123   1.340   5.534
 6528SOL    HW220484   6.066   1.308   5.385
 6529SOL     OW20485   1.798   0.366   2.758
 6529SOL    HW120486   1.782   0.310   2.676
 6529SOL    HW220487   1.840   0.310   2.829
 6530SOL     OW20488   6.971   1.699   1.193
 6530SOL    HW120489   0.037   1.690   1.149
 6530SOL    HW220490   6.935   1.791   1.178
 6531SOL     OW20491   4.919   3.569   4.737
 6531SOL    HW120492   4.922   3.472   4.713
 6531SOL    HW220493   4.868   3.580   4.823
 6532SOL     OW20494   1.306   1.517   1.475
 6532SOL    HW120495   1.394   1.559   1.457
 6532SOL    HW220496   1.291   1.442   1.410
 6533SOL     OW20497   4.130   6.127   0.251
 6533SOL    HW120498   4.170   6.207   0.295
 6533SOL    HW220499   4.169   6.116   0.160
 6534SOL     OW20500   4.716   5.214   1.517
 6534SOL    HW120501   4.653   5.292   1.511
 6534SOL    HW220502   4.770   5.221   1.601
 6535SOL     OW20503   6.384   4.528   4.573
 6535SOL    HW120504   6.375   4.480   4.486
 6535SOL    HW220505   6.480   4.529   4.601
 6536SOL     OW20506   0.319   1.810   5.363
 6536SOL    HW120507   0.381   1.732   5.361
 6536SOL    HW220508   0.285   1.829   5.271
 6537SOL     OW20509   6.511   4.812   5.698
 6537SOL    HW120510   6.454   4.888   5.728
 6537SOL    HW220511   6.508   4.739   5.767
 6538SOL     OW20512   1.703   3.302   5.710
 6538SOL    HW120513   1.800   3.310   5.734
 6538SOL    HW220514   1.648   3.324   5.791
 6539SOL     OW20515   5.212   0.415   6.949
 6539SOL    HW120516   5.273   0.400   0.003
 6539SOL    HW220517   5.220   0.509   6.917
 6540SOL     OW20518   3.623   3.151   6.100
 6540SOL    HW120519   3.650   3.234   6.052
 6540SOL    HW220520   3.631   3.166   6.199
 6541SOL     OW20521   5.237   1.624   5.263
 6541SOL    HW120522   5.141   1.645   5.282
 6541SOL    HW220523   5.290   1.632   5.347
 6542SOL     OW20524   1.045   3.293   3.803
 6542SOL    HW120525   1.036   3.230   3.880
 6542SOL    HW220526   0.978   3.366   3.810
 6543SOL     OW20527   4.760   2.745   5.835
 6543SOL    HW120528   4.715   2.664   5.875
 6543SOL    HW220529   4.854   2.722   5.811
 6544SOL     OW20530   1.467   6.782   3.512
 6544SOL    HW120531   1.458   6.880   3.495
 6544SOL    HW220532   1.430   6.760   3.602
 6545SOL     OW20533   4.066   0.772   0.433
 6545SOL    HW120534   4.111   0.683   0.439
 6545SOL    HW220535   4.125   0.836   0.385
 6546SOL     OW20536   2.767   4.250   6.049
 6546SOL    HW120537   2.732   4.162   6.016
 6546SOL    HW220538   2.867   4.251   6.041
 6547SOL     OW20539   4.762   0.770   6.475
 6547SOL    HW120540   4.760   0.685   6.529
 6547SOL    HW220541   4.816   0.839   6.523
 6548SOL     OW20542   1.560   3.685   0.842
 6548SOL    HW120543   1.497   3.719   0.772
 6548SOL    HW220544   1.645   3.655   0.798
 6549SOL     OW20545   4.405   0.577   2.369
 6549SOL    HW120546   4.467   0.653   2.388
 6549SOL    HW220547   4.459   0.494   2.352
 6550SOL     OW20548   0.404   6.699   4.261
 6550SOL    HW120549   0.319   6.647   4.253
 6550SOL    HW220550   0.411   6.736   4.354
 6551SOL     OW20551   2.051   3.653   1.904
 6551SOL    HW120552   1.981   3.591   1.868
 6551SOL    HW220553   2.119   3.600   1.954
 6552SOL     OW20554   1.860   6.722   0.075
 6552SOL    HW120555   1.778   6.704   0.129
 6552SOL    HW220556   1.833   6.751   7.006
 6553SOL     OW20557   0.348   2.542   3.268
 6553SOL    HW120558   0.413   2.494   3.327
 6553SOL    HW220559   0.374   2.530   3.173
 6554SOL     OW20560   1.513   0.217   4.487
 6554SOL    HW120561   1.547   0.311   4.486
 6554SOL    HW220562   1.423   0.214   4.444
 6555SOL     OW20563   5.348   1.964   2.952
 6555SOL    HW120564   5.258   1.944   2.991
 6555SOL    HW220565   5.342   1.967   2.853
 6556SOL     OW20566   5.869   4.258   3.531
 6556SOL    HW120567   5.863   4.318   3.611
 6556SOL    HW220568   5.806   4.181   3.543
 6557SOL     OW20569   2.807   0.739   3.111
 6557SOL    HW120570   2.732   0.749   3.176
 6557SOL    HW220571   2.797   0.807   3.038
 6558SOL     OW20572   6.041   5.086   0.284
 6558SOL    HW120573   6.085   5.029   0.216
 6558SOL    HW220574   6.068   5.055   0.376
 6559SOL     OW20575   0.043   4.450   6.876
 6559SOL    HW120576   7.013   4.419   6.954
 6559SOL    HW220577   7.005   4.472   6.800
 6560SOL     OW20578   4.110   4.790   1.902
 6560SOL    HW120579   4.012   4.775   1.892
 6560SOL    HW220580   4.157   4.763   1.818
 6561SOL     OW20581   3.353   4.205   1.230
 6561SOL    HW120582   3.253   4.206   1.223
 6561SOL    HW220583   3.393   4.218   1.140
 6562SOL     OW20584   5.793   1.892   1.390
 6562SOL    HW120585   5.767   1.810   1.442
 6562SOL    HW220586   5.819   1.965   1.454
 6563SOL     OW20587   5.305   5.764   6.002
 6563SOL    HW120588   5.235   5.742   5.934
 6563SOL    HW220589   5.310   5.690   6.069
 6564SOL     OW20590   6.371   4.020   2.033
 6564SOL    HW120591   6.469   4.001   2.039
 6564SOL    HW220592   6.323   3.972   2.107
 6565SOL     OW20593   6.118   0.813   3.065
 6565SOL    HW120594   6.086   0.887   3.006
 6565SOL    HW220595   6.213   0.831   3.091
 6566SOL     OW20596   3.739   6.843   2.856
 6566SOL    HW120597   3.640   6.857   2.860
 6566SOL    HW220598   3.768   6.790   2.936
 6567SOL     OW20599   5.008   0.574   2.019
 6567SOL    HW120600   4.996   0.544   2.113
 6567SOL    HW220601   4.919   0.575   1.973
 6568SOL     OW20602   3.652   1.687   3.405
 6568SOL    HW120603   3.687   1.732   3.323
 6568SOL    HW220604   3.725   1.679   3.473
 6569SOL     OW20605   2.739   3.159   7.000
 6569SOL    HW120606   2.705   3.207   0.057
 6569SOL    HW220607   2.722   3.061   7.010
 6570SOL     OW20608   3.401   1.142   2.227
 6570SOL    HW120609   3.465   1.136   2.303
 6570SOL    HW220610   3.450   1.165   2.143
 6571SOL     OW20611   3.192   4.998   2.471
 6571SOL    HW120612   3.166   5.071   2.535
 6571SOL    HW220613   3.193   5.034   2.378
 6572SOL     OW20614   0.190   4.069   4.218
 6572SOL    HW120615   0.281   4.109   4.202
 6572SOL    HW220616   0.143   4.059   4.130
 6573SOL     OW20617   0.503   2.122   2.385
 6573SOL    HW120618   0.581   2.178   2.357
 6573SOL    HW220619   0.536   2.041   2.433
 6574SOL     OW20620   2.646   5.835   2.940
 6574SOL    HW120621   2.579   5.909   2.928
 6574SOL    HW220622   2.735   5.864   2.904
 6575SOL     OW20623   0.845   6.916   3.975
 6575SOL    HW120624   0.934   6.936   4.015
 6575SOL    HW220625   0.843   6.821   3.944
 6576SOL     OW20626   3.289   6.342   0.353
 6576SOL    HW120627   3.290   6.243   0.366
 6576SOL    HW220628   3.195   6.375   0.356
 6577SOL     OW20629   1.031   1.848   3.345
 6577SOL    HW120630   1.021   1.947   3.330
 6577SOL    HW220631   1.102   1.813   3.284
 6578SOL     OW20632   0.731   6.028   2.546
 6578SOL    HW120633   0.745   6.126   2.556
 6578SOL    HW220634   0.766   5.998   2.458
 6579SOL     OW20635   6.765   2.932   3.431
 6579SOL    HW120636   6.843   2.870   3.441
 6579SOL    HW220637   6.790   3.023   3.462
 6580SOL     OW20638   0.495   2.144   0.724
 6580SOL    HW120639   0.432   2.217   0.697
 6580SOL    HW220640   0.589   2.174   0.710
 6581SOL     OW20641   1.929   0.673   0.784
 6581SOL    HW120642   2.023   0.638   0.789
 6581SOL    HW220643   1.909   0.725   0.867
 6582SOL     OW20644   0.147   1.187   3.228
 6582SOL    HW120645   0.134   1.114   3.295
 6582SOL    HW220646   0.140   1.276   3.273
 6583SOL     OW20647   4.827   6.592   5.805
 6583SOL    HW120648   4.740   6.640   5.816
 6583SOL    HW220649   4.862   6.606   5.712
 6584SOL     OW20650   4.563   1.975   0.267
 6584SOL    HW120651   4.559   1.928   0.178
 6584SOL    HW220652   4.642   2.036   0.269
 6585SOL     OW20653   6.131   5.909   0.114
 6585SOL    HW120654   6.114   5.832   0.053
 6585SOL    HW220655   6.214   5.891   0.167
 6586SOL     OW20656   6.080   1.042   5.889
 6586SOL    HW120657   6.177   1.065   5.898
 6586SOL    HW220658   6.032   1.069   5.973
 6587SOL     OW20659   1.324   5.013   6.120
 6587SOL    HW120660   1.275   4.959   6.188
 6587SOL    HW220661   1.387   4.953   6.070
 6588SOL     OW20662   0.610   2.662   1.364
 6588SOL    HW120663   0.608   2.745   1.420
 6588SOL    HW220664   0.634   2.685   1.270
 6589SOL     OW20665   4.698   0.342   2.103
 6589SOL    HW120666   4.625   0.394   2.060
 6589SOL    HW220667   4.779   0.343   2.044
 6590SOL     OW20668   0.078   1.283   6.628
 6590SOL    HW120669   7.023   1.244   6.676
 6590SOL    HW220670   0.157   1.222   6.637
 6591SOL     OW20671   5.418   5.741   3.582
 6591SOL    HW120672   5.324   5.770   3.563
 6591SOL    HW220673   5.447   5.675   3.513
 6592SOL     OW20674   5.485   6.599   3.045
 6592SOL    HW120675   5.414   6.669   3.047
 6592SOL    HW220676   5.510   6.575   3.139
 6593SOL     OW20677   2.500   2.353   2.395
 6593SOL    HW120678   2.531   2.272   2.345
 6593SOL    HW220679   2.541   2.353   2.487
 6594SOL     OW20680   3.431   1.348   5.524
 6594SOL    HW120681   3.441   1.373   5.620
 6594SOL    HW220682   3.470   1.420   5.467
 6595SOL     OW20683   1.262   4.268   6.486
 6595SOL    HW120684   1.204   4.330   6.539
 6595SOL    HW220685   1.205   4.200   6.442
 6596SOL     OW20686   3.540   0.199   4.323
 6596SOL    HW120687   3.480   0.272   4.291
 6596SOL    HW220688   3.540   0.198   4.423
 6597SOL     OW20689   1.823   5.347   1.384
 6597SOL    HW120690   1.820   5.289   1.465
 6597SOL    HW220691   1.730   5.360   1.349
 6598SOL     OW20692   1.575   4.558   3.764
 6598SOL    HW120693   1.606   4.466   3.740
 6598SOL    HW220694   1.613   4.584   3.852
 6599SOL     OW20695   4.133   6.363   6.166
 6599SOL    HW120696   4.093   6.272   6.172
 6599SOL    HW220697   4.225   6.361   6.206
 6600SOL     OW20698   3.692   6.618   5.455
 6600SOL    HW120699   3.682   6.574   5.366
 6600SOL    HW220700   3.659   6.557   5.527
 6601SOL     OW20701   0.822   2.347   4.535
 6601SOL    HW120702   0.856   2.362   4.442
 6601SOL    HW220703   0.722   2.350   4.535
 6602SOL     OW20704   1.760   0.564   1.227
 6602SOL    HW120705   1.686   0.497   1.219
 6602SOL    HW220706   1.806   0.552   1.314
 6603SOL     OW20707   0.526   3.013   3.706
 6603SOL    HW120708   0.466   2.945   3.750
 6603SOL    HW220709   0.588   2.968   3.643
 6604SOL     OW20710   1.653   0.071   1.622
 6604SOL    HW120711   1.642   0.117   1.711
 6604SOL    HW220712   1.728   0.005   1.629
 6605SOL     OW20713   5.418   5.342   2.054
 6605SOL    HW120714   5.426   5.438   2.079
 6605SOL    HW220715   5.508   5.305   2.031
 6606SOL     OW20716   6.490   5.314   2.149
 6606SOL    HW120717   6.553   5.236   2.160
 6606SOL    HW220718   6.542   5.399   2.149
 6607SOL     OW20719   1.018   4.789   3.385
 6607SOL    HW120720   0.947   4.795   3.455
 6607SOL    HW220721   0.987   4.835   3.302
 6608SOL     OW20722   6.804   6.902   6.693
 6608SOL    HW120723   6.814   6.819   6.639
 6608SOL    HW220724   6.770   6.879   6.784
 6609SOL     OW20725   5.566   0.444   6.867
 6609SOL    HW120726   5.543   0.361   6.816
 6609SOL    HW220727   5.569   0.423   6.965
 6610SOL     OW20728   2.348   6.751   6.842
 6610SOL    HW120729   2.330   6.849   6.842
 6610SOL    HW220730   2.269   6.702   6.879
 6611SOL     OW20731   4.690   2.821   3.323
 6611SOL    HW120732   4.779   2.856   3.293
 6611SOL    HW220733   4.682   2.833   3.422
 6612SOL     OW20734   6.253   2.269   6.300
 6612SOL    HW120735   6.209   2.349   6.259
 6612SOL    HW220736   6.348   2.264   6.269
 6613SOL     OW20737   6.747   6.334   5.491
 6613SOL    HW120738   6.759   6.431   5.469
 6613SOL    HW220739   6.831   6.298   5.531
 6614SOL     OW20740   4.165   5.828   6.908
 6614SOL    HW120741   4.227   5.851   6.833
 6614SOL    HW220742   4.076   5.801   6.871
 6615SOL     OW20743   1.443   5.955   1.365
 6615SOL    HW120744   1.499   6.035   1.342
 6615SOL    HW220745   1.362   5.954   1.307
 6616SOL     OW20746   4.448   0.440   7.014
 6616SOL    HW120747   4.521   0.372   7.009
 6616SOL    HW220748   4.434   0.480   6.923
 6617SOL     OW20749   4.720   5.650   3.443
 6617SOL    HW120750   4.635   5.686   3.482
 6617SOL    HW220751   4.797   5.709   3.471
 6618SOL     OW20752   1.839   2.106   2.277
 6618SOL    HW120753   1.826   2.086   2.374
 6618SOL    HW220754   1.751   2.129   2.236
 6619SOL     OW20755   5.620   6.955   4.126
 6619SOL    HW120756   5.694   6.929   4.064
 6619SOL    HW220757   5.660   6.992   4.210
 6620SOL     OW20758   1.901   2.656   5.466
 6620SOL    HW120759   1.934   2.749   5.480
 6620SOL    HW220760   1.803   2.651   5.488
 6621SOL     OW20761   3.777   3.316   5.629
 6621SOL    HW120762   3.773   3.347   5.534
 6621SOL    HW220763   3.794   3.217   5.631
 6622SOL     OW20764   5.846   5.836   2.130
 6622SOL    HW120765   5.929   5.865   2.178
 6622SOL    HW220766   5.769   5.892   2.160
 6623SOL     OW20767   3.852   2.795   5.248
 6623SOL    HW120768   3.859   2.814   5.150
 6623SOL    HW220769   3.878   2.700   5.266
 6624SOL     OW20770   0.400   4.539   5.559
 6624SOL    HW120771   0.481   4.597   5.558
 6624SOL    HW220772   0.359   4.540   5.650
 6625SOL     OW20773   5.270   2.558   4.939
 6625SOL    HW120774   5.266   2.478   4.879
 6625SOL    HW220775   5.298   2.531   5.030
 6626SOL     OW20776   2.889   7.010   5.453
 6626SOL    HW120777   2.972   0.040   5.467
 6626SOL    HW220778   2.868   6.959   5.537
 6627SOL     OW20779   1.463   6.620   4.037
 6627SOL    HW120780   1.506   6.565   4.109
 6627SOL    HW220781   1.364   6.618   4.049
 6628SOL     OW20782   5.807   5.016   4.876
 6628SOL    HW120783   5.813   4.921   4.843
 6628SOL    HW220784   5.832   5.078   4.802
 6629SOL     OW20785   4.311   6.134   6.308
 6629SOL    HW120786   4.299   6.152   6.406
 6629SOL    HW220787   4.401   6.169   6.279
 6630SOL     OW20788   4.079   1.642   1.490
 6630SOL    HW120789   3.986   1.675   1.476
 6630SOL    HW220790   4.083   1.587   1.573
 6631SOL     OW20791   2.070   6.177   4.025
 6631SOL    HW120792   2.163   6.142   4.038
 6631SOL    HW220793   2.064   6.224   3.937
 6632SOL     OW20794   0.558   0.683   0.759
 6632SOL    HW120795   0.589   0.670   0.665
 6632SOL    HW220796   0.547   0.593   0.803
 6633SOL     OW20797   2.163   5.172   6.040
 6633SOL    HW120798   2.092   5.243   6.039
 6633SOL    HW220799   2.127   5.088   6.001
 6634SOL     OW20800   5.632   1.349   5.429
 6634SOL    HW120801   5.637   1.275   5.362
 6634SOL    HW220802   5.635   1.311   5.521
 6635SOL     OW20803   4.819   4.329   3.506
 6635SOL    HW120804   4.804   4.301   3.601
 6635SOL    HW220805   4.812   4.249   3.446
 6636SOL     OW20806   4.881   1.404   6.996
 6636SOL    HW120807   4.797   1.361   0.006
 6636SOL    HW220808   4.941   1.334   6.956
 6637SOL     OW20809   1.134   6.983   6.449
 6637SOL    HW120810   1.224   7.016   6.422
 6637SOL    HW220811   1.068   7.000   6.375
 6638SOL     OW20812   3.125   3.725   3.304
 6638SOL    HW120813   3.097   3.776   3.385
 6638SOL    HW220814   3.055   3.735   3.233
 6639SOL     OW20815   4.582   4.563   6.947
 6639SOL    HW120816   4.541   4.638   6.895
 6639SOL    HW220817   4.548   4.476   6.912
 6640SOL     OW20818   6.362   1.593   5.402
 6640SOL    HW120819   6.462   1.586   5.404
 6640SOL    HW220820   6.325   1.544   5.481
 6641SOL     OW20821   2.789   1.460   6.733
 6641SOL    HW120822   2.870   1.480   6.789
 6641SOL    HW220823   2.771   1.362   6.736
 6642SOL     OW20824   2.676   5.986   6.474
 6642SOL    HW120825   2.593   5.961   6.423
 6642SOL    HW220826   2.652   6.004   6.569
 6643SOL     OW20827   4.947   6.369   6.707
 6643SOL    HW120828   4.993   6.291   6.750
 6643SOL    HW220829   5.010   6.412   6.641
 6644SOL     OW20830   2.614   5.861   1.560
 6644SOL    HW120831   2.516   5.849   1.576
 6644SOL    HW220832   2.661   5.775   1.580
 6645SOL     OW20833   5.217   3.790   1.112
 6645SOL    HW120834   5.178   3.788   1.020
 6645SOL    HW220835   5.268   3.706   1.129
 6646SOL     OW20836   4.766   1.482   4.929
 6646SOL    HW120837   4.751   1.528   5.016
 6646SOL    HW220838   4.688   1.498   4.869
 6647SOL     OW20839   4.386   6.975   0.826
 6647SOL    HW120840   4.297   7.016   0.846
 6647SOL    HW220841   4.454   7.008   0.891
 6648SOL     OW20842   3.480   6.741   4.038
 6648SOL    HW120843   3.475   6.704   3.945
 6648SOL    HW220844   3.554   6.695   4.087
 6649SOL     OW20845   6.008   1.881   6.180
 6649SOL    HW120846   6.038   1.908   6.272
 6649SOL    HW220847   5.952   1.953   6.140
 6650SOL     OW20848   3.871   1.394   5.557
 6650SOL    HW120849   3.920   1.465   5.508
 6650SOL    HW220850   3.882   1.408   5.656
 6651SOL     OW20851   1.586   0.814   6.045
 6651SOL    HW120852   1.533   0.849   6.122
 6651SOL    HW220853   1.593   0.884   5.975
 6652SOL     OW20854   0.253   4.899   6.748
 6652SOL    HW120855   0.239   4.915   6.846
 6652SOL    HW220856   0.348   4.870   6.733
 6653SOL     OW20857   4.015   3.335   1.289
 6653SOL    HW120858   4.087   3.377   1.345
 6653SOL    HW220859   4.030   3.358   1.193
 6654SOL     OW20860   1.555   5.373   1.306
 6654SOL    HW120861   1.523   5.338   1.218
 6654SOL    HW220862   1.536   5.471   1.312
 6655SOL     OW20863   0.271   6.588   3.342
 6655SOL    HW120864   0.308   6.617   3.430
 6655SOL    HW220865   0.295   6.655   3.272
 6656SOL     OW20866   6.110   2.291   2.246
 6656SOL    HW120867   6.034   2.258   2.302
 6656SOL    HW220868   6.098   2.260   2.152
 6657SOL     OW20869   6.103   3.949   4.864
 6657SOL    HW120870   6.102   4.010   4.943
 6657SOL    HW220871   6.009   3.931   4.834
 6658SOL     OW20872   5.107   1.301   5.527
 6658SOL    HW120873   5.203   1.312   5.553
 6658SOL    HW220874   5.057   1.384   5.550
 6659SOL     OW20875   2.121   2.949   1.372
 6659SOL    HW120876   2.093   3.005   1.295
 6659SOL    HW220877   2.180   3.003   1.433
 6660SOL     OW20878   1.816   5.202   1.142
 6660SOL    HW120879   1.852   5.232   1.231
 6660SOL    HW220880   1.727   5.245   1.126
 6661SOL     OW20881   2.300   0.441   5.315
 6661SOL    HW120882   2.291   0.508   5.241
 6661SOL    HW220883   2.375   0.378   5.294
 6662SOL     OW20884   1.313   0.714   0.417
 6662SOL    HW120885   1.285   0.796   0.467
 6662SOL    HW220886   1.410   0.720   0.395
 6663SOL     OW20887   6.514   6.165   4.810
 6663SOL    HW120888   6.554   6.145   4.900
 6663SOL    HW220889   6.584   6.157   4.740
 6664SOL     OW20890   2.022   7.019   0.247
 6664SOL    HW120891   2.045   7.020   0.150
 6664SOL    HW220892   2.077   0.064   0.295
 6665SOL     OW20893   1.588   6.381   4.679
 6665SOL    HW120894   1.566   6.339   4.767
 6665SOL    HW220895   1.521   6.352   4.610
 6666SOL     OW20896   6.655   6.415   5.762
 6666SOL    HW120897   6.716   6.357   5.708
 6666SOL    HW220898   6.664   6.392   5.859
 6667SOL     OW20899   0.329   6.726   5.627
 6667SOL    HW120900   0.318   6.758   5.533
 6667SOL    HW220901   0.247   6.676   5.655
 6668SOL     OW20902   6.885   5.799   1.181
 6668SOL    HW120903   6.833   5.850   1.250
 6668SOL    HW220904   6.889   5.703   1.206
 6669SOL     OW20905   2.684   2.240   1.863
 6669SOL    HW120906   2.679   2.300   1.783
 6669SOL    HW220907   2.755   2.273   1.925
 6670SOL     OW20908   2.938   1.383   5.488
 6670SOL    HW120909   3.017   1.322   5.484
 6670SOL    HW220910   2.858   1.336   5.449
 6671SOL     OW20911   4.034   6.997   0.683
 6671SOL    HW120912   4.056   0.044   0.615
 6671SOL    HW220913   4.056   6.907   0.646
 6672SOL     OW20914   6.672   2.304   0.291
 6672SOL    HW120915   6.626   2.249   0.361
 6672SOL    HW220916   6.678   2.399   0.323
 6673SOL     OW20917   4.808   4.280   3.813
 6673SOL    HW120918   4.815   4.320   3.905
 6673SOL    HW220919   4.888   4.223   3.796
 6674SOL     OW20920   0.346   3.803   0.737
 6674SOL    HW120921   0.313   3.885   0.783
 6674SOL    HW220922   0.384   3.827   0.648
 6675SOL     OW20923   5.963   2.997   0.723
 6675SOL    HW120924   5.892   2.964   0.661
 6675SOL    HW220925   5.923   3.060   0.789
 6676SOL     OW20926   0.659   3.689   4.903
 6676SOL    HW120927   0.682   3.654   4.812
 6676SOL    HW220928   0.739   3.735   4.942
 6677SOL     OW20929   1.132   1.401   6.337
 6677SOL    HW120930   1.060   1.455   6.294
 6677SOL    HW220931   1.091   1.330   6.395
 6678SOL     OW20932   3.149   3.995   0.330
 6678SOL    HW120933   3.232   3.942   0.348
 6678SOL    HW220934   3.171   4.093   0.332
 6679SOL     OW20935   3.664   0.602   3.912
 6679SOL    HW120936   3.575   0.613   3.868
 6679SOL    HW220937   3.676   0.507   3.941
 6680SOL     OW20938   4.254   6.895   6.289
 6680SOL    HW120939   4.241   6.933   6.197
 6680SOL    HW220940   4.219   6.960   6.357
 6681SOL     OW20941   4.531   5.994   0.564
 6681SOL    HW120942   4.551   5.932   0.488
 6681SOL    HW220943   4.438   6.029   0.554
 6682SOL     OW20944   2.019   4.940   0.329
 6682SOL    HW120945   2.039   4.906   0.237
 6682SOL    HW220946   2.024   5.040   0.329
 6683SOL     OW20947   6.161   3.167   5.406
 6683SOL    HW120948   6.192   3.182   5.500
 6683SOL    HW220949   6.155   3.068   5.389
 6684SOL     OW20950   3.750   6.316   2.189
 6684SOL    HW120951   3.717   6.353   2.103
 6684SOL    HW220952   3.803   6.385   2.238
 6685SOL     OW20953   4.625   3.022   6.651
 6685SOL    HW120954   4.630   3.121   6.663
 6685SOL    HW220955   4.652   2.998   6.558
 6686SOL     OW20956   5.239   5.527   4.103
 6686SOL    HW120957   5.164   5.571   4.055
 6686SOL    HW220958   5.205   5.488   4.189
 6687SOL     OW20959   0.542   3.387   1.984
 6687SOL    HW120960   0.464   3.364   1.926
 6687SOL    HW220961   0.626   3.356   1.939
 6688SOL     OW20962   4.934   4.570   1.434
 6688SOL    HW120963   4.917   4.476   1.402
 6688SOL    HW220964   4.852   4.626   1.418
 6689SOL     OW20965   4.541   4.184   5.722
 6689SOL    HW120966   4.552   4.100   5.669
 6689SOL    HW220967   4.569   4.262   5.666
 6690SOL     OW20968   0.541   0.077   0.367
 6690SOL    HW120969   0.604   0.049   0.439
 6690SOL    HW220970   0.477   0.145   0.403
 6691SOL     OW20971   2.139   0.378   2.744
 6691SOL    HW120972   2.105   0.422   2.827
 6691SOL    HW220973   2.164   0.283   2.765
 6692SOL     OW20974   3.863   3.962   3.637
 6692SOL    HW120975   3.948   3.963   3.689
 6692SOL    HW220976   3.801   3.893   3.675
 6693SOL     OW20977   4.116   2.229   5.452
 6693SOL    HW120978   4.122   2.262   5.546
 6693SOL    HW220979   4.061   2.145   5.449
 6694SOL     OW20980   3.667   5.713   1.322
 6694SOL    HW120981   3.607   5.652   1.270
 6694SOL    HW220982   3.633   5.721   1.416
 6695SOL     OW20983   2.449   2.187   6.734
 6695SOL    HW120984   2.371   2.241   6.702
 6695SOL    HW220985   2.483   2.130   6.659
 6696SOL     OW20986   3.573   2.983   4.123
 6696SOL    HW120987   3.604   3.078   4.114
 6696SOL    HW220988   3.597   2.949   4.213
 6697SOL     OW20989   5.196   1.259   2.888
 6697SOL    HW120990   5.147   1.188   2.939
 6697SOL    HW220991   5.218   1.335   2.949
 6698SOL     OW20992   3.439   2.602   0.545
 6698SOL    HW120993   3.440   2.652   0.459
 6698SOL    HW220994   3.357   2.627   0.597
 6699SOL     OW20995   2.337   6.203   5.772
 6699SOL    HW120996   2.369   6.190   5.866
 6699SOL    HW220997   2.241   6.173   5.766
 6700SOL     OW20998   0.162   1.458   1.385
 6700SOL    HW120999   0.086   1.425   1.328
 6700SOL    HW221000   0.131   1.534   1.441
 6701SOL     OW21001   5.602   5.314   1.712
 6701SOL    HW121002   5.663   5.373   1.766
 6701SOL    HW221003   5.535   5.371   1.664
 6702SOL     OW21004   2.058   2.573   1.140
 6702SOL    HW121005   1.958   2.575   1.140
 6702SOL    HW221006   2.091   2.547   1.231
 6703SOL     OW21007   6.443   0.152   0.969
 6703SOL    HW121008   6.484   0.073   0.924
 6703SOL    HW221009   6.511   0.226   0.976
 6704SOL     OW21010   4.042   2.215   2.746
 6704SOL    HW121011   3.952   2.247   2.777
 6704SOL    HW221012   4.038   2.118   2.725
 6705SOL     OW21013   6.318   3.083   1.114
 6705SOL    HW121014   6.239   3.088   1.175
 6705SOL    HW221015   6.297   3.024   1.036
 6706SOL     OW21016   0.930   5.516   1.192
 6706SOL    HW121017   0.886   5.492   1.105
 6706SOL    HW221018   0.931   5.436   1.252
 6707SOL     OW21019   5.933   7.023   3.264
 6707SOL    HW121020   5.888   7.019   3.175
 6707SOL    HW221021   5.869   0.034   3.333
 6708SOL     OW21022   5.340   5.499   0.645
 6708SOL    HW121023   5.286   5.522   0.726
 6708SOL    HW221024   5.286   5.441   0.584
 6709SOL     OW21025   1.506   5.953   3.066
 6709SOL    HW121026   1.555   5.866   3.067
 6709SOL    HW221027   1.425   5.945   3.008
 6710SOL     OW21028   3.626   0.954   6.041
 6710SOL    HW121029   3.637   0.984   5.946
 6710SOL    HW221030   3.567   0.873   6.043
 6711SOL     OW21031   5.369   6.418   5.409
 6711SOL    HW121032   5.294   6.463   5.360
 6711SOL    HW221033   5.381   6.461   5.498
 6712SOL     OW21034   6.039   3.656   0.830
 6712SOL    HW121035   6.094   3.663   0.914
 6712SOL    HW221036   5.979   3.735   0.823
 6713SOL     OW21037   1.921   0.603   2.704
 6713SOL    HW121038   1.904   0.505   2.708
 6713SOL    HW221039   1.981   0.630   2.779
 6714SOL     OW21040   6.543   1.167   6.499
 6714SOL    HW121041   6.593   1.251   6.477
 6714SOL    HW221042   6.449   1.175   6.468
 6715SOL     OW21043   0.806   0.498   0.702
 6715SOL    HW121044   0.803   0.569   0.772
 6715SOL    HW221045   0.896   0.496   0.660
 6716SOL     OW21046   0.110   5.907   1.990
 6716SOL    HW121047   0.082   5.834   1.927
 6716SOL    HW221048   0.186   5.876   2.046
 6717SOL     OW21049   2.878   2.882   6.839
 6717SOL    HW121050   2.794   2.852   6.884
 6717SOL    HW221051   2.879   2.982   6.834
 6718SOL     OW21052   5.171   0.128   0.728
 6718SOL    HW121053   5.113   0.049   0.709
 6718SOL    HW221054   5.114   0.210   0.734
 6719SOL     OW21055   3.104   6.633   0.107
 6719SOL    HW121056   3.201   6.615   0.123
 6719SOL    HW221057   3.087   6.639   0.008
 6720SOL     OW21058   1.917   0.044   3.905
 6720SOL    HW121059   1.981   7.021   3.965
 6720SOL    HW221060   1.967   0.088   3.830
 6721SOL     OW21061   6.557   6.419   0.117
 6721SOL    HW121062   6.523   6.508   0.088
 6721SOL    HW221063   6.545   6.408   0.216
 6722SOL     OW21064   6.413   2.588   0.792
 6722SOL    HW121065   6.346   2.651   0.752
 6722SOL    HW221066   6.502   2.634   0.798
 6723SOL     OW21067   1.631   6.947   4.814
 6723SOL    HW121068   1.698   6.983   4.750
 6723SOL    HW221069   1.581   7.022   4.857
 6724SOL     OW21070   2.548   3.726   6.234
 6724SOL    HW121071   2.511   3.633   6.222
 6724SOL    HW221072   2.632   3.722   6.287
 6725SOL     OW21073   6.459   2.849   1.866
 6725SOL    HW121074   6.476   2.930   1.810
 6725SOL    HW221075   6.408   2.782   1.813
 6726SOL     OW21076   1.257   2.914   4.305
 6726SOL    HW121077   1.231   2.974   4.381
 6726SOL    HW221078   1.224   2.822   4.323
 6727SOL     OW21079   0.077   4.831   5.897
 6727SOL    HW121080   0.102   4.830   5.800
 6727SOL    HW221081   0.118   4.911   5.941
 6728SOL     OW21082   3.927   2.142   2.471
 6728SOL    HW121083   3.954   2.238   2.468
 6728SOL    HW221084   3.837   2.134   2.514
 6729SOL     OW21085   6.424   0.529   0.753
 6729SOL    HW121086   6.516   0.544   0.791
 6729SOL    HW221087   6.366   0.488   0.823
 6730SOL     OW21088   2.040   6.752   1.791
 6730SOL    HW121089   2.137   6.753   1.816
 6730SOL    HW221090   1.984   6.765   1.873
 6731SOL     OW21091   1.469   7.023   1.122
 6731SOL    HW121092   1.565   7.015   1.095
 6731SOL    HW221093   1.463   0.036   1.215
 6732SOL     OW21094   6.138   4.112   4.650
 6732SOL    HW121095   6.124   4.200   4.695
 6732SOL    HW221096   6.137   4.039   4.718
 6733SOL     OW21097   3.122   5.801   6.227
 6733SOL    HW121098   3.155   5.780   6.319
 6733SOL    HW221099   3.055   5.731   6.199
 6734SOL     OW21100   6.128   1.982   4.559
 6734SOL    HW121101   6.152   1.894   4.518
 6734SOL    HW221102   6.044   1.972   4.612
 6735SOL     OW21103   6.684   3.700   4.556
 6735SOL    HW121104   6.684   3.601   4.542
 6735SOL    HW221105   6.605   3.725   4.612
 6736SOL     OW21106   2.548   3.443   6.763
 6736SOL    HW121107   2.545   3.449   6.863
 6736SOL    HW221108   2.464   3.400   6.730
 6737SOL     OW21109   1.655   3.061   0.796
 6737SOL    HW121110   1.600   2.977   0.792
 6737SOL    HW221111   1.613   3.126   0.859
 6738SOL     OW21112   1.960   5.410   3.451
 6738SOL    HW121113   1.894   5.346   3.490
 6738SOL    HW221114   2.009   5.456   3.525
 6739SOL     OW21115   4.835   5.950   4.500
 6739SOL    HW121116   4.918   5.975   4.450
 6739SOL    HW221117   4.823   6.012   4.577
 6740SOL     OW21118   6.921   6.959   5.133
 6740SOL    HW121119   6.913   7.001   5.223
 6740SOL    HW221120   6.924   6.859   5.143
 6741SOL     OW21121   3.974   2.453   5.897
 6741SOL    HW121122   4.008   2.538   5.856
 6741SOL    HW221123   3.886   2.471   5.941
 6742SOL     OW21124   5.877   5.723   3.135
 6742SOL    HW121125   5.918   5.635   3.159
 6742SOL    HW221126   5.894   5.788   3.209
 6743SOL     OW21127   4.432   4.561   6.259
 6743SOL    HW121128   4.360   4.500   6.290
 6743SOL    HW221129   4.513   4.507   6.233
 6744SOL     OW21130   6.332   4.191   5.856
 6744SOL    HW121131   6.428   4.208   5.835
 6744SOL    HW221132   6.296   4.266   5.911
 6745SOL     OW21133   0.721   6.888   3.535
 6745SOL    HW121134   0.796   6.935   3.582
 6745SOL    HW221135   0.653   6.955   3.505
 6746SOL     OW21136   0.994   1.347   4.110
 6746SOL    HW121137   0.952   1.309   4.028
 6746SOL    HW221138   1.044   1.430   4.086
 6747SOL     OW21139   5.501   1.195   5.903
 6747SOL    HW121140   5.538   1.142   5.980
 6747SOL    HW221141   5.417   1.241   5.932
 6748SOL     OW21142   3.348   1.864   3.026
 6748SOL    HW121143   3.283   1.879   2.951
 6748SOL    HW221144   3.367   1.951   3.071
 6749SOL     OW21145   3.901   3.996   0.673
 6749SOL    HW121146   3.853   3.930   0.732
 6749SOL    HW221147   3.860   3.994   0.582
 6750SOL     OW21148   3.454   1.959   4.150
 6750SOL    HW121149   3.360   1.976   4.122
 6750SOL    HW221150   3.464   1.982   4.247
 6751SOL     OW21151   5.752   6.774   2.590
 6751SOL    HW121152   5.683   6.725   2.537
 6751SOL    HW221153   5.711   6.858   2.627
 6752SOL     OW21154   1.994   6.795   3.424
 6752SOL    HW121155   2.047   6.755   3.349
 6752SOL    HW221156   1.898   6.805   3.396
 6753SOL     OW21157   3.139   1.474   6.104
 6753SOL    HW121158   3.045   1.443   6.094
 6753SOL    HW221159   3.169   1.521   6.021
 6754SOL     OW21160   0.311   1.193   1.151
 6754SOL    HW121161   0.379   1.125   1.179
 6754SOL    HW221162   0.323   1.276   1.205
 6755SOL     OW21163   4.234   1.038   2.113
 6755SOL    HW121164   4.141   1.020   2.080
 6755SOL    HW221165   4.300   1.014   2.041
 6756SOL     OW21166   4.003   6.148   5.286
 6756SOL    HW121167   3.998   6.146   5.386
 6756SOL    HW221168   3.954   6.070   5.248
 6757SOL     OW21169   3.547   2.286   0.589
 6757SOL    HW121170   3.580   2.225   0.661
 6757SOL    HW221171   3.604   2.369   0.586
 6758SOL     OW21172   6.176   2.460   1.895
 6758SOL    HW121173   6.214   2.553   1.899
 6758SOL    HW221174   6.193   2.421   1.805
 6759SOL     OW21175   1.837   3.907   4.160
 6759SOL    HW121176   1.935   3.926   4.162
 6759SOL    HW221177   1.807   3.890   4.066
 6760SOL     OW21178   6.617   3.780   2.329
 6760SOL    HW121179   6.700   3.729   2.307
 6760SOL    HW221180   6.556   3.722   2.382
 6761SOL     OW21181   0.038   2.284   5.788
 6761SOL    HW121182   6.994   2.279   5.714
 6761SOL    HW221183   0.086   2.197   5.795
 6762SOL     OW21184   0.855   4.578   4.822
 6762SOL    HW121185   0.766   4.532   4.812
 6762SOL    HW221186   0.840   4.669   4.860
 6763SOL     OW21187   6.401   5.556   3.707
 6763SOL    HW121188   6.471   5.485   3.709
 6763SOL    HW221189   6.336   5.536   3.633
 6764SOL     OW21190   1.777   5.719   1.184
 6764SOL    HW121191   1.802   5.798   1.129
 6764SOL    HW221192   1.855   5.658   1.193
 6765SOL     OW21193   5.738   4.841   3.761
 6765SOL    HW121194   5.739   4.819   3.858
 6765SOL    HW221195   5.831   4.842   3.726
 6766SOL     OW21196   5.521   6.591   5.623
 6766SOL    HW121197   5.498   6.680   5.661
 6766SOL    HW221198   5.536   6.525   5.697
 6767SOL     OW21199   1.945   1.302   1.232
 6767SOL    HW121200   1.903   1.360   1.162
 6767SOL    HW221201   2.032   1.267   1.197
 6768SOL     OW21202   1.288   6.498   4.892
 6768SOL    HW121203   1.368   6.558   4.889
 6768SOL    HW221204   1.301   6.428   4.962
 6769SOL     OW21205   2.651   0.739   6.491
 6769SOL    HW121206   2.731   0.686   6.519
 6769SOL    HW221207   2.653   0.752   6.392
 6770SOL     OW21208   6.062   1.478   3.175
 6770SOL    HW121209   6.042   1.387   3.210
 6770SOL    HW221210   6.026   1.486   3.082
 6771SOL     OW21211   4.763   1.530   3.333
 6771SOL    HW121212   4.851   1.500   3.297
 6771SOL    HW221213   4.718   1.453   3.379
 6772SOL     OW21214   4.540   2.049   2.890
 6772SOL    HW121215   4.536   1.994   2.806
 6772SOL    HW221216   4.450   2.087   2.909
 6773SOL     OW21217   6.852   5.980   1.718
 6773SOL    HW121218   6.907   5.906   1.679
 6773SOL    HW221219   6.904   6.028   1.789
 6774SOL     OW21220   0.871   3.808   4.988
 6774SOL    HW121221   0.927   3.726   4.975
 6774SOL    HW221222   0.899   3.856   5.071
 6775SOL     OW21223   2.642   2.386   2.130
 6775SOL    HW121224   2.605   2.462   2.076
 6775SOL    HW221225   2.733   2.362   2.094
 6776SOL     OW21226   5.012   4.044   6.956
 6776SOL    HW121227   4.928   4.042   6.901
 6776SOL    HW221228   5.010   4.123   7.016
 6777SOL     OW21229   5.089   4.661   0.674
 6777SOL    HW121230   5.064   4.600   0.749
 6777SOL    HW221231   5.010   4.716   0.649
 6778SOL     OW21232   5.788   5.448   1.855
 6778SOL    HW121233   5.873   5.407   1.888
 6778SOL    HW221234   5.782   5.543   1.886
 6779SOL     OW21235   5.437   5.990   6.041
 6779SOL    HW121236   5.370   5.917   6.030
 6779SOL    HW221237   5.419   6.038   6.127
 6780SOL     OW21238   1.993   2.667   2.426
 6780SOL    HW121239   1.919   2.606   2.400
 6780SOL    HW221240   2.045   2.694   2.344
 6781SOL     OW21241   6.837   2.331   4.344
 6781SOL    HW121242   6.866   2.244   4.303
 6781SOL    HW221243   6.738   2.342   4.332
 6782SOL     OW21244   0.785   1.000   2.620
 6782SOL    HW121245   0.689   0.978   2.599
 6782SOL    HW221246   0.802   0.980   2.717
 6783SOL     OW21247   6.422   1.048   5.349
 6783SOL    HW121248   6.466   1.126   5.305
 6783SOL    HW221249   6.359   1.080   5.419
 6784SOL     OW21250   1.317   3.410   0.745
 6784SOL    HW121251   1.229   3.457   0.748
 6784SOL    HW221252   1.325   3.348   0.822
 6785SOL     OW21253   5.702   5.986   4.570
 6785SOL    HW121254   5.775   6.035   4.523
 6785SOL    HW221255   5.642   5.943   4.503
 6786SOL     OW21256   1.807   2.435   0.422
 6786SOL    HW121257   1.783   2.419   0.518
 6786SOL    HW221258   1.725   2.432   0.366
 6787SOL     OW21259   2.365   2.935   6.941
 6787SOL    HW121260   2.303   3.014   6.937
 6787SOL    HW221261   2.313   2.852   6.960
 6788SOL     OW21262   1.105   4.250   1.591
 6788SOL    HW121263   1.072   4.339   1.561
 6788SOL    HW221264   1.061   4.178   1.536
 6789SOL     OW21265   0.631   5.179   2.987
 6789SOL    HW121266   0.553   5.219   3.036
 6789SOL    HW221267   0.604   5.157   2.893
 6790SOL     OW21268   0.081   3.683   0.776
 6790SOL    HW121269   0.113   3.598   0.817
 6790SOL    HW221270   0.147   3.715   0.709
 6791SOL     OW21271   3.626   1.576   2.073
 6791SOL    HW121272   3.646   1.614   2.163
 6791SOL    HW221273   3.644   1.644   2.003
 6792SOL     OW21274   6.059   0.196   5.013
 6792SOL    HW121275   5.968   0.157   5.024
 6792SOL    HW221276   6.121   0.125   4.979
 6793SOL     OW21277   1.941   1.746   1.002
 6793SOL    HW121278   1.972   1.818   1.064
 6793SOL    HW221279   1.848   1.767   0.971
 6794SOL     OW21280   4.954   0.965   5.565
 6794SOL    HW121281   4.912   1.042   5.517
 6794SOL    HW221282   4.889   0.888   5.566
 6795SOL     OW21283   1.964   6.199   0.678
 6795SOL    HW121284   1.966   6.283   0.732
 6795SOL    HW221285   2.033   6.135   0.713
 6796SOL     OW21286   6.312   0.438   2.985
 6796SOL    HW121287   6.257   0.519   3.003
 6796SOL    HW221288   6.392   0.437   3.045
 6797SOL     OW21289   6.853   2.303   1.919
 6797SOL    HW121290   6.871   2.236   1.847
 6797SOL    HW221291   6.936   2.356   1.937
 6798SOL     OW21292   5.685   6.738   2.002
 6798SOL    HW121293   5.772   6.711   1.963
 6798SOL    HW221294   5.676   6.837   2.001
 6799SOL     OW21295   0.270   0.183   1.939
 6799SOL    HW121296   0.191   0.244   1.950
 6799SOL    HW221297   0.331   0.194   2.017
 6800SOL     OW21298   2.118   3.443   2.464
 6800SOL    HW121299   2.152   3.391   2.385
 6800SOL    HW221300   2.033   3.403   2.496
 6801SOL     OW21301   0.511   6.905   2.848
 6801SOL    HW121302   0.459   6.833   2.894
 6801SOL    HW221303   0.582   6.864   2.791
 6802SOL     OW21304   3.300   5.812   1.566
 6802SOL    HW121305   3.304   5.721   1.525
 6802SOL    HW221306   3.349   5.877   1.508
 6803SOL     OW21307   4.683   3.111   5.329
 6803SOL    HW121308   4.772   3.157   5.321
 6803SOL    HW221309   4.614   3.177   5.357
 6804SOL     OW21310   3.365   4.996   4.026
 6804SOL    HW121311   3.333   5.087   4.000
 6804SOL    HW221312   3.413   5.001   4.114
 6805SOL     OW21313   0.549   4.878   6.778
 6805SOL    HW121314   0.597   4.879   6.691
 6805SOL    HW221315   0.538   4.971   6.812
 6806SOL     OW21316   6.400   0.693   3.342
 6806SOL    HW121317   6.320   0.744   3.373
 6806SOL    HW221318   6.410   0.610   3.397
 6807SOL     OW21319   3.347   3.717   1.428
 6807SOL    HW121320   3.304   3.764   1.505
 6807SOL    HW221321   3.347   3.777   1.348
 6808SOL     OW21322   0.379   2.289   6.017
 6808SOL    HW121323   0.442   2.211   6.019
 6808SOL    HW221324   0.291   2.262   6.056
 6809SOL     OW21325   0.778   3.214   1.320
 6809SOL    HW121326   0.753   3.131   1.370
 6809SOL    HW221327   0.749   3.294   1.372
 6810SOL     OW21328   1.249   0.880   2.454
 6810SOL    HW121329   1.289   0.961   2.498
 6810SOL    HW221330   1.163   0.857   2.500
 6811SOL     OW21331   5.553   3.609   1.670
 6811SOL    HW121332   5.567   3.521   1.716
 6811SOL    HW221333   5.626   3.624   1.604
 6812SOL     OW21334   3.080   3.664   4.825
 6812SOL    HW121335   3.070   3.718   4.742
 6812SOL    HW221336   3.155   3.700   4.881
 6813SOL     OW21337   4.951   2.940   3.277
 6813SOL    HW121338   4.911   2.933   3.185
 6813SOL    HW221339   4.994   2.853   3.301
 6814SOL     OW21340   3.687   1.641   5.940
 6814SOL    HW121341   3.741   1.564   5.906
 6814SOL    HW221342   3.640   1.615   6.024
 6815SOL     OW21343   3.575   6.281   0.829
 6815SOL    HW121344   3.510   6.297   0.755
 6815SOL    HW221345   3.532   6.225   0.900
 6816SOL     OW21346   6.641   0.411   6.532
 6816SOL    HW121347   6.652   0.480   6.461
 6816SOL    HW221348   6.669   0.321   6.496
 6817SOL     OW21349   2.278   2.577   2.974
 6817SOL    HW121350   2.274   2.500   2.910
 6817SOL    HW221351   2.196   2.577   3.030
 6818SOL     OW21352   2.552   6.268   1.981
 6818SOL    HW121353   2.519   6.352   1.936
 6818SOL    HW221354   2.577   6.201   1.911
 6819SOL     OW21355   4.599   1.715   3.144
 6819SOL    HW121356   4.616   1.661   3.226
 6819SOL    HW221357   4.534   1.788   3.164
 6820SOL     OW21358   1.911   5.628   1.989
 6820SOL    HW121359   2.001   5.662   1.964
 6820SOL    HW221360   1.847   5.643   1.913
 6821SOL     OW21361   3.862   2.117   4.967
 6821SOL    HW121362   3.889   2.200   4.918
 6821SOL    HW221363   3.789   2.071   4.916
 6822SOL     OW21364   5.666   2.505   5.948
 6822SOL    HW121365   5.728   2.573   5.987
 6822SOL    HW221366   5.626   2.451   6.022
 6823SOL     OW21367   4.501   3.427   5.930
 6823SOL    HW121368   4.445   3.510   5.925
 6823SOL    HW221369   4.540   3.419   6.021
 6824SOL     OW21370   1.222   2.295   0.597
 6824SOL    HW121371   1.267   2.299   0.508
 6824SOL    HW221372   1.179   2.206   0.609
 6825SOL     OW21373   5.126   6.733   0.934
 6825SOL    HW121374   5.089   6.826   0.936
 6825SOL    HW221375   5.050   6.668   0.927
 6826SOL     OW21376   1.983   2.978   3.278
 6826SOL    HW121377   1.945   3.020   3.196
 6826SOL    HW221378   2.082   2.985   3.277
 6827SOL     OW21379   4.438   5.251   6.575
 6827SOL    HW121380   4.492   5.324   6.535
 6827SOL    HW221381   4.389   5.202   6.503
 6828SOL     OW21382   2.905   1.551   1.406
 6828SOL    HW121383   2.944   1.621   1.346
 6828SOL    HW221384   2.816   1.523   1.372
 6829SOL     OW21385   5.096   6.125   5.089
 6829SOL    HW121386   5.128   6.219   5.078
 6829SOL    HW221387   5.162   6.073   5.144
 6830SOL     OW21388   5.002   1.011   3.661
 6830SOL    HW121389   5.086   1.023   3.608
 6830SOL    HW221390   5.013   0.933   3.723
 6831SOL     OW21391   1.197   0.142   0.080
 6831SOL    HW121392   1.117   0.177   0.031
 6831SOL    HW221393   1.226   0.055   0.039
 6832SOL     OW21394   2.651   4.113   0.669
 6832SOL    HW121395   2.595   4.194   0.687
 6832SOL    HW221396   2.594   4.031   0.678
 6833SOL     OW21397   3.524   4.578   6.597
 6833SOL    HW121398   3.449   4.518   6.626
 6833SOL    HW221399   3.606   4.556   6.649
 6834SOL     OW21400   4.628   6.546   0.636
 6834SOL    HW121401   4.672   6.459   0.660
 6834SOL    HW221402   4.633   6.609   0.714
 6835SOL     OW21403   4.217   0.608   4.641
 6835SOL    HW121404   4.260   0.612   4.550
 6835SOL    HW221405   4.200   0.513   4.665
 6836SOL     OW21406   2.417   4.584   0.217
 6836SOL    HW121407   2.415   4.684   0.222
 6836SOL    HW221408   2.510   4.552   0.236
 6837SOL     OW21409   0.705   2.289   2.295
 6837SOL    HW121410   0.680   2.297   2.199
 6837SOL    HW221411   0.804   2.284   2.303
 6838SOL     OW21412   3.532   6.468   0.049
 6838SOL    HW121413   3.554   6.540   0.115
 6838SOL    HW221414   3.508   6.509   6.985
 6839SOL     OW21415   5.874   1.208   6.487
 6839SOL    HW121416   5.819   1.155   6.551
 6839SOL    HW221417   5.909   1.289   6.532
 6840SOL     OW21418   3.804   0.799   4.802
 6840SOL    HW121419   3.756   0.878   4.841
 6840SOL    HW221420   3.737   0.729   4.775
 6841SOL     OW21421   4.555   4.416   6.629
 6841SOL    HW121422   4.652   4.400   6.650
 6841SOL    HW221423   4.531   4.368   6.545
 6842SOL     OW21424   2.959   3.925   0.536
 6842SOL    HW121425   3.003   3.847   0.582
 6842SOL    HW221426   3.025   3.968   0.474
 6843SOL     OW21427   6.120   6.372   1.154
 6843SOL    HW121428   6.032   6.387   1.110
 6843SOL    HW221429   6.106   6.358   1.252
 6844SOL     OW21430   5.257   0.570   3.879
 6844SOL    HW121431   5.346   0.617   3.885
 6844SOL    HW221432   5.239   0.522   3.965
 6845SOL     OW21433   6.721   4.191   3.361
 6845SOL    HW121434   6.799   4.255   3.366
 6845SOL    HW221435   6.707   4.149   3.451
 6846SOL     OW21436   3.321   3.040   7.012
 6846SOL    HW121437   3.241   3.100   7.014
 6846SOL    HW221438   3.329   2.999   6.921
 6847SOL     OW21439   0.375   3.504   4.064
 6847SOL    HW121440   0.373   3.602   4.084
 6847SOL    HW221441   0.305   3.458   4.118
 6848SOL     OW21442   4.786   6.245   3.502
 6848SOL    HW121443   4.718   6.306   3.460
 6848SOL    HW221444   4.760   6.150   3.486
 6849SOL     OW21445   3.778   4.935   5.074
 6849SOL    HW121446   3.754   4.873   5.148
 6849SOL    HW221447   3.704   5.001   5.060
 6850SOL     OW21448   5.742   4.064   2.334
 6850SOL    HW121449   5.829   4.035   2.375
 6850SOL    HW221450   5.761   4.114   2.250
 6851SOL     OW21451   0.455   2.056   2.867
 6851SOL    HW121452   0.480   1.968   2.826
 6851SOL    HW221453   0.455   2.127   2.797
 6852SOL     OW21454   2.667   4.703   0.606
 6852SOL    HW121455   2.609   4.783   0.594
 6852SOL    HW221456   2.694   4.696   0.702
 6853SOL     OW21457   5.784   4.545   0.291
 6853SOL    HW121458   5.881   4.519   0.292
 6853SOL    HW221459   5.777   4.643   0.271
 6854SOL     OW21460   4.468   1.518   6.575
 6854SOL    HW121461   4.385   1.463   6.587
 6854SOL    HW221462   4.454   1.585   6.502
 6855SOL     OW21463   4.400   5.586   3.861
 6855SOL    HW121464   4.429   5.501   3.905
 6855SOL    HW221465   4.321   5.624   3.910
 6856SOL     OW21466   5.763   2.833   5.448
 6856SOL    HW121467   5.803   2.869   5.364
 6856SOL    HW221468   5.663   2.834   5.441
 6857SOL     OW21469   3.030   2.546   6.503
 6857SOL    HW121470   2.987   2.566   6.591
 6857SOL    HW221471   3.013   2.451   6.478
 6858SOL     OW21472   4.042   3.642   3.199
 6858SOL    HW121473   4.082   3.578   3.264
 6858SOL    HW221474   4.015   3.726   3.246
 6859SOL     OW21475   0.585   1.765   1.110
 6859SOL    HW121476   0.568   1.784   1.207
 6859SOL    HW221477   0.499   1.773   1.059
 6860SOL     OW21478   6.821   4.863   1.225
 6860SOL    HW121479   6.884   4.785   1.219
 6860SOL    HW221480   6.790   4.888   1.133
 6861SOL     OW21481   3.830   5.074   0.239
 6861SOL    HW121482   3.929   5.089   0.233
 6861SOL    HW221483   3.807   5.041   0.330
 6862SOL     OW21484   1.604   5.267   6.403
 6862SOL    HW121485   1.519   5.219   6.424
 6862SOL    HW221486   1.631   5.247   6.309
 6863SOL     OW21487   5.904   6.613   5.766
 6863SOL    HW121488   5.944   6.700   5.794
 6863SOL    HW221489   5.841   6.581   5.837
 6864SOL     OW21490   2.503   5.285   4.375
 6864SOL    HW121491   2.538   5.196   4.403
 6864SOL    HW221492   2.423   5.308   4.432
 6865SOL     OW21493   1.319   6.151   4.110
 6865SOL    HW121494   1.276   6.072   4.067
 6865SOL    HW221495   1.419   6.143   4.104
 6866SOL     OW21496   5.868   5.097   4.032
 6866SOL    HW121497   5.928   5.064   4.105
 6866SOL    HW221498   5.862   5.027   3.960
 6867SOL     OW21499   2.543   4.614   1.589
 6867SOL    HW121500   2.549   4.618   1.689
 6867SOL    HW221501   2.525   4.520   1.561
 6868SOL     OW21502   1.651   5.680   6.569
 6868SOL    HW121503   1.688   5.603   6.622
 6868SOL    HW221504   1.576   5.647   6.512
 6869SOL     OW21505   5.581   0.792   6.173
 6869SOL    HW121506   5.572   0.763   6.269
 6869SOL    HW221507   5.492   0.785   6.127
 6870SOL     OW21508   0.531   4.951   1.481
 6870SOL    HW121509   0.587   5.006   1.420
 6870SOL    HW221510   0.440   4.992   1.489
 6871SOL     OW21511   6.185   4.447   3.168
 6871SOL    HW121512   6.264   4.440   3.230
 6871SOL    HW221513   6.117   4.378   3.193
 6872SOL     OW21514   0.489   2.428   1.415
 6872SOL    HW121515   0.514   2.525   1.414
 6872SOL    HW221516   0.563   2.374   1.375
 6873SOL     OW21517   6.772   3.462   4.299
 6873SOL    HW121518   6.678   3.461   4.264
 6873SOL    HW221519   6.834   3.493   4.228
 6874SOL     OW21520   6.716   5.417   2.629
 6874SOL    HW121521   6.715   5.513   2.602
 6874SOL    HW221522   6.673   5.362   2.558
 6875SOL     OW21523   2.275   2.637   2.522
 6875SOL    HW121524   2.195   2.669   2.472
 6875SOL    HW221525   2.350   2.620   2.458
 6876SOL     OW21526   3.771   0.384   3.687
 6876SOL    HW121527   3.817   0.346   3.768
 6876SOL    HW221528   3.835   0.385   3.610
 6877SOL     OW21529   2.622   3.642   1.016
 6877SOL    HW121530   2.573   3.609   1.097
 6877SOL    HW221531   2.646   3.564   0.958
 6878SOL     OW21532   3.862   1.167   4.304
 6878SOL    HW121533   3.959   1.172   4.280
 6878SOL    HW221534   3.845   1.085   4.359
 6879SOL     OW21535   0.986   2.712   0.685
 6879SOL    HW121536   0.963   2.626   0.730
 6879SOL    HW221537   0.980   2.787   0.752
 6880SOL     OW21538   2.776   5.777   5.124
 6880SOL    HW121539   2.851   5.716   5.101
 6880SOL    HW221540   2.738   5.752   5.213
 6881SOL     OW21541   1.541   5.071   0.953
 6881SOL    HW121542   1.564   5.165   0.978
 6881SOL    HW221543   1.574   5.008   1.024
 6882SOL     OW21544   2.892   0.626   6.884
 6882SOL    HW121545   2.903   0.677   6.969
 6882SOL    HW221546   2.929   0.534   6.895
 6883SOL     OW21547   5.212   1.747   6.668
 6883SOL    HW121548   5.152   1.817   6.706
 6883SOL    HW221549   5.292   1.736   6.728
 6884SOL     OW21550   1.581   4.316   4.139
 6884SOL    HW121551   1.551   4.411   4.150
 6884SOL    HW221552   1.636   4.290   4.218
 6885SOL     OW21553   4.063   4.819   4.168
 6885SOL    HW121554   4.007   4.840   4.087
 6885SOL    HW221555   4.008   4.830   4.250
 6886SOL     OW21556   0.010   0.562   4.118
 6886SOL    HW121557   6.954   0.574   4.058
 6886SOL    HW221558   7.003   0.543   4.211
 6887SOL     OW21559   5.141   5.739   6.334
 6887SOL    HW121560   5.232   5.750   6.375
 6887SOL    HW221561   5.102   5.828   6.315
 6888SOL     OW21562   5.383   5.711   6.448
 6888SOL    HW121563   5.456   5.767   6.409
 6888SOL    HW221564   5.392   5.617   6.416
 6889SOL     OW21565   1.463   2.710   5.281
 6889SOL    HW121566   1.469   2.645   5.205
 6889SOL    HW221567   1.369   2.742   5.290
 6890SOL     OW21568   4.273   6.641   1.946
 6890SOL    HW121569   4.337   6.566   1.928
 6890SOL    HW221570   4.292   6.679   2.036
 6891SOL     OW21571   1.966   3.917   2.796
 6891SOL    HW121572   1.885   3.908   2.738
 6891SOL    HW221573   2.048   3.895   2.743
 6892SOL     OW21574   3.426   1.838   3.391
 6892SOL    HW121575   3.401   1.851   3.295
 6892SOL    HW221576   3.512   1.786   3.397
 6893SOL     OW21577   4.651   4.799   0.277
 6893SOL    HW121578   4.641   4.839   0.186
 6893SOL    HW221579   4.748   4.782   0.295
 6894SOL     OW21580   5.894   5.300   0.369
 6894SOL    HW121581   5.953   5.229   0.332
 6894SOL    HW221582   5.829   5.259   0.433
 6895SOL     OW21583   3.322   4.791   0.816
 6895SOL    HW121584   3.389   4.783   0.742
 6895SOL    HW221585   3.291   4.886   0.822
 6896SOL     OW21586   2.632   0.434   3.856
 6896SOL    HW121587   2.638   0.508   3.789
 6896SOL    HW221588   2.574   0.361   3.819
 6897SOL     OW21589   4.783   3.513   5.365
 6897SOL    HW121590   4.704   3.456   5.387
 6897SOL    HW221591   4.766   3.564   5.281
 6898SOL     OW21592   4.515   1.773   1.956
 6898SOL    HW121593   4.522   1.723   2.042
 6898SOL    HW221594   4.433   1.743   1.907
 6899SOL     OW21595   5.085   6.140   1.565
 6899SOL    HW121596   5.113   6.236   1.570
 6899SOL    HW221597   4.987   6.136   1.547
 6900SOL     OW21598   6.257   5.776   5.217
 6900SOL    HW121599   6.276   5.685   5.182
 6900SOL    HW221600   6.271   5.777   5.316
 6901SOL     OW21601   6.647   6.296   6.014
 6901SOL    HW121602   6.551   6.296   5.985
 6901SOL    HW221603   6.652   6.333   6.107
 6902SOL     OW21604   5.777   6.094   6.849
 6902SOL    HW121605   5.767   5.996   6.861
 6902SOL    HW221606   5.874   6.119   6.847
 6903SOL     OW21607   2.871   5.075   5.308
 6903SOL    HW121608   2.922   5.098   5.226
 6903SOL    HW221609   2.810   4.997   5.289
 6904SOL     OW21610   6.718   0.724   4.584
 6904SOL    HW121611   6.698   0.703   4.488
 6904SOL    HW221612   6.797   0.786   4.588
 6905SOL     OW21613   5.553   6.288   6.523
 6905SOL    HW121614   5.620   6.223   6.488
 6905SOL    HW221615   5.590   6.332   6.606
 6906SOL     OW21616   4.365   1.491   4.410
 6906SOL    HW121617   4.445   1.501   4.351
 6906SOL    HW221618   4.314   1.409   4.382
 6907SOL     OW21619   5.403   2.935   1.590
 6907SOL    HW121620   5.452   2.904   1.672
 6907SOL    HW221621   5.433   3.027   1.566
 6908SOL     OW21622   0.901   5.169   6.702
 6908SOL    HW121623   0.979   5.229   6.688
 6908SOL    HW221624   0.836   5.179   6.627
 6909SOL     OW21625   4.956   4.262   1.731
 6909SOL    HW121626   4.921   4.239   1.640
 6909SOL    HW221627   4.893   4.227   1.801
 6910SOL     OW21628   1.012   2.736   3.542
 6910SOL    HW121629   1.049   2.827   3.526
 6910SOL    HW221630   0.922   2.728   3.500
 6911SOL     OW21631   4.502   6.462   4.263
 6911SOL    HW121632   4.514   6.550   4.309
 6911SOL    HW221633   4.469   6.477   4.170
 6912SOL     OW21634   3.661   3.859   6.088
 6912SOL    HW121635   3.628   3.949   6.060
 6912SOL    HW221636   3.723   3.823   6.018
 6913SOL     OW21637   5.263   6.100   3.449
 6913SOL    HW121638   5.253   6.141   3.540
 6913SOL    HW221639   5.217   6.011   3.447
 6914SOL     OW21640   6.143   4.114   3.532
 6914SOL    HW121641   6.175   4.043   3.470
 6914SOL    HW221642   6.063   4.159   3.494
 6915SOL     OW21643   6.043   2.979   1.842
 6915SOL    HW121644   5.943   2.989   1.846
 6915SOL    HW221645   6.085   3.067   1.864
 6916SOL     OW21646   5.747   1.818   6.589
 6916SOL    HW121647   5.825   1.880   6.597
 6916SOL    HW221648   5.732   1.771   6.677
 6917SOL     OW21649   3.342   0.025   1.643
 6917SOL    HW121650   3.355   0.025   1.544
 6917SOL    HW221651   3.399   0.096   1.684
 6918SOL     OW21652   0.405   2.854   4.841
 6918SOL    HW121653   0.355   2.934   4.874
 6918SOL    HW221654   0.470   2.882   4.770
 6919SOL     OW21655   6.068   5.822   3.864
 6919SOL    HW121656   6.067   5.731   3.824
 6919SOL    HW221657   6.159   5.862   3.853
 6920SOL     OW21658   3.961   6.125   5.570
 6920SOL    HW121659   3.893   6.118   5.643
 6920SOL    HW221660   4.031   6.191   5.597
 6921SOL     OW21661   5.046   5.914   3.703
 6921SOL    HW121662   4.978   5.841   3.715
 6921SOL    HW221663   5.028   5.988   3.767
 6922SOL     OW21664   1.825   6.246   4.954
 6922SOL    HW121665   1.904   6.290   4.911
 6922SOL    HW221666   1.749   6.311   4.959
 6923SOL     OW21667   5.071   5.461   3.327
 6923SOL    HW121668   5.060   5.546   3.379
 6923SOL    HW221669   5.039   5.474   3.233
 6924SOL     OW21670   2.150   4.345   6.434
 6924SOL    HW121671   2.237   4.322   6.390
 6924SOL    HW221672   2.076   4.336   6.368
 6925SOL     OW21673   4.912   6.069   3.885
 6925SOL    HW121674   4.852   6.059   3.806
 6925SOL    HW221675   4.880   6.144   3.943
 6926SOL     OW21676   3.035   2.165   0.840
 6926SOL    HW121677   3.024   2.213   0.927
 6926SOL    HW221678   2.948   2.167   0.791
 6927SOL     OW21679   3.984   2.912   5.846
 6927SOL    HW121680   3.917   2.930   5.917
 6927SOL    HW221681   4.075   2.907   5.887
 6928SOL     OW21682   5.758   5.969   1.114
 6928SOL    HW121683   5.830   5.945   1.049
 6928SOL    HW221684   5.681   5.907   1.102
 6929SOL     OW21685   5.449   5.851   1.412
 6929SOL    HW121686   5.457   5.943   1.448
 6929SOL    HW221687   5.365   5.843   1.359
 6930SOL     OW21688   1.038   0.537   2.163
 6930SOL    HW121689   1.004   0.623   2.124
 6930SOL    HW221690   0.992   0.460   2.120
 6931SOL     OW21691   1.982   0.648   2.275
 6931SOL    HW121692   2.024   0.733   2.242
 6931SOL    HW221693   1.926   0.668   2.355
 6932SOL     OW21694   4.371   6.472   0.233
 6932SOL    HW121695   4.461   6.511   0.215
 6932SOL    HW221696   4.301   6.541   0.218
 6933SOL     OW21697   3.242   6.014   5.680
 6933SOL    HW121698   3.143   6.018   5.672
 6933SOL    HW221699   3.283   6.018   5.588
 6934SOL     OW21700   4.462   3.661   6.140
 6934SOL    HW121701   4.411   3.670   6.054
 6934SOL    HW221702   4.398   3.642   6.215
 6935SOL     OW21703   4.541   5.691   2.453
 6935SOL    HW121704   4.480   5.675   2.375
 6935SOL    HW221705   4.498   5.655   2.536
 6936SOL     OW21706   6.481   1.931   3.095
 6936SOL    HW121707   6.453   1.886   3.010
 6936SOL    HW221708   6.485   2.030   3.081
 6937SOL     OW21709   6.420   6.164   0.417
 6937SOL    HW121710   6.373   6.079   0.442
 6937SOL    HW221711   6.456   6.157   0.324
 6938SOL     OW21712   6.048   2.485   5.131
 6938SOL    HW121713   6.009   2.441   5.211
 6938SOL    HW221714   5.978   2.540   5.085
 6939SOL     OW21715   1.152   5.030   1.873
 6939SOL    HW121716   1.095   4.949   1.885
 6939SOL    HW221717   1.237   5.005   1.828
 6940SOL     OW21718   3.658   0.358   6.160
 6940SOL    HW121719   3.626   0.288   6.223
 6940SOL    HW221720   3.732   0.321   6.104
 6941SOL     OW21721   3.358   4.000   1.853
 6941SOL    HW121722   3.320   4.027   1.765
 6941SOL    HW221723   3.301   4.037   1.927
 6942SOL     OW21724   6.269   6.518   1.535
 6942SOL    HW121725   6.355   6.518   1.483
 6942SOL    HW221726   6.216   6.600   1.512
 6943SOL     OW21727   3.190   5.783   0.240
 6943SOL    HW121728   3.243   5.760   0.159
 6943SOL    HW221729   3.182   5.702   0.298
 6944SOL     OW21730   0.509   4.285   6.785
 6944SOL    HW121731   0.485   4.273   6.688
 6944SOL    HW221732   0.607   4.303   6.793
 6945SOL     OW21733   6.256   1.313   6.686
 6945SOL    HW121734   6.179   1.376   6.696
 6945SOL    HW221735   6.286   1.312   6.591
 6946SOL     OW21736   4.334   6.795   1.135
 6946SOL    HW121737   4.267   6.724   1.157
 6946SOL    HW221738   4.377   6.775   1.047
 6947SOL     OW21739   3.286   5.653   6.436
 6947SOL    HW121740   3.378   5.691   6.424
 6947SOL    HW221741   3.280   5.566   6.388
 6948SOL     OW21742   0.710   0.455   0.322
 6948SOL    HW121743   0.745   0.396   0.250
 6948SOL    HW221744   0.610   0.455   0.319
 6949SOL     OW21745   3.988   0.106   3.496
 6949SOL    HW121746   3.892   0.082   3.511
 6949SOL    HW221747   4.009   0.191   3.543
 6950SOL     OW21748   1.346   2.017   4.649
 6950SOL    HW121749   1.428   1.996   4.596
 6950SOL    HW221750   1.267   2.023   4.588
 6951SOL     OW21751   6.072   5.225   5.641
 6951SOL    HW121752   6.111   5.315   5.621
 6951SOL    HW221753   6.052   5.217   5.738
 6952SOL     OW21754   0.660   6.230   3.225
 6952SOL    HW121755   0.607   6.287   3.288
 6952SOL    HW221756   0.648   6.264   3.132
 6953SOL     OW21757   4.299   6.555   1.461
 6953SOL    HW121758   4.241   6.584   1.385
 6953SOL    HW221759   4.315   6.632   1.522
 6954SOL     OW21760   6.928   4.085   2.575
 6954SOL    HW121761   6.946   4.094   2.477
 6954SOL    HW221762   6.842   4.130   2.598
 6955SOL     OW21763   5.981   0.078   2.143
 6955SOL    HW121764   6.006   0.089   2.239
 6955SOL    HW221765   5.881   0.074   2.136
 6956SOL     OW21766   5.875   6.062   3.865
 6956SOL    HW121767   5.896   5.965   3.878
 6956SOL    HW221768   5.958   6.115   3.878
 6957SOL     OW21769   6.144   5.413   0.469
 6957SOL    HW121770   6.061   5.398   0.414
 6957SOL    HW221771   6.154   5.339   0.535
 6958SOL     OW21772   4.154   3.437   4.364
 6958SOL    HW121773   4.129   3.341   4.368
 6958SOL    HW221774   4.124   3.476   4.276
 6959SOL     OW21775   2.170   3.048   3.815
 6959SOL    HW121776   2.083   3.061   3.768
 6959SOL    HW221777   2.245   3.075   3.756
 6960SOL     OW21778   2.024   4.424   1.044
 6960SOL    HW121779   2.105   4.482   1.044
 6960SOL    HW221780   1.979   4.430   1.133
 6961SOL     OW21781   5.731   1.050   4.063
 6961SOL    HW121782   5.797   0.996   4.116
 6961SOL    HW221783   5.780   1.109   3.999
 6962SOL     OW21784   4.905   6.317   1.943
 6962SOL    HW121785   4.999   6.347   1.928
 6962SOL    HW221786   4.845   6.359   1.875
 6963SOL     OW21787   5.213   6.038   0.867
 6963SOL    HW121788   5.279   6.113   0.868
 6963SOL    HW221789   5.151   6.048   0.946
 6964SOL     OW21790   3.425   1.071   5.404
 6964SOL    HW121791   3.419   1.164   5.439
 6964SOL    HW221792   3.334   1.030   5.402
 6965SOL     OW21793   1.114   1.135   0.731
 6965SOL    HW121794   1.041   1.095   0.677
 6965SOL    HW221795   1.089   1.134   0.828
 6966SOL     OW21796   1.210   2.261   2.824
 6966SOL    HW121797   1.304   2.292   2.814
 6966SOL    HW221798   1.202   2.203   2.906
 6967SOL     OW21799   2.929   1.074   5.549
 6967SOL    HW121800   2.943   0.975   5.560
 6967SOL    HW221801   2.987   1.108   5.476
 6968SOL     OW21802   3.602   0.096   3.079
 6968SOL    HW121803   3.672   0.167   3.073
 6968SOL    HW221804   3.561   0.082   2.989
 6969SOL     OW21805   3.055   2.468   1.612
 6969SOL    HW121806   3.020   2.459   1.705
 6969SOL    HW221807   3.143   2.515   1.614
 6970SOL     OW21808   4.624   4.602   5.400
 6970SOL    HW121809   4.648   4.661   5.477
 6970SOL    HW221810   4.594   4.513   5.435
 6971SOL     OW21811   6.691   4.565   1.130
 6971SOL    HW121812   6.636   4.637   1.088
 6971SOL    HW221813   6.782   4.600   1.151
 6972SOL     OW21814   5.211   4.690   2.909
 6972SOL    HW121815   5.311   4.683   2.903
 6972SOL    HW221816   5.181   4.662   3.000
 6973SOL     OW21817   1.070   3.091   3.596
 6973SOL    HW121818   1.163   3.072   3.565
 6973SOL    HW221819   1.072   3.167   3.661
 6974SOL     OW21820   2.945   3.747   3.120
 6974SOL    HW121821   2.846   3.750   3.107
 6974SOL    HW221822   2.990   3.793   3.043
 6975SOL     OW21823   1.617   6.494   6.619
 6975SOL    HW121824   1.523   6.468   6.599
 6975SOL    HW221825   1.618   6.580   6.670
 6976SOL     OW21826   5.503   5.107   5.240
 6976SOL    HW121827   5.410   5.135   5.217
 6976SOL    HW221828   5.548   5.180   5.291
 6977SOL     OW21829   3.855   2.957   1.609
 6977SOL    HW121830   3.774   2.903   1.582
 6977SOL    HW221831   3.842   2.993   1.701
 6978SOL     OW21832   5.870   1.451   2.274
 6978SOL    HW121833   5.810   1.380   2.310
 6978SOL    HW221834   5.848   1.468   2.178
 6979SOL     OW21835   0.793   4.121   1.662
 6979SOL    HW121836   0.846   4.065   1.727
 6979SOL    HW221837   0.839   4.122   1.574
 6980SOL     OW21838   2.198   1.255   3.867
 6980SOL    HW121839   2.205   1.267   3.768
 6980SOL    HW221840   2.123   1.311   3.903
 6981SOL     OW21841   3.724   2.899   6.051
 6981SOL    HW121842   3.672   2.985   6.059
 6981SOL    HW221843   3.671   2.833   5.998
 6982SOL     OW21844   1.467   1.080   4.873
 6982SOL    HW121845   1.387   1.116   4.921
 6982SOL    HW221846   1.497   0.996   4.917
 6983SOL     OW21847   4.017   1.613   3.329
 6983SOL    HW121848   3.978   1.630   3.420
 6983SOL    HW221849   4.005   1.695   3.272
 6984SOL     OW21850   1.541   1.530   3.354
 6984SOL    HW121851   1.569   1.435   3.343
 6984SOL    HW221852   1.462   1.535   3.416
 6985SOL     OW21853   5.884   4.866   0.970
 6985SOL    HW121854   5.948   4.799   1.007
 6985SOL    HW221855   5.907   4.957   1.005
 6986SOL     OW21856   2.581   0.281   6.139
 6986SOL    HW121857   2.655   0.249   6.079
 6986SOL    HW221858   2.525   0.204   6.166
 6987SOL     OW21859   6.080   1.410   6.323
 6987SOL    HW121860   6.033   1.353   6.255
 6987SOL    HW221861   6.038   1.500   6.325
 6988SOL     OW21862   0.776   6.918   6.215
 6988SOL    HW121863   0.863   6.890   6.174
 6988SOL    HW221864   0.792   6.946   6.310
 6989SOL     OW21865   0.887   3.859   3.424
 6989SOL    HW121866   0.955   3.800   3.379
 6989SOL    HW221867   0.840   3.807   3.495
 6990SOL     OW21868   4.941   2.611   1.383
 6990SOL    HW121869   4.866   2.580   1.442
 6990SOL    HW221870   4.991   2.531   1.349
 6991SOL     OW21871   4.379   4.610   3.428
 6991SOL    HW121872   4.437   4.532   3.405
 6991SOL    HW221873   4.389   4.632   3.525
 6992SOL     OW21874   5.486   6.891   6.302
 6992SOL    HW121875   5.511   6.831   6.377
 6992SOL    HW221876   5.393   6.870   6.272
 6993SOL     OW21877   6.000   0.589   3.034
 6993SOL    HW121878   6.054   0.517   3.079
 6993SOL    HW221879   6.046   0.677   3.046
 6994SOL     OW21880   0.078   2.677   4.353
 6994SOL    HW121881   0.068   2.755   4.415
 6994SOL    HW221882   0.163   2.629   4.373
 6995SOL     OW21883   0.340   4.966   6.374
 6995SOL    HW121884   0.298   4.961   6.464
 6995SOL    HW221885   0.291   4.905   6.311
 6996SOL     OW21886   1.567   0.262   6.573
 6996SOL    HW121887   1.659   0.300   6.568
 6996SOL    HW221888   1.500   0.331   6.543
 6997SOL     OW21889   0.089   5.851   5.416
 6997SOL    HW121890   0.012   5.914   5.405
 6997SOL    HW221891   0.059   5.769   5.465
 6998SOL     OW21892   2.069   0.384   1.559
 6998SOL    HW121893   2.096   0.471   1.517
 6998SOL    HW221894   2.131   0.364   1.635
 6999SOL     OW21895   2.143   2.189   6.903
 6999SOL    HW121896   2.121   2.098   6.867
 6999SOL    HW221897   2.156   2.253   6.828
 7000SOL     OW21898   5.144   7.001   1.547
 7000SOL    HW121899   5.121   6.950   1.631
 7000SOL    HW221900   5.240   6.983   1.524
 7001SOL     OW21901   2.025   3.292   6.280
 7001SOL    HW121902   1.981   3.275   6.191
 7001SOL    HW221903   2.088   3.369   6.272
 7002SOL     OW21904   1.603   5.436   3.821
 7002SOL    HW121905   1.553   5.413   3.737
 7002SOL    HW221906   1.595   5.534   3.840
 7003SOL     OW21907   4.275   5.818   0.662
 7003SOL    HW121908   4.283   5.732   0.613
 7003SOL    HW221909   4.213   5.879   0.612
 7004SOL     OW21910   0.884   5.339   2.104
 7004SOL    HW121911   0.904   5.250   2.063
 7004SOL    HW221912   0.927   5.411   2.049
 7005SOL     OW21913   0.829   6.837   0.624
 7005SOL    HW121914   0.916   6.870   0.660
 7005SOL    HW221915   0.845   6.761   0.561
 7006SOL     OW21916   4.920   5.137   3.856
 7006SOL    HW121917   4.880   5.214   3.905
 7006SOL    HW221918   4.879   5.131   3.765
 7007SOL     OW21919   4.384   0.506   4.126
 7007SOL    HW121920   4.472   0.517   4.172
 7007SOL    HW221921   4.378   0.570   4.049
 7008SOL     OW21922   0.396   4.172   4.461
 7008SOL    HW121923   0.299   4.183   4.438
 7008SOL    HW221924   0.428   4.253   4.510
 7009SOL     OW21925   4.928   6.434   2.514
 7009SOL    HW121926   4.934   6.458   2.611
 7009SOL    HW221927   4.859   6.364   2.501
 7010SOL     OW21928   5.454   4.026   3.830
 7010SOL    HW121929   5.453   4.020   3.930
 7010SOL    HW221930   5.407   3.947   3.792
 7011SOL     OW21931   3.159   6.340   7.015
 7011SOL    HW121932   3.094   6.358   0.066
 7011SOL    HW221933   3.235   6.285   0.026
 7012SOL     OW21934   0.408   1.469   1.297
 7012SOL    HW121935   0.455   1.554   1.321
 7012SOL    HW221936   0.314   1.471   1.332
 7013SOL     OW21937   1.028   6.899   0.167
 7013SOL    HW121938   0.960   6.971   0.149
 7013SOL    HW221939   1.109   6.940   0.208
 7014SOL     OW21940   4.383   3.508   0.549
 7014SOL    HW121941   4.297   3.464   0.576
 7014SOL    HW221942   4.369   3.606   0.543
 7015SOL     OW21943   6.402   4.364   1.310
 7015SOL    HW121944   6.376   4.304   1.386
 7015SOL    HW221945   6.346   4.446   1.313
 7016SOL     OW21946   3.371   4.805   1.377
 7016SOL    HW121947   3.330   4.773   1.291
 7016SOL    HW221948   3.298   4.822   1.444
 7017SOL     OW21949   2.449   4.958   3.378
 7017SOL    HW121950   2.526   4.992   3.431
 7017SOL    HW221951   2.396   5.035   3.343
 7018SOL     OW21952   5.510   3.383   4.412
 7018SOL    HW121953   5.592   3.418   4.457
 7018SOL    HW221954   5.464   3.458   4.364
 7019SOL     OW21955   3.991   4.454   0.371
 7019SOL    HW121956   3.980   4.541   0.322
 7019SOL    HW221957   3.968   4.468   0.467
 7020SOL     OW21958   6.626   4.230   5.856
 7020SOL    HW121959   6.646   4.304   5.921
 7020SOL    HW221960   6.651   4.142   5.896
 7021SOL     OW21961   1.656   2.396   5.453
 7021SOL    HW121962   1.588   2.326   5.476
 7021SOL    HW221963   1.706   2.369   5.371
 7022SOL     OW21964   4.586   6.825   6.055
 7022SOL    HW121965   4.570   6.776   5.969
 7022SOL    HW221966   4.532   6.784   6.128
 7023SOL     OW21967   1.289   2.553   3.546
 7023SOL    HW121968   1.208   2.517   3.592
 7023SOL    HW221969   1.303   2.648   3.572
 7024SOL     OW21970   2.746   3.591   5.401
 7024SOL    HW121971   2.754   3.498   5.365
 7024SOL    HW221972   2.779   3.655   5.332
 7025SOL     OW21973   3.483   0.641   0.771
 7025SOL    HW121974   3.388   0.645   0.799
 7025SOL    HW221975   3.488   0.615   0.674
 7026SOL     OW21976   3.206   1.979   2.128
 7026SOL    HW121977   3.162   1.889   2.131
 7026SOL    HW221978   3.293   1.973   2.079
 7027SOL     OW21979   1.797   5.149   4.138
 7027SOL    HW121980   1.785   5.246   4.121
 7027SOL    HW221981   1.893   5.131   4.159
 7028SOL     OW21982   2.921   1.513   3.336
 7028SOL    HW121983   2.906   1.539   3.241
 7028SOL    HW221984   3.019   1.498   3.352
 7029SOL     OW21985   4.712   4.510   5.057
 7029SOL    HW121986   4.777   4.436   5.075
 7029SOL    HW221987   4.741   4.561   4.976
 7030SOL     OW21988   1.232   0.738   5.035
 7030SOL    HW121989   1.162   0.685   5.081
 7030SOL    HW221990   1.261   0.690   4.952
 7031SOL     OW21991   3.930   5.662   6.178
 7031SOL    HW121992   4.009   5.602   6.178
 7031SOL    HW221993   3.848   5.610   6.202
 7032SOL     OW21994   4.519   1.439   3.958
 7032SOL    HW121995   4.547   1.505   3.889
 7032SOL    HW221996   4.590   1.369   3.968
 7033SOL     OW21997   1.638   2.252   3.322
 7033SOL    HW121998   1.592   2.319   3.379
 7033SOL    HW221999   1.593   2.247   3.233
 7034SOL     OW22000   0.216   0.679   3.197
 7034SOL    HW122001   0.281   0.750   3.224
 7034SOL    HW222002   0.266   0.596   3.172
 7035SOL     OW22003   1.560   0.061   0.629
 7035SOL    HW122004   1.533   0.077   0.534
 7035SOL    HW222005   1.480   0.036   0.683
 7036SOL     OW22006   0.353   0.425   3.151
 7036SOL    HW122007   0.328   0.373   3.069
 7036SOL    HW222008   0.317   0.378   3.232
 7037SOL     OW22009   1.614   1.508   6.673
 7037SOL    HW122010   1.536   1.537   6.729
 7037SOL    HW222011   1.692   1.490   6.732
 7038SOL     OW22012   2.243   3.519   5.172
 7038SOL    HW122013   2.270   3.570   5.090
 7038SOL    HW222014   2.324   3.497   5.226
 7039SOL     OW22015   1.454   5.437   2.842
 7039SOL    HW122016   1.409   5.391   2.919
 7039SOL    HW222017   1.551   5.411   2.840
 7040SOL     OW22018   5.367   2.479   5.779
 7040SOL    HW122019   5.393   2.547   5.848
 7040SOL    HW222020   5.435   2.479   5.705
 7041SOL     OW22021   6.684   1.629   1.831
 7041SOL    HW122022   6.593   1.621   1.871
 7041SOL    HW222023   6.690   1.568   1.752
 7042SOL     OW22024   4.412   5.665   5.382
 7042SOL    HW122025   4.360   5.627   5.459
 7042SOL    HW222026   4.448   5.590   5.326
 7043SOL     OW22027   2.294   4.769   2.889
 7043SOL    HW122028   2.358   4.737   2.819
 7043SOL    HW222029   2.335   4.761   2.979
 7044SOL     OW22030   6.109   4.651   4.607
 7044SOL    HW122031   6.105   4.655   4.707
 7044SOL    HW222032   6.204   4.647   4.577
 7045SOL     OW22033   4.930   5.344   2.832
 7045SOL    HW122034   4.872   5.425   2.823
 7045SOL    HW222035   4.920   5.286   2.752
 7046SOL     OW22036   2.752   1.661   3.502
 7046SOL    HW122037   2.660   1.658   3.463
 7046SOL    HW222038   2.810   1.596   3.453
 7047SOL     OW22039   6.408   0.890   2.519
 7047SOL    HW122040   6.419   0.976   2.470
 7047SOL    HW222041   6.394   0.908   2.616
 7048SOL     OW22042   5.793   6.773   4.001
 7048SOL    HW122043   5.822   6.721   4.081
 7048SOL    HW222044   5.868   6.778   3.935
 7049SOL     OW22045   3.657   1.862   0.673
 7049SOL    HW122046   3.610   1.931   0.729
 7049SOL    HW222047   3.607   1.776   0.679
 7050SOL     OW22048   4.208   3.798   1.663
 7050SOL    HW122049   4.200   3.701   1.683
 7050SOL    HW222050   4.117   3.835   1.644
 7051SOL     OW22051   6.631   6.648   1.108
 7051SOL    HW122052   6.652   6.613   1.200
 7051SOL    HW222053   6.713   6.686   1.068
 7052SOL     OW22054   5.980   1.752   3.191
 7052SOL    HW122055   5.891   1.749   3.147
 7052SOL    HW222056   6.020   1.660   3.193
 7053SOL     OW22057   1.833   2.902   4.747
 7053SOL    HW122058   1.875   2.827   4.799
 7053SOL    HW222059   1.770   2.953   4.807
 7054SOL     OW22060   6.802   6.743   0.394
 7054SOL    HW122061   6.798   6.644   0.407
 7054SOL    HW222062   6.875   6.765   0.329
 7055SOL     OW22063   2.869   0.187   6.478
 7055SOL    HW122064   2.831   0.095   6.464
 7055SOL    HW222065   2.827   0.250   6.412
 7056SOL     OW22066   6.752   5.253   1.399
 7056SOL    HW122067   6.790   5.160   1.399
 7056SOL    HW222068   6.793   5.305   1.475
 7057SOL     OW22069   2.730   4.653   3.831
 7057SOL    HW122070   2.714   4.736   3.776
 7057SOL    HW222071   2.646   4.600   3.838
 7058SOL     OW22072   5.788   3.146   5.281
 7058SOL    HW122073   5.693   3.124   5.305
 7058SOL    HW222074   5.810   3.238   5.311
 7059SOL     OW22075   0.525   1.815   3.876
 7059SOL    HW122076   0.499   1.911   3.866
 7059SOL    HW222077   0.460   1.769   3.935
 7060SOL     OW22078   3.370   0.092   1.970
 7060SOL    HW122079   3.329   0.027   2.033
 7060SOL    HW222080   3.329   0.081   1.879
 7061SOL     OW22081   6.996   3.205   3.767
 7061SOL    HW122082   6.967   3.113   3.741
 7061SOL    HW222083   0.063   3.223   3.728
 7062SOL     OW22084   3.450   2.349   5.327
 7062SOL    HW122085   3.502   2.284   5.271
 7062SOL    HW222086   3.362   2.367   5.284
 7063SOL     OW22087   1.821   6.277   2.109
 7063SOL    HW122088   1.856   6.345   2.173
 7063SOL    HW222089   1.813   6.189   2.156
 7064SOL     OW22090   3.704   2.196   0.007
 7064SOL    HW122091   3.789   2.237   6.997
 7064SOL    HW222092   3.634   2.202   6.959
 7065SOL     OW22093   4.315   3.681   5.919
 7065SOL    HW122094   4.283   3.659   5.827
 7065SOL    HW222095   4.292   3.776   5.941
 7066SOL     OW22096   4.068   0.100   6.121
 7066SOL    HW122097   4.104   0.192   6.137
 7066SOL    HW222098   4.135   0.047   6.069
 7067SOL     OW22099   1.335   3.144   5.426
 7067SOL    HW122100   1.386   3.144   5.340
 7067SOL    HW222101   1.377   3.209   5.489
 7068SOL     OW22102   6.606   4.482   4.732
 7068SOL    HW122103   6.678   4.520   4.790
 7068SOL    HW222104   6.523   4.470   4.787
 7069SOL     OW22105   4.994   2.278   4.585
 7069SOL    HW122106   4.983   2.353   4.650
 7069SOL    HW222107   5.080   2.231   4.603
 7070SOL     OW22108   0.305   6.863   4.796
 7070SOL    HW122109   0.308   6.913   4.709
 7070SOL    HW222110   0.216   6.878   4.840
 7071SOL     OW22111   3.707   6.348   5.936
 7071SOL    HW122112   3.652   6.431   5.929
 7071SOL    HW222113   3.723   6.326   6.032
 7072SOL     OW22114   1.606   5.873   0.005
 7072SOL    HW122115   1.645   5.962   0.029
 7072SOL    HW222116   1.512   5.885   6.997
 7073SOL     OW22117   5.694   0.156   3.793
 7073SOL    HW122118   5.673   0.068   3.751
 7073SOL    HW222119   5.617   0.186   3.849
 7074SOL     OW22120   6.323   2.647   1.703
 7074SOL    HW122121   6.235   2.676   1.741
 7074SOL    HW222122   6.315   2.636   1.604
 7075SOL     OW22123   1.710   4.162   4.978
 7075SOL    HW122124   1.713   4.236   5.044
 7075SOL    HW222125   1.803   4.142   4.945
 7076SOL     OW22126   5.344   3.030   0.256
 7076SOL    HW122127   5.333   3.027   0.355
 7076SOL    HW222128   5.440   3.042   0.233
 7077SOL     OW22129   1.999   4.268   3.846
 7077SOL    HW122130   1.972   4.331   3.919
 7077SOL    HW222131   2.090   4.294   3.812
 7078SOL     OW22132   6.944   6.105   1.960
 7078SOL    HW122133   7.014   6.034   1.968
 7078SOL    HW222134   6.907   6.125   2.051
 7079SOL     OW22135   0.930   0.200   4.313
 7079SOL    HW122136   0.950   0.118   4.260
 7079SOL    HW222137   0.984   0.276   4.277
 7080SOL     OW22138   3.466   1.624   4.763
 7080SOL    HW122139   3.402   1.684   4.811
 7080SOL    HW222140   3.554   1.671   4.753
 7081SOL     OW22141   1.795   6.077   0.137
 7081SOL    HW122142   1.810   6.000   0.200
 7081SOL    HW222143   1.867   6.145   0.149
 7082SOL     OW22144   6.270   4.566   0.179
 7082SOL    HW122145   6.362   4.584   0.144
 7082SOL    HW222146   6.203   4.590   0.109
 7083SOL     OW22147   1.638   1.189   2.026
 7083SOL    HW122148   1.710   1.152   2.085
 7083SOL    HW222149   1.628   1.287   2.045
 7084SOL     OW22150   0.701   5.570   5.595
 7084SOL    HW122151   0.753   5.486   5.609
 7084SOL    HW222152   0.719   5.606   5.504
 7085SOL     OW22153   0.444   1.640   2.164
 7085SOL    HW122154   0.451   1.617   2.067
 7085SOL    HW222155   0.534   1.669   2.197
 7086SOL     OW22156   6.032   0.508   5.834
 7086SOL    HW122157   6.060   0.599   5.866
 7086SOL    HW222158   6.096   0.440   5.868
 7087SOL     OW22159   6.261   4.211   2.919
 7087SOL    HW122160   6.295   4.221   3.013
 7087SOL    HW222161   6.166   4.181   2.921
 7088SOL     OW22162   5.001   2.644   4.047
 7088SOL    HW122163   4.931   2.706   4.081
 7088SOL    HW222164   4.984   2.552   4.081
 7089SOL     OW22165   2.388   2.569   4.818
 7089SOL    HW122166   2.303   2.518   4.803
 7089SOL    HW222167   2.370   2.667   4.805
 7090SOL     OW22168   1.784   1.103   0.520
 7090SOL    HW122169   1.853   1.164   0.558
 7090SOL    HW222170   1.710   1.156   0.479
 7091SOL     OW22171   0.181   1.469   0.825
 7091SOL    HW122172   0.157   1.501   0.917
 7091SOL    HW222173   0.110   1.406   0.792
 7092SOL     OW22174   4.270   2.914   5.402
 7092SOL    HW122175   4.238   2.822   5.379
 7092SOL    HW222176   4.354   2.934   5.351
 7093SOL     OW22177   3.383   4.124   2.313
 7093SOL    HW122178   3.353   4.031   2.291
 7093SOL    HW222179   3.303   4.182   2.329
 7094SOL     OW22180   0.177   6.410   5.918
 7094SOL    HW122181   0.173   6.316   5.954
 7094SOL    HW222182   0.271   6.443   5.923
 7095SOL     OW22183   3.205   4.587   6.091
 7095SOL    HW122184   3.206   4.536   6.176
 7095SOL    HW222185   3.269   4.546   6.026
 7096SOL     OW22186   6.597   0.457   2.309
 7096SOL    HW122187   6.643   0.539   2.343
 7096SOL    HW222188   6.631   0.377   2.359
 7097SOL     OW22189   4.905   0.552   1.497
 7097SOL    HW122190   4.911   0.600   1.584
 7097SOL    HW222191   4.831   0.485   1.500
 7098SOL     OW22192   2.279   5.696   5.461
 7098SOL    HW122193   2.191   5.670   5.421
 7098SOL    HW222194   2.307   5.625   5.526
 7099SOL     OW22195   3.590   1.738   5.046
 7099SOL    HW122196   3.652   1.757   5.122
 7099SOL    HW222197   3.553   1.646   5.057
 7100SOL     OW22198   6.729   3.414   0.052
 7100SOL    HW122199   6.718   3.472   0.132
 7100SOL    HW222200   6.641   3.400   0.007
 7101SOL     OW22201   2.722   1.724   5.711
 7101SOL    HW122202   2.737   1.647   5.773
 7101SOL    HW222203   2.667   1.693   5.633
 7102SOL     OW22204   5.376   0.407   1.151
 7102SOL    HW122205   5.348   0.318   1.113
 7102SOL    HW222206   5.465   0.396   1.197
 7103SOL     OW22207   5.794   5.725   1.885
 7103SOL    HW122208   5.885   5.699   1.855
 7103SOL    HW222209   5.797   5.758   1.979
 7104SOL     OW22210   6.658   3.867   2.615
 7104SOL    HW122211   6.737   3.911   2.572
 7104SOL    HW222212   6.619   3.928   2.684
 7105SOL     OW22213   2.773   3.317   5.326
 7105SOL    HW122214   2.866   3.281   5.327
 7105SOL    HW222215   2.711   3.250   5.369
 7106SOL     OW22216   3.464   3.002   2.056
 7106SOL    HW122217   3.514   3.004   1.969
 7106SOL    HW222218   3.529   2.995   2.132
 7107SOL     OW22219   4.774   0.161   0.827
 7107SOL    HW122220   4.694   0.157   0.767
 7107SOL    HW222221   4.744   0.167   0.922
 7108SOL     OW22222   3.170   5.937   2.386
 7108SOL    HW122223   3.209   6.008   2.327
 7108SOL    HW222224   3.169   5.969   2.481
 7109SOL     OW22225   1.899   0.165   5.691
 7109SOL    HW122226   1.993   0.135   5.706
 7109SOL    HW222227   1.879   0.244   5.750
 7110SOL     OW22228   3.132   5.755   4.374
 7110SOL    HW122229   3.189   5.709   4.442
 7110SOL    HW222230   3.042   5.711   4.371
 7111SOL     OW22231   0.813   2.275   5.047
 7111SOL    HW122232   0.811   2.354   4.986
 7111SOL    HW222233   0.905   2.264   5.084
 7112SOL     OW22234   1.506   5.312   4.457
 7112SOL    HW122235   1.595   5.268   4.444
 7112SOL    HW222236   1.443   5.281   4.386
 7113SOL     OW22237   3.302   3.731   4.980
 7113SOL    HW122238   3.388   3.719   4.932
 7113SOL    HW222239   3.297   3.822   5.021
 7114SOL     OW22240   5.051   5.690   0.778
 7114SOL    HW122241   5.124   5.678   0.845
 7114SOL    HW222242   5.031   5.787   0.766
 7115SOL     OW22243   4.262   2.837   0.123
 7115SOL    HW122244   4.321   2.904   0.168
 7115SOL    HW222245   4.224   2.775   0.191
 7116SOL     OW22246   5.301   4.406   2.962
 7116SOL    HW122247   5.334   4.428   2.870
 7116SOL    HW222248   5.378   4.407   3.026
 7117SOL     OW22249   0.453   6.249   5.123
 7117SOL    HW122250   0.402   6.324   5.165
 7117SOL    HW222251   0.418   6.162   5.155
 7118SOL     OW22252   3.533   4.516   6.216
 7118SOL    HW122253   3.446   4.474   6.240
 7118SOL    HW222254   3.606   4.448   6.225
 7119SOL     OW22255   5.549   1.041   4.252
 7119SOL    HW122256   5.617   1.034   4.179
 7119SOL    HW222257   5.477   1.104   4.224
 7120SOL     OW22258   3.434   1.989   1.945
 7120SOL    HW122259   3.395   2.040   1.869
 7120SOL    HW222260   3.517   2.036   1.977
 7121SOL     OW22261   0.869   6.656   3.819
 7121SOL    HW122262   0.884   6.558   3.803
 7121SOL    HW222263   0.777   6.680   3.786
 7122SOL     OW22264   1.033   0.954   5.818
 7122SOL    HW122265   1.132   0.950   5.831
 7122SOL    HW222266   1.004   1.049   5.809
 7123SOL     OW22267   1.593   5.060   3.853
 7123SOL    HW122268   1.515   5.120   3.873
 7123SOL    HW222269   1.590   5.034   3.757
 7124SOL     OW22270   0.032   2.568   1.923
 7124SOL    HW122271   0.100   2.535   1.989
 7124SOL    HW222272   0.061   2.545   1.831
 7125SOL     OW22273   0.846   0.111   0.320
 7125SOL    HW122274   0.766   0.097   0.262
 7125SOL    HW222275   0.817   0.122   0.415
 7126SOL     OW22276   3.388   5.131   0.636
 7126SOL    HW122277   3.429   5.145   0.727
 7126SOL    HW222278   3.427   5.196   0.571
 7127SOL     OW22279   2.626   5.983   6.969
 7127SOL    HW122280   2.705   5.935   6.931
 7127SOL    HW222281   2.553   5.917   6.989
 7128SOL     OW22282   3.219   3.962   6.649
 7128SOL    HW122283   3.208   3.890   6.580
 7128SOL    HW222284   3.203   3.924   6.740
 7129SOL     OW22285   2.232   1.064   0.570
 7129SOL    HW122286   2.317   1.054   0.517
 7129SOL    HW222287   2.160   1.009   0.528
 7130SOL     OW22288   3.203   6.159   4.304
 7130SOL    HW122289   3.275   6.133   4.368
 7130SOL    HW222290   3.221   6.115   4.215
 7131SOL     OW22291   2.642   1.004   1.375
 7131SOL    HW122292   2.629   0.955   1.290
 7131SOL    HW222293   2.739   1.022   1.390
 7132SOL     OW22294   4.021   4.377   6.905
 7132SOL    HW122295   4.000   4.280   6.890
 7132SOL    HW222296   4.054   4.389   6.999
 7133SOL     OW22297   4.302   4.628   5.344
 7133SOL    HW122298   4.287   4.553   5.279
 7133SOL    HW222299   4.280   4.597   5.436
 7134SOL     OW22300   4.712   6.908   1.981
 7134SOL    HW122301   4.766   6.877   2.059
 7134SOL    HW222302   4.666   6.993   2.005
 7135SOL     OW22303   1.911   2.251   3.199
 7135SOL    HW122304   1.972   2.293   3.265
 7135SOL    HW222305   1.817   2.257   3.231
 7136SOL     OW22306   3.012   1.446   0.618
 7136SOL    HW122307   3.031   1.349   0.606
 7136SOL    HW222308   3.095   1.499   0.601
 7137SOL     OW22309   2.880   1.534   0.326
 7137SOL    HW122310   2.968   1.489   0.342
 7137SOL    HW222311   2.888   1.631   0.347
 7138SOL     OW22312   2.114   2.086   0.954
 7138SOL    HW122313   2.207   2.062   0.982
 7138SOL    HW222314   2.101   2.185   0.966
 7139SOL     OW22315   5.241   4.950   1.679
 7139SOL    HW122316   5.298   4.878   1.638
 7139SOL    HW222317   5.280   5.039   1.659
 7140SOL     OW22318   6.113   4.052   1.076
 7140SOL    HW122319   6.080   4.064   0.982
 7140SOL    HW222320   6.210   4.074   1.080
 7141SOL     OW22321   3.278   6.530   0.962
 7141SOL    HW122322   3.241   6.618   0.993
 7141SOL    HW222323   3.330   6.544   0.878
 7142SOL     OW22324   4.302   6.519   3.712
 7142SOL    HW122325   4.360   6.540   3.791
 7142SOL    HW222326   4.208   6.546   3.732
 7143SOL     OW22327   2.108   3.626   0.084
 7143SOL    HW122328   2.171   3.658   0.014
 7143SOL    HW222329   2.107   3.526   0.083
 7144SOL     OW22330   1.751   1.301   3.031
 7144SOL    HW122331   1.774   1.208   3.058
 7144SOL    HW222332   1.825   1.339   2.975
 7145SOL     OW22333   3.919   0.906   6.428
 7145SOL    HW122334   3.848   0.836   6.424
 7145SOL    HW222335   3.906   0.963   6.509
 7146SOL     OW22336   1.458   0.644   6.337
 7146SOL    HW122337   1.453   0.694   6.251
 7146SOL    HW222338   1.494   0.703   6.409
 7147SOL     OW22339   0.332   6.026   3.334
 7147SOL    HW122340   0.383   5.983   3.409
 7147SOL    HW222341   0.343   6.125   3.338
 7148SOL     OW22342   6.743   6.202   1.423
 7148SOL    HW122343   6.832   6.176   1.387
 7148SOL    HW222344   6.756   6.255   1.507
 7149SOL     OW22345   0.374   6.146   4.003
 7149SOL    HW122346   0.411   6.164   4.094
 7149SOL    HW222347   0.337   6.053   4.000
 7150SOL     OW22348   3.383   3.075   0.585
 7150SOL    HW122349   3.436   3.155   0.612
 7150SOL    HW222350   3.444   3.006   0.545
 7151SOL     OW22351   3.165   6.759   1.091
 7151SOL    HW122352   3.076   6.794   1.062
 7151SOL    HW222353   3.177   6.775   1.189
 7152SOL     OW22354   0.001   0.464   5.811
 7152SOL    HW122355   7.004   0.366   5.805
 7152SOL    HW222356   6.994   0.499   5.899
 7153SOL     OW22357   4.182   5.180   1.722
 7153SOL    HW122358   4.195   5.221   1.812
 7153SOL    HW222359   4.163   5.253   1.655
 7154SOL     OW22360   4.953   6.148   2.699
 7154SOL    HW122361   4.922   6.240   2.722
 7154SOL    HW222362   4.950   6.090   2.780
 7155SOL     OW22363   3.055   3.620   1.382
 7155SOL    HW122364   3.130   3.676   1.416
 7155SOL    HW222365   3.037   3.545   1.445
 7156SOL     OW22366   6.474   3.684   2.672
 7156SOL    HW122367   6.563   3.727   2.657
 7156SOL    HW222368   6.402   3.750   2.649
 7157SOL     OW22369   6.983   4.992   1.907
 7157SOL    HW122370   6.967   5.068   1.844
 7157SOL    HW222371   6.963   4.905   1.861
 7158SOL     OW22372   1.215   0.195   3.866
 7158SOL    HW122373   1.118   0.218   3.860
 7158SOL    HW222374   1.266   0.248   3.798
 7159SOL     OW22375   1.273   5.202   3.934
 7159SOL    HW122376   1.263   5.296   3.901
 7159SOL    HW222377   1.204   5.143   3.892
 7160SOL     OW22378   6.348   6.888   3.117
 7160SOL    HW122379   6.349   6.916   3.213
 7160SOL    HW222380   6.388   6.960   3.060
 7161SOL     OW22381   3.309   3.795   3.095
 7161SOL    HW122382   3.311   3.696   3.108
 7161SOL    HW222383   3.327   3.816   2.998
 7162SOL     OW22384   1.380   5.243   6.253
 7162SOL    HW122385   1.357   5.157   6.206
 7162SOL    HW222386   1.301   5.304   6.252
 7163SOL     OW22387   2.788   0.670   2.484
 7163SOL    HW122388   2.861   0.602   2.493
 7163SOL    HW222389   2.704   0.624   2.455
 7164SOL     OW22390   3.277   0.850   4.978
 7164SOL    HW122391   3.249   0.754   4.990
 7164SOL    HW222392   3.199   0.903   4.943
 7165SOL     OW22393   5.735   6.469   1.487
 7165SOL    HW122394   5.784   6.552   1.514
 7165SOL    HW222395   5.677   6.490   1.408
 7166SOL     OW22396   5.386   1.521   0.276
 7166SOL    HW122397   5.305   1.464   0.263
 7166SOL    HW222398   5.369   1.612   0.238
 7167SOL     OW22399   4.974   3.310   4.664
 7167SOL    HW122400   5.045   3.308   4.594
 7167SOL    HW222401   4.990   3.237   4.730
 7168SOL     OW22402   2.275   1.980   3.184
 7168SOL    HW122403   2.324   1.996   3.270
 7168SOL    HW222404   2.287   2.059   3.125
 7169SOL     OW22405   6.898   4.370   5.680
 7169SOL    HW122406   6.813   4.370   5.627
 7169SOL    HW222407   6.911   4.281   5.723
 7170SOL     OW22408   4.639   0.288   2.608
 7170SOL    HW122409   4.696   0.347   2.666
 7170SOL    HW222410   4.576   0.236   2.666
 7171SOL     OW22411   6.032   4.221   0.604
 7171SOL    HW122412   6.066   4.309   0.571
 7171SOL    HW222413   5.952   4.194   0.551
 7172SOL     OW22414   1.721   0.091   4.618
 7172SOL    HW122415   1.792   0.161   4.617
 7172SOL    HW222416   1.635   0.129   4.587
 7173SOL     OW22417   6.098   4.715   0.009
 7173SOL    HW122418   6.159   4.789   0.035
 7173SOL    HW222419   6.007   4.751   7.015
 7174SOL     OW22420   0.462   4.142   0.685
 7174SOL    HW122421   0.545   4.148   0.741
 7174SOL    HW222422   0.487   4.146   0.589
 7175SOL     OW22423   5.958   2.857   5.659
 7175SOL    HW122424   6.047   2.813   5.651
 7175SOL    HW222425   5.905   2.839   5.576
 7176SOL     OW22426   6.709   1.821   3.199
 7176SOL    HW122427   6.625   1.853   3.155
 7176SOL    HW222428   6.782   1.817   3.131
 7177SOL     OW22429   1.370   4.889   5.383
 7177SOL    HW122430   1.360   4.857   5.289
 7177SOL    HW222431   1.286   4.869   5.434
 7178SOL     OW22432   0.046   1.721   5.866
 7178SOL    HW122433   0.029   1.651   5.796
 7178SOL    HW222434   0.080   1.803   5.822
 7179SOL     OW22435   1.600   3.730   4.679
 7179SOL    HW122436   1.574   3.635   4.665
 7179SOL    HW222437   1.669   3.756   4.610
 7180SOL     OW22438   2.142   3.907   0.262
 7180SOL    HW122439   2.142   3.821   0.313
 7180SOL    HW222440   2.227   3.957   0.280
 7181SOL     OW22441   2.496   0.618   0.265
 7181SOL    HW122442   2.444   0.641   0.348
 7181SOL    HW222443   2.460   0.534   0.225
 7182SOL     OW22444   0.341   3.875   3.904
 7182SOL    HW122445   0.432   3.876   3.864
 7182SOL    HW222446   0.273   3.895   3.833
 7183SOL     OW22447   1.721   5.731   1.795
 7183SOL    HW122448   1.666   5.773   1.723
 7183SOL    HW222449   1.668   5.659   1.840
 7184SOL     OW22450   7.017   1.305   4.254
 7184SOL    HW122451   6.994   1.268   4.164
 7184SOL    HW222452   0.079   1.266   4.285
 7185SOL     OW22453   5.653   1.243   5.673
 7185SOL    HW122454   5.740   1.196   5.687
 7185SOL    HW222455   5.597   1.236   5.755
 7186SOL     OW22456   6.570   1.746   1.575
 7186SOL    HW122457   6.561   1.772   1.671
 7186SOL    HW222458   6.482   1.709   1.542
 7187SOL     OW22459   3.018   3.960   5.350
 7187SOL    HW122460   3.007   3.888   5.281
 7187SOL    HW222461   2.928   3.993   5.377
 7188SOL     OW22462   4.525   6.115   6.718
 7188SOL    HW122463   4.505   6.088   6.812
 7188SOL    HW222464   4.521   6.034   6.659
 7189SOL     OW22465   6.790   1.786   5.918
 7189SOL    HW122466   6.804   1.759   6.013
 7189SOL    HW222467   6.878   1.786   5.870
 7190SOL     OW22468   6.495   5.397   1.363
 7190SOL    HW122469   6.421   5.344   1.321
 7190SOL    HW222470   6.568   5.335   1.392
 7191SOL     OW22471   1.527   4.832   2.858
 7191SOL    HW122472   1.597   4.779   2.811
 7191SOL    HW222473   1.456   4.771   2.892
 7192SOL     OW22474   1.515   4.299   5.768
 7192SOL    HW122475   1.608   4.266   5.753
 7192SOL    HW222476   1.454   4.220   5.781
 7193SOL     OW22477   1.403   2.480   1.814
 7193SOL    HW122478   1.404   2.408   1.883
 7193SOL    HW222479   1.429   2.567   1.856
 7194SOL     OW22480   1.928   3.053   0.048
 7194SOL    HW122481   1.989   3.050   0.127
 7194SOL    HW222482   1.837   3.083   0.078
 7195SOL     OW22483   0.032   4.228   0.769
 7195SOL    HW122484   0.011   4.290   0.693
 7195SOL    HW222485   7.006   4.257   0.850
 7196SOL     OW22486   2.453   3.621   1.682
 7196SOL    HW122487   2.409   3.710   1.675
 7196SOL    HW222488   2.404   3.564   1.748
 7197SOL     OW22489   0.771   3.151   5.561
 7197SOL    HW122490   0.845   3.218   5.557
 7197SOL    HW222491   0.687   3.193   5.524
 7198SOL     OW22492   0.123   1.302   0.354
 7198SOL    HW122493   0.151   1.387   0.400
 7198SOL    HW222494   0.204   1.251   0.325
 7199SOL     OW22495   0.644   0.127   2.398
 7199SOL    HW122496   0.586   0.200   2.433
 7199SOL    HW222497   0.588   0.058   2.353
 7200SOL     OW22498   2.066   2.639   6.580
 7200SOL    HW122499   2.033   2.608   6.670
 7200SOL    HW222500   2.161   2.612   6.568
 7201SOL     OW22501   1.122   6.037   3.743
 7201SOL    HW122502   1.155   6.008   3.833
 7201SOL    HW222503   1.050   6.106   3.755
 7202SOL     OW22504   4.401   0.024   6.991
 7202SOL    HW122505   4.391   6.973   0.034
 7202SOL    HW222506   4.477   0.083   7.018
 7203SOL     OW22507   6.774   1.187   1.113
 7203SOL    HW122508   6.690   1.138   1.137
 7203SOL    HW222509   6.849   1.153   1.170
 7204SOL     OW22510   0.153   1.010   5.552
 7204SOL    HW122511   0.054   1.022   5.559
 7204SOL    HW222512   0.173   0.929   5.497
 7205SOL     OW22513   1.434   4.097   5.252
 7205SOL    HW122514   1.413   4.127   5.159
 7205SOL    HW222515   1.532   4.106   5.269
 7206SOL     OW22516   1.276   0.440   2.298
 7206SOL    HW122517   1.211   0.490   2.242
 7206SOL    HW222518   1.345   0.503   2.333
 7207SOL     OW22519   3.781   0.183   4.123
 7207SOL    HW122520   3.717   0.117   4.163
 7207SOL    HW222521   3.851   0.206   4.191
 7208SOL     OW22522   4.931   6.989   3.769
 7208SOL    HW122523   4.886   6.917   3.821
 7208SOL    HW222524   4.962   0.037   3.832
 7209SOL     OW22525   2.483   3.058   1.709
 7209SOL    HW122526   2.517   3.152   1.704
 7209SOL    HW222527   2.560   2.995   1.715
 7210SOL     OW22528   3.681   1.570   2.965
 7210SOL    HW122529   3.686   1.482   3.012
 7210SOL    HW222530   3.645   1.558   2.873
 7211SOL     OW22531   2.058   6.076   4.994
 7211SOL    HW122532   1.995   6.127   4.935
 7211SOL    HW222533   2.141   6.130   5.007
 7212SOL     OW22534   0.515   6.474   4.933
 7212SOL    HW122535   0.606   6.434   4.925
 7212SOL    HW222536   0.462   6.424   5.000
 7213SOL     OW22537   3.814   6.598   6.820
 7213SOL    HW122538   3.788   6.532   6.890
 7213SOL    HW222539   3.913   6.610   6.821
 7214SOL     OW22540   0.044   0.218   4.747
 7214SOL    HW122541   0.005   0.288   4.687
 7214SOL    HW222542   0.005   0.228   4.839
 7215SOL     OW22543   6.663   2.904   3.934
 7215SOL    HW122544   6.759   2.919   3.954
 7215SOL    HW222545   6.608   2.930   4.014
 7216SOL     OW22546   3.317   0.256   1.332
 7216SOL    HW122547   3.313   0.163   1.295
 7216SOL    HW222548   3.283   0.321   1.263
 7217SOL     OW22549   2.157   3.730   3.578
 7217SOL    HW122550   2.195   3.729   3.485
 7217SOL    HW222551   2.067   3.773   3.577
 7218SOL     OW22552   6.080   2.559   3.958
 7218SOL    HW122553   6.159   2.526   4.010
 7218SOL    HW222554   6.110   2.626   3.890
 7219SOL     OW22555   3.612   0.568   2.954
 7219SOL    HW122556   3.649   0.475   2.962
 7219SOL    HW222557   3.635   0.620   3.036
 7220SOL     OW22558   6.525   3.843   4.313
 7220SOL    HW122559   6.432   3.831   4.349
 7220SOL    HW222560   6.591   3.802   4.376
 7221SOL     OW22561   3.803   5.913   5.209
 7221SOL    HW122562   3.728   5.879   5.152
 7221SOL    HW222563   3.816   5.852   5.287
 7222SOL     OW22564   6.232   6.501   3.440
 7222SOL    HW122565   6.171   6.492   3.519
 7222SOL    HW222566   6.177   6.516   3.358
 7223SOL     OW22567   3.194   1.607   1.168
 7223SOL    HW122568   3.233   1.646   1.085
 7223SOL    HW222569   3.120   1.666   1.201
 7224SOL     OW22570   5.176   1.943   3.984
 7224SOL    HW122571   5.238   1.971   4.057
 7224SOL    HW222572   5.158   2.021   3.924
 7225SOL     OW22573   1.358   6.242   0.556
 7225SOL    HW122574   1.327   6.212   0.465
 7225SOL    HW222575   1.426   6.177   0.591
 7226SOL     OW22576   6.176   0.354   2.100
 7226SOL    HW122577   6.244   0.325   2.033
 7226SOL    HW222578   6.222   0.394   2.179
 7227SOL     OW22579   2.606   2.006   1.269
 7227SOL    HW122580   2.567   1.953   1.344
 7227SOL    HW222581   2.532   2.049   1.216
 7228SOL     OW22582   1.097   1.862   2.891
 7228SOL    HW122583   1.190   1.828   2.902
 7228SOL    HW222584   1.033   1.786   2.892
 7229SOL     OW22585   1.294   5.763   6.043
 7229SOL    HW122586   1.305   5.849   5.993
 7229SOL    HW222587   1.304   5.780   6.141
 7230SOL     OW22588   3.654   5.594   4.935
 7230SOL    HW122589   3.610   5.506   4.952
 7230SOL    HW222590   3.616   5.634   4.851
 7231SOL     OW22591   3.834   0.218   5.989
 7231SOL    HW122592   3.788   0.158   5.924
 7231SOL    HW222593   3.922   0.178   6.015
 7232SOL     OW22594   4.987   6.125   2.148
 7232SOL    HW122595   4.987   6.213   2.101
 7232SOL    HW222596   4.972   6.139   2.246
 7233SOL     OW22597   1.736   1.681   4.115
 7233SOL    HW122598   1.721   1.777   4.139
 7233SOL    HW222599   1.652   1.629   4.131
 7234SOL     OW22600   5.731   2.782   3.046
 7234SOL    HW122601   5.659   2.718   3.017
 7234SOL    HW222602   5.702   2.875   3.026
 7235SOL     OW22603   6.868   4.864   2.431
 7235SOL    HW122604   6.879   4.962   2.416
 7235SOL    HW222605   6.905   4.839   2.520
 7236SOL     OW22606   2.770   1.843   1.871
 7236SOL    HW122607   2.776   1.919   1.937
 7236SOL    HW222608   2.857   1.834   1.824
 7237SOL     OW22609   4.445   0.368   4.647
 7237SOL    HW122610   4.405   0.371   4.739
 7237SOL    HW222611   4.517   0.437   4.640
 7238SOL     OW22612   4.295   1.971   6.399
 7238SOL    HW122613   4.201   1.960   6.367
 7238SOL    HW222614   4.311   1.911   6.477
 7239SOL     OW22615   0.483   1.847   1.689
 7239SOL    HW122616   0.544   1.848   1.610
 7239SOL    HW222617   0.506   1.770   1.748
 7240SOL     OW22618   0.863   1.439   6.226
 7240SOL    HW122619   0.783   1.413   6.280
 7240SOL    HW222620   0.834   1.488   6.144
 7241SOL     OW22621   2.496   0.374   0.862
 7241SOL    HW122622   2.424   0.366   0.931
 7241SOL    HW222623   2.577   0.414   0.904
 7242SOL     OW22624   6.503   5.764   6.848
 7242SOL    HW122625   6.437   5.774   6.773
 7242SOL    HW222626   6.594   5.748   6.809
 7243SOL     OW22627   6.636   4.285   6.855
 7243SOL    HW122628   6.581   4.367   6.843
 7243SOL    HW222629   6.582   4.204   6.832
 7244SOL     OW22630   6.735   0.893   1.808
 7244SOL    HW122631   6.645   0.907   1.766
 7244SOL    HW222632   6.725   0.835   1.889
 7245SOL     OW22633   1.625   3.027   4.908
 7245SOL    HW122634   1.617   3.125   4.928
 7245SOL    HW222635   1.597   2.975   4.989
 7246SOL     OW22636   0.916   0.644   3.805
 7246SOL    HW122637   0.945   0.739   3.808
 7246SOL    HW222638   0.944   0.598   3.890
 7247SOL     OW22639   2.084   2.019   4.694
 7247SOL    HW122640   2.014   1.954   4.665
 7247SOL    HW222641   2.069   2.107   4.650
 7248SOL     OW22642   2.924   1.414   2.854
 7248SOL    HW122643   2.825   1.399   2.847
 7248SOL    HW222644   2.960   1.441   2.765
 7249SOL     OW22645   5.746   4.953   2.210
 7249SOL    HW122646   5.762   4.969   2.113
 7249SOL    HW222647   5.829   4.975   2.262
 7250SOL     OW22648   5.785   6.382   5.951
 7250SOL    HW122649   5.869   6.402   5.901
 7250SOL    HW222650   5.706   6.416   5.899
 7251SOL     OW22651   0.666   6.534   5.332
 7251SOL    HW122652   0.748   6.558   5.280
 7251SOL    HW222653   0.667   6.436   5.353
 7252SOL     OW22654   3.612   2.930   2.312
 7252SOL    HW122655   3.596   2.881   2.398
 7252SOL    HW222656   3.667   3.011   2.331
 7253SOL     OW22657   1.665   6.310   0.125
 7253SOL    HW122658   1.735   6.351   0.066
 7253SOL    HW222659   1.686   6.213   0.140
 7254SOL     OW22660   4.734   5.126   4.660
 7254SOL    HW122661   4.680   5.048   4.630
 7254SOL    HW222662   4.793   5.099   4.736
 7255SOL     OW22663   3.981   3.499   0.313
 7255SOL    HW122664   3.965   3.454   0.401
 7255SOL    HW222665   4.016   3.591   0.328
 7256SOL     OW22666   3.076   5.940   4.666
 7256SOL    HW122667   3.086   5.914   4.570
 7256SOL    HW222668   3.117   6.030   4.681
 7257SOL     OW22669   6.449   1.665   3.582
 7257SOL    HW122670   6.437   1.740   3.518
 7257SOL    HW222671   6.470   1.701   3.673
 7258SOL     OW22672   5.040   1.340   2.651
 7258SOL    HW122673   5.071   1.300   2.565
 7258SOL    HW222674   5.107   1.321   2.723
 7259SOL     OW22675   2.264   3.721   1.131
 7259SOL    HW122676   2.334   3.780   1.171
 7259SOL    HW222677   2.264   3.731   1.031
 7260SOL     OW22678   4.722   1.542   1.375
 7260SOL    HW122679   4.805   1.599   1.378
 7260SOL    HW222680   4.716   1.487   1.458
 7261SOL     OW22681   1.516   3.821   1.941
 7261SOL    HW122682   1.611   3.798   1.959
 7261SOL    HW222683   1.480   3.878   2.016
 7262SOL     OW22684   5.495   2.553   6.337
 7262SOL    HW122685   5.439   2.622   6.293
 7262SOL    HW222686   5.518   2.481   6.270
 7263SOL     OW22687   0.934   6.673   6.812
 7263SOL    HW122688   0.962   6.595   6.756
 7263SOL    HW222689   0.899   6.641   6.899
 7264SOL     OW22690   5.005   1.978   6.519
 7264SOL    HW122691   5.050   2.011   6.436
 7264SOL    HW222692   5.006   2.050   6.588
 7265SOL     OW22693   5.810   4.982   5.819
 7265SOL    HW122694   5.897   4.941   5.792
 7265SOL    HW222695   5.743   4.970   5.745
 7266SOL     OW22696   5.647   0.020   2.617
 7266SOL    HW122697   5.568   0.024   2.677
 7266SOL    HW222698   5.617   0.009   2.523
 7267SOL     OW22699   6.363   6.328   5.088
 7267SOL    HW122700   6.427   6.253   5.109
 7267SOL    HW222701   6.297   6.337   5.162
 7268SOL     OW22702   6.189   5.161   3.802
 7268SOL    HW122703   6.176   5.224   3.878
 7268SOL    HW222704   6.286   5.137   3.795
 7269SOL     OW22705   0.425   6.057   6.407
 7269SOL    HW122706   0.497   5.990   6.419
 7269SOL    HW222707   0.341   6.011   6.378
 7270SOL     OW22708   0.785   3.402   5.088
 7270SOL    HW122709   0.801   3.470   5.160
 7270SOL    HW222710   0.691   3.410   5.055
 7271SOL     OW22711   0.407   5.692   4.019
 7271SOL    HW122712   0.332   5.755   4.035
 7271SOL    HW222713   0.464   5.727   3.944
 7272SOL     OW22714   6.007   5.302   2.022
 7272SOL    HW122715   5.972   5.213   1.993
 7272SOL    HW222716   6.107   5.303   2.013
 7273SOL     OW22717   5.802   4.555   1.473
 7273SOL    HW122718   5.734   4.574   1.403
 7273SOL    HW222719   5.787   4.614   1.552
 7274SOL     OW22720   0.125   5.507   5.987
 7274SOL    HW122721   0.156   5.588   6.036
 7274SOL    HW222722   0.036   5.478   6.022
 7275SOL     OW22723   0.293   6.406   2.500
 7275SOL    HW122724   0.356   6.429   2.574
 7275SOL    HW222725   0.243   6.323   2.523
 7276SOL     OW22726   4.698   1.237   2.959
 7276SOL    HW122727   4.723   1.333   2.951
 7276SOL    HW222728   4.648   1.223   3.044
 7277SOL     OW22729   4.680   0.793   4.283
 7277SOL    HW122730   4.778   0.795   4.302
 7277SOL    HW222731   4.658   0.858   4.210
 7278SOL     OW22732   3.602   2.423   1.465
 7278SOL    HW122733   3.556   2.368   1.396
 7278SOL    HW222734   3.540   2.438   1.542
 7279SOL     OW22735   4.589   4.290   6.026
 7279SOL    HW122736   4.563   4.344   5.945
 7279SOL    HW222737   4.663   4.227   6.001
 7280SOL     OW22738   0.301   1.917   3.557
 7280SOL    HW122739   0.346   1.829   3.566
 7280SOL    HW222740   0.325   1.958   3.468
 7281SOL     OW22741   1.916   1.307   0.634
 7281SOL    HW122742   2.013   1.329   0.635
 7281SOL    HW222743   1.890   1.265   0.721
 7282SOL     OW22744   5.833   5.351   2.252
 7282SOL    HW122745   5.896   5.325   2.179
 7282SOL    HW222746   5.847   5.447   2.275
 7283SOL     OW22747   5.137   0.396   2.736
 7283SOL    HW122748   5.104   0.420   2.828
 7283SOL    HW222749   5.236   0.408   2.732
 7284SOL     OW22750   0.269   2.567   5.880
 7284SOL    HW122751   0.283   2.480   5.925
 7284SOL    HW222752   0.250   2.552   5.783
 7285SOL     OW22753   5.558   3.117   2.487
 7285SOL    HW122754   5.489   3.177   2.448
 7285SOL    HW222755   5.596   3.159   2.570
 7286SOL     OW22756   2.210   0.675   0.807
 7286SOL    HW122757   2.232   0.591   0.758
 7286SOL    HW222758   2.286   0.701   0.865
 7287SOL     OW22759   0.904   2.269   6.019
 7287SOL    HW122760   0.878   2.173   6.011
 7287SOL    HW222761   0.966   2.293   5.944
 7288SOL     OW22762   1.825   0.948   1.644
 7288SOL    HW122763   1.762   0.961   1.720
 7288SOL    HW222764   1.833   0.850   1.624
 7289SOL     OW22765   5.589   1.683   3.965
 7289SOL    HW122766   5.492   1.676   3.944
 7289SOL    HW222767   5.642   1.642   3.890
 7290SOL     OW22768   3.809   1.446   5.191
 7290SOL    HW122769   3.824   1.544   5.206
 7290SOL    HW222770   3.822   1.425   5.094
 7291SOL     OW22771   1.480   6.611   0.054
 7291SOL    HW122772   1.384   6.636   0.039
 7291SOL    HW222773   1.486   6.513   0.075
 7292SOL     OW22774   3.432   1.042   3.349
 7292SOL    HW122775   3.362   1.101   3.389
 7292SOL    HW222776   3.485   1.000   3.422
 7293SOL     OW22777   1.407   2.396   4.809
 7293SOL    HW122778   1.346   2.386   4.730
 7293SOL    HW222779   1.401   2.314   4.866
 7294SOL     OW22780   2.779   4.847   6.584
 7294SOL    HW122781   2.796   4.937   6.624
 7294SOL    HW222782   2.681   4.838   6.562
 7295SOL     OW22783   5.483   3.275   1.361
 7295SOL    HW122784   5.487   3.280   1.261
 7295SOL    HW222785   5.431   3.353   1.396
 7296SOL     OW22786   3.500   6.183   2.200
 7296SOL    HW122787   3.498   6.109   2.267
 7296SOL    HW222788   3.575   6.167   2.135
 7297SOL     OW22789   4.406   0.323   1.582
 7297SOL    HW122790   4.384   0.419   1.566
 7297SOL    HW222791   4.329   0.266   1.553
 7298SOL     OW22792   5.073   5.476   6.329
 7298SOL    HW122793   5.119   5.565   6.322
 7298SOL    HW222794   5.020   5.459   6.246
 7299SOL     OW22795   0.930   2.649   1.106
 7299SOL    HW122796   0.969   2.580   1.045
 7299SOL    HW222797   0.926   2.612   1.199
 7300SOL     OW22798   0.327   6.763   2.417
 7300SOL    HW122799   0.244   6.797   2.460
 7300SOL    HW222800   0.395   6.741   2.487
 7301SOL     OW22801   6.094   1.411   4.142
 7301SOL    HW122802   6.143   1.494   4.169
 7301SOL    HW222803   6.156   1.349   4.094
 7302SOL     OW22804   0.984   2.292   5.433
 7302SOL    HW122805   1.008   2.232   5.357
 7302SOL    HW222806   1.043   2.372   5.433
 7303SOL     OW22807   3.769   1.108   0.210
 7303SOL    HW122808   3.791   1.204   0.197
 7303SOL    HW222809   3.676   1.090   0.176
 7304SOL     OW22810   3.014   5.769   1.982
 7304SOL    HW122811   3.103   5.760   1.938
 7304SOL    HW222812   3.022   5.745   2.079
 7305SOL     OW22813   5.186   0.636   0.300
 7305SOL    HW122814   5.194   0.734   0.282
 7305SOL    HW222815   5.193   0.620   0.398
 7306SOL     OW22816   4.431   1.902   0.794
 7306SOL    HW122817   4.490   1.824   0.772
 7306SOL    HW222818   4.380   1.930   0.713
 7307SOL     OW22819   2.685   6.480   2.632
 7307SOL    HW122820   2.617   6.432   2.688
 7307SOL    HW222821   2.765   6.502   2.689
 7308SOL     OW22822   6.549   2.653   5.335
 7308SOL    HW122823   6.536   2.734   5.278
 7308SOL    HW222824   6.606   2.676   5.414
 7309SOL     OW22825   3.866   4.840   0.557
 7309SOL    HW122826   3.954   4.859   0.515
 7309SOL    HW222827   3.798   4.820   0.487
 7310SOL     OW22828   2.370   4.005   0.629
 7310SOL    HW122829   2.372   4.070   0.553
 7310SOL    HW222830   2.276   3.996   0.662
 7311SOL     OW22831   1.669   2.038   1.534
 7311SOL    HW122832   1.723   2.097   1.593
 7311SOL    HW222833   1.690   1.943   1.554
 7312SOL     OW22834   1.227   3.465   5.302
 7312SOL    HW122835   1.129   3.453   5.290
 7312SOL    HW222836   1.244   3.539   5.368
 7313SOL     OW22837   1.742   0.817   0.626
 7313SOL    HW122838   1.772   0.911   0.608
 7313SOL    HW222839   1.813   0.769   0.678
 7314SOL     OW22840   6.976   5.389   6.238
 7314SOL    HW122841   6.987   5.365   6.334
 7314SOL    HW222842   0.035   5.365   6.187
 7315SOL     OW22843   6.507   6.353   2.373
 7315SOL    HW122844   6.583   6.400   2.328
 7315SOL    HW222845   6.425   6.410   2.368
 7316SOL     OW22846   3.981   3.674   6.509
 7316SOL    HW122847   3.897   3.641   6.553
 7316SOL    HW222848   3.960   3.754   6.453
 7317SOL     OW22849   4.900   1.351   2.356
 7317SOL    HW122850   4.887   1.425   2.289
 7317SOL    HW222851   4.993   1.355   2.392
 7318SOL     OW22852   2.932   0.448   1.909
 7318SOL    HW122853   2.902   0.526   1.854
 7318SOL    HW222854   2.903   0.460   2.004
 7319SOL     OW22855   6.849   3.352   6.827
 7319SOL    HW122856   6.818   3.347   6.922
 7319SOL    HW222857   6.785   3.304   6.767
 7320SOL     OW22858   0.789   3.856   2.441
 7320SOL    HW122859   0.693   3.860   2.412
 7320SOL    HW222860   0.803   3.775   2.498
 7321SOL     OW22861   1.681   0.293   6.040
 7321SOL    HW122862   1.656   0.323   6.132
 7321SOL    HW222863   1.628   0.343   5.973
 7322SOL     OW22864   0.045   2.965   3.210
 7322SOL    HW122865   0.090   2.986   3.123
 7322SOL    HW222866   6.970   2.983   3.202
 7323SOL     OW22867   1.990   2.727   1.470
 7323SOL    HW122868   2.037   2.811   1.444
 7323SOL    HW222869   2.024   2.696   1.558
 7324SOL     OW22870   5.403   5.888   1.828
 7324SOL    HW122871   5.326   5.907   1.767
 7324SOL    HW222872   5.376   5.820   1.896
 7325SOL     OW22873   2.948   0.690   6.618
 7325SOL    HW122874   3.014   0.640   6.562
 7325SOL    HW222875   2.952   0.657   6.712
 7326SOL     OW22876   2.692   6.347   6.315
 7326SOL    HW122877   2.659   6.300   6.233
 7326SOL    HW222878   2.761   6.290   6.360
 7327SOL     OW22879   6.196   1.720   6.058
 7327SOL    HW122880   6.131   1.783   6.100
 7327SOL    HW222881   6.278   1.714   6.116
 7328SOL     OW22882   3.481   0.475   6.004
 7328SOL    HW122883   3.433   0.425   5.932
 7328SOL    HW222884   3.555   0.418   6.040
 7329SOL     OW22885   0.122   3.924   1.018
 7329SOL    HW122886   0.165   3.975   0.943
 7329SOL    HW222887   0.037   3.883   0.986
 7330SOL     OW22888   1.980   2.877   6.830
 7330SOL    HW122889   1.950   2.784   6.849
 7330SOL    HW222890   1.924   2.942   6.882
 7331SOL     OW22891   5.225   6.176   1.296
 7331SOL    HW122892   5.176   6.135   1.373
 7331SOL    HW222893   5.298   6.235   1.331
 7332SOL     OW22894   3.360   6.139   0.038
 7332SOL    HW122895   3.429   6.197   0.082
 7332SOL    HW222896   3.302   6.098   0.109
 7333SOL     OW22897   6.756   3.435   2.326
 7333SOL    HW122898   6.818   3.363   2.355
 7333SOL    HW222899   6.669   3.425   2.373
 7334SOL     OW22900   2.374   5.800   6.702
 7334SOL    HW122901   2.336   5.883   6.660
 7334SOL    HW222902   2.316   5.722   6.679
 7335SOL     OW22903   1.398   2.830   3.537
 7335SOL    HW122904   1.380   2.841   3.439
 7335SOL    HW222905   1.497   2.831   3.553
 7336SOL     OW22906   1.479   6.577   2.573
 7336SOL    HW122907   1.499   6.557   2.669
 7336SOL    HW222908   1.488   6.493   2.519
 7337SOL     OW22909   0.805   3.332   1.073
 7337SOL    HW122910   0.808   3.289   1.163
 7337SOL    HW222911   0.885   3.390   1.060
 7338SOL     OW22912   4.875   1.703   1.898
 7338SOL    HW122913   4.830   1.719   1.986
 7338SOL    HW222914   4.974   1.704   1.911
 7339SOL     OW22915   6.322   0.223   4.487
 7339SOL    HW122916   6.367   0.256   4.570
 7339SOL    HW222917   6.245   0.283   4.465
 7340SOL     OW22918   3.071   1.121   0.619
 7340SOL    HW122919   3.103   1.031   0.649
 7340SOL    HW222920   2.972   1.128   0.635
 7341SOL     OW22921   0.685   4.134   5.786
 7341SOL    HW122922   0.717   4.041   5.803
 7341SOL    HW222923   0.596   4.147   5.829
 7342SOL     OW22924   6.845   1.160   6.746
 7342SOL    HW122925   6.770   1.099   6.722
 7342SOL    HW222926   6.812   1.231   6.808
 7343SOL     OW22927   6.108   4.144   1.626
 7343SOL    HW122928   6.078   4.237   1.605
 7343SOL    HW222929   6.029   4.083   1.625
 7344SOL     OW22930   0.734   1.238   5.835
 7344SOL    HW122931   0.658   1.222   5.772
 7344SOL    HW222932   0.704   1.220   5.929
 7345SOL     OW22933   4.719   5.010   5.283
 7345SOL    HW122934   4.730   5.013   5.382
 7345SOL    HW222935   4.627   4.980   5.260
 7346SOL     OW22936   4.496   5.177   1.924
 7346SOL    HW122937   4.418   5.214   1.974
 7346SOL    HW222938   4.469   5.092   1.878
 7347SOL     OW22939   6.901   2.558   0.493
 7347SOL    HW122940   6.939   2.487   0.434
 7347SOL    HW222941   6.925   2.648   0.458
 7348SOL     OW22942   1.874   3.961   4.779
 7348SOL    HW122943   1.833   4.019   4.709
 7348SOL    HW222944   1.964   3.997   4.803
 7349SOL     OW22945   5.047   1.385   1.346
 7349SOL    HW122946   5.057   1.362   1.249
 7349SOL    HW222947   4.992   1.315   1.392
 7350SOL     OW22948   1.944   2.893   5.548
 7350SOL    HW122949   1.963   2.974   5.493
 7350SOL    HW222950   1.918   2.921   5.641
 7351SOL     OW22951   5.572   6.531   5.243
 7351SOL    HW122952   5.513   6.484   5.309
 7351SOL    HW222953   5.577   6.476   5.159
 7352SOL     OW22954   2.410   1.674   3.272
 7352SOL    HW122955   2.480   1.741   3.248
 7352SOL    HW222956   2.327   1.721   3.303
 7353SOL     OW22957   1.158   0.587   6.786
 7353SOL    HW122958   1.171   0.655   6.714
 7353SOL    HW222959   1.247   0.557   6.820
 7354SOL     OW22960   0.636   2.198   5.405
 7354SOL    HW122961   0.654   2.293   5.380
 7354SOL    HW222962   0.597   2.149   5.327
 7355SOL     OW22963   1.630   0.552   0.654
 7355SOL    HW122964   1.618   0.516   0.746
 7355SOL    HW222965   1.663   0.646   0.658
 7356SOL     OW22966   3.873   4.052   5.966
 7356SOL    HW122967   3.776   4.076   5.969
 7356SOL    HW222968   3.896   4.018   5.875
 7357SOL     OW22969   3.950   6.776   1.344
 7357SOL    HW122970   3.972   6.869   1.316
 7357SOL    HW222971   3.852   6.760   1.334
 7358SOL     OW22972   6.094   3.602   3.115
 7358SOL    HW122973   6.097   3.702   3.116
 7358SOL    HW222974   6.183   3.567   3.086
 7359SOL     OW22975   3.222   1.573   6.447
 7359SOL    HW122976   3.141   1.517   6.433
 7359SOL    HW222977   3.195   1.669   6.457
 7360SOL     OW22978   2.996   3.657   5.646
 7360SOL    HW122979   3.037   3.747   5.632
 7360SOL    HW222980   2.987   3.610   5.558
 7361SOL     OW22981   4.420   7.018   2.208
 7361SOL    HW122982   4.456   6.937   2.254
 7361SOL    HW222983   4.483   0.022   2.135
 7362SOL     OW22984   1.570   4.489   5.001
 7362SOL    HW122985   1.572   4.466   4.904
 7362SOL    HW222986   1.657   4.464   5.043
 7363SOL     OW22987   4.494   1.854   1.566
 7363SOL    HW122988   4.505   1.759   1.537
 7363SOL    HW222989   4.558   1.874   1.640
 7364SOL     OW22990   4.519   0.696   1.362
 7364SOL    HW122991   4.603   0.720   1.314
 7364SOL    HW222992   4.445   0.685   1.297
 7365SOL     OW22993   1.089   5.708   1.602
 7365SOL    HW122994   1.164   5.716   1.537
 7365SOL    HW222995   1.042   5.621   1.590
 7366SOL     OW22996   2.705   6.129   6.732
 7366SOL    HW122997   2.798   6.142   6.769
 7366SOL    HW222998   2.643   6.104   6.806
 7367SOL     OW22999   4.797   2.670   1.153
 7367SOL    HW123000   4.782   2.591   1.094
 7367SOL    HW223001   4.857   2.644   1.229
 7368SOL     OW23002   3.655   2.984   2.817
 7368SOL    HW123003   3.566   2.949   2.847
 7368SOL    HW223004   3.717   2.987   2.896
 7369SOL     OW23005   3.540   2.641   0.266
 7369SOL    HW123006   3.533   2.544   0.289
 7369SOL    HW223007   3.580   2.651   0.175
 7370SOL     OW23008   2.662   0.799   4.108
 7370SOL    HW123009   2.759   0.807   4.129
 7370SOL    HW223010   2.609   0.819   4.191
 7371SOL     OW23011   2.462   6.987   3.623
 7371SOL    HW123012   2.405   7.006   3.542
 7371SOL    HW223013   2.468   6.888   3.636
 7372SOL     OW23014   4.248   1.013   4.570
 7372SOL    HW123015   4.274   0.991   4.664
 7372SOL    HW223016   4.329   1.043   4.519
 7373SOL     OW23017   6.107   1.312   3.543
 7373SOL    HW123018   6.102   1.341   3.639
 7373SOL    HW223019   6.148   1.386   3.489
 7374SOL     OW23020   2.173   1.992   5.191
 7374SOL    HW123021   2.148   1.897   5.212
 7374SOL    HW223022   2.100   2.052   5.223
 7375SOL     OW23023   1.991   2.158   2.670
 7375SOL    HW123024   1.997   2.166   2.769
 7375SOL    HW223025   2.082   2.143   2.631
 7376SOL     OW23026   2.671   1.854   0.590
 7376SOL    HW123027   2.605   1.794   0.635
 7376SOL    HW223028   2.723   1.802   0.523
 7377SOL     OW23029   5.442   4.315   0.824
 7377SOL    HW123030   5.361   4.372   0.832
 7377SOL    HW223031   5.416   4.222   0.796
 7378SOL     OW23032   0.668   0.795   6.103
 7378SOL    HW123033   0.705   0.844   6.182
 7378SOL    HW223034   0.688   0.698   6.111
 7379SOL     OW23035   2.945   1.608   3.055
 7379SOL    HW123036   2.852   1.644   3.050
 7379SOL    HW223037   2.953   1.528   2.995
 7380SOL     OW23038   6.846   4.356   4.360
 7380SOL    HW123039   6.896   4.298   4.425
 7380SOL    HW223040   6.777   4.300   4.313
 7381SOL     OW23041   3.871   3.640   1.109
 7381SOL    HW123042   3.894   3.586   1.028
 7381SOL    HW223043   3.773   3.634   1.127
 7382SOL     OW23044   0.620   6.725   5.544
 7382SOL    HW123045   0.602   6.661   5.469
 7382SOL    HW223046   0.533   6.759   5.579
 7383SOL     OW23047   1.656   0.284   0.794
 7383SOL    HW123048   1.570   0.287   0.845
 7383SOL    HW223049   1.664   0.195   0.748
 7384SOL     OW23050   6.423   6.640   2.631
 7384SOL    HW123051   6.470   6.553   2.649
 7384SOL    HW223052   6.427   6.660   2.533
 7385SOL     OW23053   3.638   6.216   1.856
 7385SOL    HW123054   3.717   6.195   1.799
 7385SOL    HW223055   3.648   6.307   1.896
 7386SOL     OW23056   0.187   2.183   6.795
 7386SOL    HW123057   0.216   2.228   6.710
 7386SOL    HW223058   0.112   2.121   6.775
 7387SOL     OW23059   6.051   6.574   4.756
 7387SOL    HW123060   6.077   6.487   4.798
 7387SOL    HW223061   6.003   6.630   4.823
 7388SOL     OW23062   1.201   5.641   2.411
 7388SOL    HW123063   1.299   5.662   2.414
 7388SOL    HW223064   1.185   5.568   2.345
 7389SOL     OW23065   6.179   3.858   6.723
 7389SOL    HW123066   6.268   3.817   6.706
 7389SOL    HW223067   6.176   3.893   6.817
 7390SOL     OW23068   0.973   1.999   1.163
 7390SOL    HW123069   0.952   2.084   1.115
 7390SOL    HW223070   0.923   1.924   1.121
 7391SOL     OW23071   4.079   3.662   3.877
 7391SOL    HW123072   4.105   3.661   3.781
 7391SOL    HW223073   4.062   3.568   3.908
 7392SOL     OW23074   2.967   6.665   6.418
 7392SOL    HW123075   2.958   6.604   6.339
 7392SOL    HW223076   3.040   6.731   6.401
 7393SOL     OW23077   5.839   4.340   2.920
 7393SOL    HW123078   5.910   4.402   2.888
 7393SOL    HW223079   5.860   4.246   2.891
 7394SOL     OW23080   2.136   2.381   5.739
 7394SOL    HW123081   2.152   2.429   5.653
 7394SOL    HW223082   2.208   2.405   5.804
 7395SOL     OW23083   1.206   3.209   1.381
 7395SOL    HW123084   1.295   3.170   1.358
 7395SOL    HW223085   1.203   3.305   1.353
 7396SOL     OW23086   1.656   6.822   1.294
 7396SOL    HW123087   1.653   6.722   1.285
 7396SOL    HW223088   1.741   6.857   1.255
 7397SOL     OW23089   4.151   5.130   5.091
 7397SOL    HW123090   4.114   5.150   5.182
 7397SOL    HW223091   4.158   5.215   5.039
 7398SOL     OW23092   2.428   4.742   4.577
 7398SOL    HW123093   2.420   4.804   4.655
 7398SOL    HW223094   2.406   4.792   4.493
 7399SOL     OW23095   0.810   2.964   4.742
 7399SOL    HW123096   0.864   2.888   4.704
 7399SOL    HW223097   0.843   2.986   4.833
 7400SOL     OW23098   4.285   2.461   5.995
 7400SOL    HW123099   4.316   2.497   6.084
 7400SOL    HW223100   4.220   2.387   6.010
 7401SOL     OW23101   1.520   2.173   4.409
 7401SOL    HW123102   1.607   2.141   4.445
 7401SOL    HW223103   1.506   2.269   4.433
 7402SOL     OW23104   2.937   5.590   6.242
 7402SOL    HW123105   2.942   5.526   6.166
 7402SOL    HW223106   2.909   5.542   6.325
 7403SOL     OW23107   1.669   3.482   2.585
 7403SOL    HW123108   1.618   3.409   2.539
 7403SOL    HW223109   1.747   3.509   2.528
 7404SOL     OW23110   2.655   5.268   1.880
 7404SOL    HW123111   2.683   5.243   1.788
 7404SOL    HW223112   2.556   5.260   1.888
 7405SOL     OW23113   3.499   5.087   4.854
 7405SOL    HW123114   3.419   5.038   4.820
 7405SOL    HW223115   3.497   5.090   4.953
 7406SOL     OW23116   0.028   2.809   3.981
 7406SOL    HW123117   0.034   2.712   3.957
 7406SOL    HW223118   0.111   2.856   3.953
 7407SOL     OW23119   0.830   0.072   5.079
 7407SOL    HW123120   0.804   0.139   5.149
 7407SOL    HW223121   0.928   0.077   5.063
 7408SOL     OW23122   2.948   3.921   0.143
 7408SOL    HW123123   2.900   3.835   0.123
 7408SOL    HW223124   3.011   3.907   0.219
 7409SOL     OW23125   5.095   2.825   0.219
 7409SOL    HW123126   5.173   2.813   0.157
 7409SOL    HW223127   5.068   2.736   0.256
 7410SOL     OW23128   0.536   6.743   0.104
 7410SOL    HW123129   0.631   6.747   0.133
 7410SOL    HW223130   0.488   6.825   0.137
 7411SOL     OW23131   2.072   7.022   6.103
 7411SOL    HW123132   2.017   0.070   6.062
 7411SOL    HW223133   2.024   6.983   6.182
 7412SOL     OW23134   5.476   0.244   2.198
 7412SOL    HW123135   5.402   0.302   2.231
 7412SOL    HW223136   5.464   0.228   2.100
 7413SOL     OW23137   4.924   5.608   4.069
 7413SOL    HW123138   4.838   5.616   4.118
 7413SOL    HW223139   4.951   5.512   4.064
 7414SOL     OW23140   0.812   1.063   3.640
 7414SOL    HW123141   0.739   1.132   3.645
 7414SOL    HW223142   0.860   1.071   3.553
 7415SOL     OW23143   1.299   5.023   4.140
 7415SOL    HW123144   1.215   4.997   4.187
 7415SOL    HW223145   1.276   5.083   4.063
 7416SOL     OW23146   1.858   1.038   2.415
 7416SOL    HW123147   1.896   0.957   2.459
 7416SOL    HW223148   1.758   1.034   2.419
 7417SOL     OW23149   1.875   1.999   0.776
 7417SOL    HW123150   1.789   2.023   0.821
 7417SOL    HW223151   1.948   1.996   0.844
 7418SOL     OW23152   2.563   5.738   0.919
 7418SOL    HW123153   2.573   5.833   0.890
 7418SOL    HW223154   2.612   5.678   0.855
 7419SOL     OW23155   6.572   2.696   4.178
 7419SOL    HW123156   6.642   2.703   4.249
 7419SOL    HW223157   6.543   2.788   4.150
 7420SOL     OW23158   0.630   6.827   1.292
 7420SOL    HW123159   0.621   6.780   1.205
 7420SOL    HW223160   0.552   6.803   1.351
 7421SOL     OW23161   3.927   4.450   0.996
 7421SOL    HW123162   3.857   4.407   0.940
 7421SOL    HW223163   3.891   4.535   1.035
 7422SOL     OW23164   0.579   4.312   2.268
 7422SOL    HW123165   0.489   4.354   2.253
 7422SOL    HW223166   0.578   4.217   2.237
 7423SOL     OW23167   6.272   2.273   5.429
 7423SOL    HW123168   6.247   2.214   5.505
 7423SOL    HW223169   6.281   2.219   5.345
 7424SOL     OW23170   7.018   0.051   5.474
 7424SOL    HW123171   6.953   0.123   5.450
 7424SOL    HW223172   0.052   0.031   5.395
 7425SOL     OW23173   3.929   6.408   0.218
 7425SOL    HW123174   3.868   6.402   0.139
 7425SOL    HW223175   4.012   6.355   0.200
 7426SOL     OW23176   3.104   1.924   5.595
 7426SOL    HW123177   3.027   1.980   5.565
 7426SOL    HW223178   3.072   1.832   5.619
 7427SOL     OW23179   4.726   0.860   3.822
 7427SOL    HW123180   4.727   0.924   3.745
 7427SOL    HW223181   4.820   0.832   3.842
 7428SOL     OW23182   5.030   2.065   5.390
 7428SOL    HW123183   4.935   2.095   5.376
 7428SOL    HW223184   5.091   2.122   5.336
 7429SOL     OW23185   0.184   6.543   4.202
 7429SOL    HW123186   0.168   6.483   4.124
 7429SOL    HW223187   0.212   6.488   4.281
 7430SOL     OW23188   1.215   3.794   0.459
 7430SOL    HW123189   1.124   3.835   0.450
 7430SOL    HW223190   1.211   3.698   0.432
 7431SOL     OW23191   1.569   2.687   3.162
 7431SOL    HW123192   1.496   2.643   3.215
 7431SOL    HW223193   1.638   2.724   3.224
 7432SOL     OW23194   0.873   1.069   2.896
 7432SOL    HW123195   0.869   0.982   2.944
 7432SOL    HW223196   0.948   1.125   2.934
 7433SOL     OW23197   4.316   5.520   5.865
 7433SOL    HW123198   4.325   5.530   5.766
 7433SOL    HW223199   4.341   5.606   5.910
 7434SOL     OW23200   4.715   5.685   5.194
 7434SOL    HW123201   4.809   5.715   5.181
 7434SOL    HW223202   4.664   5.692   5.108
 7435SOL     OW23203   3.519   5.485   1.232
 7435SOL    HW123204   3.584   5.422   1.191
 7435SOL    HW223205   3.472   5.440   1.308
 7436SOL     OW23206   4.386   4.073   6.212
 7436SOL    HW123207   4.351   3.982   6.234
 7436SOL    HW223208   4.431   4.070   6.122
 7437SOL     OW23209   1.855   5.653   6.932
 7437SOL    HW123210   1.779   5.698   6.978
 7437SOL    HW223211   1.844   5.554   6.937
 7438SOL     OW23212   1.103   5.809   0.193
 7438SOL    HW123213   1.167   5.877   0.230
 7438SOL    HW223214   1.132   5.718   0.222
 7439SOL     OW23215   2.212   6.657   5.502
 7439SOL    HW123216   2.272   6.711   5.443
 7439SOL    HW223217   2.117   6.674   5.476
 7440SOL     OW23218   0.108   2.901   4.512
 7440SOL    HW123219   0.165   2.983   4.517
 7440SOL    HW223220   0.035   2.907   4.580
 7441SOL     OW23221   4.819   6.789   4.595
 7441SOL    HW123222   4.882   6.757   4.524
 7441SOL    HW223223   4.852   6.759   4.685
 7442SOL     OW23224   6.676   1.165   6.031
 7442SOL    HW123225   6.685   1.146   5.933
 7442SOL    HW223226   6.582   1.193   6.050
 7443SOL     OW23227   6.795   6.300   1.686
 7443SOL    HW123228   6.827   6.391   1.712
 7443SOL    HW223229   6.734   6.264   1.756
 7444SOL     OW23230   5.857   2.125   5.659
 7444SOL    HW123231   5.800   2.099   5.581
 7444SOL    HW223232   5.828   2.215   5.692
 7445SOL     OW23233   3.942   0.749   1.092
 7445SOL    HW123234   3.855   0.700   1.086
 7445SOL    HW223235   3.992   0.740   1.006
 7446SOL     OW23236   5.813   2.903   0.507
 7446SOL    HW123237   5.831   2.899   0.409
 7446SOL    HW223238   5.715   2.887   0.524
 7447SOL     OW23239   6.288   3.017   6.943
 7447SOL    HW123240   6.277   2.924   6.906
 7447SOL    HW223241   6.295   3.013   0.019
 7448SOL     OW23242   6.398   6.647   5.425
 7448SOL    HW123243   6.456   6.654   5.344
 7448SOL    HW223244   6.454   6.622   5.504
 7449SOL     OW23245   0.989   4.446   1.975
 7449SOL    HW123246   0.934   4.379   2.025
 7449SOL    HW223247   0.955   4.538   1.993
 7450SOL     OW23248   5.516   2.546   5.437
 7450SOL    HW123249   5.443   2.613   5.455
 7450SOL    HW223250   5.602   2.580   5.475
 7451SOL     OW23251   6.361   6.166   3.095
 7451SOL    HW123252   6.413   6.247   3.120
 7451SOL    HW223253   6.374   6.148   2.997
 7452SOL     OW23254   5.843   6.733   4.272
 7452SOL    HW123255   5.749   6.704   4.286
 7452SOL    HW223256   5.898   6.707   4.351
 7453SOL     OW23257   5.204   5.708   5.469
 7453SOL    HW123258   5.274   5.664   5.412
 7453SOL    HW223259   5.131   5.642   5.488
 7454SOL     OW23260   1.097   2.242   1.631
 7454SOL    HW123261   1.019   2.249   1.693
 7454SOL    HW223262   1.099   2.151   1.590
 7455SOL     OW23263   6.737   2.797   1.682
 7455SOL    HW123264   6.679   2.759   1.754
 7455SOL    HW223265   6.798   2.726   1.646
 7456SOL     OW23266   1.712   0.982   4.588
 7456SOL    HW123267   1.652   1.051   4.627
 7456SOL    HW223268   1.725   0.908   4.654
 7457SOL     OW23269   3.601   0.802   5.277
 7457SOL    HW123270   3.515   0.757   5.255
 7457SOL    HW223271   3.647   0.752   5.351
 7458SOL     OW23272   1.941   6.832   5.721
 7458SOL    HW123273   1.853   6.865   5.758
 7458SOL    HW223274   1.927   6.744   5.677
 7459SOL     OW23275   5.457   0.130   1.937
 7459SOL    HW123276   5.418   0.182   1.861
 7459SOL    HW223277   5.526   0.066   1.903
 7460SOL     OW23278   0.963   5.183   0.352
 7460SOL    HW123279   0.921   5.228   0.273
 7460SOL    HW223280   0.897   5.121   0.394
 7461SOL     OW23281   6.170   0.343   6.813
 7461SOL    HW123282   6.263   0.364   6.780
 7461SOL    HW223283   6.107   0.346   6.736
 7462SOL     OW23284   1.759   4.148   2.394
 7462SOL    HW123285   1.802   4.238   2.401
 7462SOL    HW223286   1.826   4.076   2.411
 7463SOL     OW23287   3.114   4.996   0.692
 7463SOL    HW123288   3.037   5.054   0.716
 7463SOL    HW223289   3.198   5.050   0.692
 7464SOL     OW23290   5.600   6.637   6.114
 7464SOL    HW123291   5.560   6.559   6.163
 7464SOL    HW223292   5.590   6.720   6.169
 7465SOL     OW23293   2.466   5.509   6.843
 7465SOL    HW123294   2.516   5.590   6.874
 7465SOL    HW223295   2.514   5.467   6.766
 7466SOL     OW23296   0.248   0.333   4.395
 7466SOL    HW123297   0.257   0.370   4.302
 7466SOL    HW223298   0.184   0.257   4.394
 7467SOL     OW23299   0.415   1.896   0.787
 7467SOL    HW123300   0.461   1.978   0.752
 7467SOL    HW223301   0.364   1.852   0.712
 7468SOL     OW23302   5.712   2.478   3.715
 7468SOL    HW123303   5.628   2.532   3.716
 7468SOL    HW223304   5.746   2.467   3.808
 7469SOL     OW23305   6.411   0.264   0.236
 7469SOL    HW123306   6.501   0.277   0.277
 7469SOL    HW223307   6.414   0.290   0.140
 7470SOL     OW23308   6.404   4.148   3.156
 7470SOL    HW123309   6.423   4.173   3.251
 7470SOL    HW223310   6.409   4.049   3.146
 7471SOL     OW23311   5.710   6.861   5.716
 7471SOL    HW123312   5.669   6.953   5.717
 7471SOL    HW223313   5.749   6.841   5.806
 7472SOL     OW23314   6.437   0.549   5.781
 7472SOL    HW123315   6.388   0.578   5.864
 7472SOL    HW223316   6.480   0.629   5.739
 7473SOL     OW23317   5.900   5.840   4.086
 7473SOL    HW123318   5.832   5.768   4.102
 7473SOL    HW223319   5.947   5.823   4.000
 7474SOL     OW23320   0.580   1.648   6.153
 7474SOL    HW123321   0.662   1.643   6.096
 7474SOL    HW223322   0.501   1.615   6.100
 7475SOL     OW23323   4.549   2.577   2.320
 7475SOL    HW123324   4.581   2.661   2.276
 7475SOL    HW223325   4.617   2.504   2.306
 7476SOL     OW23326   3.439   1.142   3.748
 7476SOL    HW123327   3.468   1.068   3.809
 7476SOL    HW223328   3.481   1.130   3.658
 7477SOL     OW23329   0.327   1.677   5.792
 7477SOL    HW123330   0.263   1.613   5.749
 7477SOL    HW223331   0.310   1.681   5.890
 7478SOL     OW23332   5.965   3.818   5.173
 7478SOL    HW123333   5.997   3.765   5.095
 7478SOL    HW223334   5.866   3.833   5.164
 7479SOL     OW23335   4.193   2.127   2.239
 7479SOL    HW123336   4.220   2.098   2.330
 7479SOL    HW223337   4.235   2.215   2.217
 7480SOL     OW23338   1.219   4.471   2.541
 7480SOL    HW123339   1.318   4.487   2.536
 7480SOL    HW223340   1.193   4.399   2.478
 7481SOL     OW23341   5.649   5.821   0.680
 7481SOL    HW123342   5.657   5.863   0.590
 7481SOL    HW223343   5.643   5.721   0.669
 7482SOL     OW23344   4.492   2.399   3.024
 7482SOL    HW123345   4.462   2.407   2.929
 7482SOL    HW223346   4.537   2.483   3.053
 7483SOL     OW23347   4.898   3.775   4.544
 7483SOL    HW123348   4.853   3.722   4.616
 7483SOL    HW223349   4.835   3.844   4.509
 7484SOL     OW23350   1.290   6.746   4.510
 7484SOL    HW123351   1.383   6.752   4.547
 7484SOL    HW223352   1.251   6.657   4.532
 7485SOL     OW23353   3.808   0.162   4.574
 7485SOL    HW123354   3.788   0.108   4.493
 7485SOL    HW223355   3.826   0.257   4.547
 7486SOL     OW23356   1.618   5.811   0.630
 7486SOL    HW123357   1.630   5.794   0.728
 7486SOL    HW223358   1.551   5.884   0.617
 7487SOL     OW23359   2.234   0.182   3.050
 7487SOL    HW123360   2.303   0.113   3.029
 7487SOL    HW223361   2.280   0.269   3.070
 7488SOL     OW23362   2.475   5.963   4.149
 7488SOL    HW123363   2.485   6.057   4.116
 7488SOL    HW223364   2.496   5.959   4.247
 7489SOL     OW23365   6.085   2.678   5.941
 7489SOL    HW123366   5.995   2.710   5.970
 7489SOL    HW223367   6.077   2.587   5.901
 7490SOL     OW23368   1.182   0.065   3.257
 7490SOL    HW123369   1.168   0.131   3.330
 7490SOL    HW223370   1.159   6.997   3.289
 7491SOL     OW23371   4.430   2.796   6.701
 7491SOL    HW123372   4.473   2.876   6.742
 7491SOL    HW223373   4.385   2.742   6.773
 7492SOL     OW23374   1.552   0.392   3.136
 7492SOL    HW123375   1.566   0.293   3.144
 7492SOL    HW223376   1.615   0.429   3.068
 7493SOL     OW23377   0.419   3.320   6.261
 7493SOL    HW123378   0.372   3.376   6.329
 7493SOL    HW223379   0.514   3.353   6.253
 7494SOL     OW23380   5.366   1.518   2.597
 7494SOL    HW123381   5.287   1.570   2.631
 7494SOL    HW223382   5.408   1.468   2.673
 7495SOL     OW23383   1.310   2.201   6.846
 7495SOL    HW123384   1.375   2.256   6.794
 7495SOL    HW223385   1.217   2.218   6.812
 7496SOL     OW23386   6.512   2.962   4.148
 7496SOL    HW123387   6.414   2.943   4.153
 7496SOL    HW223388   6.537   3.025   4.222
 7497SOL     OW23389   2.791   4.705   0.358
 7497SOL    HW123390   2.749   4.696   0.449
 7497SOL    HW223391   2.785   4.617   0.310
 7498SOL     OW23392   3.362   0.684   5.226
 7498SOL    HW123393   3.337   0.667   5.321
 7498SOL    HW223394   3.306   0.628   5.166
 7499SOL     OW23395   4.562   1.169   3.197
 7499SOL    HW123396   4.499   1.094   3.174
 7499SOL    HW223397   4.512   1.256   3.194
 7500SOL     OW23398   3.424   5.788   3.220
 7500SOL    HW123399   3.385   5.876   3.192
 7500SOL    HW223400   3.439   5.731   3.139
 7501SOL     OW23401   5.444   3.779   4.982
 7501SOL    HW123402   5.377   3.827   4.924
 7501SOL    HW223403   5.408   3.689   5.007
 7502SOL     OW23404   3.150   0.902   4.569
 7502SOL    HW123405   3.133   0.878   4.474
 7502SOL    HW223406   3.139   1.001   4.581
 7503SOL     OW23407   1.601   0.121   1.359
 7503SOL    HW123408   1.670   0.077   1.302
 7503SOL    HW223409   1.632   0.122   1.454
 7504SOL     OW23410   0.894   6.239   3.355
 7504SOL    HW123411   0.817   6.240   3.292
 7504SOL    HW223412   0.969   6.294   3.318
 7505SOL     OW23413   1.786   2.949   5.826
 7505SOL    HW123414   1.737   2.871   5.865
 7505SOL    HW223415   1.768   3.030   5.881
 7506SOL     OW23416   5.515   1.558   3.127
 7506SOL    HW123417   5.604   1.514   3.137
 7506SOL    HW223418   5.513   1.609   3.040
 7507SOL     OW23419   0.098   1.614   2.627
 7507SOL    HW123420   0.168   1.629   2.696
 7507SOL    HW223421   0.141   1.580   2.543
 7508SOL     OW23422   1.403   6.639   1.553
 7508SOL    HW123423   1.357   6.622   1.640
 7508SOL    HW223424   1.444   6.730   1.554
 7509SOL     OW23425   5.762   3.522   0.469
 7509SOL    HW123426   5.809   3.605   0.437
 7509SOL    HW223427   5.816   3.479   0.541
 7510SOL     OW23428   3.500   3.458   4.843
 7510SOL    HW123429   3.492   3.462   4.743
 7510SOL    HW223430   3.412   3.430   4.882
 7511SOL     OW23431   2.693   5.887   3.759
 7511SOL    HW123432   2.595   5.904   3.753
 7511SOL    HW223433   2.721   5.884   3.855
 7512SOL     OW23434   2.748   6.964   6.482
 7512SOL    HW123435   2.758   6.898   6.556
 7512SOL    HW223436   2.651   6.971   6.456
 7513SOL     OW23437   1.605   1.034   1.790
 7513SOL    HW123438   1.617   1.084   1.876
 7513SOL    HW223439   1.605   1.099   1.714
 7514SOL     OW23440   2.675   5.299   2.630
 7514SOL    HW123441   2.688   5.264   2.537
 7514SOL    HW223442   2.762   5.296   2.679
 7515SOL     OW23443   6.859   5.712   4.392
 7515SOL    HW123444   6.858   5.694   4.294
 7515SOL    HW223445   6.935   5.662   4.434
 7516SOL     OW23446   6.496   5.695   5.891
 7516SOL    HW123447   6.448   5.646   5.964
 7516SOL    HW223448   6.434   5.706   5.813
 7517SOL     OW23449   6.983   2.034   0.499
 7517SOL    HW123450   6.911   1.988   0.550
 7517SOL    HW223451   6.948   2.062   0.410
 7518SOL     OW23452   4.648   4.289   4.342
 7518SOL    HW123453   4.664   4.337   4.428
 7518SOL    HW223454   4.561   4.319   4.302
 7519SOL     OW23455   0.657   6.332   4.001
 7519SOL    HW123456   0.653   6.338   3.901
 7519SOL    HW223457   0.596   6.259   4.032
 7520SOL     OW23458   2.247   6.995   2.464
 7520SOL    HW123459   2.284   0.048   2.410
 7520SOL    HW223460   2.303   6.983   2.546
 7521SOL     OW23461   4.828   2.478   5.663
 7521SOL    HW123462   4.757   2.464   5.594
 7521SOL    HW223463   4.791   2.534   5.737
 7522SOL     OW23464   1.400   1.164   6.063
 7522SOL    HW123465   1.317   1.214   6.038
 7522SOL    HW223466   1.412   1.166   6.162
 7523SOL     OW23467   5.578   0.334   6.483
 7523SOL    HW123468   5.600   0.237   6.486
 7523SOL    HW223469   5.499   0.352   6.542
 7524SOL     OW23470   0.825   2.695   5.004
 7524SOL    HW123471   0.867   2.604   5.004
 7524SOL    HW223472   0.855   2.747   4.924
 7525SOL     OW23473   3.672   0.748   6.445
 7525SOL    HW123474   3.591   0.695   6.469
 7525SOL    HW223475   3.698   0.727   6.350
 7526SOL     OW23476   3.388   3.450   1.429
 7526SOL    HW123477   3.356   3.414   1.516
 7526SOL    HW223478   3.386   3.550   1.431
 7527SOL     OW23479   3.019   5.703   3.371
 7527SOL    HW123480   2.928   5.726   3.336
 7527SOL    HW223481   3.012   5.678   3.468
 7528SOL     OW23482   6.013   2.120   0.552
 7528SOL    HW123483   5.956   2.043   0.522
 7528SOL    HW223484   5.970   2.166   0.629
 7529SOL     OW23485   5.807   1.839   4.439
 7529SOL    HW123486   5.875   1.893   4.389
 7529SOL    HW223487   5.798   1.749   4.396
 7530SOL     OW23488   0.136   2.880   2.263
 7530SOL    HW123489   0.191   2.943   2.318
 7530SOL    HW223490   0.039   2.896   2.281
 7531SOL     OW23491   5.996   2.920   4.654
 7531SOL    HW123492   5.902   2.951   4.664
 7531SOL    HW223493   6.003   2.855   4.578
 7532SOL     OW23494   4.185   6.117   6.997
 7532SOL    HW123495   4.210   6.035   6.946
 7532SOL    HW223496   4.263   6.179   7.001
 7533SOL     OW23497   3.557   1.389   1.599
 7533SOL    HW123498   3.577   1.451   1.523
 7533SOL    HW223499   3.600   1.424   1.683
 7534SOL     OW23500   4.400   6.375   5.332
 7534SOL    HW123501   4.379   6.387   5.235
 7534SOL    HW223502   4.332   6.315   5.374
 7535SOL     OW23503   2.173   0.467   4.848
 7535SOL    HW123504   2.128   0.509   4.769
 7535SOL    HW223505   2.106   0.449   4.919
 7536SOL     OW23506   5.385   4.159   4.487
 7536SOL    HW123507   5.377   4.081   4.424
 7536SOL    HW223508   5.336   4.237   4.450
 7537SOL     OW23509   2.284   5.453   2.134
 7537SOL    HW123510   2.187   5.465   2.157
 7537SOL    HW223511   2.334   5.535   2.158
 7538SOL     OW23512   2.118   2.381   1.331
 7538SOL    HW123513   2.050   2.372   1.403
 7538SOL    HW223514   2.200   2.426   1.368
 7539SOL     OW23515   1.641   3.367   4.222
 7539SOL    HW123516   1.706   3.330   4.156
 7539SOL    HW223517   1.619   3.297   4.290
 7540SOL     OW23518   4.439   1.020   4.795
 7540SOL    HW123519   4.426   0.934   4.745
 7540SOL    HW223520   4.528   1.019   4.840
 7541SOL     OW23521   0.291   4.316   4.960
 7541SOL    HW123522   0.306   4.247   5.030
 7541SOL    HW223523   0.320   4.405   4.994
 7542SOL     OW23524   0.881   5.528   7.004
 7542SOL    HW123525   0.862   5.511   6.907
 7542SOL    HW223526   0.964   5.477   0.007
 7543SOL     OW23527   4.009   1.153   5.479
 7543SOL    HW123528   4.099   1.179   5.444
 7543SOL    HW223529   3.948   1.232   5.479
 7544SOL     OW23530   6.375   2.308   3.275
 7544SOL    HW123531   6.427   2.392   3.292
 7544SOL    HW223532   6.368   2.256   3.360
 7545SOL     OW23533   0.524   5.942   6.914
 7545SOL    HW123534   0.552   5.846   6.906
 7545SOL    HW223535   0.476   5.969   6.831
 7546SOL     OW23536   4.250   1.979   1.234
 7546SOL    HW123537   4.300   1.910   1.180
 7546SOL    HW223538   4.225   1.940   1.323
 7547SOL     OW23539   5.145   1.432   0.604
 7547SOL    HW123540   5.188   1.505   0.550
 7547SOL    HW223541   5.139   1.460   0.700
 7548SOL     OW23542   4.088   2.016   0.224
 7548SOL    HW123543   4.035   2.055   0.300
 7548SOL    HW223544   4.178   1.988   0.258
 7549SOL     OW23545   2.900   2.322   6.936
 7549SOL    HW123546   2.832   2.327   6.863
 7549SOL    HW223547   2.992   2.320   6.897
 7550SOL     OW23548   2.133   4.612   3.839
 7550SOL    HW123549   2.055   4.666   3.806
 7550SOL    HW223550   2.106   4.561   3.921
 7551SOL     OW23551   5.480   2.889   5.418
 7551SOL    HW123552   5.413   2.838   5.472
 7551SOL    HW223553   5.464   2.873   5.321
 7552SOL     OW23554   1.288   6.256   3.056
 7552SOL    HW123555   1.365   6.254   3.120
 7552SOL    HW223556   1.224   6.181   3.078
 7553SOL     OW23557   3.930   6.736   5.490
 7553SOL    HW123558   3.844   6.686   5.487
 7553SOL    HW223559   3.966   6.733   5.584
 7554SOL     OW23560   5.259   0.615   6.643
 7554SOL    HW123561   5.249   0.656   6.734
 7554SOL    HW223562   5.333   0.660   6.593
 7555SOL     OW23563   2.863   5.084   6.668
 7555SOL    HW123564   2.829   5.112   6.578
 7555SOL    HW223565   2.959   5.109   6.677
 7556SOL     OW23566   2.660   2.577   0.595
 7556SOL    HW123567   2.706   2.488   0.595
 7556SOL    HW223568   2.657   2.613   0.501
 7557SOL     OW23569   5.808   0.166   6.319
 7557SOL    HW123570   5.833   0.254   6.278
 7557SOL    HW223571   5.882   0.100   6.303
 7558SOL     OW23572   1.865   2.530   4.910
 7558SOL    HW123573   1.860   2.555   5.006
 7558SOL    HW223574   1.922   2.596   4.861
 7559SOL     OW23575   4.439   3.918   0.231
 7559SOL    HW123576   4.452   4.012   0.200
 7559SOL    HW223577   4.460   3.912   0.329
 7560SOL     OW23578   4.650   6.678   0.855
 7560SOL    HW123579   4.686   6.755   0.908
 7560SOL    HW223580   4.632   6.601   0.916
 7561SOL     OW23581   0.994   3.105   6.555
 7561SOL    HW123582   0.914   3.162   6.534
 7561SOL    HW223583   0.968   3.032   6.617
 7562SOL     OW23584   0.721   5.727   5.379
 7562SOL    HW123585   0.636   5.743   5.328
 7562SOL    HW223586   0.798   5.762   5.327
 7563SOL     OW23587   3.133   6.754   1.380
 7563SOL    HW123588   3.127   6.708   1.468
 7563SOL    HW223589   3.061   6.823   1.374
 7564SOL     OW23590   3.950   0.305   3.916
 7564SOL    HW123591   4.037   0.257   3.926
 7564SOL    HW223592   3.888   0.277   3.990
 7565SOL     OW23593   5.816   3.154   6.429
 7565SOL    HW123594   5.909   3.167   6.395
 7565SOL    HW223595   5.761   3.234   6.407
 7566SOL     OW23596   6.207   5.050   2.537
 7566SOL    HW123597   6.300   5.083   2.552
 7566SOL    HW223598   6.209   4.964   2.486
 7567SOL     OW23599   1.852   1.300   5.354
 7567SOL    HW123600   1.853   1.376   5.289
 7567SOL    HW223601   1.926   1.311   5.419
 7568SOL     OW23602   5.462   5.010   2.695
 7568SOL    HW123603   5.505   5.100   2.706
 7568SOL    HW223604   5.517   4.954   2.633
 7569SOL     OW23605   3.412   4.501   5.942
 7569SOL    HW123606   3.477   4.528   6.012
 7569SOL    HW223607   3.430   4.552   5.858
 7570SOL     OW23608   5.204   4.298   4.947
 7570SOL    HW123609   5.292   4.259   4.921
 7570SOL    HW223610   5.193   4.387   4.903
 7571SOL     OW23611   4.567   4.417   3.357
 7571SOL    HW123612   4.564   4.325   3.316
 7571SOL    HW223613   4.657   4.432   3.397
 7572SOL     OW23614   4.377   1.013   1.891
 7572SOL    HW123615   4.291   1.020   1.841
 7572SOL    HW223616   4.404   0.917   1.899
 7573SOL     OW23617   0.453   6.980   5.104
 7573SOL    HW123618   0.538   0.007   5.088
 7573SOL    HW223619   0.454   6.896   5.050
 7574SOL     OW23620   4.925   0.626   5.728
 7574SOL    HW123621   4.891   0.656   5.639
 7574SOL    HW223622   5.018   0.661   5.741
 7575SOL     OW23623   5.549   0.166   6.767
 7575SOL    HW123624   5.574   0.140   6.674
 7575SOL    HW223625   5.539   0.083   6.822
 7576SOL     OW23626   5.067   3.465   0.310
 7576SOL    HW123627   5.019   3.509   0.385
 7576SOL    HW223628   5.042   3.368   0.307
 7577SOL     OW23629   0.640   6.606   6.612
 7577SOL    HW123630   0.740   6.606   6.616
 7577SOL    HW223631   0.604   6.613   6.705
 7578SOL     OW23632   3.180   5.392   2.156
 7578SOL    HW123633   3.226   5.304   2.165
 7578SOL    HW223634   3.243   5.458   2.115
 7579SOL     OW23635   0.147   0.754   2.115
 7579SOL    HW123636   0.166   0.721   2.023
 7579SOL    HW223637   0.180   0.687   2.182
 7580SOL     OW23638   0.740   4.355   3.982
 7580SOL    HW123639   0.753   4.428   4.049
 7580SOL    HW223640   0.731   4.267   4.028
 7581SOL     OW23641   0.236   1.929   1.633
 7581SOL    HW123642   0.190   1.982   1.705
 7581SOL    HW223643   0.325   1.898   1.666
 7582SOL     OW23644   3.737   0.951   2.906
 7582SOL    HW123645   3.777   1.040   2.881
 7582SOL    HW223646   3.809   0.882   2.910
 7583SOL     OW23647   5.198   2.795   2.204
 7583SOL    HW123648   5.170   2.866   2.141
 7583SOL    HW223649   5.118   2.747   2.239
 7584SOL     OW23650   3.321   0.722   3.226
 7584SOL    HW123651   3.332   0.789   3.298
 7584SOL    HW223652   3.239   0.744   3.172
 7585SOL     OW23653   1.819   2.700   6.508
 7585SOL    HW123654   1.808   2.633   6.435
 7585SOL    HW223655   1.913   2.696   6.543
 7586SOL     OW23656   2.368   0.005   4.053
 7586SOL    HW123657   2.360   6.931   4.077
 7586SOL    HW223658   2.311   0.059   4.115
 7587SOL     OW23659   2.003   1.932   6.899
 7587SOL    HW123660   1.905   1.945   6.886
 7587SOL    HW223661   2.045   1.902   6.813
 7588SOL     OW23662   1.544   2.636   3.936
 7588SOL    HW123663   1.578   2.569   4.001
 7588SOL    HW223664   1.445   2.624   3.924
 7589SOL     OW23665   0.251   0.285   2.263
 7589SOL    HW123666   0.330   0.266   2.205
 7589SOL    HW223667   0.254   0.225   2.343
 7590SOL     OW23668   4.339   2.153   6.212
 7590SOL    HW123669   4.315   2.089   6.285
 7590SOL    HW223670   4.269   2.224   6.206
 7591SOL     OW23671   5.722   4.336   0.859
 7591SOL    HW123672   5.761   4.426   0.838
 7591SOL    HW223673   5.622   4.343   0.860
 7592SOL     OW23674   6.099   5.783   4.853
 7592SOL    HW123675   6.109   5.809   4.949
 7592SOL    HW223676   6.031   5.842   4.810
 7593SOL     OW23677   6.540   3.035   0.344
 7593SOL    HW123678   6.510   3.123   0.381
 7593SOL    HW223679   6.528   2.965   0.414
 7594SOL     OW23680   1.917   4.378   2.401
 7594SOL    HW123681   1.993   4.323   2.368
 7594SOL    HW223682   1.933   4.474   2.380
 7595SOL     OW23683   6.204   2.983   5.784
 7595SOL    HW123684   6.106   2.997   5.799
 7595SOL    HW223685   6.218   2.898   5.733
 7596SOL     OW23686   3.589   6.252   4.171
 7596SOL    HW123687   3.537   6.231   4.088
 7596SOL    HW223688   3.665   6.189   4.180
 7597SOL     OW23689   1.552   6.606   3.089
 7597SOL    HW123690   1.477   6.603   3.155
 7597SOL    HW223691   1.550   6.694   3.042
 7598SOL     OW23692   6.653   0.761   3.093
 7598SOL    HW123693   6.651   0.858   3.068
 7598SOL    HW223694   6.732   0.717   3.052
 7599SOL     OW23695   5.268   2.197   2.471
 7599SOL    HW123696   5.217   2.232   2.393
 7599SOL    HW223697   5.270   2.266   2.543
 7600SOL     OW23698   1.064   1.603   3.438
 7600SOL    HW123699   1.024   1.687   3.402
 7600SOL    HW223700   1.147   1.624   3.489
 7601SOL     OW23701   2.504   4.902   2.247
 7601SOL    HW123702   2.528   4.962   2.323
 7601SOL    HW223703   2.543   4.937   2.162
 7602SOL     OW23704   1.813   4.056   6.939
 7602SOL    HW123705   1.812   3.958   6.922
 7602SOL    HW223706   1.795   4.073   0.012
 7603SOL     OW23707   1.844   5.695   6.329
 7603SOL    HW123708   1.786   5.752   6.387
 7603SOL    HW223709   1.831   5.599   6.354
 7604SOL     OW23710   1.834   3.272   4.047
 7604SOL    HW123711   1.813   3.273   3.949
 7604SOL    HW223712   1.929   3.297   4.062
 7605SOL     OW23713   0.947   0.876   1.157
 7605SOL    HW123714   0.947   0.831   1.246
 7605SOL    HW223715   1.023   0.941   1.153
 7606SOL     OW23716   6.015   3.205   4.753
 7606SOL    HW123717   6.018   3.273   4.827
 7606SOL    HW223718   5.968   3.244   4.674
 7607SOL     OW23719   3.459   4.909   0.512
 7607SOL    HW123720   3.444   4.990   0.568
 7607SOL    HW223721   3.383   4.897   0.449
 7608SOL     OW23722   4.039   3.816   1.236
 7608SOL    HW123723   3.962   3.761   1.202
 7608SOL    HW223724   4.100   3.759   1.290
 7609SOL     OW23725   1.743   3.336   4.578
 7609SOL    HW123726   1.812   3.352   4.508
 7609SOL    HW223727   1.780   3.277   4.649
 7610SOL     OW23728   4.264   4.187   6.607
 7610SOL    HW123729   4.198   4.192   6.532
 7610SOL    HW223730   4.354   4.214   6.574
 7611SOL     OW23731   5.290   4.021   1.941
 7611SOL    HW123732   5.273   3.930   1.904
 7611SOL    HW223733   5.251   4.089   1.879
 7612SOL     OW23734   4.996   3.176   2.425
 7612SOL    HW123735   4.939   3.180   2.507
 7612SOL    HW223736   4.984   3.088   2.380
 7613SOL     OW23737   0.546   2.163   1.007
 7613SOL    HW123738   0.497   2.158   0.920
 7613SOL    HW223739   0.567   2.258   1.028
 7614SOL     OW23740   5.449   2.935   0.857
 7614SOL    HW123741   5.413   2.916   0.766
 7614SOL    HW223742   5.394   3.006   0.901
 7615SOL     OW23743   4.079   4.624   6.793
 7615SOL    HW123744   4.048   4.538   6.834
 7615SOL    HW223745   4.179   4.624   6.788
 7616SOL     OW23746   6.409   6.412   4.749
 7616SOL    HW123747   6.482   6.344   4.755
 7616SOL    HW223748   6.379   6.436   4.841
 7617SOL     OW23749   3.493   6.256   3.693
 7617SOL    HW123750   3.571   6.238   3.633
 7617SOL    HW223751   3.443   6.336   3.660
 7618SOL     OW23752   0.113   2.248   6.123
 7618SOL    HW123753   0.069   2.253   6.033
 7618SOL    HW223754   0.072   2.175   6.176
 7619SOL     OW23755   6.527   3.195   4.756
 7619SOL    HW123756   6.571   3.135   4.689
 7619SOL    HW223757   6.432   3.212   4.729
 7620SOL     OW23758   4.156   5.536   1.706
 7620SOL    HW123759   4.146   5.619   1.762
 7620SOL    HW223760   4.077   5.477   1.721
 7621SOL     OW23761   6.760   0.805   0.703
 7621SOL    HW123762   6.690   0.852   0.758
 7621SOL    HW223763   6.846   0.857   0.707
 7622SOL     OW23764   4.180   4.986   6.817
 7622SOL    HW123765   4.087   5.021   6.808
 7622SOL    HW223766   4.219   4.971   6.727
 7623SOL     OW23767   4.743   4.035   6.874
 7623SOL    HW123768   4.744   3.940   6.905
 7623SOL    HW223769   4.656   4.054   6.828
 7624SOL     OW23770   6.572   3.982   4.833
 7624SOL    HW123771   6.511   4.002   4.909
 7624SOL    HW223772   6.524   3.996   4.747
 7625SOL     OW23773   5.228   0.716   6.899
 7625SOL    HW123774   5.305   0.740   6.958
 7625SOL    HW223775   5.151   0.777   6.917
 7626SOL     OW23776   6.690   0.169   5.224
 7626SOL    HW123777   6.656   0.199   5.135
 7626SOL    HW223778   6.640   0.087   5.253
 7627SOL     OW23779   4.037   3.119   0.579
 7627SOL    HW123780   4.033   3.024   0.608
 7627SOL    HW223781   4.055   3.124   0.481
 7628SOL     OW23782   3.259   2.875   1.737
 7628SOL    HW123783   3.335   2.936   1.718
 7628SOL    HW223784   3.246   2.867   1.836
 7629SOL     OW23785   0.007   4.743   3.714
 7629SOL    HW123786   0.097   4.764   3.751
 7629SOL    HW223787   0.017   4.706   3.621
 7630SOL     OW23788   0.678   0.669   0.520
 7630SOL    HW123789   0.754   0.632   0.573
 7630SOL    HW223790   0.664   0.613   0.438
 7631SOL     OW23791   1.155   2.110   6.024
 7631SOL    HW123792   1.139   2.043   5.952
 7631SOL    HW223793   1.145   2.202   5.986
 7632SOL     OW23794   4.992   4.049   0.824
 7632SOL    HW123795   5.039   4.130   0.858
 7632SOL    HW223796   4.898   4.073   0.801
 7633SOL     OW23797   5.613   0.440   1.805
 7633SOL    HW123798   5.605   0.539   1.790
 7633SOL    HW223799   5.522   0.399   1.799
 7634SOL     OW23800   2.079   1.436   2.170
 7634SOL    HW123801   2.149   1.484   2.223
 7634SOL    HW223802   2.063   1.346   2.210
 7635SOL     OW23803   3.481   5.042   5.196
 7635SOL    HW123804   3.527   5.036   5.285
 7635SOL    HW223805   3.383   5.031   5.209
 7636SOL     OW23806   1.816   3.006   4.143
 7636SOL    HW123807   1.790   3.099   4.116
 7636SOL    HW223808   1.848   3.006   4.238
 7637SOL     OW23809   2.751   6.023   2.396
 7637SOL    HW123810   2.659   6.011   2.357
 7637SOL    HW223811   2.818   6.030   2.321
 7638SOL     OW23812   1.999   5.570   1.608
 7638SOL    HW123813   1.909   5.603   1.578
 7638SOL    HW223814   2.069   5.602   1.545
 7639SOL     OW23815   0.470   1.111   0.668
 7639SOL    HW123816   0.484   1.098   0.570
 7639SOL    HW223817   0.372   1.117   0.687
 7640SOL     OW23818   2.913   1.227   5.790
 7640SOL    HW123819   2.899   1.243   5.692
 7640SOL    HW223820   2.978   1.152   5.802
 7641SOL     OW23821   1.284   3.405   2.767
 7641SOL    HW123822   1.317   3.434   2.677
 7641SOL    HW223823   1.185   3.423   2.774
 7642SOL     OW23824   3.347   1.747   2.671
 7642SOL    HW123825   3.280   1.800   2.722
 7642SOL    HW223826   3.352   1.781   2.577
 7643SOL     OW23827   4.925   2.211   3.048
 7643SOL    HW123828   4.859   2.286   3.058
 7643SOL    HW223829   5.003   2.227   3.108
 7644SOL     OW23830   4.591   2.324   1.995
 7644SOL    HW123831   4.577   2.298   2.090
 7644SOL    HW223832   4.627   2.417   1.991
 7645SOL     OW23833   5.487   3.957   5.625
 7645SOL    HW123834   5.393   3.922   5.622
 7645SOL    HW223835   5.510   3.997   5.537
 7646SOL     OW23836   1.500   2.765   4.315
 7646SOL    HW123837   1.414   2.809   4.288
 7646SOL    HW223838   1.548   2.825   4.380
 7647SOL     OW23839   6.943   2.559   3.917
 7647SOL    HW123840   6.904   2.566   4.009
 7647SOL    HW223841   6.872   2.579   3.849
 7648SOL     OW23842   2.551   1.761   2.645
 7648SOL    HW123843   2.470   1.730   2.596
 7648SOL    HW223844   2.533   1.850   2.687
 7649SOL     OW23845   1.223   0.999   3.603
 7649SOL    HW123846   1.312   0.977   3.642
 7649SOL    HW223847   1.212   0.953   3.515
 7650SOL     OW23848   5.456   0.640   0.592
 7650SOL    HW123849   5.518   0.651   0.669
 7650SOL    HW223850   5.495   0.684   0.511
 7651SOL     OW23851   2.184   0.635   4.443
 7651SOL    HW123852   2.247   0.570   4.486
 7651SOL    HW223853   2.148   0.595   4.359
 7652SOL     OW23854   5.707   2.729   4.616
 7652SOL    HW123855   5.759   2.814   4.629
 7652SOL    HW223856   5.621   2.750   4.569
 7653SOL     OW23857   0.413   1.972   0.274
 7653SOL    HW123858   0.478   1.951   0.347
 7653SOL    HW223859   0.327   1.923   0.291
 7654SOL     OW23860   4.817   2.840   4.445
 7654SOL    HW123861   4.726   2.829   4.486
 7654SOL    HW223862   4.881   2.776   4.486
 7655SOL     OW23863   4.391   6.274   3.640
 7655SOL    HW123864   4.459   6.271   3.713
 7655SOL    HW223865   4.332   6.354   3.654
 7656SOL     OW23866   3.763   3.827   7.019
 7656SOL    HW123867   3.687   3.845   6.956
 7656SOL    HW223868   3.732   3.843   0.090
 7657SOL     OW23869   1.362   2.019   3.414
 7657SOL    HW123870   1.318   2.079   3.347
 7657SOL    HW223871   1.424   1.956   3.366
 7658SOL     OW23872   2.887   0.141   6.913
 7658SOL    HW123873   2.982   0.166   6.931
 7658SOL    HW223874   2.851   0.199   6.839
 7659SOL     OW23875   5.593   4.866   6.403
 7659SOL    HW123876   5.523   4.831   6.341
 7659SOL    HW223877   5.612   4.797   6.473
 7660SOL     OW23878   6.787   5.754   3.686
 7660SOL    HW123879   6.701   5.749   3.636
 7660SOL    HW223880   6.856   5.699   3.639
 7661SOL     OW23881   5.518   2.239   5.125
 7661SOL    HW123882   5.565   2.220   5.038
 7661SOL    HW223883   5.504   2.154   5.175
 7662SOL     OW23884   1.506   3.469   4.596
 7662SOL    HW123885   1.593   3.420   4.605
 7662SOL    HW223886   1.450   3.425   4.526
 7663SOL     OW23887   6.194   4.730   6.382
 7663SOL    HW123888   6.209   4.826   6.406
 7663SOL    HW223889   6.099   4.716   6.357
 7664SOL     OW23890   4.231   0.743   1.709
 7664SOL    HW123891   4.178   0.687   1.773
 7664SOL    HW223892   4.205   0.839   1.719
 7665SOL     OW23893   6.097   0.634   4.811
 7665SOL    HW123894   6.123   0.573   4.886
 7665SOL    HW223895   6.127   0.727   4.832
 7666SOL     OW23896   0.597   4.853   2.402
 7666SOL    HW123897   0.628   4.821   2.492
 7666SOL    HW223898   0.555   4.776   2.353
 7667SOL     OW23899   4.087   0.273   2.740
 7667SOL    HW123900   4.052   0.364   2.717
 7667SOL    HW223901   4.059   0.249   2.833
 7668SOL     OW23902   2.884   5.155   0.717
 7668SOL    HW123903   2.859   5.199   0.630
 7668SOL    HW223904   2.926   5.223   0.777
 7669SOL     OW23905   4.634   1.341   5.206
 7669SOL    HW123906   4.552   1.350   5.150
 7669SOL    HW223907   4.702   1.409   5.178
 7670SOL     OW23908   0.419   5.162   0.657
 7670SOL    HW123909   0.513   5.195   0.661
 7670SOL    HW223910   0.361   5.235   0.620
 7671SOL     OW23911   3.557   1.218   2.458
 7671SOL    HW123912   3.656   1.206   2.464
 7671SOL    HW223913   3.519   1.227   2.550
 7672SOL     OW23914   0.143   6.068   3.073
 7672SOL    HW123915   0.096   6.155   3.063
 7672SOL    HW223916   0.206   6.073   3.151
 7673SOL     OW23917   1.880   6.105   1.761
 7673SOL    HW123918   1.963   6.160   1.768
 7673SOL    HW223919   1.896   6.029   1.698
 7674SOL     OW23920   5.444   1.296   3.832
 7674SOL    HW123921   5.435   1.199   3.808
 7674SOL    HW223922   5.521   1.336   3.783
 7675SOL     OW23923   6.180   6.528   2.670
 7675SOL    HW123924   6.111   6.594   2.700
 7675SOL    HW223925   6.265   6.576   2.649
 7676SOL     OW23926   1.848   2.087   0.210
 7676SOL    HW123927   1.856   2.154   0.284
 7676SOL    HW223928   1.939   2.065   0.175
 7677SOL     OW23929   0.716   4.373   1.761
 7677SOL    HW123930   0.621   4.390   1.733
 7677SOL    HW223931   0.751   4.292   1.715
 7678SOL     OW23932   2.520   2.773   5.280
 7678SOL    HW123933   2.512   2.690   5.224
 7678SOL    HW223934   2.469   2.847   5.236
 7679SOL     OW23935   3.024   6.502   5.938
 7679SOL    HW123936   2.998   6.441   5.863
 7679SOL    HW223937   3.123   6.516   5.937
 7680SOL     OW23938   1.321   0.566   0.946
 7680SOL    HW123939   1.386   0.604   1.013
 7680SOL    HW223940   1.362   0.487   0.901
 7681SOL     OW23941   3.092   0.395   0.870
 7681SOL    HW123942   3.052   0.368   0.783
 7681SOL    HW223943   3.174   0.340   0.888
 7682SOL     OW23944   3.973   6.891   2.393
 7682SOL    HW123945   3.930   6.923   2.309
 7682SOL    HW223946   4.061   6.938   2.405
 7683SOL     OW23947   0.023   1.776   5.294
 7683SOL    HW123948   6.989   1.855   5.317
 7683SOL    HW223949   0.111   1.785   5.340
 7684SOL     OW23950   4.123   1.712   0.913
 7684SOL    HW123951   4.049   1.727   0.978
 7684SOL    HW223952   4.201   1.671   0.960
 7685SOL     OW23953   2.626   1.340   5.824
 7685SOL    HW123954   2.700   1.273   5.817
 7685SOL    HW223955   2.587   1.356   5.733
 7686SOL     OW23956   6.820   6.854   3.281
 7686SOL    HW123957   6.802   6.838   3.184
 7686SOL    HW223958   6.901   6.802   3.309
 7687SOL     OW23959   6.230   5.525   4.825
 7687SOL    HW123960   6.177   5.610   4.825
 7687SOL    HW223961   6.311   5.537   4.766
 7688SOL     OW23962   0.551   5.995   5.822
 7688SOL    HW123963   0.522   6.041   5.738
 7688SOL    HW223964   0.619   5.925   5.800
 7689SOL     OW23965   6.053   6.823   2.429
 7689SOL    HW123966   6.081   6.813   2.524
 7689SOL    HW223967   6.067   6.738   2.380
 7690SOL     OW23968   5.772   5.265   0.077
 7690SOL    HW123969   5.786   5.295   0.171
 7690SOL    HW223970   5.752   5.344   0.019
 7691SOL     OW23971   5.094   3.934   3.160
 7691SOL    HW123972   5.161   3.984   3.216
 7691SOL    HW223973   5.076   3.986   3.077
 7692SOL     OW23974   0.588   6.514   1.916
 7692SOL    HW123975   0.489   6.512   1.908
 7692SOL    HW223976   0.629   6.540   1.828
 7693SOL     OW23977   3.353   0.622   1.824
 7693SOL    HW123978   3.413   0.696   1.853
 7693SOL    HW223979   3.400   0.534   1.837
 7694SOL     OW23980   5.321   3.816   3.716
 7694SOL    HW123981   5.297   3.862   3.631
 7694SOL    HW223982   5.239   3.770   3.752
 7695SOL     OW23983   4.729   0.346   1.521
 7695SOL    HW123984   4.776   0.259   1.506
 7695SOL    HW223985   4.643   0.330   1.570
 7696SOL     OW23986   0.332   1.582   6.054
 7696SOL    HW123987   0.341   1.493   6.008
 7696SOL    HW223988   0.268   1.575   6.130
 7697SOL     OW23989   2.961   6.851   3.642
 7697SOL    HW123990   2.873   6.808   3.621
 7697SOL    HW223991   2.949   6.920   3.713
 7698SOL     OW23992   5.663   1.402   3.699
 7698SOL    HW123993   5.728   1.327   3.683
 7698SOL    HW223994   5.705   1.489   3.672
 7699SOL     OW23995   3.020   6.152   5.839
 7699SOL    HW123996   2.965   6.141   5.757
 7699SOL    HW223997   2.980   6.099   5.914
 7700SOL     OW23998   4.438   5.814   3.146
 7700SOL    HW123999   4.390   5.848   3.227
 7700SOL    HW224000   4.445   5.714   3.151
 7701SOL     OW24001   6.517   2.528   6.601
 7701SOL    HW124002   6.482   2.618   6.624
 7701SOL    HW224003   6.617   2.533   6.589
 7702SOL     OW24004   4.256   6.063   5.138
 7702SOL    HW124005   4.177   6.121   5.121
 7702SOL    HW224006   4.339   6.119   5.137
 7703SOL     OW24007   5.724   6.107   6.391
 7703SOL    HW124008   5.730   6.133   6.294
 7703SOL    HW224009   5.812   6.124   6.435
 7704SOL     OW24010   6.029   0.551   3.703
 7704SOL    HW124011   6.128   0.544   3.714
 7704SOL    HW224012   6.006   0.636   3.655
 7705SOL     OW24013   2.599   5.993   0.847
 7705SOL    HW124014   2.546   6.068   0.886
 7705SOL    HW224015   2.681   6.029   0.802
 7706SOL     OW24016   3.333   3.243   4.515
 7706SOL    HW124017   3.373   3.151   4.512
 7706SOL    HW224018   3.239   3.237   4.547
 7707SOL     OW24019   0.101   3.816   6.046
 7707SOL    HW124020   0.150   3.903   6.047
 7707SOL    HW224021   0.132   3.759   6.122
 7708SOL     OW24022   0.903   6.486   5.581
 7708SOL    HW124023   0.872   6.421   5.651
 7708SOL    HW224024   0.855   6.572   5.592
 7709SOL     OW24025   6.893   4.785   1.751
 7709SOL    HW124026   6.826   4.778   1.676
 7709SOL    HW224027   6.904   4.695   1.794
 7710SOL     OW24028   2.569   2.301   6.980
 7710SOL    HW124029   2.519   2.230   6.930
 7710SOL    HW224030   2.651   2.261   7.021
 7711SOL     OW24031   5.941   5.999   5.827
 7711SOL    HW124032   6.005   6.027   5.899
 7711SOL    HW224033   5.847   6.008   5.861
 7712SOL     OW24034   6.181   5.077   1.096
 7712SOL    HW124035   6.229   5.126   1.169
 7712SOL    HW224036   6.140   5.143   1.033
 7713SOL     OW24037   1.686   4.324   0.788
 7713SOL    HW124038   1.774   4.364   0.811
 7713SOL    HW224039   1.685   4.297   0.692
 7714SOL     OW24040   6.926   4.746   6.113
 7714SOL    HW124041   7.007   4.774   6.060
 7714SOL    HW224042   6.844   4.766   6.060
 7715SOL     OW24043   2.401   1.966   6.867
 7715SOL    HW124044   2.399   2.042   6.802
 7715SOL    HW224045   2.392   2.001   6.960
 7716SOL     OW24046   6.854   4.475   0.793
 7716SOL    HW124047   6.889   4.423   0.871
 7716SOL    HW224048   6.773   4.430   0.756
 7717SOL     OW24049   1.101   1.178   5.510
 7717SOL    HW124050   1.198   1.180   5.487
 7717SOL    HW224051   1.089   1.202   5.607
 7718SOL     OW24052   6.922   4.139   3.183
 7718SOL    HW124053   6.945   4.043   3.201
 7718SOL    HW224054   6.842   4.165   3.238
 7719SOL     OW24055   0.111   4.186   4.792
 7719SOL    HW124056   0.160   4.228   4.868
 7719SOL    HW224057   0.127   4.087   4.792
 7720SOL     OW24058   6.131   2.634   6.701
 7720SOL    HW124059   6.068   2.600   6.631
 7720SOL    HW224060   6.225   2.631   6.665
 7721SOL     OW24061   0.478   5.289   2.400
 7721SOL    HW124062   0.526   5.202   2.410
 7721SOL    HW224063   0.530   5.349   2.340
 7722SOL     OW24064   1.373   4.263   3.767
 7722SOL    HW124065   1.460   4.221   3.792
 7722SOL    HW224066   1.387   4.358   3.740
 7723SOL     OW24067   3.984   3.211   6.910
 7723SOL    HW124068   4.062   3.157   6.877
 7723SOL    HW224069   3.952   3.271   6.837
 7724SOL     OW24070   2.712   3.868   0.870
 7724SOL    HW124071   2.691   3.781   0.915
 7724SOL    HW224072   2.794   3.858   0.814
 7725SOL     OW24073   5.939   1.336   2.679
 7725SOL    HW124074   5.871   1.397   2.640
 7725SOL    HW224075   5.987   1.287   2.605
 7726SOL     OW24076   1.702   5.243   5.961
 7726SOL    HW124077   1.635   5.261   5.890
 7726SOL    HW224078   1.683   5.154   6.003
 7727SOL     OW24079   6.678   2.842   2.249
 7727SOL    HW124080   6.589   2.883   2.268
 7727SOL    HW224081   6.666   2.750   2.211
 7728SOL     OW24082   2.186   2.805   5.058
 7728SOL    HW124083   2.199   2.843   5.149
 7728SOL    HW224084   2.223   2.868   4.990
 7729SOL     OW24085   6.032   1.454   1.339
 7729SOL    HW124086   6.075   1.377   1.292
 7729SOL    HW224087   6.060   1.539   1.295
 7730SOL     OW24088   6.267   5.141   5.982
 7730SOL    HW124089   6.262   5.046   6.013
 7730SOL    HW224090   6.283   5.143   5.883
 7731SOL     OW24091   5.830   0.248   0.384
 7731SOL    HW124092   5.891   0.312   0.337
 7731SOL    HW224093   5.833   0.267   0.483
 7732SOL     OW24094   4.084   0.158   0.465
 7732SOL    HW124095   4.012   0.128   0.402
 7732SOL    HW224096   4.173   0.134   0.427
 7733SOL     OW24097   5.394   6.075   2.082
 7733SOL    HW124098   5.303   6.080   2.041
 7733SOL    HW224099   5.439   6.164   2.076
 7734SOL     OW24100   1.730   4.691   4.494
 7734SOL    HW124101   1.672   4.743   4.556
 7734SOL    HW224102   1.818   4.737   4.484
 7735SOL     OW24103   4.577   6.218   6.295
 7735SOL    HW124104   4.603   6.122   6.279
 7735SOL    HW224105   4.659   6.275   6.291
 7736SOL     OW24106   2.163   3.128   6.954
 7736SOL    HW124107   2.076   3.081   6.969
 7736SOL    HW224108   2.162   3.175   6.866
 7737SOL     OW24109   3.337   0.388   2.686
 7737SOL    HW124110   3.347   0.475   2.734
 7737SOL    HW224111   3.426   0.355   2.657
 7738SOL     OW24112   3.349   5.189   0.352
 7738SOL    HW124113   3.335   5.128   0.274
 7738SOL    HW224114   3.261   5.232   0.376
 7739SOL     OW24115   0.625   2.485   1.802
 7739SOL    HW124116   0.537   2.455   1.767
 7739SOL    HW224117   0.655   2.423   1.875
 7740SOL     OW24118   3.153   0.939   2.900
 7740SOL    HW124119   3.163   0.924   2.802
 7740SOL    HW224120   3.235   0.986   2.935
 7741SOL     OW24121   6.883   4.552   5.227
 7741SOL    HW124122   6.877   4.570   5.129
 7741SOL    HW224123   6.973   4.513   5.248
 7742SOL     OW24124   4.230   2.277   3.049
 7742SOL    HW124125   4.311   2.335   3.052
 7742SOL    HW224126   4.175   2.299   2.968
 7743SOL     OW24127   4.371   1.931   6.930
 7743SOL    HW124128   4.465   1.898   6.931
 7743SOL    HW224129   4.310   1.858   6.960
 7744SOL     OW24130   0.972   0.709   4.094
 7744SOL    HW124131   0.970   0.807   4.073
 7744SOL    HW224132   1.067   0.678   4.098
 7745SOL     OW24133   3.552   0.990   0.117
 7745SOL    HW124134   3.572   0.953   0.027
 7745SOL    HW224135   3.512   0.919   0.175
 7746SOL     OW24136   0.789   0.839   0.354
 7746SOL    HW124137   0.745   0.769   0.409
 7746SOL    HW224138   0.854   0.796   0.291
 7747SOL     OW24139   5.896   6.465   1.045
 7747SOL    HW124140   5.894   6.396   0.973
 7747SOL    HW224141   5.899   6.556   1.003
 7748SOL     OW24142   2.913   3.604   4.137
 7748SOL    HW124143   2.935   3.519   4.089
 7748SOL    HW224144   2.917   3.680   4.072
 7749SOL     OW24145   3.508   3.020   5.318
 7749SOL    HW124146   3.511   2.957   5.396
 7749SOL    HW224147   3.496   3.114   5.352
 7750SOL     OW24148   6.554   5.723   0.319
 7750SOL    HW124149   6.638   5.728   0.265
 7750SOL    HW224150   6.577   5.715   0.416
 7751SOL     OW24151   1.387   2.641   2.677
 7751SOL    HW124152   1.307   2.610   2.627
 7751SOL    HW224153   1.360   2.707   2.747
 7752SOL     OW24154   5.790   6.782   5.990
 7752SOL    HW124155   5.714   6.730   6.030
 7752SOL    HW224156   5.863   6.792   6.058
 7753SOL     OW24157   2.217   0.575   3.998
 7753SOL    HW124158   2.303   0.546   4.040
 7753SOL    HW224159   2.236   0.645   3.929
 7754SOL     OW24160   4.866   6.981   2.227
 7754SOL    HW124161   4.927   0.027   2.188
 7754SOL    HW224162   4.896   6.890   2.198
 7755SOL     OW24163   1.574   2.295   6.086
 7755SOL    HW124164   1.565   2.197   6.064
 7755SOL    HW224165   1.531   2.349   6.014
 7756SOL     OW24166   3.468   5.263   2.378
 7756SOL    HW124167   3.538   5.193   2.397
 7756SOL    HW224168   3.438   5.254   2.283
 7757SOL     OW24169   5.548   5.401   4.746
 7757SOL    HW124170   5.521   5.428   4.839
 7757SOL    HW224171   5.547   5.482   4.687
 7758SOL     OW24172   1.055   1.827   0.217
 7758SOL    HW124173   1.054   1.833   0.117
 7758SOL    HW224174   1.102   1.743   0.245
 7759SOL     OW24175   1.156   2.058   5.513
 7759SOL    HW124176   1.058   2.069   5.528
 7759SOL    HW224177   1.172   2.007   5.428
 7760SOL     OW24178   5.556   3.496   3.103
 7760SOL    HW124179   5.492   3.521   3.176
 7760SOL    HW224180   5.582   3.400   3.114
 7761SOL     OW24181   1.210   6.931   6.098
 7761SOL    HW124182   1.273   6.880   6.156
 7761SOL    HW224183   1.208   6.889   6.007
 7762SOL     OW24184   4.640   0.504   4.245
 7762SOL    HW124185   4.716   0.444   4.220
 7762SOL    HW224186   4.672   0.599   4.247
 7763SOL     OW24187   1.221   1.327   0.320
 7763SOL    HW124188   1.124   1.318   0.339
 7763SOL    HW224189   1.274   1.298   0.400
 7764SOL     OW24190   3.664   2.909   3.308
 7764SOL    HW124191   3.737   2.950   3.363
 7764SOL    HW224192   3.589   2.881   3.368
 7765SOL     OW24193   6.127   2.022   3.866
 7765SOL    HW124194   6.143   2.023   3.768
 7765SOL    HW224195   6.149   2.112   3.904
 7766SOL     OW24196   5.362   2.301   6.943
 7766SOL    HW124197   5.281   2.271   6.993
 7766SOL    HW224198   5.369   2.250   6.857
 7767SOL     OW24199   4.396   6.380   3.987
 7767SOL    HW124200   4.416   6.282   3.984
 7767SOL    HW224201   4.470   6.431   3.942
 7768SOL     OW24202   4.325   4.615   2.512
 7768SOL    HW124203   4.321   4.631   2.611
 7768SOL    HW224204   4.252   4.665   2.467
 7769SOL     OW24205   4.813   2.901   2.507
 7769SOL    HW124206   4.771   2.810   2.515
 7769SOL    HW224207   4.829   2.922   2.411
 7770SOL     OW24208   1.642   4.423   1.989
 7770SOL    HW124209   1.615   4.424   1.893
 7770SOL    HW224210   1.560   4.426   2.047
 7771SOL     OW24211   3.223   2.043   5.140
 7771SOL    HW124212   3.172   2.129   5.135
 7771SOL    HW224213   3.249   2.025   5.235
 7772SOL     OW24214   5.588   0.877   2.398
 7772SOL    HW124215   5.551   0.935   2.325
 7772SOL    HW224216   5.512   0.841   2.453
 7773SOL     OW24217   2.707   5.660   4.643
 7773SOL    HW124218   2.629   5.674   4.582
 7773SOL    HW224219   2.704   5.726   4.718
 7774SOL     OW24220   5.399   1.938   5.864
 7774SOL    HW124221   5.352   1.907   5.781
 7774SOL    HW224222   5.450   1.861   5.903
 7775SOL     OW24223   4.490   6.371   2.202
 7775SOL    HW124224   4.437   6.288   2.219
 7775SOL    HW224225   4.460   6.414   2.117
 7776SOL     OW24226   1.488   4.899   0.475
 7776SOL    HW124227   1.554   4.857   0.413
 7776SOL    HW224228   1.479   4.842   0.557
 7777SOL     OW24229   1.296   0.446   4.599
 7777SOL    HW124230   1.289   0.463   4.697
 7777SOL    HW224231   1.245   0.364   4.575
 7778SOL     OW24232   5.031   4.364   0.708
 7778SOL    HW124233   5.069   4.346   0.617
 7778SOL    HW224234   5.105   4.386   0.771
 7779SOL     OW24235   2.859   2.565   1.097
 7779SOL    HW124236   2.781   2.621   1.070
 7779SOL    HW224237   2.867   2.565   1.197
 7780SOL     OW24238   0.965   4.874   5.751
 7780SOL    HW124239   0.975   4.930   5.834
 7780SOL    HW224240   0.888   4.812   5.762
 7781SOL     OW24241   1.207   4.820   0.545
 7781SOL    HW124242   1.213   4.790   0.640
 7781SOL    HW224243   1.298   4.844   0.512
 7782SOL     OW24244   6.881   4.654   4.716
 7782SOL    HW124245   6.970   4.699   4.716
 7782SOL    HW224246   6.850   4.642   4.621
 7783SOL     OW24247   0.587   5.683   4.257
 7783SOL    HW124248   0.508   5.727   4.214
 7783SOL    HW224249   0.662   5.748   4.265
 7784SOL     OW24250   3.129   3.101   1.194
 7784SOL    HW124251   3.103   3.005   1.198
 7784SOL    HW224252   3.223   3.109   1.159
 7785SOL     OW24253   1.583   6.134   4.053
 7785SOL    HW124254   1.608   6.053   4.105
 7785SOL    HW224255   1.607   6.121   3.957
 7786SOL     OW24256   3.064   6.541   6.797
 7786SOL    HW124257   2.975   6.569   6.761
 7786SOL    HW224258   3.084   6.448   6.769
 7787SOL     OW24259   2.438   2.609   6.132
 7787SOL    HW124260   2.347   2.569   6.128
 7787SOL    HW224261   2.449   2.676   6.058
 7788SOL     OW24262   2.327   5.251   1.634
 7788SOL    HW124263   2.378   5.178   1.679
 7788SOL    HW224264   2.376   5.279   1.551
 7789SOL     OW24265   1.902   6.503   6.302
 7789SOL    HW124266   1.884   6.578   6.366
 7789SOL    HW224267   1.855   6.420   6.334
 7790SOL     OW24268   5.321   5.292   3.304
 7790SOL    HW124269   5.345   5.250   3.391
 7790SOL    HW224270   5.233   5.339   3.312
 7791SOL     OW24271   2.557   6.196   3.842
 7791SOL    HW124272   2.643   6.219   3.796
 7791SOL    HW224273   2.516   6.116   3.798
 7792SOL     OW24274   1.696   4.849   5.266
 7792SOL    HW124275   1.641   4.786   5.321
 7792SOL    HW224276   1.739   4.799   5.191
 7793SOL     OW24277   3.211   0.662   0.143
 7793SOL    HW124278   3.135   0.720   0.112
 7793SOL    HW224279   3.209   0.575   0.093
 7794SOL     OW24280   5.781   4.726   3.019
 7794SOL    HW124281   5.816   4.703   2.928
 7794SOL    HW224282   5.764   4.824   3.024
 7795SOL     OW24283   2.285   3.905   5.515
 7795SOL    HW124284   2.223   3.859   5.578
 7795SOL    HW224285   2.272   3.868   5.423
 7796SOL     OW24286   3.999   3.836   3.417
 7796SOL    HW124287   3.963   3.894   3.489
 7796SOL    HW224288   4.042   3.755   3.457
 7797SOL     OW24289   1.399   6.978   3.050
 7797SOL    HW124290   1.323   6.968   3.114
 7797SOL    HW224291   1.459   0.028   3.081
 7798SOL     OW24292   2.507   4.293   5.622
 7798SOL    HW124293   2.484   4.233   5.546
 7798SOL    HW224294   2.444   4.277   5.697
 7799SOL     OW24295   0.793   6.239   2.313
 7799SOL    HW124296   0.777   6.225   2.215
 7799SOL    HW224297   0.890   6.230   2.333
 7800SOL     OW24298   0.860   5.479   0.908
 7800SOL    HW124299   0.811   5.548   0.855
 7800SOL    HW224300   0.941   5.450   0.856
 7801SOL     OW24301   2.324   1.766   1.962
 7801SOL    HW124302   2.399   1.708   1.932
 7801SOL    HW224303   2.237   1.719   1.945
 7802SOL     OW24304   6.063   2.434   0.693
 7802SOL    HW124305   6.000   2.359   0.711
 7802SOL    HW224306   6.020   2.521   0.717
 7803SOL     OW24307   4.524   1.438   6.276
 7803SOL    HW124308   4.479   1.519   6.313
 7803SOL    HW224309   4.589   1.402   6.343
 7804SOL     OW24310   4.856   2.096   4.026
 7804SOL    HW124311   4.782   2.037   4.058
 7804SOL    HW224312   4.922   2.109   4.100
 7805SOL     OW24313   5.329   2.197   1.169
 7805SOL    HW124314   5.399   2.266   1.185
 7805SOL    HW224315   5.366   2.124   1.112
 7806SOL     OW24316   6.006   2.115   6.659
 7806SOL    HW124317   5.912   2.140   6.640
 7806SOL    HW224318   6.066   2.194   6.643
 7807SOL     OW24319   0.943   4.569   5.277
 7807SOL    HW124320   0.935   4.526   5.187
 7807SOL    HW224321   0.866   4.631   5.292
 7808SOL     OW24322   6.238   2.977   4.172
 7808SOL    HW124323   6.219   3.073   4.194
 7808SOL    HW224324   6.163   2.920   4.205
 7809SOL     OW24325   2.090   5.362   3.941
 7809SOL    HW124326   1.992   5.342   3.939
 7809SOL    HW224327   2.141   5.276   3.952
 7810SOL     OW24328   3.950   0.665   4.587
 7810SOL    HW124329   3.902   0.706   4.664
 7810SOL    HW224330   4.044   0.642   4.614
 7811SOL     OW24331   1.500   5.239   2.346
 7811SOL    HW124332   1.455   5.163   2.393
 7811SOL    HW224333   1.515   5.314   2.411
 7812SOL     OW24334   0.808   1.881   3.997
 7812SOL    HW124335   0.761   1.823   3.930
 7812SOL    HW224336   0.868   1.945   3.950
 7813SOL     OW24337   4.799   2.932   6.885
 7813SOL    HW124338   4.752   3.001   6.941
 7813SOL    HW224339   4.766   2.937   6.791
 7814SOL     OW24340   6.795   3.015   3.083
 7814SOL    HW124341   6.750   3.050   3.001
 7814SOL    HW224342   6.802   2.915   3.077
 7815SOL     OW24343   5.402   0.543   5.551
 7815SOL    HW124344   5.405   0.602   5.471
 7815SOL    HW224345   5.412   0.598   5.634
 7816SOL     OW24346   1.579   2.210   6.465
 7816SOL    HW124347   1.676   2.193   6.447
 7816SOL    HW224348   1.530   2.123   6.472
 7817SOL     OW24349   5.481   4.979   3.001
 7817SOL    HW124350   5.476   4.962   2.903
 7817SOL    HW224351   5.401   5.031   3.031
 7818SOL     OW24352   4.174   0.731   2.719
 7818SOL    HW124353   4.174   0.666   2.644
 7818SOL    HW224354   4.258   0.786   2.716
 7819SOL     OW24355   6.956   3.694   1.904
 7819SOL    HW124356   6.999   3.709   1.815
 7819SOL    HW224357   7.015   3.730   1.976
 7820SOL     OW24358   1.744   2.548   5.771
 7820SOL    HW124359   1.715   2.583   5.681
 7820SOL    HW224360   1.762   2.450   5.764
 7821SOL     OW24361   5.439   6.512   0.122
 7821SOL    HW124362   5.371   6.455   0.075
 7821SOL    HW224363   5.496   6.454   0.180
 7822SOL     OW24364   1.476   1.645   6.274
 7822SOL    HW124365   1.438   1.614   6.361
 7822SOL    HW224366   1.514   1.737   6.285
 7823SOL     OW24367   2.467   3.735   5.340
 7823SOL    HW124368   2.562   3.723   5.366
 7823SOL    HW224369   2.459   3.810   5.275
 7824SOL     OW24370   6.764   0.630   4.025
 7824SOL    HW124371   6.720   0.714   4.056
 7824SOL    HW224372   6.699   0.578   3.969
 7825SOL     OW24373   1.791   2.636   1.243
 7825SOL    HW124374   1.724   2.655   1.315
 7825SOL    HW224375   1.879   2.676   1.268
 7826SOL     OW24376   6.664   1.406   1.282
 7826SOL    HW124377   6.700   1.406   1.188
 7826SOL    HW224378   6.656   1.312   1.314
 7827SOL     OW24379   2.312   5.692   0.933
 7827SOL    HW124380   2.407   5.719   0.922
 7827SOL    HW224381   2.304   5.593   0.922
 7828SOL     OW24382   0.741   4.117   6.532
 7828SOL    HW124383   0.668   4.103   6.464
 7828SOL    HW224384   0.777   4.209   6.524
 7829SOL     OW24385   2.983   4.055   1.355
 7829SOL    HW124386   2.903   4.049   1.296
 7829SOL    HW224387   3.065   4.029   1.304
 7830SOL     OW24388   2.616   4.871   5.592
 7830SOL    HW124389   2.553   4.810   5.543
 7830SOL    HW224390   2.680   4.815   5.646
 7831SOL     OW24391   1.724   0.001   1.020
 7831SOL    HW124392   1.739   6.979   0.932
 7831SOL    HW224393   1.761   0.094   1.016
 7832SOL     OW24394   5.393   0.812   3.290
 7832SOL    HW124395   5.314   0.833   3.233
 7832SOL    HW224396   5.477   0.817   3.235
 7833SOL     OW24397   0.804   0.936   6.309
 7833SOL    HW124398   0.850   1.021   6.281
 7833SOL    HW224399   0.771   0.946   6.403
 7834SOL     OW24400   6.904   1.703   3.723
 7834SOL    HW124401   6.986   1.749   3.690
 7834SOL    HW224402   6.824   1.763   3.711
 7835SOL     OW24403   3.670   2.050   5.692
 7835SOL    HW124404   3.745   2.115   5.705
 7835SOL    HW224405   3.648   2.007   5.779
 7836SOL     OW24406   3.265   3.050   5.087
 7836SOL    HW124407   3.327   3.077   5.161
 7836SOL    HW224408   3.242   2.954   5.095
 7837SOL     OW24409   5.860   5.581   0.129
 7837SOL    HW124410   5.853   5.677   0.157
 7837SOL    HW224411   5.957   5.554   0.127
 7838SOL     OW24412   3.921   0.380   0.506
 7838SOL    HW124413   3.914   0.398   0.408
 7838SOL    HW224414   3.988   0.308   0.522
 7839SOL     OW24415   6.142   4.144   5.067
 7839SOL    HW124416   6.183   4.233   5.087
 7839SOL    HW224417   6.074   4.122   5.137
 7840SOL     OW24418   6.427   2.563   3.786
 7840SOL    HW124419   6.427   2.604   3.694
 7840SOL    HW224420   6.372   2.480   3.785
 7841SOL     OW24421   3.172   1.732   6.167
 7841SOL    HW124422   3.144   1.637   6.176
 7841SOL    HW224423   3.148   1.782   6.250
 7842SOL     OW24424   2.334   1.939   2.780
 7842SOL    HW124425   2.276   1.888   2.843
 7842SOL    HW224426   2.378   2.014   2.830
 7843SOL     OW24427   0.068   5.945   3.348
 7843SOL    HW124428   0.158   5.985   3.330
 7843SOL    HW224429   0.080   5.853   3.386
 7844SOL     OW24430   4.022   6.914   3.221
 7844SOL    HW124431   4.019   6.909   3.121
 7844SOL    HW224432   3.929   6.921   3.258
 7845SOL     OW24433   5.794   2.178   2.881
 7845SOL    HW124434   5.699   2.165   2.911
 7845SOL    HW224435   5.843   2.234   2.949
 7846SOL     OW24436   0.885   1.437   2.271
 7846SOL    HW124437   0.857   1.345   2.245
 7846SOL    HW224438   0.831   1.504   2.219
 7847SOL     OW24439   6.826   1.643   3.367
 7847SOL    HW124440   6.883   1.703   3.422
 7847SOL    HW224441   6.767   1.697   3.308
 7848SOL     OW24442   3.589   3.825   0.547
 7848SOL    HW124443   3.542   3.748   0.504
 7848SOL    HW224444   3.536   3.908   0.533
 7849SOL     OW24445   6.350   4.119   4.148
 7849SOL    HW124446   6.446   4.093   4.137
 7849SOL    HW224447   6.294   4.070   4.082
 7850SOL     OW24448   0.648   1.756   4.744
 7850SOL    HW124449   0.726   1.788   4.691
 7850SOL    HW224450   0.563   1.786   4.699
 7851SOL     OW24451   6.361   1.419   1.713
 7851SOL    HW124452   6.454   1.424   1.679
 7851SOL    HW224453   6.330   1.510   1.741
 7852SOL     OW24454   2.651   1.292   6.267
 7852SOL    HW124455   2.693   1.343   6.342
 7852SOL    HW224456   2.597   1.355   6.211
 7853SOL     OW24457   5.245   2.479   1.970
 7853SOL    HW124458   5.154   2.514   1.952
 7853SOL    HW224459   5.263   2.479   2.068
 7854SOL     OW24460   3.541   3.374   7.007
 7854SOL    HW124461   3.604   3.444   0.017
 7854SOL    HW224462   3.453   3.416   6.986
 7855SOL     OW24463   4.802   6.483   4.537
 7855SOL    HW124464   4.740   6.446   4.607
 7855SOL    HW224465   4.792   6.582   4.532
 7856SOL     OW24466   6.544   5.041   5.003
 7856SOL    HW124467   6.573   5.050   5.098
 7856SOL    HW224468   6.593   4.965   4.960
 7857SOL     OW24469   4.934   2.247   6.587
 7857SOL    HW124470   4.936   2.241   6.687
 7857SOL    HW224471   4.842   2.271   6.557
 7858SOL     OW24472   6.043   6.509   3.696
 7858SOL    HW124473   6.002   6.418   3.706
 7858SOL    HW224474   5.990   6.562   3.629
 7859SOL     OW24475   4.135   2.877   6.621
 7859SOL    HW124476   4.170   2.952   6.678
 7859SOL    HW224477   4.136   2.792   6.673
 7860SOL     OW24478   3.598   0.737   3.183
 7860SOL    HW124479   3.501   0.754   3.169
 7860SOL    HW224480   3.613   0.703   3.276
 7861SOL     OW24481   3.851   4.782   1.809
 7861SOL    HW124482   3.791   4.728   1.869
 7861SOL    HW224483   3.828   4.765   1.714
 7862SOL     OW24484   1.911   4.422   1.766
 7862SOL    HW124485   1.871   4.510   1.743
 7862SOL    HW224486   1.889   4.399   1.861
 7863SOL     OW24487   0.447   4.659   4.405
 7863SOL    HW124488   0.439   4.564   4.434
 7863SOL    HW224489   0.543   4.686   4.404
 7864SOL     OW24490   0.505   5.483   5.063
 7864SOL    HW124491   0.409   5.455   5.066
 7864SOL    HW224492   0.562   5.410   5.102
 7865SOL     OW24493   6.285   6.655   3.836
 7865SOL    HW124494   6.196   6.631   3.798
 7865SOL    HW224495   6.339   6.571   3.849
 7866SOL     OW24496   1.175   1.338   6.053
 7866SOL    HW124497   1.178   1.316   6.151
 7866SOL    HW224498   1.175   1.437   6.042
 7867SOL     OW24499   6.300   6.268   3.678
 7867SOL    HW124500   6.211   6.292   3.718
 7867SOL    HW224501   6.292   6.267   3.579
 7868SOL     OW24502   4.838   6.079   1.491
 7868SOL    HW124503   4.815   5.988   1.525
 7868SOL    HW224504   4.763   6.114   1.435
 7869SOL     OW24505   5.617   3.620   6.994
 7869SOL    HW124506   5.522   3.601   6.968
 7869SOL    HW224507   5.676   3.550   6.954
 7870SOL     OW24508   4.542   4.858   4.223
 7870SOL    HW124509   4.579   4.826   4.310
 7870SOL    HW224510   4.445   4.833   4.216
 7871SOL     OW24511   4.547   2.168   2.312
 7871SOL    HW124512   4.492   2.248   2.336
 7871SOL    HW224513   4.494   2.107   2.252
 7872SOL     OW24514   1.936   3.651   3.384
 7872SOL    HW124515   1.988   3.730   3.417
 7872SOL    HW224516   1.915   3.590   3.460
 7873SOL     OW24517   5.790   6.735   6.361
 7873SOL    HW124518   5.698   6.697   6.373
 7873SOL    HW224519   5.840   6.727   6.447
 7874SOL     OW24520   5.208   2.077   6.788
 7874SOL    HW124521   5.233   2.017   6.864
 7874SOL    HW224522   5.291   2.104   6.739
 7875SOL     OW24523   4.168   3.073   6.414
 7875SOL    HW124524   4.161   2.991   6.470
 7875SOL    HW224525   4.218   3.144   6.464
 7876SOL     OW24526   1.244   6.964   4.263
 7876SOL    HW124527   1.329   6.914   4.248
 7876SOL    HW224528   1.227   6.971   4.362
 7877SOL     OW24529   1.122   1.915   2.622
 7877SOL    HW124530   1.052   1.972   2.578
 7877SOL    HW224531   1.089   1.887   2.712
 7878SOL     OW24532   5.338   4.543   4.794
 7878SOL    HW124533   5.332   4.623   4.854
 7878SOL    HW224534   5.294   4.562   4.707
 7879SOL     OW24535   4.289   5.452   3.639
 7879SOL    HW124536   4.241   5.376   3.682
 7879SOL    HW224537   4.360   5.486   3.700
 7880SOL     OW24538   2.223   5.444   0.770
 7880SOL    HW124539   2.151   5.383   0.802
 7880SOL    HW224540   2.184   5.511   0.707
 7881SOL     OW24541   6.283   4.823   4.795
 7881SOL    HW124542   6.284   4.896   4.862
 7881SOL    HW224543   6.358   4.835   4.730
 7882SOL     OW24544   1.300   3.155   2.143
 7882SOL    HW124545   1.275   3.136   2.238
 7882SOL    HW224546   1.346   3.075   2.104
 7883SOL     OW24547   1.040   0.521   0.559
 7883SOL    HW124548   1.095   0.581   0.617
 7883SOL    HW224549   1.009   0.572   0.479
 7884SOL     OW24550   2.069   3.718   4.666
 7884SOL    HW124551   2.071   3.719   4.566
 7884SOL    HW224552   1.984   3.674   4.697
 7885SOL     OW24553   6.298   5.189   1.313
 7885SOL    HW124554   6.361   5.144   1.377
 7885SOL    HW224555   6.208   5.147   1.320
 7886SOL     OW24556   3.703   5.270   6.804
 7886SOL    HW124557   3.775   5.225   6.856
 7886SOL    HW224558   3.617   5.221   6.816
 7887SOL     OW24559   3.619   2.612   5.438
 7887SOL    HW124560   3.701   2.586   5.387
 7887SOL    HW224561   3.538   2.597   5.382
 7888SOL     OW24562   6.580   6.948   5.270
 7888SOL    HW124563   6.618   6.862   5.235
 7888SOL    HW224564   6.485   6.958   5.240
 7889SOL     OW24565   1.837   5.092   0.887
 7889SOL    HW124566   1.844   5.124   0.982
 7889SOL    HW224567   1.745   5.055   0.871
 7890SOL     OW24568   1.784   2.429   2.766
 7890SOL    HW124569   1.777   2.470   2.857
 7890SOL    HW224570   1.843   2.486   2.708
 7891SOL     OW24571   1.931   3.735   3.923
 7891SOL    HW124572   1.867   3.683   3.980
 7891SOL    HW224573   1.881   3.779   3.848
 7892SOL     OW24574   1.988   0.780   3.820
 7892SOL    HW124575   1.957   0.794   3.914
 7892SOL    HW224576   1.956   0.691   3.788
 7893SOL     OW24577   6.980   6.253   2.948
 7893SOL    HW124578   6.983   6.182   2.878
 7893SOL    HW224579   0.045   6.299   2.953
 7894SOL     OW24580   3.361   6.802   0.834
 7894SOL    HW124581   3.456   6.807   0.804
 7894SOL    HW224582   3.342   6.877   0.897
 7895SOL     OW24583   6.287   0.480   5.410
 7895SOL    HW124584   6.350   0.478   5.332
 7895SOL    HW224585   6.333   0.442   5.491
 7896SOL     OW24586   4.892   4.005   0.353
 7896SOL    HW124587   4.991   4.020   0.355
 7896SOL    HW224588   4.848   4.075   0.296
 7897SOL     OW24589   2.618   4.293   0.039
 7897SOL    HW124590   2.683   4.221   0.060
 7897SOL    HW224591   2.531   4.252   0.010
 7898SOL     OW24592   4.303   1.753   3.529
 7898SOL    HW124593   4.392   1.794   3.547
 7898SOL    HW224594   4.314   1.673   3.471
 7899SOL     OW24595   5.742   1.130   1.321
 7899SOL    HW124596   5.687   1.187   1.382
 7899SOL    HW224597   5.820   1.094   1.371
 7900SOL     OW24598   1.479   5.205   1.528
 7900SOL    HW124599   1.500   5.284   1.471
 7900SOL    HW224600   1.546   5.133   1.510
 7901SOL     OW24601   5.038   1.510   6.609
 7901SOL    HW124602   5.113   1.575   6.622
 7901SOL    HW224603   4.950   1.557   6.623
 7902SOL     OW24604   5.110   6.802   1.323
 7902SOL    HW124605   5.172   6.725   1.330
 7902SOL    HW224606   5.111   6.854   1.409
 7903SOL     OW24607   5.520   1.470   0.640
 7903SOL    HW124608   5.490   1.378   0.665
 7903SOL    HW224609   5.467   1.537   0.691
 7904SOL     OW24610   5.439   6.782   3.421
 7904SOL    HW124611   5.512   6.837   3.460
 7904SOL    HW224612   5.469   6.687   3.414
 7905SOL     OW24613   4.503   2.571   0.012
 7905SOL    HW124614   4.499   2.538   0.106
 7905SOL    HW224615   4.413   2.604   7.007
 7906SOL     OW24616   6.890   5.902   0.402
 7906SOL    HW124617   6.877   5.911   0.304
 7906SOL    HW224618   6.816   5.949   0.451
 7907SOL     OW24619   5.312   2.741   3.238
 7907SOL    HW124620   5.297   2.807   3.164
 7907SOL    HW224621   5.223   2.712   3.274
 7908SOL     OW24622   0.652   1.677   5.749
 7908SOL    HW124623   0.557   1.709   5.746
 7908SOL    HW224624   0.688   1.671   5.656
 7909SOL     OW24625   5.521   3.791   4.660
 7909SOL    HW124626   5.497   3.880   4.699
 7909SOL    HW224627   5.561   3.803   4.570
 7910SOL     OW24628   2.595   3.519   5.891
 7910SOL    HW124629   2.659   3.536   5.815
 7910SOL    HW224630   2.601   3.424   5.918
 7911SOL     OW24631   1.633   3.100   0.060
 7911SOL    HW124632   1.583   3.035   0.002
 7911SOL    HW224633   1.596   3.098   0.153
 7912SOL     OW24634   6.516   4.612   0.068
 7912SOL    HW124635   6.577   4.596   0.146
 7912SOL    HW224636   6.556   4.681   0.009
 7913SOL     OW24637   1.917   4.802   0.967
 7913SOL    HW124638   1.873   4.721   0.929
 7913SOL    HW224639   1.879   4.884   0.923
 7914SOL     OW24640   0.090   4.047   0.380
 7914SOL    HW124641   0.114   4.140   0.408
 7914SOL    HW224642   0.080   4.043   0.281
 7915SOL     OW24643   4.888   2.977   2.248
 7915SOL    HW124644   4.979   2.989   2.210
 7915SOL    HW224645   4.820   3.008   2.181
 7916SOL     OW24646   0.733   3.848   5.303
 7916SOL    HW124647   0.661   3.906   5.264
 7916SOL    HW224648   0.822   3.891   5.287
 7917SOL     OW24649   3.388   4.069   4.648
 7917SOL    HW124650   3.459   4.135   4.674
 7917SOL    HW224651   3.299   4.114   4.649
 7918SOL     OW24652   6.629   1.794   6.383
 7918SOL    HW124653   6.715   1.837   6.411
 7918SOL    HW224654   6.552   1.848   6.418
 7919SOL     OW24655   2.372   4.273   2.207
 7919SOL    HW124656   2.395   4.212   2.132
 7919SOL    HW224657   2.291   4.238   2.255
 7920SOL     OW24658   0.541   5.489   0.624
 7920SOL    HW124659   0.516   5.471   0.719
 7920SOL    HW224660   0.618   5.553   0.622
 7921SOL     OW24661   5.272   6.460   0.701
 7921SOL    HW124662   5.183   6.499   0.722
 7921SOL    HW224663   5.341   6.532   0.698
 7922SOL     OW24664   6.781   6.565   6.889
 7922SOL    HW124665   6.879   6.569   6.907
 7922SOL    HW224666   6.752   6.469   6.889
 7923SOL     OW24667   3.369   0.474   2.109
 7923SOL    HW124668   3.300   0.402   2.111
 7923SOL    HW224669   3.432   0.462   2.185
 7924SOL     OW24670   4.166   0.055   2.142
 7924SOL    HW124671   4.260   0.044   2.173
 7924SOL    HW224672   4.146   7.012   2.070
 7925SOL     OW24673   0.624   1.749   6.472
 7925SOL    HW124674   0.663   1.837   6.500
 7925SOL    HW224675   0.662   1.723   6.383
 7926SOL     OW24676   4.998   1.750   5.273
 7926SOL    HW124677   5.011   1.820   5.344
 7926SOL    HW224678   4.999   1.793   5.183
 7927SOL     OW24679   4.238   5.157   3.422
 7927SOL    HW124680   4.285   5.069   3.427
 7927SOL    HW224681   4.282   5.215   3.354
 7928SOL     OW24682   1.131   2.139   4.490
 7928SOL    HW124683   1.038   2.155   4.524
 7928SOL    HW224684   1.137   2.169   4.395
 7929SOL     OW24685   4.140   4.283   5.859
 7929SOL    HW124686   4.091   4.286   5.946
 7929SOL    HW224687   4.223   4.229   5.870
 7930SOL     OW24688   4.208   5.353   4.069
 7930SOL    HW124689   4.127   5.412   4.064
 7930SOL    HW224690   4.181   5.258   4.053
 7931SOL     OW24691   1.423   1.949   6.438
 7931SOL    HW124692   1.342   1.946   6.496
 7931SOL    HW224693   1.491   1.884   6.473
 7932SOL     OW24694   1.902   5.997   6.589
 7932SOL    HW124695   1.986   6.050   6.573
 7932SOL    HW224696   1.925   5.909   6.631
 7933SOL     OW24697   7.002   5.730   6.801
 7933SOL    HW124698   6.916   5.684   6.777
 7933SOL    HW224699   0.011   5.782   6.722
 7934SOL     OW24700   2.513   4.861   0.118
 7934SOL    HW124701   2.520   4.873   0.019
 7934SOL    HW224702   2.595   4.898   0.162
 7935SOL     OW24703   5.648   6.532   6.966
 7935SOL    HW124704   5.585   6.524   0.019
 7935SOL    HW224705   5.742   6.533   7.000
 7936SOL     OW24706   3.936   6.134   2.264
 7936SOL    HW124707   3.857   6.192   2.245
 7936SOL    HW224708   3.911   6.061   2.328
 7937SOL     OW24709   6.613   6.831   3.757
 7937SOL    HW124710   6.595   6.827   3.855
 7937SOL    HW224711   6.537   6.788   3.708
 7938SOL     OW24712   6.307   5.521   5.105
 7938SOL    HW124713   6.399   5.482   5.109
 7938SOL    HW224714   6.279   5.530   5.009
 7939SOL     OW24715   1.195   2.465   5.448
 7939SOL    HW124716   1.193   2.563   5.429
 7939SOL    HW224717   1.256   2.420   5.382
 7940SOL     OW24718   1.806   3.932   2.144
 7940SOL    HW124719   1.856   3.883   2.215
 7940SOL    HW224720   1.812   3.882   2.058
 7941SOL     OW24721   6.231   0.545   0.551
 7941SOL    HW124722   6.303   0.579   0.612
 7941SOL    HW224723   6.160   0.500   0.605
 7942SOL     OW24724   6.782   5.698   2.570
 7942SOL    HW124725   6.867   5.725   2.615
 7942SOL    HW224726   6.722   5.777   2.559
 7943SOL     OW24727   5.948   3.077   0.231
 7943SOL    HW124728   5.974   3.159   0.180
 7943SOL    HW224729   5.889   3.103   0.308
 7944SOL     OW24730   0.773   2.562   1.575
 7944SOL    HW124731   0.727   2.519   1.654
 7944SOL    HW224732   0.710   2.565   1.498
 7945SOL     OW24733   5.777   6.029   1.827
 7945SOL    HW124734   5.855   6.044   1.767
 7945SOL    HW224735   5.758   5.931   1.833
 7946SOL     OW24736   2.475   1.724   5.575
 7946SOL    HW124737   2.475   1.700   5.478
 7946SOL    HW224738   2.435   1.815   5.587
 7947SOL     OW24739   3.456   2.284   6.289
 7947SOL    HW124740   3.367   2.326   6.306
 7947SOL    HW224741   3.450   2.185   6.302
 7948SOL     OW24742   1.160   6.173   0.796
 7948SOL    HW124743   1.125   6.191   0.888
 7948SOL    HW224744   1.214   6.252   0.765
 7949SOL     OW24745   4.665   4.658   4.425
 7949SOL    HW124746   4.746   4.609   4.458
 7949SOL    HW224747   4.619   4.603   4.355
 7950SOL     OW24748   6.269   5.081   5.021
 7950SOL    HW124749   6.253   5.180   5.024
 7950SOL    HW224750   6.367   5.064   5.007
 7951SOL     OW24751   2.295   4.168   1.628
 7951SOL    HW124752   2.360   4.116   1.572
 7951SOL    HW224753   2.225   4.208   1.568
 7952SOL     OW24754   0.878   3.044   6.868
 7952SOL    HW124755   0.780   3.059   6.852
 7952SOL    HW224756   0.908   2.964   6.817
 7953SOL     OW24757   2.055   2.706   4.033
 7953SOL    HW124758   1.993   2.644   3.985
 7953SOL    HW224759   2.003   2.781   4.073
 7954SOL     OW24760   4.705   4.154   5.023
 7954SOL    HW124761   4.642   4.124   4.951
 7954SOL    HW224762   4.799   4.153   4.989
 7955SOL     OW24763   1.361   6.351   6.885
 7955SOL    HW124764   1.380   6.344   6.983
 7955SOL    HW224765   1.439   6.314   6.833
 7956SOL     OW24766   3.605   6.158   2.815
 7956SOL    HW124767   3.620   6.251   2.846
 7956SOL    HW224768   3.613   6.094   2.892
 7957SOL     OW24769   0.955   0.832   1.777
 7957SOL    HW124770   0.918   0.925   1.777
 7957SOL    HW224771   0.883   0.767   1.750
 7958SOL     OW24772   3.572   5.254   4.259
 7958SOL    HW124773   3.654   5.312   4.253
 7958SOL    HW224774   3.598   5.159   4.239
 7959SOL     OW24775   3.998   5.696   0.874
 7959SOL    HW124776   4.047   5.738   0.797
 7959SOL    HW224777   3.974   5.766   0.940
 7960SOL     OW24778   3.351   1.458   0.856
 7960SOL    HW124779   3.313   1.401   0.784
 7960SOL    HW224780   3.356   1.405   0.941
 7961SOL     OW24781   0.701   0.038   1.184
 7961SOL    HW124782   0.681   6.983   1.242
 7961SOL    HW224783   0.679   0.016   1.089
 7962SOL     OW24784   1.869   0.287   6.881
 7962SOL    HW124785   1.919   0.227   6.818
 7962SOL    HW224786   1.812   0.232   6.942
 7963SOL     OW24787   0.183   1.129   3.645
 7963SOL    HW124788   0.108   1.101   3.706
 7963SOL    HW224789   0.169   1.087   3.555
 7964SOL     OW24790   0.332   4.987   3.897
 7964SOL    HW124791   0.337   5.081   3.861
 7964SOL    HW224792   0.296   4.989   3.990
 7965SOL     OW24793   3.496   3.046   6.404
 7965SOL    HW124794   3.568   3.073   6.467
 7965SOL    HW224795   3.428   3.119   6.398
 7966SOL     OW24796   0.630   2.902   5.324
 7966SOL    HW124797   0.543   2.914   5.277
 7966SOL    HW224798   0.612   2.888   5.422
 7967SOL     OW24799   2.753   5.872   4.020
 7967SOL    HW124800   2.816   5.888   4.096
 7967SOL    HW224801   2.671   5.929   4.033
 7968SOL     OW24802   2.489   2.141   2.884
 7968SOL    HW124803   2.564   2.134   2.950
 7968SOL    HW224804   2.521   2.187   2.801
 7969SOL     OW24805   4.443   6.267   0.905
 7969SOL    HW124806   4.358   6.265   0.853
 7969SOL    HW224807   4.472   6.174   0.927
 7970SOL     OW24808   0.514   2.870   3.247
 7970SOL    HW124809   0.527   2.773   3.226
 7970SOL    HW224810   0.542   2.888   3.341
 7971SOL     OW24811   4.623   1.436   0.681
 7971SOL    HW124812   4.716   1.400   0.690
 7971SOL    HW224813   4.568   1.374   0.625
 7972SOL     OW24814   1.665   3.383   1.281
 7972SOL    HW124815   1.622   3.441   1.212
 7972SOL    HW224816   1.704   3.439   1.353
 7973SOL     OW24817   5.337   4.222   3.685
 7973SOL    HW124818   5.257   4.167   3.660
 7973SOL    HW224819   5.389   4.174   3.755
 7974SOL     OW24820   5.874   1.009   5.314
 7974SOL    HW124821   5.863   1.080   5.384
 7974SOL    HW224822   5.924   0.931   5.353
 7975SOL     OW24823   5.700   0.625   2.757
 7975SOL    HW124824   5.720   0.650   2.852
 7975SOL    HW224825   5.601   0.615   2.746
 7976SOL     OW24826   0.769   0.571   6.490
 7976SOL    HW124827   0.705   0.505   6.530
 7976SOL    HW224828   0.746   0.663   6.522
 7977SOL     OW24829   5.150   5.891   1.675
 7977SOL    HW124830   5.171   5.843   1.590
 7977SOL    HW224831   5.118   5.983   1.655
 7978SOL     OW24832   5.776   3.939   5.974
 7978SOL    HW124833   5.706   3.873   5.945
 7978SOL    HW224834   5.858   3.891   6.002
 7979SOL     OW24835   3.028   6.926   5.249
 7979SOL    HW124836   3.103   6.874   5.290
 7979SOL    HW224837   2.967   6.959   5.321
 7980SOL     OW24838   2.644   5.670   7.012
 7980SOL    HW124839   2.726   5.699   0.038
 7980SOL    HW224840   2.564   5.716   0.027
 7981SOL     OW24841   0.569   5.528   1.780
 7981SOL    HW124842   0.541   5.447   1.832
 7981SOL    HW224843   0.617   5.592   1.841
 7982SOL     OW24844   0.138   1.888   0.299
 7982SOL    HW124845   0.132   1.793   0.327
 7982SOL    HW224846   0.100   1.947   0.370
 7983SOL     OW24847   5.405   1.645   2.061
 7983SOL    HW124848   5.481   1.583   2.040
 7983SOL    HW224849   5.321   1.593   2.074
 7984SOL     OW24850   1.388   1.927   1.596
 7984SOL    HW124851   1.475   1.972   1.615
 7984SOL    HW224852   1.396   1.872   1.513
 7985SOL     OW24853   2.369   6.558   3.919
 7985SOL    HW124854   2.329   6.642   3.883
 7985SOL    HW224855   2.449   6.581   3.975
 7986SOL     OW24856   3.308   0.713   6.690
 7986SOL    HW124857   3.400   0.726   6.729
 7986SOL    HW224858   3.280   0.797   6.643
 7987SOL     OW24859   1.359   3.856   0.120
 7987SOL    HW124860   1.390   3.899   0.206
 7987SOL    HW224861   1.341   3.759   0.136
 7988SOL     OW24862   1.585   2.138   3.586
 7988SOL    HW124863   1.552   2.227   3.555
 7988SOL    HW224864   1.546   2.065   3.529
 7989SOL     OW24865   3.755   2.830   5.497
 7989SOL    HW124866   3.710   2.741   5.504
 7989SOL    HW224867   3.776   2.849   5.402
 7990SOL     OW24868   6.579   3.248   3.158
 7990SOL    HW124869   6.498   3.304   3.175
 7990SOL    HW224870   6.551   3.157   3.127
 7991SOL     OW24871   6.915   0.561   3.543
 7991SOL    HW124872   6.876   0.644   3.585
 7991SOL    HW224873   6.904   0.484   3.606
 7992SOL     OW24874   1.080   6.730   1.499
 7992SOL    HW124875   1.096   6.671   1.578
 7992SOL    HW224876   1.165   6.741   1.447
 7993SOL     OW24877   1.374   6.157   6.409
 7993SOL    HW124878   1.448   6.103   6.450
 7993SOL    HW224879   1.391   6.254   6.424
 7994SOL     OW24880   4.824   0.149   3.004
 7994SOL    HW124881   4.868   0.107   2.924
 7994SOL    HW224882   4.740   0.196   2.975
 7995SOL     OW24883   4.562   4.971   3.282
 7995SOL    HW124884   4.609   4.887   3.256
 7995SOL    HW224885   4.511   5.006   3.203
 7996SOL     OW24886   2.668   0.485   4.398
 7996SOL    HW124887   2.748   0.450   4.350
 7996SOL    HW224888   2.696   0.533   4.481
 7997SOL     OW24889   0.472   1.084   1.382
 7997SOL    HW124890   0.380   1.049   1.401
 7997SOL    HW224891   0.508   1.040   1.300
 7998SOL     OW24892   3.620   5.125   0.906
 7998SOL    HW124893   3.711   5.126   0.946
 7998SOL    HW224894   3.552   5.139   0.977
 7999SOL     OW24895   1.332   6.723   6.251
 7999SOL    HW124896   1.335   6.790   6.325
 7999SOL    HW224897   1.424   6.689   6.233
 8000SOL     OW24898   5.180   6.844   0.277
 8000SOL    HW124899   5.272   6.833   0.317
 8000SOL    HW224900   5.188   6.849   0.178
 8001SOL     OW24901   3.618   5.598   1.015
 8001SOL    HW124902   3.591   5.570   1.108
 8001SOL    HW224903   3.606   5.696   1.006
 8002SOL     OW24904   0.879   2.376   5.662
 8002SOL    HW124905   0.954   2.436   5.688
 8002SOL    HW224906   0.909   2.314   5.589
 8003SOL     OW24907   2.891   4.880   2.835
 8003SOL    HW124908   2.833   4.960   2.845
 8003SOL    HW224909   2.900   4.857   2.738
 8004SOL     OW24910   2.098   3.565   3.802
 8004SOL    HW124911   2.032   3.624   3.848
 8004SOL    HW224912   2.144   3.617   3.729
 8005SOL     OW24913   3.433   0.854   2.574
 8005SOL    HW124914   3.511   0.813   2.527
 8005SOL    HW224915   3.452   0.858   2.673
 8006SOL     OW24916   2.240   6.997   6.642
 8006SOL    HW124917   2.245   6.926   6.572
 8006SOL    HW224918   2.322   6.994   6.699
 8007SOL     OW24919   0.529   1.027   4.296
 8007SOL    HW124920   0.576   1.089   4.359
 8007SOL    HW224921   0.544   1.057   4.202
 8008SOL     OW24922   4.389   5.925   5.795
 8008SOL    HW124923   4.357   5.858   5.862
 8008SOL    HW224924   4.317   5.942   5.728
 8009SOL     OW24925   6.025   0.839   2.697
 8009SOL    HW124926   5.925   0.846   2.703
 8009SOL    HW224927   6.049   0.783   2.618
 8010SOL     OW24928   0.855   1.365   0.642
 8010SOL    HW124929   0.859   1.457   0.683
 8010SOL    HW224930   0.911   1.303   0.697
 8011SOL     OW24931   3.203   2.682   1.013
 8011SOL    HW124932   3.164   2.606   1.065
 8011SOL    HW224933   3.273   2.647   0.950
 8012SOL     OW24934   1.683   5.317   1.849
 8012SOL    HW124935   1.604   5.378   1.854
 8012SOL    HW224936   1.702   5.295   1.753
 8013SOL     OW24937   1.445   4.515   3.405
 8013SOL    HW124938   1.368   4.472   3.358
 8013SOL    HW224939   1.505   4.444   3.442
 8014SOL     OW24940   1.122   6.163   5.305
 8014SOL    HW124941   1.108   6.262   5.318
 8014SOL    HW224942   1.052   6.128   5.243
 8015SOL     OW24943   2.702   0.956   0.446
 8015SOL    HW124944   2.790   0.911   0.435
 8015SOL    HW224945   2.714   1.042   0.495
 8016SOL     OW24946   4.670   0.171   6.589
 8016SOL    HW124947   4.645   0.163   6.686
 8016SOL    HW224948   4.609   0.114   6.534
 8017SOL     OW24949   6.806   6.470   0.471
 8017SOL    HW124950   6.890   6.483   0.418
 8017SOL    HW224951   6.824   6.491   0.567
 8018SOL     OW24952   3.324   2.169   6.003
 8018SOL    HW124953   3.267   2.163   5.921
 8018SOL    HW224954   3.401   2.231   5.986
 8019SOL     OW24955   2.181   3.975   6.338
 8019SOL    HW124956   2.125   3.909   6.387
 8019SOL    HW224957   2.130   4.061   6.328
 8020SOL     OW24958   6.132   5.987   1.108
 8020SOL    HW124959   6.192   5.921   1.061
 8020SOL    HW224960   6.104   6.058   1.043
 8021SOL     OW24961   1.147   1.741   1.733
 8021SOL    HW124962   1.156   1.742   1.633
 8021SOL    HW224963   1.226   1.696   1.773
 8022SOL     OW24964   4.492   0.094   2.803
 8022SOL    HW124965   4.455   0.014   2.756
 8022SOL    HW224966   4.488   0.080   2.902
 8023SOL     OW24967   6.002   5.158   3.562
 8023SOL    HW124968   5.912   5.120   3.544
 8023SOL    HW224969   6.037   5.123   3.649
 8024SOL     OW24970   2.912   5.283   0.051
 8024SOL    HW124971   2.941   5.188   0.043
 8024SOL    HW224972   2.826   5.296   0.002
 8025SOL     OW24973   2.188   6.024   6.554
 8025SOL    HW124974   2.245   6.043   6.474
 8025SOL    HW224975   2.196   6.100   6.619
 8026SOL     OW24976   0.836   4.380   6.541
 8026SOL    HW124977   0.817   4.397   6.638
 8026SOL    HW224978   0.921   4.425   6.515
 8027SOL     OW24979   4.556   1.799   5.293
 8027SOL    HW124980   4.565   1.738   5.372
 8027SOL    HW224981   4.498   1.756   5.224
 8028SOL     OW24982   3.100   4.863   4.544
 8028SOL    HW124983   3.130   4.825   4.456
 8028SOL    HW224984   3.002   4.884   4.539
 8029SOL     OW24985   4.892   2.915   1.183
 8029SOL    HW124986   4.867   2.820   1.165
 8029SOL    HW224987   4.872   2.937   1.279
 8030SOL     OW24988   4.325   4.438   6.796
 8030SOL    HW124989   4.387   4.470   6.725
 8030SOL    HW224990   4.281   4.353   6.767
 8031SOL     OW24991   5.357   6.287   2.744
 8031SOL    HW124992   5.401   6.249   2.825
 8031SOL    HW224993   5.284   6.225   2.714
 8032SOL     OW24994   5.495   4.227   5.931
 8032SOL    HW124995   5.474   4.292   5.858
 8032SOL    HW224996   5.590   4.239   5.960
 8033SOL     OW24997   5.097   3.542   6.382
 8033SOL    HW124998   5.016   3.591   6.413
 8033SOL    HW224999   5.093   3.532   6.283
 8034SOL     OW25000   6.170   0.781   4.511
 8034SOL    HW125001   6.126   0.737   4.590
 8034SOL    HW225002   6.245   0.838   4.543
 8035SOL     OW25003   5.185   1.611   4.531
 8035SOL    HW125004   5.242   1.665   4.468
 8035SOL    HW225005   5.237   1.532   4.563
 8036SOL     OW25006   0.824   4.587   2.677
 8036SOL    HW125007   0.784   4.507   2.632
 8036SOL    HW225008   0.878   4.558   2.755
 8037SOL     OW25009   2.020   3.064   1.682
 8037SOL    HW125010   2.033   3.152   1.727
 8037SOL    HW225011   2.023   3.077   1.583
 8038SOL     OW25012   4.827   0.811   3.277
 8038SOL    HW125013   4.822   0.871   3.197
 8038SOL    HW225014   4.742   0.818   3.330
 8039SOL     OW25015   0.859   1.210   4.283
 8039SOL    HW125016   0.928   1.245   4.219
 8039SOL    HW225017   0.769   1.213   4.240
 8040SOL     OW25018   1.574   6.089   0.565
 8040SOL    HW125019   1.642   6.113   0.495
 8040SOL    HW225020   1.617   6.095   0.655
 8041SOL     OW25021   2.968   1.588   1.747
 8041SOL    HW125022   3.020   1.539   1.678
 8041SOL    HW225023   3.020   1.667   1.779
 8042SOL     OW25024   3.533   2.923   3.858
 8042SOL    HW125025   3.622   2.902   3.817
 8042SOL    HW225026   3.544   2.934   3.957
 8043SOL     OW25027   3.790   6.950   2.591
 8043SOL    HW125028   3.777   6.890   2.670
 8043SOL    HW225029   3.847   6.905   2.523
 8044SOL     OW25030   3.558   2.894   0.772
 8044SOL    HW125031   3.540   2.798   0.792
 8044SOL    HW225032   3.635   2.902   0.708
 8045SOL     OW25033   5.588   0.878   1.287
 8045SOL    HW125034   5.508   0.884   1.347
 8045SOL    HW225035   5.639   0.964   1.291
 8046SOL     OW25036   6.712   5.172   0.272
 8046SOL    HW125037   6.763   5.096   0.312
 8046SOL    HW225038   6.756   5.258   0.296
 8047SOL     OW25039   3.350   5.676   4.573
 8047SOL    HW125040   3.430   5.615   4.572
 8047SOL    HW225041   3.331   5.704   4.667
 8048SOL     OW25042   5.887   0.389   6.192
 8048SOL    HW125043   5.816   0.429   6.134
 8048SOL    HW225044   5.968   0.448   6.191
 8049SOL     OW25045   1.059   0.295   0.353
 8049SOL    HW125046   1.036   0.364   0.421
 8049SOL    HW225047   0.979   0.239   0.333
 8050SOL     OW25048   1.476   3.698   2.662
 8050SOL    HW125049   1.544   3.639   2.620
 8050SOL    HW225050   1.448   3.661   2.750
 8051SOL     OW25051   5.014   5.743   3.077
 8051SOL    HW125052   5.041   5.649   3.057
 8051SOL    HW225053   5.028   5.800   2.996
 8052SOL     OW25054   4.861   1.110   2.044
 8052SOL    HW125055   4.957   1.082   2.040
 8052SOL    HW225056   4.818   1.070   2.124
 8053SOL     OW25057   3.132   4.021   3.747
 8053SOL    HW125058   3.202   4.080   3.706
 8053SOL    HW225059   3.061   4.001   3.679
 8054SOL     OW25060   4.938   0.314   4.823
 8054SOL    HW125061   4.994   0.333   4.742
 8054SOL    HW225062   4.850   0.361   4.816
 8055SOL     OW25063   0.250   0.382   5.559
 8055SOL    HW125064   0.291   0.293   5.577
 8055SOL    HW225065   0.190   0.376   5.479
 8056SOL     OW25066   4.322   2.099   4.275
 8056SOL    HW125067   4.303   2.041   4.196
 8056SOL    HW225068   4.237   2.139   4.309
 8057SOL     OW25069   3.163   1.904   2.833
 8057SOL    HW125070   3.168   1.979   2.767
 8057SOL    HW225071   3.092   1.840   2.805
 8058SOL     OW25072   4.550   0.798   2.356
 8058SOL    HW125073   4.649   0.792   2.366
 8058SOL    HW225074   4.524   0.893   2.342
 8059SOL     OW25075   4.524   2.407   4.637
 8059SOL    HW125076   4.460   2.386   4.711
 8059SOL    HW225077   4.584   2.328   4.621
 8060SOL     OW25078   0.951   2.623   4.063
 8060SOL    HW125079   1.037   2.573   4.058
 8060SOL    HW225080   0.964   2.715   4.026
 8061SOL     OW25081   6.747   0.308   2.088
 8061SOL    HW125082   6.698   0.364   2.021
 8061SOL    HW225083   6.713   0.330   2.180
 8062SOL     OW25084   2.876   5.356   4.499
 8062SOL    HW125085   2.949   5.312   4.551
 8062SOL    HW225086   2.790   5.349   4.549
 8063SOL     OW25087   0.810   2.957   0.409
 8063SOL    HW125088   0.844   2.868   0.377
 8063SOL    HW225089   0.873   3.029   0.379
 8064SOL     OW25090   0.286   5.089   0.871
 8064SOL    HW125091   0.197   5.047   0.854
 8064SOL    HW225092   0.334   5.101   0.784
 8065SOL     OW25093   3.739   6.143   4.544
 8065SOL    HW125094   3.769   6.058   4.589
 8065SOL    HW225095   3.737   6.217   4.610
 8066SOL     OW25096   0.922   2.244   6.314
 8066SOL    HW125097   0.954   2.305   6.241
 8066SOL    HW225098   0.938   2.149   6.286
 8067SOL     OW25099   5.063   2.763   1.617
 8067SOL    HW125100   4.994   2.788   1.685
 8067SOL    HW225101   5.022   2.762   1.526
 8068SOL     OW25102   6.049   4.469   0.330
 8068SOL    HW125103   6.126   4.519   0.291
 8068SOL    HW225104   6.041   4.379   0.286
 8069SOL     OW25105   1.896   6.337   1.180
 8069SOL    HW125106   1.798   6.318   1.179
 8069SOL    HW225107   1.912   6.427   1.223
 8070SOL     OW25108   2.890   2.824   0.207
 8070SOL    HW125109   2.837   2.742   0.228
 8070SOL    HW225110   2.958   2.802   0.137
 8071SOL     OW25111   3.288   6.649   4.931
 8071SOL    HW125112   3.233   6.595   4.995
 8071SOL    HW225113   3.249   6.641   4.839
 8072SOL     OW25114   3.623   0.920   6.885
 8072SOL    HW125115   3.615   0.826   6.850
 8072SOL    HW225116   3.629   0.984   6.808
 8073SOL     OW25117   4.265   5.532   5.577
 8073SOL    HW125118   4.220   5.462   5.521
 8073SOL    HW225119   4.199   5.603   5.600
 8074SOL     OW25120   3.222   2.370   0.529
 8074SOL    HW125121   3.313   2.403   0.505
 8074SOL    HW225122   3.158   2.447   0.534
 8075SOL     OW25123   6.532   1.226   0.685
 8075SOL    HW125124   6.459   1.224   0.752
 8075SOL    HW225125   6.495   1.249   0.595
 8076SOL     OW25126   4.949   2.250   5.749
 8076SOL    HW125127   4.925   2.340   5.711
 8076SOL    HW225128   4.870   2.189   5.744
 8077SOL     OW25129   1.720   5.697   2.327
 8077SOL    HW125130   1.740   5.625   2.261
 8077SOL    HW225131   1.622   5.697   2.347
 8078SOL     OW25132   5.621   1.278   0.904
 8078SOL    HW125133   5.615   1.191   0.954
 8078SOL    HW225134   5.664   1.347   0.962
 8079SOL     OW25135   5.231   1.374   3.470
 8079SOL    HW125136   5.171   1.413   3.400
 8079SOL    HW225137   5.302   1.440   3.494
 8080SOL     OW25138   0.229   3.394   0.233
 8080SOL    HW125139   0.243   3.307   0.185
 8080SOL    HW225140   0.214   3.467   0.166
 8081SOL     OW25141   5.212   6.928   4.612
 8081SOL    HW125142   5.232   6.845   4.561
 8081SOL    HW225143   5.279   6.938   4.686
 8082SOL     OW25144   5.710   0.334   2.072
 8082SOL    HW125145   5.635   0.297   2.126
 8082SOL    HW225146   5.674   0.374   1.988
 8083SOL     OW25147   5.404   3.471   2.532
 8083SOL    HW125148   5.379   3.463   2.628
 8083SOL    HW225149   5.337   3.422   2.476
 8084SOL     OW25150   4.997   0.024   0.196
 8084SOL    HW125151   5.052   0.035   0.113
 8084SOL    HW225152   4.999   6.952   0.225
 8085SOL     OW25153   6.174   0.208   2.922
 8085SOL    HW125154   6.159   0.200   3.021
 8085SOL    HW225155   6.226   0.292   2.904
 8086SOL     OW25156   5.031   0.943   4.122
 8086SOL    HW125157   5.026   1.028   4.069
 8086SOL    HW225158   4.968   0.949   4.200
 8087SOL     OW25159   2.592   1.194   0.833
 8087SOL    HW125160   2.600   1.234   0.924
 8087SOL    HW225161   2.672   1.136   0.815
 8088SOL     OW25162   5.580   2.336   1.237
 8088SOL    HW125163   5.656   2.297   1.288
 8088SOL    HW225164   5.569   2.432   1.260
 8089SOL     OW25165   4.989   2.568   0.075
 8089SOL    HW125166   4.926   2.629   0.027
 8089SOL    HW225167   5.083   2.597   0.057
 8090SOL     OW25168   3.983   2.328   6.549
 8090SOL    HW125169   3.962   2.382   6.467
 8090SOL    HW225170   4.081   2.328   6.565
 8091SOL     OW25171   2.368   4.148   6.616
 8091SOL    HW125172   2.425   4.111   6.689
 8091SOL    HW225173   2.418   4.144   6.529
 8092SOL     OW25174   0.181   2.518   5.063
 8092SOL    HW125175   0.252   2.585   5.041
 8092SOL    HW225176   0.180   2.446   4.993
 8093SOL     OW25177   4.747   5.865   2.502
 8093SOL    HW125178   4.758   5.869   2.601
 8093SOL    HW225179   4.668   5.808   2.479
 8094SOL     OW25180   1.441   3.758   5.106
 8094SOL    HW125181   1.461   3.667   5.140
 8094SOL    HW225182   1.527   3.805   5.085
 8095SOL     OW25183   5.909   3.935   4.168
 8095SOL    HW125184   5.992   3.910   4.217
 8095SOL    HW225185   5.931   3.999   4.095
 8096SOL     OW25186   3.168   5.430   3.891
 8096SOL    HW125187   3.125   5.370   3.824
 8096SOL    HW225188   3.148   5.396   3.983
 8097SOL     OW25189   5.251   6.477   3.378
 8097SOL    HW125190   5.215   6.515   3.292
 8097SOL    HW225191   5.177   6.431   3.428
 8098SOL     OW25192   2.251   6.385   4.151
 8098SOL    HW125193   2.152   6.379   4.148
 8098SOL    HW225194   2.282   6.460   4.092
 8099SOL     OW25195   4.789   6.827   4.092
 8099SOL    HW125196   4.858   6.761   4.120
 8099SOL    HW225197   4.793   6.907   4.151
 8100SOL     OW25198   6.782   0.126   6.978
 8100SOL    HW125199   6.736   0.089   0.035
 8100SOL    HW225200   6.715   0.167   6.917
 8101SOL     OW25201   2.102   0.331   3.922
 8101SOL    HW125202   2.036   0.313   3.995
 8101SOL    HW225203   2.144   0.421   3.936
 8102SOL     OW25204   0.581   4.505   4.769
 8102SOL    HW125205   0.534   4.594   4.764
 8102SOL    HW225206   0.520   4.434   4.735
 8103SOL     OW25207   4.678   0.474   0.781
 8103SOL    HW125208   4.683   0.573   0.796
 8103SOL    HW225209   4.583   0.445   0.784
 8104SOL     OW25210   2.520   6.991   5.923
 8104SOL    HW125211   2.598   0.020   5.887
 8104SOL    HW225212   2.555   6.917   5.981
 8105SOL     OW25213   1.225   2.427   3.067
 8105SOL    HW125214   1.274   2.429   2.980
 8105SOL    HW225215   1.126   2.423   3.049
 8106SOL     OW25216   2.914   5.870   3.135
 8106SOL    HW125217   2.865   5.784   3.149
 8106SOL    HW225218   2.993   5.855   3.077
 8107SOL     OW25219   0.669   5.200   5.199
 8107SOL    HW125220   0.723   5.146   5.263
 8107SOL    HW225221   0.704   5.186   5.106
 8108SOL     OW25222   6.055   3.326   4.984
 8108SOL    HW125223   6.134   3.381   4.960
 8108SOL    HW225224   6.085   3.240   5.026
 8109SOL     OW25225   1.174   3.466   4.404
 8109SOL    HW125226   1.189   3.506   4.494
 8109SOL    HW225227   1.229   3.383   4.394
 8110SOL     OW25228   3.364   6.051   0.638
 8110SOL    HW125229   3.449   6.016   0.598
 8110SOL    HW225230   3.301   6.077   0.565
 8111SOL     OW25231   4.624   1.000   5.256
 8111SOL    HW125232   4.700   0.993   5.319
 8111SOL    HW225233   4.605   1.097   5.236
 8112SOL     OW25234   1.904   1.844   4.578
 8112SOL    HW125235   1.875   1.861   4.484
 8112SOL    HW225236   1.823   1.840   4.637
 8113SOL     OW25237   3.232   3.240   0.886
 8113SOL    HW125238   3.135   3.228   0.911
 8113SOL    HW225239   3.249   3.335   0.862
 8114SOL     OW25240   2.542   3.434   1.470
 8114SOL    HW125241   2.542   3.526   1.508
 8114SOL    HW225242   2.452   3.413   1.433
 8115SOL     OW25243   4.191   0.650   1.232
 8115SOL    HW125244   4.105   0.667   1.184
 8115SOL    HW225245   4.240   0.736   1.246
 8116SOL     OW25246   5.052   6.687   5.085
 8116SOL    HW125247   5.045   6.778   5.043
 8116SOL    HW225248   5.121   6.633   5.038
 8117SOL     OW25249   2.516   1.162   3.848
 8117SOL    HW125250   2.566   1.080   3.818
 8117SOL    HW225251   2.442   1.135   3.910
 8118SOL     OW25252   6.242   2.771   5.572
 8118SOL    HW125253   6.254   2.677   5.539
 8118SOL    HW225254   6.328   2.821   5.560
 8119SOL     OW25255   6.434   5.879   5.055
 8119SOL    HW125256   6.465   5.792   5.016
 8119SOL    HW225257   6.370   5.860   5.130
 8120SOL     OW25258   3.449   4.578   0.127
 8120SOL    HW125259   3.351   4.562   0.125
 8120SOL    HW225260   3.495   4.516   0.063
 8121SOL     OW25261   6.918   5.310   2.053
 8121SOL    HW125262   7.007   5.265   2.067
 8121SOL    HW225263   6.919   5.400   2.095
 8122SOL     OW25264   1.505   5.443   2.515
 8122SOL    HW125265   1.506   5.541   2.535
 8122SOL    HW225266   1.495   5.392   2.601
 8123SOL     OW25267   0.157   0.183   6.542
 8123SOL    HW125268   0.142   0.265   6.597
 8123SOL    HW225269   0.252   0.153   6.552
 8124SOL     OW25270   0.179   6.157   0.726
 8124SOL    HW125271   0.199   6.174   0.823
 8124SOL    HW225272   0.086   6.188   0.706
 8125SOL     OW25273   1.029   0.072   3.025
 8125SOL    HW125274   0.937   0.073   3.064
 8125SOL    HW225275   1.097   0.070   3.099
 8126SOL     OW25276   6.076   4.089   2.307
 8126SOL    HW125277   6.084   4.188   2.317
 8126SOL    HW225278   6.165   4.051   2.283
 8127SOL     OW25279   2.943   5.611   0.581
 8127SOL    HW125280   2.916   5.707   0.587
 8127SOL    HW225281   2.882   5.563   0.518
 8128SOL     OW25282   2.966   3.324   1.177
 8128SOL    HW125283   3.034   3.251   1.181
 8128SOL    HW225284   2.879   3.290   1.213
 8129SOL     OW25285   4.060   0.745   5.614
 8129SOL    HW125286   4.123   0.823   5.615
 8129SOL    HW225287   4.009   0.743   5.700
 8130SOL     OW25288   0.230   5.166   6.605
 8130SOL    HW125289   0.160   5.164   6.533
 8130SOL    HW225290   0.222   5.084   6.662
 8131SOL     OW25291   3.380   1.004   0.927
 8131SOL    HW125292   3.409   0.940   0.999
 8131SOL    HW225293   3.449   1.075   0.915
 8132SOL     OW25294   5.304   6.177   6.583
 8132SOL    HW125295   5.396   6.218   6.579
 8132SOL    HW225296   5.237   6.244   6.553
 8133SOL     OW25297   3.479   4.999   1.852
 8133SOL    HW125298   3.475   4.903   1.879
 8133SOL    HW225299   3.569   5.036   1.874
 8134SOL     OW25300   0.847   1.830   4.548
 8134SOL    HW125301   0.874   1.803   4.455
 8134SOL    HW225302   0.928   1.840   4.605
 8135SOL     OW25303   2.211   5.916   1.370
 8135SOL    HW125304   2.189   5.988   1.304
 8135SOL    HW225305   2.269   5.954   1.442
 8136SOL     OW25306   4.830   4.497   2.994
 8136SOL    HW125307   4.795   4.568   2.934
 8136SOL    HW225308   4.913   4.457   2.955
 8137SOL     OW25309   2.597   1.373   4.546
 8137SOL    HW125310   2.509   1.331   4.521
 8137SOL    HW225311   2.592   1.472   4.530
 8138SOL     OW25312   5.640   2.071   0.587
 8138SOL    HW125313   5.653   2.030   0.496
 8138SOL    HW225314   5.612   2.000   0.651
 8139SOL     OW25315   1.912   2.161   3.755
 8139SOL    HW125316   1.833   2.150   3.816
 8139SOL    HW225317   1.896   2.236   3.692
 8140SOL     OW25318   3.925   6.984   0.257
 8140SOL    HW125319   3.959   6.891   0.273
 8140SOL    HW225320   3.997   0.016   0.216
 8141SOL     OW25321   4.270   6.946   5.585
 8141SOL    HW125322   4.255   0.015   5.618
 8141SOL    HW225323   4.205   6.926   5.511
 8142SOL     OW25324   1.710   5.186   0.340
 8142SOL    HW125325   1.696   5.174   0.438
 8142SOL    HW225326   1.807   5.176   0.318
 8143SOL     OW25327   5.627   5.584   0.337
 8143SOL    HW125328   5.714   5.612   0.296
 8143SOL    HW225329   5.554   5.644   0.306
 8144SOL     OW25330   0.916   6.023   5.618
 8144SOL    HW125331   0.860   6.052   5.541
 8144SOL    HW225332   0.863   5.963   5.678
 8145SOL     OW25333   5.374   5.870   0.693
 8145SOL    HW125334   5.330   5.927   0.763
 8145SOL    HW225335   5.471   5.892   0.688
 8146SOL     OW25336   5.330   0.212   5.407
 8146SOL    HW125337   5.429   0.221   5.420
 8146SOL    HW225338   5.312   0.156   5.326
 8147SOL     OW25339   6.046   0.760   1.038
 8147SOL    HW125340   5.992   0.766   0.954
 8147SOL    HW225341   6.052   0.664   1.066
 8148SOL     OW25342   5.063   5.157   0.319
 8148SOL    HW125343   5.113   5.088   0.266
 8148SOL    HW225344   4.965   5.148   0.301
 8149SOL     OW25345   1.746   6.676   3.544
 8149SOL    HW125346   1.759   6.605   3.474
 8149SOL    HW225347   1.650   6.700   3.550
 8150SOL     OW25348   1.258   4.055   0.883
 8150SOL    HW125349   1.348   4.023   0.911
 8150SOL    HW225350   1.243   4.147   0.918
 8151SOL     OW25351   5.755   5.176   3.427
 8151SOL    HW125352   5.734   5.262   3.472
 8151SOL    HW225353   5.793   5.193   3.336
 8152SOL     OW25354   5.945   3.125   3.357
 8152SOL    HW125355   5.952   3.222   3.331
 8152SOL    HW225356   5.860   3.087   3.320
 8153SOL     OW25357   1.404   1.358   3.629
 8153SOL    HW125358   1.438   1.324   3.716
 8153SOL    HW225359   1.462   1.323   3.555
 8154SOL     OW25360   3.899   6.276   3.003
 8154SOL    HW125361   3.907   6.207   2.931
 8154SOL    HW225362   3.830   6.344   2.977
 8155SOL     OW25363   1.513   4.024   2.172
 8155SOL    HW125364   1.611   4.025   2.191
 8155SOL    HW225365   1.467   4.092   2.230
 8156SOL     OW25366   4.225   6.327   0.408
 8156SOL    HW125367   4.304   6.387   0.398
 8156SOL    HW225368   4.193   6.329   0.502
 8157SOL     OW25369   6.182   4.508   6.671
 8157SOL    HW125370   6.141   4.599   6.665
 8157SOL    HW225371   6.139   4.448   6.603
 8158SOL     OW25372   5.161   4.035   0.306
 8158SOL    HW125373   5.209   3.947   0.317
 8158SOL    HW225374   5.211   4.091   0.240
 8159SOL     OW25375   2.991   5.598   3.634
 8159SOL    HW125376   2.893   5.598   3.614
 8159SOL    HW225377   3.006   5.574   3.730
 8160SOL     OW25378   5.241   0.154   3.850
 8160SOL    HW125379   5.261   0.112   3.761
 8160SOL    HW225380   5.320   0.208   3.879
 8161SOL     OW25381   6.150   3.513   6.222
 8161SOL    HW125382   6.081   3.467   6.166
 8161SOL    HW225383   6.106   3.562   6.297
 8162SOL     OW25384   6.474   6.127   0.150
 8162SOL    HW125385   6.378   6.150   0.134
 8162SOL    HW225386   6.530   6.164   0.076
 8163SOL     OW25387   2.469   4.688   5.453
 8163SOL    HW125388   2.493   4.594   5.429
 8163SOL    HW225389   2.438   4.736   5.370
 8164SOL     OW25390   4.422   1.167   0.644
 8164SOL    HW125391   4.353   1.226   0.601
 8164SOL    HW225392   4.505   1.167   0.589
 8165SOL     OW25393   7.018   3.998   5.730
 8165SOL    HW125394   6.971   4.014   5.643
 8165SOL    HW225395   6.975   3.921   5.777
 8166SOL     OW25396   1.274   0.435   3.206
 8166SOL    HW125397   1.372   0.432   3.185
 8166SOL    HW225398   1.257   0.390   3.293
 8167SOL     OW25399   0.241   0.787   3.463
 8167SOL    HW125400   0.322   0.730   3.452
 8167SOL    HW225401   0.214   0.787   3.560
 8168SOL     OW25402   2.669   0.333   1.428
 8168SOL    HW125403   2.576   0.370   1.434
 8168SOL    HW225404   2.728   0.399   1.382
 8169SOL     OW25405   4.899   2.514   0.775
 8169SOL    HW125406   4.866   2.422   0.794
 8169SOL    HW225407   4.988   2.527   0.819
 8170SOL     OW25408   1.206   5.283   1.590
 8170SOL    HW125409   1.165   5.310   1.502
 8170SOL    HW225410   1.300   5.254   1.575
 8171SOL     OW25411   1.642   1.907   0.189
 8171SOL    HW125412   1.711   1.977   0.207
 8171SOL    HW225413   1.664   1.858   0.105
 8172SOL     OW25414   6.996   1.895   1.991
 8172SOL    HW125415   6.948   1.932   2.071
 8172SOL    HW225416   6.977   1.797   1.983
 8173SOL     OW25417   5.672   2.428   2.329
 8173SOL    HW125418   5.586   2.442   2.280
 8173SOL    HW225419   5.723   2.514   2.332
 8174SOL     OW25420   6.890   0.148   2.442
 8174SOL    HW125421   6.800   0.181   2.412
 8174SOL    HW225422   6.915   0.067   2.389
 8175SOL     OW25423   6.877   3.200   5.238
 8175SOL    HW125424   6.810   3.175   5.169
 8175SOL    HW225425   6.944   3.263   5.199
 8176SOL     OW25426   2.863   4.801   1.352
 8176SOL    HW125427   2.863   4.776   1.449
 8176SOL    HW225428   2.784   4.759   1.307
 8177SOL     OW25429   5.051   0.277   3.606
 8177SOL    HW125430   5.123   0.213   3.579
 8177SOL    HW225431   4.986   0.230   3.666
 8178SOL     OW25432   2.782   6.936   0.637
 8178SOL    HW125433   2.879   6.960   0.646
 8178SOL    HW225434   2.741   6.992   0.564
 8179SOL     OW25435   5.330   1.281   5.279
 8179SOL    HW125436   5.332   1.323   5.370
 8179SOL    HW225437   5.341   1.351   5.209
 8180SOL     OW25438   6.391   0.890   6.083
 8180SOL    HW125439   6.378   0.989   6.090
 8180SOL    HW225440   6.414   0.866   5.989
 8181SOL     OW25441   1.275   2.038   0.816
 8181SOL    HW125442   1.328   2.113   0.779
 8181SOL    HW225443   1.333   1.982   0.876
 8182SOL     OW25444   3.065   3.138   5.750
 8182SOL    HW125445   3.112   3.054   5.723
 8182SOL    HW225446   2.968   3.132   5.724
 8183SOL     OW25447   6.777   2.412   4.644
 8183SOL    HW125448   6.779   2.380   4.549
 8183SOL    HW225449   6.836   2.354   4.700
 8184SOL     OW25450   0.456   7.004   0.132
 8184SOL    HW125451   0.457   0.049   0.058
 8184SOL    HW225452   0.501   0.019   0.213
 8185SOL     OW25453   1.704   0.498   6.904
 8185SOL    HW125454   1.759   0.554   6.843
 8185SOL    HW225455   1.743   0.406   6.910
 8186SOL     OW25456   3.037   4.447   5.889
 8186SOL    HW125457   3.093   4.515   5.937
 8186SOL    HW225458   2.971   4.494   5.830
 8187SOL     OW25459   2.116   1.351   4.905
 8187SOL    HW125460   2.205   1.308   4.891
 8187SOL    HW225461   2.053   1.323   4.833
 8188SOL     OW25462   4.847   3.233   3.878
 8188SOL    HW125463   4.790   3.161   3.839
 8188SOL    HW225464   4.895   3.281   3.804
 8189SOL     OW25465   5.229   5.248   2.874
 8189SOL    HW125466   5.158   5.203   2.927
 8189SOL    HW225467   5.240   5.200   2.786
 8190SOL     OW25468   4.771   4.029   4.401
 8190SOL    HW125469   4.702   4.101   4.400
 8190SOL    HW225470   4.798   4.007   4.308
 8191SOL     OW25471   3.545   5.892   1.872
 8191SOL    HW125472   3.598   5.836   1.936
 8191SOL    HW225473   3.568   5.988   1.885
 8192SOL     OW25474   2.716   5.202   1.633
 8192SOL    HW125475   2.683   5.128   1.574
 8192SOL    HW225476   2.813   5.218   1.615
 8193SOL     OW25477   5.826   5.567   5.791
 8193SOL    HW125478   5.808   5.552   5.889
 8193SOL    HW225479   5.755   5.626   5.753
 8194SOL     OW25480   5.098   1.373   1.091
 8194SOL    HW125481   5.153   1.365   1.008
 8194SOL    HW225482   5.003   1.351   1.070
 8195SOL     OW25483   0.861   6.616   3.200
 8195SOL    HW125484   0.841   6.713   3.218
 8195SOL    HW225485   0.830   6.561   3.277
 8196SOL     OW25486   3.801   6.299   6.504
 8196SOL    HW125487   3.725   6.305   6.569
 8196SOL    HW225488   3.873   6.241   6.543
 8197SOL     OW25489   3.365   1.163   0.200
 8197SOL    HW125490   3.305   1.105   0.255
 8197SOL    HW225491   3.441   1.108   0.165
 8198SOL     OW25492   3.398   6.204   2.663
 8198SOL    HW125493   3.407   6.294   2.620
 8198SOL    HW225494   3.477   6.187   2.722
 8199SOL     OW25495   5.934   2.526   6.152
 8199SOL    HW125496   5.912   2.606   6.208
 8199SOL    HW225497   5.911   2.442   6.202
 8200SOL     OW25498   5.934   4.843   2.006
 8200SOL    HW125499   6.028   4.829   2.038
 8200SOL    HW225500   5.885   4.755   2.008
 8201SOL     OW25501   5.490   0.801   5.088
 8201SOL    HW125502   5.452   0.885   5.051
 8201SOL    HW225503   5.589   0.798   5.072
 8202SOL     OW25504   0.113   5.617   3.936
 8202SOL    HW125505   0.132   5.712   3.959
 8202SOL    HW225506   0.161   5.592   3.852
 8203SOL     OW25507   2.853   2.035   7.008
 8203SOL    HW125508   2.884   2.130   6.999
 8203SOL    HW225509   2.775   2.019   6.948
 8204SOL     OW25510   3.871   5.055   6.907
 8204SOL    HW125511   3.885   4.978   6.844
 8204SOL    HW225512   3.784   5.043   6.955
 8205SOL     OW25513   0.154   4.564   0.311
 8205SOL    HW125514   0.251   4.577   0.333
 8205SOL    HW225515   0.137   4.593   0.217
 8206SOL     OW25516   5.316   1.870   6.421
 8206SOL    HW125517   5.327   1.833   6.513
 8206SOL    HW225518   5.223   1.851   6.388
 8207SOL     OW25519   2.939   3.445   4.485
 8207SOL    HW125520   2.913   3.538   4.458
 8207SOL    HW225521   2.913   3.430   4.581
 8208SOL     OW25522   1.167   0.016   1.713
 8208SOL    HW125523   1.234   0.084   1.681
 8208SOL    HW225524   1.154   0.027   1.811
 8209SOL     OW25525   0.673   1.210   4.945
 8209SOL    HW125526   0.677   1.290   4.885
 8209SOL    HW225527   0.705   1.130   4.895
 8210SOL     OW25528   2.291   1.265   0.911
 8210SOL    HW125529   2.365   1.210   0.871
 8210SOL    HW225530   2.231   1.298   0.838
 8211SOL     OW25531   3.894   4.191   1.748
 8211SOL    HW125532   3.869   4.125   1.819
 8211SOL    HW225533   3.827   4.266   1.748
 8212SOL     OW25534   2.237   2.423   2.311
 8212SOL    HW125535   2.233   2.513   2.267
 8212SOL    HW225536   2.329   2.409   2.350
 8213SOL     OW25537   6.958   4.104   1.774
 8213SOL    HW125538   6.969   4.090   1.676
 8213SOL    HW225539   6.861   4.111   1.796
 8214SOL     OW25540   5.847   6.057   4.292
 8214SOL    HW125541   5.854   5.988   4.220
 8214SOL    HW225542   5.931   6.112   4.293
 8215SOL     OW25543   2.659   5.323   5.904
 8215SOL    HW125544   2.648   5.224   5.910
 8215SOL    HW225545   2.717   5.346   5.826
 8216SOL     OW25546   5.174   5.108   3.722
 8216SOL    HW125547   5.204   5.021   3.684
 8216SOL    HW225548   5.074   5.112   3.721
 8217SOL     OW25549   1.757   4.145   0.179
 8217SOL    HW125550   1.851   4.177   0.188
 8217SOL    HW225551   1.694   4.220   0.200
 8218SOL     OW25552   0.577   0.109   5.927
 8218SOL    HW125553   0.571   0.099   5.828
 8218SOL    HW225554   0.583   0.019   5.970
 8219SOL     OW25555   4.456   2.568   0.714
 8219SOL    HW125556   4.468   2.499   0.785
 8219SOL    HW225557   4.545   2.591   0.674
 8220SOL     OW25558   3.427   2.887   3.478
 8220SOL    HW125559   3.379   2.868   3.564
 8220SOL    HW225560   3.360   2.901   3.405
 8221SOL     OW25561   5.953   6.691   3.492
 8221SOL    HW125562   6.022   6.751   3.452
 8221SOL    HW225563   5.935   6.615   3.429
 8222SOL     OW25564   5.766   1.577   1.419
 8222SOL    HW125565   5.750   1.616   1.509
 8222SOL    HW225566   5.865   1.569   1.403
 8223SOL     OW25567   0.626   4.703   5.545
 8223SOL    HW125568   0.613   4.801   5.559
 8223SOL    HW225569   0.715   4.676   5.582
 8224SOL     OW25570   6.246   0.937   2.747
 8224SOL    HW125571   6.249   1.035   2.767
 8224SOL    HW225572   6.151   0.908   2.733
 8225SOL     OW25573   2.953   1.437   0.878
 8225SOL    HW125574   2.861   1.475   0.888
 8225SOL    HW225575   2.975   1.427   0.781
 8226SOL     OW25576   3.896   0.668   0.657
 8226SOL    HW125577   3.941   0.722   0.586
 8226SOL    HW225578   3.899   0.571   0.632
 8227SOL     OW25579   6.666   1.591   2.874
 8227SOL    HW125580   6.696   1.531   2.948
 8227SOL    HW225581   6.661   1.538   2.789
 8228SOL     OW25582   6.580   1.631   5.847
 8228SOL    HW125583   6.671   1.669   5.862
 8228SOL    HW225584   6.532   1.685   5.778
 8229SOL     OW25585   4.530   2.879   0.760
 8229SOL    HW125586   4.568   2.817   0.692
 8229SOL    HW225587   4.530   2.835   0.850
 8230SOL     OW25588   4.014   0.096   5.204
 8230SOL    HW125589   4.091   0.034   5.214
 8230SOL    HW225590   3.988   0.133   5.294
 8231SOL     OW25591   2.762   4.202   1.240
 8231SOL    HW125592   2.808   4.189   1.152
 8231SOL    HW225593   2.712   4.119   1.265
 8232SOL     OW25594   4.935   1.561   1.663
 8232SOL    HW125595   4.925   1.462   1.664
 8232SOL    HW225596   4.911   1.598   1.752
 8233SOL     OW25597   1.644   5.892   6.238
 8233SOL    HW125598   1.634   5.815   6.175
 8233SOL    HW225599   1.733   5.935   6.224
 8234SOL     OW25600   2.704   4.070   6.787
 8234SOL    HW125601   2.618   4.069   6.838
 8234SOL    HW225602   2.685   4.061   6.689
 8235SOL     OW25603   0.286   3.161   0.097
 8235SOL    HW125604   0.294   3.120   0.187
 8235SOL    HW225605   0.218   3.112   0.043
 8236SOL     OW25606   0.749   4.935   0.404
 8236SOL    HW125607   0.732   4.955   0.308
 8236SOL    HW225608   0.663   4.937   0.454
 8237SOL     OW25609   4.194   6.641   4.196
 8237SOL    HW125610   4.157   6.595   4.277
 8237SOL    HW225611   4.139   6.618   4.116
 8238SOL     OW25612   0.525   5.111   6.203
 8238SOL    HW125613   0.445   5.065   6.242
 8238SOL    HW225614   0.600   5.045   6.195
 8239SOL     OW25615   6.872   0.874   5.868
 8239SOL    HW125616   6.881   0.933   5.948
 8239SOL    HW225617   6.949   0.891   5.806
 8240SOL     OW25618   3.393   4.142   2.587
 8240SOL    HW125619   3.470   4.147   2.651
 8240SOL    HW225620   3.426   4.115   2.497
 8241SOL     OW25621   4.069   6.758   5.732
 8241SOL    HW125622   4.166   6.769   5.708
 8241SOL    HW225623   4.032   6.846   5.762
 8242SOL     OW25624   0.682   4.645   6.231
 8242SOL    HW125625   0.671   4.577   6.304
 8242SOL    HW225626   0.766   4.627   6.180
 8243SOL     OW25627   0.224   2.507   0.371
 8243SOL    HW125628   0.171   2.515   0.287
 8243SOL    HW225629   0.230   2.411   0.399
 8244SOL     OW25630   0.239   0.383   4.113
 8244SOL    HW125631   0.224   0.313   4.043
 8244SOL    HW225632   0.164   0.449   4.111
 8245SOL     OW25633   3.968   1.860   2.499
 8245SOL    HW125634   3.983   1.812   2.412
 8245SOL    HW225635   3.957   1.958   2.482
 8246SOL     OW25636   1.117   3.152   5.733
 8246SOL    HW125637   1.049   3.094   5.779
 8246SOL    HW225638   1.076   3.190   5.650
 8247SOL     OW25639   1.858   0.288   2.432
 8247SOL    HW125640   1.826   0.275   2.338
 8247SOL    HW225641   1.848   0.203   2.483
 8248SOL     OW25642   6.484   5.514   4.742
 8248SOL    HW125643   6.519   5.510   4.648
 8248SOL    HW225644   6.506   5.430   4.790
 8249SOL     OW25645   1.748   2.643   6.116
 8249SOL    HW125646   1.701   2.591   6.187
 8249SOL    HW225647   1.683   2.668   6.044
 8250SOL     OW25648   3.010   3.799   1.966
 8250SOL    HW125649   3.037   3.872   2.030
 8250SOL    HW225650   3.020   3.710   2.011
 8251SOL     OW25651   4.886   3.353   4.153
 8251SOL    HW125652   4.897   3.264   4.198
 8251SOL    HW225653   4.838   3.340   4.066
 8252SOL     OW25654   2.691   1.774   5.085
 8252SOL    HW125655   2.756   1.790   5.011
 8252SOL    HW225656   2.733   1.714   5.153
 8253SOL     OW25657   4.141   4.843   5.537
 8253SOL    HW125658   4.093   4.847   5.449
 8253SOL    HW225659   4.117   4.759   5.585
 8254SOL     OW25660   4.554   4.315   5.206
 8254SOL    HW125661   4.614   4.272   5.139
 8254SOL    HW225662   4.462   4.276   5.198
 8255SOL     OW25663   2.009   0.220   5.194
 8255SOL    HW125664   2.003   0.312   5.157
 8255SOL    HW225665   2.057   0.161   5.129
 8256SOL     OW25666   6.827   6.565   1.854
 8256SOL    HW125667   6.834   6.626   1.933
 8256SOL    HW225668   6.812   6.620   1.771
 8257SOL     OW25669   5.036   4.378   2.888
 8257SOL    HW125670   5.135   4.385   2.899
 8257SOL    HW225671   5.015   4.356   2.792
 8258SOL     OW25672   5.604   1.885   0.831
 8258SOL    HW125673   5.668   1.948   0.875
 8258SOL    HW225674   5.654   1.806   0.795
 8259SOL     OW25675   3.983   1.682   4.195
 8259SOL    HW125676   3.987   1.781   4.211
 8259SOL    HW225677   4.069   1.640   4.225
 8260SOL     OW25678   2.021   6.706   0.937
 8260SOL    HW125679   2.024   6.779   0.868
 8260SOL    HW225680   1.932   6.661   0.934
 8261SOL     OW25681   6.453   6.599   1.949
 8261SOL    HW125682   6.495   6.509   1.960
 8261SOL    HW225683   6.481   6.639   1.862
 8262SOL     OW25684   1.169   3.307   0.350
 8262SOL    HW125685   1.199   3.311   0.255
 8262SOL    HW225686   1.073   3.282   0.354
 8263SOL     OW25687   0.433   2.583   6.248
 8263SOL    HW125688   0.475   2.577   6.158
 8263SOL    HW225689   0.338   2.612   6.240
 8264SOL     OW25690   2.339   6.182   2.218
 8264SOL    HW125691   2.400   6.179   2.140
 8264SOL    HW225692   2.393   6.184   2.303
 8265SOL     OW25693   6.572   0.734   1.197
 8265SOL    HW125694   6.553   0.636   1.196
 8265SOL    HW225695   6.644   0.754   1.130
 8266SOL     OW25696   2.466   1.518   3.475
 8266SOL    HW125697   2.438   1.592   3.414
 8266SOL    HW225698   2.519   1.451   3.423
 8267SOL     OW25699   1.992   3.440   0.994
 8267SOL    HW125700   1.897   3.408   0.999
 8267SOL    HW225701   2.005   3.515   1.059
 8268SOL     OW25702   1.726   6.777   5.887
 8268SOL    HW125703   1.653   6.711   5.907
 8268SOL    HW225704   1.796   6.772   5.958
 8269SOL     OW25705   4.450   1.043   2.313
 8269SOL    HW125706   4.367   1.035   2.258
 8269SOL    HW225707   4.451   1.131   2.360
 8270SOL     OW25708   3.143   6.478   5.097
 8270SOL    HW125709   3.181   6.526   5.176
 8270SOL    HW225710   3.044   6.489   5.095
 8271SOL     OW25711   0.787   0.465   3.652
 8271SOL    HW125712   0.845   0.526   3.707
 8271SOL    HW225713   0.691   0.484   3.671
 8272SOL     OW25714   5.876   2.209   2.359
 8272SOL    HW125715   5.832   2.291   2.323
 8272SOL    HW225716   5.824   2.174   2.437
 8273SOL     OW25717   2.430   0.989   0.399
 8273SOL    HW125718   2.522   0.948   0.399
 8273SOL    HW225719   2.406   1.016   0.306
 8274SOL     OW25720   5.078   4.713   4.154
 8274SOL    HW125721   5.107   4.747   4.064
 8274SOL    HW225722   4.978   4.704   4.155
 8275SOL     OW25723   6.299   0.857   5.142
 8275SOL    HW125724   6.210   0.817   5.165
 8275SOL    HW225725   6.327   0.920   5.214
 8276SOL     OW25726   0.751   2.789   3.738
 8276SOL    HW125727   0.827   2.822   3.794
 8276SOL    HW225728   0.669   2.781   3.795
 8277SOL     OW25729   0.393   5.987   6.036
 8277SOL    HW125730   0.442   5.939   6.109
 8277SOL    HW225731   0.445   5.981   5.951
 8278SOL     OW25732   3.499   1.129   6.430
 8278SOL    HW125733   3.425   1.129   6.362
 8278SOL    HW225734   3.484   1.203   6.495
 8279SOL     OW25735   1.420   6.130   4.800
 8279SOL    HW125736   1.371   6.154   4.716
 8279SOL    HW225737   1.364   6.155   4.879
 8280SOL     OW25738   2.144   3.356   0.121
 8280SOL    HW125739   2.115   3.326   0.212
 8280SOL    HW225740   2.159   3.276   0.062
 8281SOL     OW25741   3.090   4.227   1.756
 8281SOL    HW125742   3.043   4.160   1.812
 8281SOL    HW225743   3.036   4.311   1.751
 8282SOL     OW25744   4.616   3.557   0.189
 8282SOL    HW125745   4.657   3.617   0.258
 8282SOL    HW225746   4.575   3.613   0.117
 8283SOL     OW25747   1.902   5.259   5.539
 8283SOL    HW125748   1.846   5.311   5.604
 8283SOL    HW225749   1.845   5.189   5.495
 8284SOL     OW25750   0.783   3.637   1.172
 8284SOL    HW125751   0.853   3.667   1.108
 8284SOL    HW225752   0.713   3.584   1.123
 8285SOL     OW25753   3.285   3.966   5.142
 8285SOL    HW125754   3.208   3.996   5.086
 8285SOL    HW225755   3.268   3.989   5.238
 8286SOL     OW25756   5.707   1.749   5.401
 8286SOL    HW125757   5.731   1.799   5.318
 8286SOL    HW225758   5.779   1.682   5.422
 8287SOL     OW25759   1.203   5.133   4.456
 8287SOL    HW125760   1.279   5.130   4.521
 8287SOL    HW225761   1.215   5.210   4.394
 8288SOL     OW25762   3.090   2.110   1.920
 8288SOL    HW125763   3.130   2.073   2.004
 8288SOL    HW225764   3.020   2.177   1.944
 8289SOL     OW25765   0.614   6.191   0.453
 8289SOL    HW125766   0.639   6.112   0.397
 8289SOL    HW225767   0.571   6.159   0.538
 8290SOL     OW25768   5.205   1.633   1.102
 8290SOL    HW125769   5.290   1.653   1.053
 8290SOL    HW225770   5.221   1.560   1.168
 8291SOL     OW25771   4.376   6.260   4.859
 8291SOL    HW125772   4.391   6.299   4.951
 8291SOL    HW225773   4.452   6.285   4.800
 8292SOL     OW25774   3.217   6.950   6.922
 8292SOL    HW125775   3.237   6.872   6.863
 8292SOL    HW225776   3.214   6.921   7.017
 8293SOL     OW25777   2.474   5.320   0.564
 8293SOL    HW125778   2.573   5.324   0.556
 8293SOL    HW225779   2.436   5.412   0.568
 8294SOL     OW25780   5.331   3.317   5.330
 8294SOL    HW125781   5.303   3.235   5.379
 8294SOL    HW225782   5.391   3.372   5.388
 8295SOL     OW25783   5.090   5.391   1.477
 8295SOL    HW125784   5.115   5.381   1.573
 8295SOL    HW225785   5.016   5.457   1.468
 8296SOL     OW25786   1.648   4.464   6.403
 8296SOL    HW125787   1.734   4.515   6.410
 8296SOL    HW225788   1.654   4.381   6.460
 8297SOL     OW25789   0.080   3.480   2.387
 8297SOL    HW125790   0.096   3.577   2.409
 8297SOL    HW225791   0.064   3.429   2.472
 8298SOL     OW25792   6.174   1.258   1.209
 8298SOL    HW125793   6.136   1.222   1.124
 8298SOL    HW225794   6.256   1.312   1.189
 8299SOL     OW25795   6.968   2.355   2.569
 8299SOL    HW125796   6.907   2.433   2.581
 8299SOL    HW225797   6.941   2.282   2.631
 8300SOL     OW25798   0.517   5.330   4.326
 8300SOL    HW125799   0.427   5.330   4.371
 8300SOL    HW225800   0.509   5.376   4.237
 8301SOL     OW25801   3.583   1.649   1.026
 8301SOL    HW125802   3.571   1.641   0.927
 8301SOL    HW225803   3.514   1.711   1.063
 8302SOL     OW25804   5.491   6.673   6.450
 8302SOL    HW125805   5.484   6.601   6.381
 8302SOL    HW225806   5.418   6.662   6.518
 8303SOL     OW25807   6.249   0.695   3.769
 8303SOL    HW125808   6.248   0.644   3.855
 8303SOL    HW225809   6.190   0.775   3.777
 8304SOL     OW25810   6.596   2.695   1.162
 8304SOL    HW125811   6.510   2.663   1.203
 8304SOL    HW225812   6.593   2.795   1.153
 8305SOL     OW25813   4.977   4.875   3.932
 8305SOL    HW125814   4.883   4.845   3.947
 8305SOL    HW225815   4.979   4.975   3.927
 8306SOL     OW25816   5.410   1.644   5.488
 8306SOL    HW125817   5.372   1.693   5.566
 8306SOL    HW225818   5.501   1.681   5.468
 8307SOL     OW25819   3.386   5.410   1.728
 8307SOL    HW125820   3.393   5.484   1.794
 8307SOL    HW225821   3.353   5.327   1.774
 8308SOL     OW25822   3.316   5.339   1.370
 8308SOL    HW125823   3.222   5.306   1.359
 8308SOL    HW225824   3.380   5.265   1.352
 8309SOL     OW25825   6.937   5.621   4.128
 8309SOL    HW125826   6.915   5.526   4.148
 8309SOL    HW225827   0.002   5.627   4.081
 8310SOL     OW25828   0.103   5.467   1.157
 8310SOL    HW125829   0.192   5.511   1.170
 8310SOL    HW225830   0.117   5.370   1.134
 8311SOL     OW25831   0.966   1.984   4.910
 8311SOL    HW125832   0.897   2.024   4.850
 8311SOL    HW225833   1.032   1.933   4.855
 8312SOL     OW25834   4.944   0.393   6.988
 8312SOL    HW125835   4.938   0.440   0.052
 8312SOL    HW225836   5.037   0.403   6.952
 8313SOL     OW25837   5.128   6.926   0.573
 8313SOL    HW125838   5.042   6.903   0.620
 8313SOL    HW225839   5.110   6.940   0.476
 8314SOL     OW25840   4.950   0.590   0.160
 8314SOL    HW125841   4.894   0.652   0.214
 8314SOL    HW225842   5.044   0.590   0.197
 8315SOL     OW25843   4.308   3.411   1.159
 8315SOL    HW125844   4.317   3.320   1.116
 8315SOL    HW225845   4.349   3.480   1.099
 8316SOL     OW25846   1.377   2.037   1.895
 8316SOL    HW125847   1.380   1.938   1.909
 8316SOL    HW225848   1.308   2.059   1.826
 8317SOL     OW25849   1.565   3.058   2.542
 8317SOL    HW125850   1.612   3.011   2.467
 8317SOL    HW225851   1.588   3.014   2.628
 8318SOL     OW25852   4.280   1.623   5.635
 8318SOL    HW125853   4.246   1.592   5.723
 8318SOL    HW225854   4.230   1.705   5.606
 8319SOL     OW25855   1.634   2.084   0.901
 8319SOL    HW125856   1.600   2.177   0.916
 8319SOL    HW225857   1.576   2.019   0.951
 8320SOL     OW25858   3.040   3.671   2.566
 8320SOL    HW125859   3.034   3.650   2.663
 8320SOL    HW225860   3.058   3.586   2.515
 8321SOL     OW25861   6.831   6.920   6.362
 8321SOL    HW125862   6.871   6.934   6.272
 8321SOL    HW225863   6.893   6.957   6.432
 8322SOL     OW25864   6.355   0.121   1.224
 8322SOL    HW125865   6.410   0.180   1.283
 8322SOL    HW225866   6.381   0.136   1.129
 8323SOL     OW25867   5.422   5.631   2.052
 8323SOL    HW125868   5.472   5.663   2.132
 8323SOL    HW225869   5.330   5.669   2.052
 8324SOL     OW25870   5.706   6.545   1.211
 8324SOL    HW125871   5.774   6.496   1.156
 8324SOL    HW225872   5.716   6.643   1.196
 8325SOL     OW25873   2.190   3.801   5.261
 8325SOL    HW125874   2.256   3.809   5.187
 8325SOL    HW225875   2.179   3.704   5.286
 8326SOL     OW25876   4.933   3.441   5.599
 8326SOL    HW125877   4.889   3.472   5.515
 8326SOL    HW225878   4.917   3.343   5.611
 8327SOL     OW25879   6.038   0.772   5.898
 8327SOL    HW125880   5.944   0.775   5.932
 8327SOL    HW225881   6.070   0.866   5.882
 8328SOL     OW25882   2.956   6.490   6.213
 8328SOL    HW125883   2.880   6.429   6.235
 8328SOL    HW225884   2.968   6.493   6.114
 8329SOL     OW25885   1.311   3.173   5.969
 8329SOL    HW125886   1.265   3.170   5.880
 8329SOL    HW225887   1.260   3.234   6.030
 8330SOL     OW25888   2.427   1.435   6.889
 8330SOL    HW125889   2.514   1.438   6.938
 8330SOL    HW225890   2.384   1.525   6.892
 8331SOL     OW25891   3.037   0.652   1.140
 8331SOL    HW125892   2.991   0.651   1.051
 8331SOL    HW225893   3.037   0.745   1.176
 8332SOL     OW25894   5.172   5.334   2.173
 8332SOL    HW125895   5.256   5.335   2.119
 8332SOL    HW225896   5.117   5.414   2.151
 8333SOL     OW25897   0.179   6.135   6.062
 8333SOL    HW125898   0.263   6.080   6.063
 8333SOL    HW225899   0.149   6.152   6.156
 8334SOL     OW25900   4.088   0.964   4.297
 8334SOL    HW125901   4.140   0.937   4.216
 8334SOL    HW225902   4.151   0.985   4.371
 8335SOL     OW25903   5.318   0.257   0.178
 8335SOL    HW125904   5.229   0.232   0.141
 8335SOL    HW225905   5.308   0.278   0.276
 8336SOL     OW25906   0.335   4.869   3.190
 8336SOL    HW125907   0.416   4.820   3.159
 8336SOL    HW225908   0.350   4.902   3.284
 8337SOL     OW25909   2.329   6.306   3.063
 8337SOL    HW125910   2.304   6.402   3.050
 8337SOL    HW225911   2.427   6.299   3.078
 8338SOL     OW25912   3.880   5.447   2.159
 8338SOL    HW125913   3.958   5.384   2.172
 8338SOL    HW225914   3.819   5.442   2.238
 8339SOL     OW25915   6.368   0.198   1.947
 8339SOL    HW125916   6.366   0.144   1.862
 8339SOL    HW225917   6.439   0.267   1.941
 8340SOL     OW25918   4.532   3.174   0.827
 8340SOL    HW125919   4.613   3.227   0.853
 8340SOL    HW225920   4.561   3.084   0.794
 8341SOL     OW25921   2.938   6.635   0.307
 8341SOL    HW125922   2.883   6.552   0.293
 8341SOL    HW225923   2.997   6.649   0.228
 8342SOL     OW25924   4.174   6.523   0.960
 8342SOL    HW125925   4.263   6.569   0.962
 8342SOL    HW225926   4.108   6.578   0.909
 8343SOL     OW25927   1.859   5.571   5.256
 8343SOL    HW125928   1.900   5.608   5.172
 8343SOL    HW225929   1.844   5.646   5.321
 8344SOL     OW25930   4.554   5.734   4.980
 8344SOL    HW125931   4.616   5.672   4.933
 8344SOL    HW225932   4.470   5.685   5.004
 8345SOL     OW25933   4.372   1.228   2.550
 8345SOL    HW125934   4.445   1.202   2.614
 8345SOL    HW225935   4.289   1.177   2.574
 8346SOL     OW25936   3.480   5.420   0.270
 8346SOL    HW125937   3.439   5.330   0.286
 8346SOL    HW225938   3.501   5.463   0.358
 8347SOL     OW25939   3.387   5.465   4.261
 8347SOL    HW125940   3.449   5.389   4.239
 8347SOL    HW225941   3.363   5.461   4.358
 8348SOL     OW25942   2.688   0.274   1.882
 8348SOL    HW125943   2.730   0.365   1.884
 8348SOL    HW225944   2.619   0.268   1.954
 8349SOL     OW25945   5.843   6.251   1.592
 8349SOL    HW125946   5.798   6.325   1.542
 8349SOL    HW225947   5.868   6.283   1.683
 8350SOL     OW25948   3.451   0.009   6.089
 8350SOL    HW125949   3.421   0.100   6.117
 8350SOL    HW225950   3.376   6.967   6.098
 8351SOL     OW25951   5.529   5.283   3.953
 8351SOL    HW125952   5.441   5.244   3.982
 8351SOL    HW225953   5.512   5.359   3.890
 8352SOL     OW25954   0.862   0.197   3.454
 8352SOL    HW125955   0.918   0.122   3.489
 8352SOL    HW225956   0.781   0.207   3.512
 8353SOL     OW25957   6.853   3.463   1.737
 8353SOL    HW125958   6.859   3.537   1.804
 8353SOL    HW225959   6.909   3.386   1.767
 8354SOL     OW25960   4.476   6.777   5.552
 8354SOL    HW125961   4.469   6.742   5.459
 8354SOL    HW225962   4.389   6.818   5.580
 8355SOL     OW25963   2.573   0.969   5.836
 8355SOL    HW125964   2.512   0.891   5.823
 8355SOL    HW225965   2.542   1.023   5.914
 8356SOL     OW25966   0.991   6.977   0.923
 8356SOL    HW125967   1.086   6.947   0.934
 8356SOL    HW225968   0.989   0.041   0.875
 8357SOL     OW25969   3.794   6.838   4.613
 8357SOL    HW125970   3.751   6.860   4.526
 8357SOL    HW225971   3.824   6.922   4.658
 8358SOL     OW25972   1.212   4.499   5.373
 8358SOL    HW125973   1.127   4.530   5.330
 8358SOL    HW225974   1.287   4.559   5.345
 8359SOL     OW25975   3.144   0.606   5.057
 8359SOL    HW125976   3.172   0.525   5.005
 8359SOL    HW225977   3.068   0.582   5.117
 8360SOL     OW25978   3.657   6.541   0.892
 8360SOL    HW125979   3.650   6.446   0.862
 8360SOL    HW225980   3.602   6.554   0.975
 8361SOL     OW25981   2.982   0.137   2.670
 8361SOL    HW125982   3.047   0.126   2.745
 8361SOL    HW225983   2.925   0.218   2.687
 8362SOL     OW25984   4.203   2.197   0.482
 8362SOL    HW125985   4.105   2.175   0.477
 8362SOL    HW225986   4.230   2.247   0.400
 8363SOL     OW25987   6.630   2.492   6.269
 8363SOL    HW125988   6.669   2.491   6.177
 8363SOL    HW225989   6.552   2.429   6.273
 8364SOL     OW25990   1.353   2.572   3.282
 8364SOL    HW125991   1.315   2.495   3.231
 8364SOL    HW225992   1.318   2.571   3.375
 8365SOL     OW25993   1.790   3.792   1.909
 8365SOL    HW125994   1.805   3.694   1.897
 8365SOL    HW225995   1.866   3.843   1.868
 8366SOL     OW25996   1.921   5.884   2.220
 8366SOL    HW125997   1.907   5.786   2.235
 8366SOL    HW225998   1.872   5.912   2.137
 8367SOL     OW25999   3.969   5.635   4.645
 8367SOL    HW126000   4.058   5.668   4.677
 8367SOL    HW226001   3.918   5.597   4.722
 8368SOL     OW26002   2.293   5.685   6.249
 8368SOL    HW126003   2.252   5.695   6.158
 8368SOL    HW226004   2.228   5.715   6.319
 8369SOL     OW26005   1.575   6.643   6.358
 8369SOL    HW126006   1.534   6.571   6.413
 8369SOL    HW226007   1.651   6.685   6.408
 8370SOL     OW26008   3.039   1.804   5.844
 8370SOL    HW126009   3.091   1.718   5.842
 8370SOL    HW226010   2.949   1.789   5.802
 8371SOL     OW26011   2.285   4.594   1.031
 8371SOL    HW126012   2.290   4.687   1.067
 8371SOL    HW226013   2.369   4.545   1.053
 8372SOL     OW26014   1.411   5.175   2.093
 8372SOL    HW126015   1.498   5.176   2.045
 8372SOL    HW226016   1.426   5.192   2.190
 8373SOL     OW26017   1.634   0.030   3.910
 8373SOL    HW126018   1.730   0.044   3.887
 8373SOL    HW226019   1.624   0.024   4.009
 8374SOL     OW26020   0.157   0.453   5.051
 8374SOL    HW126021   0.159   0.353   5.059
 8374SOL    HW226022   0.066   0.487   5.078
 8375SOL     OW26023   3.540   6.414   4.966
 8375SOL    HW126024   3.508   6.324   4.934
 8375SOL    HW226025   3.467   6.481   4.953
 8376SOL     OW26026   1.277   0.828   4.450
 8376SOL    HW126027   1.186   0.843   4.488
 8376SOL    HW226028   1.340   0.898   4.484
 8377SOL     OW26029   4.801   6.321   0.732
 8377SOL    HW126030   4.744   6.242   0.755
 8377SOL    HW226031   4.848   6.353   0.815
 8378SOL     OW26032   4.421   5.548   2.675
 8378SOL    HW126033   4.326   5.545   2.646
 8378SOL    HW226034   4.468   5.465   2.642
 8379SOL     OW26035   5.782   2.637   1.137
 8379SOL    HW126036   5.792   2.626   1.038
 8379SOL    HW226037   5.685   2.636   1.161
 8380SOL     OW26038   0.188   0.589   2.574
 8380SOL    HW126039   0.126   0.542   2.636
 8380SOL    HW226040   0.281   0.586   2.611
 8381SOL     OW26041   6.999   2.824   5.225
 8381SOL    HW126042   6.976   2.881   5.304
 8381SOL    HW226043   0.069   2.843   5.196
 8382SOL     OW26044   3.086   0.744   3.076
 8382SOL    HW126045   3.108   0.812   3.006
 8382SOL    HW226046   2.987   0.729   3.079
 8383SOL     OW26047   2.811   0.177   6.026
 8383SOL    HW126048   2.778   0.143   5.938
 8383SOL    HW226049   2.906   0.151   6.039
 8384SOL     OW26050   6.030   0.493   1.101
 8384SOL    HW126051   6.055   0.479   1.197
 8384SOL    HW226052   5.957   0.430   1.076
 8385SOL     OW26053   6.068   1.885   0.867
 8385SOL    HW126054   6.080   1.933   0.954
 8385SOL    HW226055   6.139   1.913   0.803
 8386SOL     OW26056   2.171   5.693   2.398
 8386SOL    HW126057   2.088   5.637   2.390
 8386SOL    HW226058   2.212   5.705   2.308
 8387SOL     OW26059   1.644   1.427   2.196
 8387SOL    HW126060   1.566   1.488   2.179
 8387SOL    HW226061   1.708   1.471   2.258
 8388SOL     OW26062   2.212   6.311   0.418
 8388SOL    HW126063   2.256   6.366   0.347
 8388SOL    HW226064   2.151   6.369   0.472
 8389SOL     OW26065   0.543   3.818   2.329
 8389SOL    HW126066   0.560   3.764   2.246
 8389SOL    HW226067   0.468   3.778   2.381
 8390SOL     OW26068   4.230   1.353   6.667
 8390SOL    HW126069   4.207   1.320   6.576
 8390SOL    HW226070   4.240   1.274   6.729
 8391SOL     OW26071   6.277   5.048   0.767
 8391SOL    HW126072   6.223   5.128   0.795
 8391SOL    HW226073   6.322   5.009   0.847
 8392SOL     OW26074   6.422   3.803   4.634
 8392SOL    HW126075   6.397   3.900   4.643
 8392SOL    HW226076   6.354   3.747   4.683
 8393SOL     OW26077   0.615   6.599   3.058
 8393SOL    HW126078   0.659   6.639   3.139
 8393SOL    HW226079   0.681   6.595   2.983
 8394SOL     OW26080   6.407   2.590   1.317
 8394SOL    HW126081   6.364   2.523   1.256
 8394SOL    HW226082   6.463   2.542   1.385
 8395SOL     OW26083   2.464   6.928   4.860
 8395SOL    HW126084   2.450   0.002   4.842
 8395SOL    HW226085   2.560   6.913   4.885
 8396SOL     OW26086   4.974   5.251   2.372
 8396SOL    HW126087   5.054   5.263   2.312
 8396SOL    HW226088   4.933   5.340   2.390
 8397SOL     OW26089   1.657   0.460   2.507
 8397SOL    HW126090   1.728   0.400   2.470
 8397SOL    HW226091   1.681   0.556   2.489
 8398SOL     OW26092   4.166   1.779   6.630
 8398SOL    HW126093   4.161   1.708   6.559
 8398SOL    HW226094   4.142   1.739   6.719
 8399SOL     OW26095   5.916   6.719   6.608
 8399SOL    HW126096   5.933   6.759   6.698
 8399SOL    HW226097   6.003   6.697   6.564
 8400SOL     OW26098   1.966   1.000   4.477
 8400SOL    HW126099   2.026   1.069   4.518
 8400SOL    HW226100   1.878   1.002   4.524
 8401SOL     OW26101   2.052   1.622   5.405
 8401SOL    HW126102   2.079   1.663   5.318
 8401SOL    HW226103   2.026   1.694   5.469
 8402SOL     OW26104   4.566   1.761   5.884
 8402SOL    HW126105   4.557   1.856   5.914
 8402SOL    HW226106   4.653   1.748   5.838
 8403SOL     OW26107   0.526   2.936   4.591
 8403SOL    HW126108   0.620   2.944   4.623
 8403SOL    HW226109   0.506   3.010   4.526
 8404SOL     OW26110   4.029   7.015   5.795
 8404SOL    HW126111   4.122   0.026   5.805
 8404SOL    HW226112   3.971   0.061   5.752
 8405SOL     OW26113   1.633   1.203   5.525
 8405SOL    HW126114   1.704   1.253   5.474
 8405SOL    HW226115   1.646   1.219   5.623
 8406SOL     OW26116   4.542   0.660   0.401
 8406SOL    HW126117   4.450   0.673   0.438
 8406SOL    HW226118   4.571   0.565   0.418
 8407SOL     OW26119   3.639   6.927   3.718
 8407SOL    HW126120   3.606   6.835   3.698
 8407SOL    HW226121   3.564   6.984   3.751
 8408SOL     OW26122   5.968   3.955   1.456
 8408SOL    HW126123   5.898   3.977   1.388
 8408SOL    HW226124   6.048   3.917   1.410
 8409SOL     OW26125   5.548   2.129   3.055
 8409SOL    HW126126   5.481   2.059   3.030
 8409SOL    HW226127   5.501   2.216   3.069
 8410SOL     OW26128   5.509   0.690   1.847
 8410SOL    HW126129   5.581   0.690   1.916
 8410SOL    HW226130   5.426   0.650   1.885
 8411SOL     OW26131   1.095   5.129   0.083
 8411SOL    HW126132   1.031   5.092   0.016
 8411SOL    HW226133   1.156   5.194   0.039
 8412SOL     OW26134   3.587   1.859   1.327
 8412SOL    HW126135   3.537   1.859   1.241
 8412SOL    HW226136   3.548   1.927   1.389
 8413SOL     OW26137   3.688   5.705   6.612
 8413SOL    HW126138   3.636   5.712   6.527
 8413SOL    HW226139   3.641   5.754   6.685
 8414SOL     OW26140   4.160   5.697   4.045
 8414SOL    HW126141   4.087   5.629   4.038
 8414SOL    HW226142   4.120   5.787   4.061
 8415SOL     OW26143   6.797   6.143   3.925
 8415SOL    HW126144   6.822   6.186   4.012
 8415SOL    HW226145   6.724   6.196   3.882
 8416SOL     OW26146   5.911   3.332   2.607
 8416SOL    HW126147   5.959   3.419   2.597
 8416SOL    HW226148   5.956   3.277   2.677
 8417SOL     OW26149   1.161   4.139   5.752
 8417SOL    HW126150   1.119   4.213   5.806
 8417SOL    HW226151   1.255   4.126   5.782
 8418SOL     OW26152   5.404   5.079   0.893
 8418SOL    HW126153   5.444   5.126   0.814
 8418SOL    HW226154   5.422   5.133   0.976
 8419SOL     OW26155   5.775   6.998   1.877
 8419SOL    HW126156   5.748   0.009   1.966
 8419SOL    HW226157   5.755   0.042   1.806
 8420SOL     OW26158   4.528   6.910   6.772
 8420SOL    HW126159   4.615   6.930   6.816
 8420SOL    HW226160   4.455   6.963   6.817
 8421SOL     OW26161   2.780   5.318   6.841
 8421SOL    HW126162   2.810   5.397   6.787
 8421SOL    HW226163   2.817   5.234   6.801
 8422SOL     OW26164   4.230   1.333   1.881
 8422SOL    HW126165   4.279   1.290   1.956
 8422SOL    HW226166   4.286   1.407   1.842
 8423SOL     OW26167   3.113   5.076   5.788
 8423SOL    HW126168   3.172   5.128   5.850
 8423SOL    HW226169   3.142   5.093   5.694
 8424SOL     OW26170   2.138   1.996   2.350
 8424SOL    HW126171   2.039   1.990   2.339
 8424SOL    HW226172   2.161   2.082   2.396
 8425SOL     OW26173   4.903   4.811   5.926
 8425SOL    HW126174   4.851   4.883   5.881
 8425SOL    HW226175   4.854   4.781   6.008
 8426SOL     OW26176   3.640   3.236   3.349
 8426SOL    HW126177   3.668   3.161   3.410
 8426SOL    HW226178   3.574   3.203   3.282
 8427SOL     OW26179   3.601   4.180   4.794
 8427SOL    HW126180   3.602   4.086   4.829
 8427SOL    HW226181   3.615   4.244   4.869
 8428SOL     OW26182   0.848   5.850   1.488
 8428SOL    HW126183   0.768   5.849   1.549
 8428SOL    HW226184   0.915   5.783   1.521
 8429SOL     OW26185   0.943   6.253   4.554
 8429SOL    HW126186   1.000   6.172   4.568
 8429SOL    HW226187   0.918   6.259   4.458
 8430SOL     OW26188   3.693   5.407   3.358
 8430SOL    HW126189   3.633   5.476   3.399
 8430SOL    HW226190   3.637   5.335   3.317
 8431SOL     OW26191   3.022   4.252   0.806
 8431SOL    HW126192   2.980   4.332   0.850
 8431SOL    HW226193   2.956   4.177   0.805
 8432SOL     OW26194   6.044   6.373   5.742
 8432SOL    HW126195   6.119   6.345   5.683
 8432SOL    HW226196   5.974   6.421   5.688
 8433SOL     OW26197   4.967   2.635   0.544
 8433SOL    HW126198   5.009   2.726   0.548
 8433SOL    HW226199   4.955   2.600   0.637
 8434SOL     OW26200   2.729   0.049   4.662
 8434SOL    HW126201   2.776   7.000   4.613
 8434SOL    HW226202   2.794   0.122   4.684
 8435SOL     OW26203   6.270   0.733   1.490
 8435SOL    HW126204   6.289   0.776   1.402
 8435SOL    HW226205   6.334   0.767   1.558
 8436SOL     OW26206   3.359   6.441   3.209
 8436SOL    HW126207   3.309   6.446   3.123
 8436SOL    HW226208   3.302   6.395   3.277
 8437SOL     OW26209   2.375   1.529   4.270
 8437SOL    HW126210   2.395   1.439   4.311
 8437SOL    HW226211   2.364   1.519   4.171
 8438SOL     OW26212   2.239   4.998   2.728
 8438SOL    HW126213   2.263   4.929   2.797
 8438SOL    HW226214   2.282   5.085   2.752
 8439SOL     OW26215   5.848   4.958   2.629
 8439SOL    HW126216   5.824   4.983   2.723
 8439SOL    HW226217   5.857   5.041   2.574
 8440SOL     OW26218   1.743   1.954   3.340
 8440SOL    HW126219   1.820   1.949   3.276
 8440SOL    HW226220   1.701   2.045   3.335
 8441SOL     OW26221   5.861   6.813   0.219
 8441SOL    HW126222   5.793   6.886   0.206
 8441SOL    HW226223   5.918   6.805   0.137
 8442SOL     OW26224   3.343   1.829   4.958
 8442SOL    HW126225   3.411   1.780   5.013
 8442SOL    HW226226   3.316   1.913   5.005
 8443SOL     OW26227   2.192   4.510   3.600
 8443SOL    HW126228   2.257   4.435   3.589
 8443SOL    HW226229   2.190   4.538   3.696
 8444SOL     OW26230   3.338   6.486   3.994
 8444SOL    HW126231   3.357   6.390   3.973
 8444SOL    HW226232   3.421   6.530   4.026
 8445SOL     OW26233   3.315   6.983   1.291
 8445SOL    HW126234   3.249   6.927   1.341
 8445SOL    HW226235   3.399   6.992   1.345
 8446SOL     OW26236   4.734   5.479   6.846
 8446SOL    HW126237   4.730   5.513   6.940
 8446SOL    HW226238   4.791   5.397   6.842
 8447SOL     OW26239   5.119   2.001   2.169
 8447SOL    HW126240   5.064   1.982   2.088
 8447SOL    HW226241   5.140   1.916   2.216
 8448SOL     OW26242   4.449   5.476   4.123
 8448SOL    HW126243   4.368   5.420   4.103
 8448SOL    HW226244   4.425   5.545   4.191
 8449SOL     OW26245   0.093   2.981   3.645
 8449SOL    HW126246   0.157   3.044   3.601
 8449SOL    HW226247   0.128   2.888   3.638
 8450SOL     OW26248   0.323   6.916   1.031
 8450SOL    HW126249   0.268   6.847   1.078
 8450SOL    HW226250   0.294   6.923   0.936
 8451SOL     OW26251   3.473   1.829   0.073
 8451SOL    HW126252   3.481   1.901   0.005
 8451SOL    HW226253   3.446   1.743   0.030
 8452SOL     OW26254   6.199   1.793   2.738
 8452SOL    HW126255   6.244   1.772   2.825
 8452SOL    HW226256   6.246   1.869   2.693
 8453SOL     OW26257   0.334   4.424   6.956
 8453SOL    HW126258   0.244   4.380   6.952
 8453SOL    HW226259   0.397   4.377   6.895
 8454SOL     OW26260   6.776   6.571   1.335
 8454SOL    HW126261   6.815   6.605   1.420
 8454SOL    HW226262   6.848   6.531   1.278
 8455SOL     OW26263   6.704   1.905   1.837
 8455SOL    HW126264   6.690   1.806   1.846
 8455SOL    HW226265   6.652   1.953   1.908
 8456SOL     OW26266   4.070   5.779   3.419
 8456SOL    HW126267   4.052   5.681   3.427
 8456SOL    HW226268   4.013   5.829   3.485
 8457SOL     OW26269   6.670   6.676   4.871
 8457SOL    HW126270   6.762   6.636   4.871
 8457SOL    HW226271   6.667   6.752   4.807
 8458SOL     OW26272   3.238   0.451   6.986
 8458SOL    HW126273   3.213   0.355   6.990
 8458SOL    HW226274   3.258   0.477   6.892
 8459SOL     OW26275   2.716   5.922   2.055
 8459SOL    HW126276   2.629   5.942   2.101
 8459SOL    HW226277   2.706   5.937   1.957
 8460SOL     OW26278   4.080   4.333   5.301
 8460SOL    HW126279   4.126   4.376   5.223
 8460SOL    HW226280   3.998   4.286   5.269
 8461SOL     OW26281   1.207   3.979   4.752
 8461SOL    HW126282   1.175   4.074   4.742
 8461SOL    HW226283   1.178   3.926   4.672
 8462SOL     OW26284   2.353   2.592   6.631
 8462SOL    HW126285   2.351   2.686   6.667
 8462SOL    HW226286   2.416   2.587   6.554
 8463SOL     OW26287   0.045   6.942   1.281
 8463SOL    HW126288   0.089   6.863   1.239
 8463SOL    HW226289   0.110   7.017   1.288
 8464SOL     OW26290   5.765   3.766   3.852
 8464SOL    HW126291   5.735   3.799   3.941
 8464SOL    HW226292   5.686   3.743   3.795
 8465SOL     OW26293   0.926   3.213   0.629
 8465SOL    HW126294   1.017   3.195   0.665
 8465SOL    HW226295   0.860   3.216   0.704
 8466SOL     OW26296   0.893   6.319   4.111
 8466SOL    HW126297   0.803   6.353   4.085
 8466SOL    HW226298   0.939   6.387   4.169
 8467SOL     OW26299   3.503   6.944   6.826
 8467SOL    HW126300   3.449   0.004   6.830
 8467SOL    HW226301   3.512   6.913   6.731
 8468SOL     OW26302   3.919   1.898   6.528
 8468SOL    HW126303   3.862   1.822   6.559
 8468SOL    HW226304   4.015   1.878   6.548
 8469SOL     OW26305   2.838   1.732   6.761
 8469SOL    HW126306   2.877   1.723   6.853
 8469SOL    HW226307   2.807   1.642   6.729
 8470SOL     OW26308   1.015   4.521   0.194
 8470SOL    HW126309   0.927   4.491   0.230
 8470SOL    HW226310   1.083   4.449   0.210
 8471SOL     OW26311   3.341   1.337   2.993
 8471SOL    HW126312   3.250   1.306   3.022
 8471SOL    HW226313   3.331   1.407   2.922
 8472SOL     OW26314   6.956   0.856   4.669
 8472SOL    HW126315   7.000   0.821   4.751
 8472SOL    HW226316   0.001   0.874   4.598
 8473SOL     OW26317   6.300   5.807   6.662
 8473SOL    HW126318   6.264   5.719   6.633
 8473SOL    HW226319   6.282   5.875   6.591
 8474SOL     OW26320   3.214   3.444   2.376
 8474SOL    HW126321   3.160   3.361   2.360
 8474SOL    HW226322   3.306   3.418   2.404
 8475SOL     OW26323   0.715   2.210   3.254
 8475SOL    HW126324   0.775   2.135   3.279
 8475SOL    HW226325   0.662   2.185   3.173
 8476SOL     OW26326   6.365   1.858   0.952
 8476SOL    HW126327   6.330   1.914   0.877
 8476SOL    HW226328   6.464   1.864   0.956
 8477SOL     OW26329   4.566   6.871   1.744
 8477SOL    HW126330   4.628   6.891   1.820
 8477SOL    HW226331   4.537   6.957   1.702
 8478SOL     OW26332   1.063   0.394   6.065
 8478SOL    HW126333   1.057   0.424   6.160
 8478SOL    HW226334   1.114   0.308   6.061
 8479SOL     OW26335   6.784   2.531   1.323
 8479SOL    HW126336   6.728   2.588   1.263
 8479SOL    HW226337   6.822   2.454   1.272
 8480SOL     OW26338   4.444   1.479   7.003
 8480SOL    HW126339   4.484   1.387   7.006
 8480SOL    HW226340   4.516   1.548   6.998
 8481SOL     OW26341   4.989   2.053   3.369
 8481SOL    HW126342   4.930   1.990   3.319
 8481SOL    HW226343   5.073   2.006   3.395
 8482SOL     OW26344   4.697   5.707   2.118
 8482SOL    HW126345   4.603   5.741   2.123
 8482SOL    HW226346   4.758   5.773   2.162
 8483SOL     OW26347   4.037   6.153   2.022
 8483SOL    HW126348   3.990   6.113   2.100
 8483SOL    HW226349   4.086   6.235   2.051
 8484SOL     OW26350   0.764   5.688   2.829
 8484SOL    HW126351   0.721   5.662   2.743
 8484SOL    HW226352   0.695   5.688   2.902
 8485SOL     OW26353   3.036   2.997   0.332
 8485SOL    HW126354   3.129   2.962   0.319
 8485SOL    HW226355   2.970   2.932   0.294
 8486SOL     OW26356   4.506   1.152   2.780
 8486SOL    HW126357   4.564   1.171   2.860
 8486SOL    HW226358   4.531   1.064   2.741
 8487SOL     OW26359   5.454   1.665   6.292
 8487SOL    HW126360   5.366   1.620   6.279
 8487SOL    HW226361   5.442   1.746   6.349
 8488SOL     OW26362   6.093   4.965   5.544
 8488SOL    HW126363   6.087   4.927   5.636
 8488SOL    HW226364   6.067   5.062   5.546
 8489SOL     OW26365   6.662   1.041   0.842
 8489SOL    HW126366   6.609   1.097   0.779
 8489SOL    HW226367   6.633   1.060   0.936
 8490SOL     OW26368   4.090   6.480   4.411
 8490SOL    HW126369   4.027   6.497   4.487
 8490SOL    HW226370   4.053   6.407   4.353
 8491SOL     OW26371   1.722   6.911   0.762
 8491SOL    HW126372   1.684   6.818   0.755
 8491SOL    HW226373   1.664   6.975   0.712
 8492SOL     OW26374   4.469   4.262   6.423
 8492SOL    HW126375   4.520   4.322   6.361
 8492SOL    HW226376   4.432   4.185   6.372
 8493SOL     OW26377   2.744   2.233   6.199
 8493SOL    HW126378   2.805   2.239   6.120
 8493SOL    HW226379   2.729   2.137   6.223
 8494SOL     OW26380   2.993   4.334   1.444
 8494SOL    HW126381   3.037   4.246   1.424
 8494SOL    HW226382   2.898   4.331   1.412
 8495SOL     OW26383   6.660   4.341   1.252
 8495SOL    HW126384   6.571   4.363   1.290
 8495SOL    HW226385   6.691   4.416   1.194
 8496SOL     OW26386   0.773   1.636   2.118
 8496SOL    HW126387   0.805   1.622   2.025
 8496SOL    HW226388   0.745   1.731   2.130
 8497SOL     OW26389   6.332   1.012   3.540
 8497SOL    HW126390   6.409   1.073   3.523
 8497SOL    HW226391   6.259   1.031   3.474
 8498SOL     OW26392   0.591   6.201   2.958
 8498SOL    HW126393   0.590   6.111   2.914
 8498SOL    HW226394   0.684   6.237   2.960
 8499SOL     OW26395   2.500   4.861   6.169
 8499SOL    HW126396   2.440   4.781   6.167
 8499SOL    HW226397   2.594   4.833   6.152
 8500SOL     OW26398   2.432   6.652   5.279
 8500SOL    HW126399   2.485   6.573   5.312
 8500SOL    HW226400   2.438   6.725   5.347
 8501SOL     OW26401   0.523   1.850   6.969
 8501SOL    HW126402   0.446   1.801   6.929
 8501SOL    HW226403   0.522   1.838   0.045
 8502SOL     OW26404   1.984   4.775   1.265
 8502SOL    HW126405   1.938   4.782   1.177
 8502SOL    HW226406   2.083   4.783   1.252
 8503SOL     OW26407   1.359   7.002   3.887
 8503SOL    HW126408   1.456   6.999   3.911
 8503SOL    HW226409   1.325   0.071   3.898
 8504SOL     OW26410   3.031   5.167   3.188
 8504SOL    HW126411   2.967   5.242   3.173
 8504SOL    HW226412   3.124   5.204   3.191
 8505SOL     OW26413   4.924   4.060   3.605
 8505SOL    HW126414   4.889   4.060   3.511
 8505SOL    HW226415   4.890   3.980   3.654
 8506SOL     OW26416   6.214   1.197   0.119
 8506SOL    HW126417   6.286   1.257   0.153
 8506SOL    HW226418   6.227   1.180   0.021
 8507SOL     OW26419   3.675   1.262   5.326
 8507SOL    HW126420   3.708   1.317   5.249
 8507SOL    HW226421   3.707   1.301   5.412
 8508SOL     OW26422   6.479   1.760   4.871
 8508SOL    HW126423   6.474   1.667   4.907
 8508SOL    HW226424   6.418   1.769   4.792
 8509SOL     OW26425   4.722   1.758   3.470
 8509SOL    HW126426   4.759   1.823   3.403
 8509SOL    HW226427   4.736   1.665   3.437
 8510SOL     OW26428   5.485   4.670   3.266
 8510SOL    HW126429   5.573   4.681   3.313
 8510SOL    HW226430   5.488   4.588   3.209
 8511SOL     OW26431   6.342   4.118   1.470
 8511SOL    HW126432   6.261   4.110   1.529
 8511SOL    HW226433   6.345   4.040   1.407
 8512SOL     OW26434   3.482   2.179   1.297
 8512SOL    HW126435   3.509   2.142   1.385
 8512SOL    HW226436   3.552   2.159   1.229
 8513SOL     OW26437   4.768   4.153   1.932
 8513SOL    HW126438   4.764   4.059   1.966
 8513SOL    HW226439   4.696   4.207   1.974
 8514SOL     OW26440   3.048   2.092   3.660
 8514SOL    HW126441   3.089   2.088   3.751
 8514SOL    HW226442   3.008   2.002   3.639
 8515SOL     OW26443   5.444   1.181   0.274
 8515SOL    HW126444   5.458   1.202   0.178
 8515SOL    HW226445   5.410   1.087   0.283
 8516SOL     OW26446   6.598   1.449   1.598
 8516SOL    HW126447   6.570   1.529   1.544
 8516SOL    HW226448   6.697   1.437   1.591
 8517SOL     OW26449   1.354   3.472   6.923
 8517SOL    HW126450   1.405   3.445   6.841
 8517SOL    HW226451   1.306   3.558   6.905
 8518SOL     OW26452   5.134   4.160   6.741
 8518SOL    HW126453   5.093   4.123   6.824
 8518SOL    HW226454   5.232   4.171   6.754
 8519SOL     OW26455   0.961   4.097   1.435
 8519SOL    HW126456   0.969   4.008   1.482
 8519SOL    HW226457   0.965   4.083   1.337
 8520SOL     OW26458   3.370   3.404   0.274
 8520SOL    HW126459   3.457   3.356   0.260
 8520SOL    HW226460   3.325   3.416   0.186
 8521SOL     OW26461   2.373   5.099   5.767
 8521SOL    HW126462   2.293   5.086   5.708
 8521SOL    HW226463   2.343   5.127   5.858
 8522SOL     OW26464   1.301   6.239   1.096
 8522SOL    HW126465   1.297   6.179   1.176
 8522SOL    HW226466   1.308   6.334   1.126
 8523SOL     OW26467   2.132   6.629   6.943
 8523SOL    HW126468   2.090   6.718   6.964
 8523SOL    HW226469   2.060   6.559   6.937
 8524SOL     OW26470   0.220   2.869   5.496
 8524SOL    HW126471   0.200   2.967   5.498
 8524SOL    HW226472   0.260   2.845   5.407
 8525SOL     OW26473   6.132   4.396   2.080
 8525SOL    HW126474   6.038   4.367   2.060
 8525SOL    HW226475   6.196   4.346   2.022
 8526SOL     OW26476   4.291   6.485   6.551
 8526SOL    HW126477   4.321   6.577   6.527
 8526SOL    HW226478   4.370   6.429   6.575
 8527SOL     OW26479   2.695   1.072   6.414
 8527SOL    HW126480   2.699   1.164   6.377
 8527SOL    HW226481   2.639   1.014   6.355
 8528SOL     OW26482   3.395   1.599   6.958
 8528SOL    HW126483   3.454   1.531   6.914
 8528SOL    HW226484   3.308   1.557   6.982
 8529SOL     OW26485   0.957   0.244   0.803
 8529SOL    HW126486   0.910   0.314   0.750
 8529SOL    HW226487   1.041   0.281   0.841
 8530SOL     OW26488   3.857   3.898   5.723
 8530SOL    HW126489   3.796   3.831   5.682
 8530SOL    HW226490   3.885   3.964   5.653
 8531SOL     OW26491   6.454   5.090   2.591
 8531SOL    HW126492   6.543   5.116   2.553
 8531SOL    HW226493   6.457   5.095   2.691
 8532SOL     OW26494   4.028   4.949   4.945
 8532SOL    HW126495   4.101   5.008   4.980
 8532SOL    HW226496   3.964   4.929   5.020
 8533SOL     OW26497   1.115   6.984   6.710
 8533SOL    HW126498   1.174   0.042   6.712
 8533SOL    HW226499   1.101   6.954   6.616
 8534SOL     OW26500   6.598   2.919   3.657
 8534SOL    HW126501   6.647   2.905   3.743
 8534SOL    HW226502   6.662   2.906   3.580
 8535SOL     OW26503   6.171   1.654   3.920
 8535SOL    HW126504   6.188   1.569   3.870
 8535SOL    HW226505   6.119   1.635   4.003
 8536SOL     OW26506   0.225   2.657   4.678
 8536SOL    HW126507   0.135   2.674   4.718
 8536SOL    HW226508   0.290   2.724   4.713
 8537SOL     OW26509   4.972   0.673   2.775
 8537SOL    HW126510   4.969   0.605   2.701
 8537SOL    HW226511   4.885   0.724   2.776
 8538SOL     OW26512   0.462   0.911   6.919
 8538SOL    HW126513   0.431   1.004   6.895
 8538SOL    HW226514   0.393   0.867   6.976
 8539SOL     OW26515   5.352   0.783   2.549
 8539SOL    HW126516   5.378   0.709   2.611
 8539SOL    HW226517   5.299   0.851   2.598
 8540SOL     OW26518   4.981   0.145   6.186
 8540SOL    HW126519   4.903   0.162   6.126
 8540SOL    HW226520   4.972   0.054   6.227
 8541SOL     OW26521   2.562   1.647   4.433
 8541SOL    HW126522   2.547   1.746   4.441
 8541SOL    HW226523   2.492   1.607   4.374
 8542SOL     OW26524   3.985   4.778   0.015
 8542SOL    HW126525   3.993   4.876   0.031
 8542SOL    HW226526   4.001   4.758   6.942
 8543SOL     OW26527   2.889   0.773   0.932
 8543SOL    HW126528   2.962   0.840   0.915
 8543SOL    HW226529   2.821   0.780   0.859
 8544SOL     OW26530   5.686   2.946   4.331
 8544SOL    HW126531   5.710   3.018   4.266
 8544SOL    HW226532   5.651   2.988   4.415
 8545SOL     OW26533   4.865   6.971   5.336
 8545SOL    HW126534   4.877   0.022   5.402
 8545SOL    HW226535   4.934   6.978   5.264
 8546SOL     OW26536   6.914   1.598   3.985
 8546SOL    HW126537   6.854   1.519   3.999
 8546SOL    HW226538   6.907   1.629   3.890
 8547SOL     OW26539   1.900   6.725   6.090
 8547SOL    HW126540   1.962   6.646   6.094
 8547SOL    HW226541   1.927   6.792   6.159
 8548SOL     OW26542   5.954   2.086   5.310
 8548SOL    HW126543   5.986   2.093   5.215
 8548SOL    HW226544   6.001   2.010   5.355
 8549SOL     OW26545   1.476   2.987   3.883
 8549SOL    HW126546   1.566   2.944   3.881
 8549SOL    HW226547   1.480   3.074   3.833
 8550SOL     OW26548   1.586   4.693   0.037
 8550SOL    HW126549   1.568   4.637   6.979
 8550SOL    HW226550   1.684   4.691   0.058
 8551SOL     OW26551   3.450   3.619   6.536
 8551SOL    HW126552   3.442   3.655   6.443
 8551SOL    HW226553   3.368   3.568   6.560
 8552SOL     OW26554   2.046   0.553   4.226
 8552SOL    HW126555   1.984   0.624   4.258
 8552SOL    HW226556   2.088   0.580   4.140
 8553SOL     OW26557   4.378   4.521   0.143
 8553SOL    HW126558   4.423   4.503   0.231
 8553SOL    HW226559   4.444   4.508   0.069
 8554SOL     OW26560   0.661   4.659   0.607
 8554SOL    HW126561   0.657   4.759   0.606
 8554SOL    HW226562   0.614   4.625   0.689
 8555SOL     OW26563   2.157   1.275   2.577
 8555SOL    HW126564   2.207   1.361   2.569
 8555SOL    HW226565   2.070   1.291   2.624
 8556SOL     OW26566   1.665   6.231   5.268
 8556SOL    HW126567   1.697   6.306   5.327
 8556SOL    HW226568   1.566   6.239   5.255
 8557SOL     OW26569   5.825   0.180   3.047
 8557SOL    HW126570   5.804   0.175   2.949
 8557SOL    HW226571   5.922   0.202   3.059
 8558SOL     OW26572   3.312   5.038   3.388
 8558SOL    HW126573   3.349   4.963   3.332
 8558SOL    HW226574   3.238   5.003   3.445
 8559SOL     OW26575   0.415   0.771   2.799
 8559SOL    HW126576   0.472   0.731   2.726
 8559SOL    HW226577   0.364   0.849   2.762
 8560SOL     OW26578   6.627   6.376   1.953
 8560SOL    HW126579   6.701   6.428   1.912
 8560SOL    HW226580   6.637   6.279   1.930
 8561SOL     OW26581   3.182   0.907   2.331
 8561SOL    HW126582   3.122   0.961   2.271
 8561SOL    HW226583   3.275   0.945   2.328
 8562SOL     OW26584   3.350   5.332   5.555
 8562SOL    HW126585   3.441   5.368   5.533
 8562SOL    HW226586   3.280   5.388   5.511
 8563SOL     OW26587   1.945   4.500   6.894
 8563SOL    HW126588   2.032   4.541   6.866
 8563SOL    HW226589   1.926   4.420   6.837
 8564SOL     OW26590   3.128   1.199   4.658
 8564SOL    HW126591   3.196   1.272   4.646
 8564SOL    HW226592   3.036   1.236   4.646
 8565SOL     OW26593   4.214   5.564   0.992
 8565SOL    HW126594   4.221   5.630   1.067
 8565SOL    HW226595   4.145   5.596   0.926
 8566SOL     OW26596   1.520   0.894   1.467
 8566SOL    HW126597   1.524   0.850   1.557
 8566SOL    HW226598   1.461   0.841   1.406
 8567SOL     OW26599   0.480   2.252   2.666
 8567SOL    HW126600   0.578   2.235   2.670
 8567SOL    HW226601   0.447   2.234   2.574
 8568SOL     OW26602   5.599   1.061   6.131
 8568SOL    HW126603   5.586   1.115   6.214
 8568SOL    HW226604   5.611   0.965   6.155
 8569SOL     OW26605   5.239   1.279   5.984
 8569SOL    HW126606   5.146   1.282   5.950
 8569SOL    HW226607   5.238   1.263   6.083
 8570SOL     OW26608   0.993   2.481   4.937
 8570SOL    HW126609   0.994   2.490   4.838
 8570SOL    HW226610   1.028   2.391   4.963
 8571SOL     OW26611   1.414   5.592   5.506
 8571SOL    HW126612   1.412   5.674   5.562
 8571SOL    HW226613   1.506   5.580   5.468
 8572SOL     OW26614   3.092   4.818   6.953
 8572SOL    HW126615   3.124   4.898   6.902
 8572SOL    HW226616   3.007   4.784   6.911
 8573SOL     OW26617   3.548   6.570   5.935
 8573SOL    HW126618   3.476   6.512   5.974
 8573SOL    HW226619   3.566   6.647   5.997
 8574SOL     OW26620   6.929   5.517   5.300
 8574SOL    HW126621   6.856   5.564   5.249
 8574SOL    HW226622   6.904   5.514   5.397
 8575SOL     OW26623   2.770   2.398   5.074
 8575SOL    HW126624   2.824   2.387   5.157
 8575SOL    HW226625   2.803   2.335   5.004
 8576SOL     OW26626   1.561   5.127   6.752
 8576SOL    HW126627   1.472   5.149   6.792
 8576SOL    HW226628   1.613   5.069   6.815
 8577SOL     OW26629   6.783   6.344   4.135
 8577SOL    HW126630   6.701   6.354   4.192
 8577SOL    HW226631   6.779   6.410   4.059
 8578SOL     OW26632   5.612   1.184   4.750
 8578SOL    HW126633   5.587   1.251   4.681
 8578SOL    HW226634   5.641   1.099   4.705
 8579SOL     OW26635   1.390   0.133   2.535
 8579SOL    HW126636   1.380   0.232   2.526
 8579SOL    HW226637   1.421   0.111   2.628
 8580SOL     OW26638   2.852   6.358   2.400
 8580SOL    HW126639   2.802   6.305   2.331
 8580SOL    HW226640   2.790   6.420   2.447
 8581SOL     OW26641   3.175   3.880   2.285
 8581SOL    HW126642   3.247   3.814   2.305
 8581SOL    HW226643   3.122   3.898   2.368
 8582SOL     OW26644   4.407   4.528   3.007
 8582SOL    HW126645   4.430   4.431   3.009
 8582SOL    HW226646   4.486   4.580   2.976
 8583SOL     OW26647   5.526   0.716   4.635
 8583SOL    HW126648   5.493   0.624   4.659
 8583SOL    HW226649   5.468   0.785   4.678
 8584SOL     OW26650   0.925   4.023   6.044
 8584SOL    HW126651   0.940   3.993   5.950
 8584SOL    HW226652   0.948   3.949   6.107
 8585SOL     OW26653   0.604   5.862   6.386
 8585SOL    HW126654   0.596   5.828   6.293
 8585SOL    HW226655   0.700   5.880   6.407
 8586SOL     OW26656   2.752   0.476   3.075
 8586SOL    HW126657   2.780   0.567   3.104
 8586SOL    HW226658   2.830   0.414   3.076
 8587SOL     OW26659   1.968   6.743   3.701
 8587SOL    HW126660   2.041   6.762   3.635
 8587SOL    HW226661   1.885   6.719   3.651
 8588SOL     OW26662   2.429   0.832   0.093
 8588SOL    HW126663   2.338   0.843   0.134
 8588SOL    HW226664   2.488   0.780   0.155
 8589SOL     OW26665   4.993   2.721   4.904
 8589SOL    HW126666   5.080   2.675   4.923
 8589SOL    HW226667   4.926   2.695   4.973
 8590SOL     OW26668   0.183   6.344   4.003
 8590SOL    HW126669   0.258   6.283   3.979
 8590SOL    HW226670   0.113   6.293   4.054
 8591SOL     OW26671   6.646   4.188   0.094
 8591SOL    HW126672   6.598   4.230   0.017
 8591SOL    HW226673   6.737   4.230   0.103
 8592SOL     OW26674   6.964   2.818   6.943
 8592SOL    HW126675   0.023   2.766   6.964
 8592SOL    HW226676   6.883   2.763   6.968
 8593SOL     OW26677   2.932   6.912   1.319
 8593SOL    HW126678   2.926   7.003   1.361
 8593SOL    HW226679   2.918   6.920   1.220
 8594SOL     OW26680   4.006   2.702   5.511
 8594SOL    HW126681   3.914   2.740   5.497
 8594SOL    HW226682   4.032   2.710   5.607
 8595SOL     OW26683   1.297   2.863   3.278
 8595SOL    HW126684   1.247   2.905   3.202
 8595SOL    HW226685   1.350   2.785   3.244
 8596SOL     OW26686   6.716   5.051   3.812
 8596SOL    HW126687   6.780   5.122   3.840
 8596SOL    HW226688   6.746   4.963   3.848
 8597SOL     OW26689   4.205   0.998   0.762
 8597SOL    HW126690   4.277   1.068   0.757
 8597SOL    HW226691   4.131   1.022   0.699
 8598SOL     OW26692   6.491   6.442   0.814
 8598SOL    HW126693   6.460   6.509   0.881
 8598SOL    HW226694   6.433   6.360   0.818
 8599SOL     OW26695   1.161   2.652   4.410
 8599SOL    HW126696   1.188   2.711   4.487
 8599SOL    HW226697   1.064   2.667   4.390
 8600SOL     OW26698   5.176   5.253   6.077
 8600SOL    HW126699   5.102   5.243   6.144
 8600SOL    HW226700   5.144   5.220   5.988
 8601SOL     OW26701   0.903   0.717   4.947
 8601SOL    HW126702   0.975   0.748   4.885
 8601SOL    HW226703   0.869   0.627   4.917
 8602SOL     OW26704   3.304   5.405   3.175
 8602SOL    HW126705   3.293   5.389   3.273
 8602SOL    HW226706   3.350   5.327   3.133
 8603SOL     OW26707   3.872   5.527   0.393
 8603SOL    HW126708   3.850   5.490   0.483
 8603SOL    HW226709   3.822   5.475   0.323
 8604SOL     OW26710   0.437   3.177   3.479
 8604SOL    HW126711   0.488   3.191   3.394
 8604SOL    HW226712   0.482   3.105   3.533
 8605SOL     OW26713   2.968   5.607   4.759
 8605SOL    HW126714   2.874   5.630   4.731
 8605SOL    HW226715   3.031   5.677   4.725
 8606SOL     OW26716   1.590   3.107   5.982
 8606SOL    HW126717   1.493   3.129   5.969
 8606SOL    HW226718   1.618   3.133   6.075
 8607SOL     OW26719   3.594   6.054   1.208
 8607SOL    HW126720   3.684   6.033   1.249
 8607SOL    HW226721   3.602   6.135   1.151
 8608SOL     OW26722   4.225   5.491   2.899
 8608SOL    HW126723   4.194   5.479   2.993
 8608SOL    HW226724   4.322   5.466   2.893
 8609SOL     OW26725   5.770   1.013   3.174
 8609SOL    HW126726   5.733   1.032   3.265
 8609SOL    HW226727   5.742   0.921   3.146
 8610SOL     OW26728   1.633   2.237   2.642
 8610SOL    HW126729   1.696   2.303   2.683
 8610SOL    HW226730   1.685   2.159   2.606
 8611SOL     OW26731   2.809   1.653   4.235
 8611SOL    HW126732   2.829   1.560   4.205
 8611SOL    HW226733   2.748   1.650   4.315
 8612SOL     OW26734   3.524   3.207   1.026
 8612SOL    HW126735   3.473   3.253   1.099
 8612SOL    HW226736   3.622   3.216   1.043
 8613SOL     OW26737   2.394   2.010   1.078
 8613SOL    HW126738   2.361   1.941   1.143
 8613SOL    HW226739   2.376   2.101   1.114
 8614SOL     OW26740   1.269   3.380   2.368
 8614SOL    HW126741   1.195   3.336   2.418
 8614SOL    HW226742   1.230   3.440   2.297
 8615SOL     OW26743   4.997   1.919   5.055
 8615SOL    HW126744   4.913   1.939   5.105
 8615SOL    HW226745   4.977   1.916   4.957
 8616SOL     OW26746   3.139   4.628   1.720
 8616SOL    HW126747   3.077   4.557   1.751
 8616SOL    HW226748   3.119   4.713   1.769
 8617SOL     OW26749   7.021   0.961   6.393
 8617SOL    HW126750   7.005   1.059   6.405
 8617SOL    HW226751   0.019   0.920   6.482
 8618SOL     OW26752   6.381   6.151   0.828
 8618SOL    HW126753   6.407   6.069   0.880
 8618SOL    HW226754   6.318   6.125   0.755
 8619SOL     OW26755   3.847   4.875   2.383
 8619SOL    HW126756   3.806   4.924   2.460
 8619SOL    HW226757   3.787   4.883   2.303
 8620SOL     OW26758   0.882   0.396   3.989
 8620SOL    HW126759   0.943   0.383   4.066
 8620SOL    HW226760   0.787   0.382   4.019
 8621SOL     OW26761   6.028   1.508   2.870
 8621SOL    HW126762   5.974   1.591   2.860
 8621SOL    HW226763   5.998   1.440   2.804
 8622SOL     OW26764   4.664   2.690   0.608
 8622SOL    HW126765   4.669   2.700   0.509
 8622SOL    HW226766   4.746   2.645   0.642
 8623SOL     OW26767   0.768   3.723   3.644
 8623SOL    HW126768   0.709   3.656   3.599
 8623SOL    HW226769   0.749   3.724   3.742
 8624SOL     OW26770   0.792   3.522   4.725
 8624SOL    HW126771   0.873   3.546   4.778
 8624SOL    HW226772   0.794   3.424   4.706
 8625SOL     OW26773   4.287   0.117   5.779
 8625SOL    HW126774   4.375   0.079   5.807
 8625SOL    HW226775   4.263   0.194   5.839
 8626SOL     OW26776   3.830   3.046   5.648
 8626SOL    HW126777   3.792   2.981   5.582
 8626SOL    HW226778   3.888   2.998   5.714
 8627SOL     OW26779   0.120   1.480   3.401
 8627SOL    HW126780   0.079   1.570   3.385
 8627SOL    HW226781   0.150   1.474   3.496
 8628SOL     OW26782   6.374   6.251   1.085
 8628SOL    HW126783   6.380   6.198   1.001
 8628SOL    HW226784   6.289   6.304   1.085
 8629SOL     OW26785   1.093   4.805   5.395
 8629SOL    HW126786   1.037   4.854   5.328
 8629SOL    HW226787   1.045   4.723   5.425
 8630SOL     OW26788   5.480   4.398   3.191
 8630SOL    HW126789   5.444   4.359   3.275
 8630SOL    HW226790   5.569   4.357   3.171
 8631SOL     OW26791   2.485   5.849   6.325
 8631SOL    HW126792   2.579   5.820   6.313
 8631SOL    HW226793   2.423   5.776   6.296
 8632SOL     OW26794   3.746   6.295   3.871
 8632SOL    HW126795   3.819   6.318   3.806
 8632SOL    HW226796   3.658   6.297   3.823
 8633SOL     OW26797   5.229   2.057   4.813
 8633SOL    HW126798   5.276   1.982   4.861
 8633SOL    HW226799   5.187   2.022   4.729
 8634SOL     OW26800   5.732   3.203   6.917
 8634SOL    HW126801   5.634   3.220   6.923
 8634SOL    HW226802   5.755   3.119   6.965
 8635SOL     OW26803   5.533   4.437   6.424
 8635SOL    HW126804   5.452   4.407   6.374
 8635SOL    HW226805   5.615   4.420   6.369
 8636SOL     OW26806   5.157   5.769   0.533
 8636SOL    HW126807   5.098   5.705   0.582
 8636SOL    HW226808   5.246   5.775   0.579
 8637SOL     OW26809   1.913   1.053   0.178
 8637SOL    HW126810   1.842   1.011   0.122
 8637SOL    HW226811   1.878   1.138   0.218
 8638SOL     OW26812   2.642   2.644   6.728
 8638SOL    HW126813   2.562   2.680   6.777
 8638SOL    HW226814   2.680   2.717   6.671
 8639SOL     OW26815   5.438   2.306   1.868
 8639SOL    HW126816   5.361   2.363   1.897
 8639SOL    HW226817   5.435   2.219   1.917
 8640SOL     OW26818   4.611   3.752   0.627
 8640SOL    HW126819   4.589   3.654   0.621
 8640SOL    HW226820   4.687   3.766   0.689
 8641SOL     OW26821   5.811   5.175   4.440
 8641SOL    HW126822   5.773   5.188   4.531
 8641SOL    HW226823   5.822   5.263   4.395
 8642SOL     OW26824   2.675   0.181   3.170
 8642SOL    HW126825   2.771   0.203   3.189
 8642SOL    HW226826   2.618   0.261   3.191
 8643SOL     OW26827   3.080   0.636   6.203
 8643SOL    HW126828   2.981   0.632   6.214
 8643SOL    HW226829   3.104   0.701   6.131
 8644SOL     OW26830   4.568   2.248   5.550
 8644SOL    HW126831   4.497   2.184   5.521
 8644SOL    HW226832   4.613   2.214   5.633
 8645SOL     OW26833   4.327   4.418   1.099
 8645SOL    HW126834   4.292   4.425   1.006
 8645SOL    HW226835   4.251   4.417   1.163
 8646SOL     OW26836   6.246   1.192   1.591
 8646SOL    HW126837   6.271   1.261   1.658
 8646SOL    HW226838   6.322   1.177   1.528
 8647SOL     OW26839   2.607   5.694   5.885
 8647SOL    HW126840   2.595   5.703   5.786
 8647SOL    HW226841   2.527   5.649   5.925
 8648SOL     OW26842   6.517   0.740   3.643
 8648SOL    HW126843   6.543   0.770   3.552
 8648SOL    HW226844   6.420   0.762   3.659
 8649SOL     OW26845   5.598   4.485   5.887
 8649SOL    HW126846   5.551   4.549   5.948
 8649SOL    HW226847   5.563   4.495   5.794
 8650SOL     OW26848   1.980   4.897   5.589
 8650SOL    HW126849   2.040   4.977   5.586
 8650SOL    HW226850   1.912   4.909   5.661
 8651SOL     OW26851   3.649   0.431   0.923
 8651SOL    HW126852   3.669   0.378   0.841
 8651SOL    HW226853   3.575   0.496   0.904
 8652SOL     OW26854   2.152   3.833   4.057
 8652SOL    HW126855   2.198   3.777   4.126
 8652SOL    HW226856   2.068   3.786   4.028
 8653SOL     OW26857   6.285   1.101   6.391
 8653SOL    HW126858   6.286   1.181   6.330
 8653SOL    HW226859   6.197   1.056   6.384
 8654SOL     OW26860   0.978   5.191   1.152
 8654SOL    HW126861   1.045   5.136   1.102
 8654SOL    HW226862   0.890   5.189   1.105
 8655SOL     OW26863   6.495   1.359   3.655
 8655SOL    HW126864   6.463   1.313   3.572
 8655SOL    HW226865   6.525   1.452   3.631
 8656SOL     OW26866   6.500   1.069   1.048
 8656SOL    HW126867   6.433   1.028   0.987
 8656SOL    HW226868   6.459   1.084   1.138
 8657SOL     OW26869   5.117   4.302   0.465
 8657SOL    HW126870   5.077   4.353   0.389
 8657SOL    HW226871   5.091   4.206   0.457
 8658SOL     OW26872   4.177   6.735   0.296
 8658SOL    HW126873   4.094   6.721   0.242
 8658SOL    HW226874   4.156   6.728   0.393
 8659SOL     OW26875   4.735   1.515   2.990
 8659SOL    HW126876   4.833   1.519   2.973
 8659SOL    HW226877   4.704   1.602   3.029
 8660SOL     OW26878   5.685   3.834   0.646
 8660SOL    HW126879   5.639   3.860   0.731
 8660SOL    HW226880   5.638   3.755   0.605
 8661SOL     OW26881   6.007   4.262   1.237
 8661SOL    HW126882   6.066   4.185   1.214
 8661SOL    HW226883   5.944   4.279   1.161
 8662SOL     OW26884   4.633   6.072   1.030
 8662SOL    HW126885   4.679   6.064   0.941
 8662SOL    HW226886   4.690   6.127   1.092
 8663SOL     OW26887   2.973   5.958   1.765
 8663SOL    HW126888   3.071   5.977   1.759
 8663SOL    HW226889   2.951   5.921   1.856
 8664SOL     OW26890   2.839   6.146   0.758
 8664SOL    HW126891   2.924   6.104   0.725
 8664SOL    HW226892   2.850   6.171   0.854
 8665SOL     OW26893   5.560   6.406   5.016
 8665SOL    HW126894   5.533   6.317   4.980
 8665SOL    HW226895   5.630   6.446   4.957
 8666SOL     OW26896   5.071   1.479   4.254
 8666SOL    HW126897   5.106   1.465   4.161
 8666SOL    HW226898   4.987   1.534   4.249
 8667SOL     OW26899   5.066   2.209   2.811
 8667SOL    HW126900   5.033   2.200   2.904
 8667SOL    HW226901   5.020   2.286   2.767
 8668SOL     OW26902   5.366   4.059   3.262
 8668SOL    HW126903   5.385   4.135   3.324
 8668SOL    HW226904   5.452   4.022   3.228
 8669SOL     OW26905   2.299   6.060   0.302
 8669SOL    HW126906   2.357   6.127   0.349
 8669SOL    HW226907   2.251   6.104   0.227
 8670SOL     OW26908   3.869   4.185   5.207
 8670SOL    HW126909   3.774   4.212   5.189
 8670SOL    HW226910   3.889   4.100   5.158
 8671SOL     OW26911   5.327   1.689   3.632
 8671SOL    HW126912   5.381   1.773   3.622
 8671SOL    HW226913   5.377   1.613   3.591
 8672SOL     OW26914   1.932   4.810   3.780
 8672SOL    HW126915   1.919   4.791   3.682
 8672SOL    HW226916   1.925   4.909   3.795
 8673SOL     OW26917   5.937   2.671   0.641
 8673SOL    HW126918   5.884   2.680   0.725
 8673SOL    HW226919   5.935   2.757   0.590
 8674SOL     OW26920   5.506   5.443   3.746
 8674SOL    HW126921   5.459   5.515   3.796
 8674SOL    HW226922   5.441   5.392   3.690
 8675SOL     OW26923   3.204   2.007   4.058
 8675SOL    HW126924   3.158   1.929   4.016
 8675SOL    HW226925   3.139   2.059   4.114
 8676SOL     OW26926   4.364   0.354   2.798
 8676SOL    HW126927   4.400   0.261   2.797
 8676SOL    HW226928   4.265   0.352   2.785
 8677SOL     OW26929   2.603   6.019   5.110
 8677SOL    HW126930   2.642   6.079   5.040
 8677SOL    HW226931   2.622   5.924   5.087
 8678SOL     OW26932   6.481   0.476   1.172
 8678SOL    HW126933   6.468   0.427   1.258
 8678SOL    HW226934   6.543   0.425   1.113
 8679SOL     OW26935   6.914   2.521   3.195
 8679SOL    HW126936   6.820   2.536   3.164
 8679SOL    HW226937   6.965   2.472   3.125
 8680SOL     OW26938   1.084   3.866   0.986
 8680SOL    HW126939   1.044   3.807   0.915
 8680SOL    HW226940   1.135   3.940   0.942
 8681SOL     OW26941   4.575   5.347   0.401
 8681SOL    HW126942   4.547   5.360   0.305
 8681SOL    HW226943   4.616   5.431   0.435
 8682SOL     OW26944   5.719   0.180   1.717
 8682SOL    HW126945   5.671   0.259   1.754
 8682SOL    HW226946   5.734   0.193   1.619
 8683SOL     OW26947   2.023   2.254   2.948
 8683SOL    HW126948   1.962   2.275   3.023
 8683SOL    HW226949   2.033   2.335   2.889
 8684SOL     OW26950   0.618   2.656   5.202
 8684SOL    HW126951   0.572   2.668   5.290
 8684SOL    HW226952   0.672   2.738   5.181
 8685SOL     OW26953   0.981   1.984   6.195
 8685SOL    HW126954   0.908   1.956   6.132
 8685SOL    HW226955   1.063   2.005   6.143
 8686SOL     OW26956   0.264   1.255   1.516
 8686SOL    HW126957   0.222   1.331   1.467
 8686SOL    HW226958   0.361   1.250   1.494
 8687SOL     OW26959   4.345   5.589   2.271
 8687SOL    HW126960   4.314   5.583   2.177
 8687SOL    HW226961   4.367   5.498   2.305
 8688SOL     OW26962   2.394   6.144   0.556
 8688SOL    HW126963   2.320   6.208   0.541
 8688SOL    HW226964   2.365   6.074   0.622
 8689SOL     OW26965   3.980   3.884   1.561
 8689SOL    HW126966   3.929   3.825   1.623
 8689SOL    HW226967   3.935   3.885   1.472
 8690SOL     OW26968   1.582   3.084   3.042
 8690SOL    HW126969   1.525   3.132   3.108
 8690SOL    HW226970   1.529   3.011   2.999
 8691SOL     OW26971   3.292   2.104   6.532
 8691SOL    HW126972   3.377   2.062   6.564
 8691SOL    HW226973   3.289   2.200   6.560
 8692SOL     OW26974   2.070   1.672   3.922
 8692SOL    HW126975   2.003   1.727   3.970
 8692SOL    HW226976   2.148   1.730   3.896
 8693SOL     OW26977   6.291   0.982   0.272
 8693SOL    HW126978   6.314   1.032   0.356
 8693SOL    HW226979   6.265   1.047   0.201
 8694SOL     OW26980   4.725   0.953   4.585
 8694SOL    HW126981   4.807   0.927   4.635
 8694SOL    HW226982   4.647   0.898   4.616
 8695SOL     OW26983   3.502   2.379   5.922
 8695SOL    HW126984   3.498   2.390   5.823
 8695SOL    HW226985   3.451   2.452   5.966
 8696SOL     OW26986   2.264   5.575   0.204
 8696SOL    HW126987   2.209   5.498   0.173
 8696SOL    HW226988   2.361   5.554   0.194
 8697SOL     OW26989   6.750   2.593   0.109
 8697SOL    HW126990   6.695   2.586   0.192
 8697SOL    HW226991   6.841   2.556   0.126
 8698SOL     OW26992   5.431   5.988   4.684
 8698SOL    HW126993   5.408   5.891   4.684
 8698SOL    HW226994   5.528   5.999   4.659
 8699SOL     OW26995   2.996   2.402   5.812
 8699SOL    HW126996   2.980   2.448   5.724
 8699SOL    HW226997   3.092   2.374   5.817
 8700SOL     OW26998   0.699   0.854   4.630
 8700SOL    HW126999   0.723   0.945   4.596
 8700SOL    HW227000   0.622   0.818   4.578
 8701SOL     OW27001   0.334   1.171   0.244
 8701SOL    HW127002   0.380   1.247   0.196
 8701SOL    HW227003   0.402   1.120   0.297
 8702SOL     OW27004   4.970   5.145   1.400
 8702SOL    HW127005   4.873   5.164   1.416
 8702SOL    HW227006   5.024   5.224   1.427
 8703SOL     OW27007   3.167   4.606   0.126
 8703SOL    HW127008   3.133   4.688   0.081
 8703SOL    HW227009   3.122   4.597   0.215
 8704SOL     OW27010   6.873   3.698   3.032
 8704SOL    HW127011   6.962   3.662   3.004
 8704SOL    HW227012   6.804   3.626   3.023
 8705SOL     OW27013   4.887   1.343   6.309
 8705SOL    HW127014   4.940   1.263   6.338
 8705SOL    HW227015   4.848   1.388   6.389
 8706SOL     OW27016   4.567   1.878   6.683
 8706SOL    HW127017   4.609   1.927   6.759
 8706SOL    HW227018   4.576   1.932   6.599
 8707SOL     OW27019   0.028   2.562   6.802
 8707SOL    HW127020   0.111   2.610   6.830
 8707SOL    HW227021   7.011   2.516   6.881
 8708SOL     OW27022   4.958   2.598   2.270
 8708SOL    HW127023   4.937   2.568   2.363
 8708SOL    HW227024   4.933   2.526   2.205
 8709SOL     OW27025   6.826   6.090   0.148
 8709SOL    HW127026   6.754   6.026   0.175
 8709SOL    HW227027   6.901   6.039   0.104
 8710SOL     OW27028   2.017   3.194   4.322
 8710SOL    HW127029   2.060   3.128   4.261
 8710SOL    HW227030   2.084   3.227   4.389
 8711SOL     OW27031   1.085   6.464   3.253
 8711SOL    HW127032   1.096   6.455   3.154
 8711SOL    HW227033   1.026   6.542   3.273
 8712SOL     OW27034   4.136   2.192   4.906
 8712SOL    HW127035   4.130   2.275   4.962
 8712SOL    HW227036   4.232   2.171   4.887
 8713SOL     OW27037   0.504   3.032   4.072
 8713SOL    HW127038   0.416   3.055   4.115
 8713SOL    HW227039   0.533   3.106   4.013
 8714SOL     OW27040   1.164   1.137   6.281
 8714SOL    HW127041   1.225   1.063   6.253
 8714SOL    HW227042   1.157   1.138   6.381
 8715SOL     OW27043   4.541   0.061   1.572
 8715SOL    HW127044   4.637   0.042   1.591
 8715SOL    HW227045   4.526   0.159   1.565
 8716SOL     OW27046   0.257   0.110   1.200
 8716SOL    HW127047   0.274   0.056   1.117
 8716SOL    HW227048   0.343   0.147   1.235
 8717SOL     OW27049   3.494   3.759   4.156
 8717SOL    HW127050   3.480   3.806   4.243
 8717SOL    HW227051   3.591   3.758   4.134
 8718SOL     OW27052   1.002   3.580   4.943
 8718SOL    HW127053   1.098   3.608   4.939
 8718SOL    HW227054   0.996   3.482   4.963
 8719SOL     OW27055   3.320   0.504   6.223
 8719SOL    HW127056   3.385   0.476   6.152
 8719SOL    HW227057   3.240   0.544   6.181
 8720SOL     OW27058   6.223   4.891   6.047
 8720SOL    HW127059   6.133   4.864   6.082
 8720SOL    HW227060   6.265   4.814   6.000
 8721SOL     OW27061   6.914   2.944   2.337
 8721SOL    HW127062   6.893   2.913   2.430
 8721SOL    HW227063   6.834   2.928   2.279
 8722SOL     OW27064   4.225   1.703   6.995
 8722SOL    HW127065   4.195   1.640   6.924
 8722SOL    HW227066   4.261   1.652   0.049
 8723SOL     OW27067   4.846   5.829   0.996
 8723SOL    HW127068   4.774   5.805   0.931
 8723SOL    HW227069   4.869   5.926   0.987
 8724SOL     OW27070   4.695   0.226   5.590
 8724SOL    HW127071   4.764   0.282   5.635
 8724SOL    HW227072   4.698   0.133   5.628
 8725SOL     OW27073   1.552   6.992   6.330
 8725SOL    HW127074   1.467   0.018   6.350
 8725SOL    HW227075   1.630   0.020   6.368
 8726SOL     OW27076   6.776   0.627   2.097
 8726SOL    HW127077   6.855   0.625   2.035
 8726SOL    HW227078   6.809   0.626   2.191
 8727SOL     OW27079   0.127   5.762   2.731
 8727SOL    HW127080   0.077   5.816   2.664
 8727SOL    HW227081   0.197   5.818   2.775
 8728SOL     OW27082   5.321   0.443   3.367
 8728SOL    HW127083   5.316   0.504   3.446
 8728SOL    HW227084   5.378   0.364   3.389
 8729SOL     OW27085   4.350   5.506   4.930
 8729SOL    HW127086   4.321   5.586   4.876
 8729SOL    HW227087   4.386   5.436   4.868
 8730SOL     OW27088   6.457   4.033   2.396
 8730SOL    HW127089   6.550   4.001   2.412
 8730SOL    HW227090   6.396   3.994   2.465
 8731SOL     OW27091   2.153   2.420   2.664
 8731SOL    HW127092   2.222   2.451   2.598
 8731SOL    HW227093   2.085   2.492   2.677
 8732SOL     OW27094   5.604   4.999   1.765
 8732SOL    HW127095   5.586   5.090   1.801
 8732SOL    HW227096   5.564   4.930   1.826
 8733SOL     OW27097   1.562   5.329   1.021
 8733SOL    HW127098   1.602   5.407   0.972
 8733SOL    HW227099   1.463   5.335   1.016
 8734SOL     OW27100   1.978   4.804   1.908
 8734SOL    HW127101   1.948   4.888   1.955
 8734SOL    HW227102   2.032   4.748   1.971
 8735SOL     OW27103   1.059   2.452   0.355
 8735SOL    HW127104   1.056   2.424   0.260
 8735SOL    HW227105   1.155   2.456   0.386
 8736SOL     OW27106   0.992   5.835   6.313
 8736SOL    HW127107   1.064   5.887   6.267
 8736SOL    HW227108   0.948   5.892   6.382
 8737SOL     OW27109   2.222   6.851   5.965
 8737SOL    HW127110   2.165   6.915   6.016
 8737SOL    HW227111   2.275   6.795   6.029
 8738SOL     OW27112   2.182   5.659   4.563
 8738SOL    HW127113   2.147   5.605   4.640
 8738SOL    HW227114   2.239   5.734   4.598
 8739SOL     OW27115   5.633   5.377   6.214
 8739SOL    HW127116   5.549   5.418   6.250
 8739SOL    HW227117   5.671   5.315   6.282
 8740SOL     OW27118   4.961   1.087   5.029
 8740SOL    HW127119   4.962   0.989   5.012
 8740SOL    HW227120   4.999   1.106   5.119
 8741SOL     OW27121   2.730   1.512   1.640
 8741SOL    HW127122   2.757   1.515   1.544
 8741SOL    HW227123   2.807   1.540   1.698
 8742SOL     OW27124   5.935   6.293   0.835
 8742SOL    HW127125   5.908   6.314   0.741
 8742SOL    HW227126   5.970   6.199   0.840
 8743SOL     OW27127   1.405   0.676   2.347
 8743SOL    HW127128   1.347   0.730   2.408
 8743SOL    HW227129   1.498   0.674   2.382
 8744SOL     OW27130   3.163   2.910   6.479
 8744SOL    HW127131   3.118   2.825   6.451
 8744SOL    HW227132   3.129   2.985   6.423
 8745SOL     OW27133   5.597   2.970   6.173
 8745SOL    HW127134   5.537   3.011   6.240
 8745SOL    HW227135   5.678   2.932   6.219
 8746SOL     OW27136   5.466   4.052   4.748
 8746SOL    HW127137   5.484   4.115   4.823
 8746SOL    HW227138   5.443   4.103   4.666
 8747SOL     OW27139   0.778   2.686   3.397
 8747SOL    HW127140   0.716   2.731   3.333
 8747SOL    HW227141   0.808   2.599   3.360
 8748SOL     OW27142   0.026   1.408   4.937
 8748SOL    HW127143   6.956   1.430   4.908
 8748SOL    HW227144   0.041   1.443   5.030
 8749SOL     OW27145   2.568   0.735   6.144
 8749SOL    HW127146   2.547   0.833   6.135
 8749SOL    HW227147   2.540   0.687   6.061
 8750SOL     OW27148   3.664   3.690   5.624
 8750SOL    HW127149   3.668   3.677   5.524
 8750SOL    HW227150   3.627   3.608   5.667
 8751SOL     OW27151   6.132   1.407   2.063
 8751SOL    HW127152   6.146   1.311   2.035
 8751SOL    HW227153   6.037   1.432   2.046
 8752SOL     OW27154   2.792   4.113   0.435
 8752SOL    HW127155   2.737   4.149   0.511
 8752SOL    HW227156   2.851   4.040   0.467
 8753SOL     OW27157   4.154   1.798   5.302
 8753SOL    HW127158   4.086   1.828   5.235
 8753SOL    HW227159   4.140   1.848   5.388
 8754SOL     OW27160   1.059   3.245   5.470
 8754SOL    HW127161   1.139   3.214   5.419
 8754SOL    HW227162   1.065   3.343   5.486
 8755SOL     OW27163   2.305   0.001   0.873
 8755SOL    HW127164   2.338   0.060   0.800
 8755SOL    HW227165   2.251   0.056   0.938
 8756SOL     OW27166   1.703   2.851   3.563
 8756SOL    HW127167   1.766   2.912   3.611
 8756SOL    HW227168   1.743   2.825   3.475
 8757SOL     OW27169   3.955   6.391   5.806
 8757SOL    HW127170   3.870   6.369   5.854
 8757SOL    HW227171   4.028   6.330   5.837
 8758SOL     OW27172   4.992   6.067   2.449
 8758SOL    HW127173   5.024   6.157   2.478
 8758SOL    HW227174   4.930   6.030   2.518
 8759SOL     OW27175   4.205   2.350   0.235
 8759SOL    HW127176   4.180   2.282   0.166
 8759SOL    HW227177   4.188   2.441   0.198
 8760SOL     OW27178   1.479   1.356   5.175
 8760SOL    HW127179   1.554   1.340   5.111
 8760SOL    HW227180   1.472   1.454   5.193
 8761SOL     OW27181   5.581   2.809   2.533
 8761SOL    HW127182   5.645   2.779   2.463
 8761SOL    HW227183   5.631   2.850   2.609
 8762SOL     OW27184   1.432   4.250   2.774
 8762SOL    HW127185   1.335   4.232   2.760
 8762SOL    HW227186   1.470   4.183   2.837
 8763SOL     OW27187   6.966   6.828   5.574
 8763SOL    HW127188   6.870   6.803   5.589
 8763SOL    HW227189   6.971   6.918   5.532
 8764SOL     OW27190   5.155   0.817   5.196
 8764SOL    HW127191   5.171   0.915   5.186
 8764SOL    HW227192   5.210   0.782   5.271
 8765SOL     OW27193   5.462   0.078   4.537
 8765SOL    HW127194   5.520   0.156   4.561
 8765SOL    HW227195   5.432   0.087   4.442
 8766SOL     OW27196   4.655   4.508   3.734
 8766SOL    HW127197   4.694   4.558   3.658
 8766SOL    HW227198   4.720   4.439   3.766
 8767SOL     OW27199   4.617   6.474   2.878
 8767SOL    HW127200   4.664   6.560   2.858
 8767SOL    HW227201   4.527   6.493   2.916
 8768SOL     OW27202   1.463   3.089   0.406
 8768SOL    HW127203   1.421   3.081   0.315
 8768SOL    HW227204   1.398   3.134   0.468
 8769SOL     OW27205   0.690   0.716   3.989
 8769SOL    HW127206   0.692   0.714   3.889
 8769SOL    HW227207   0.784   0.714   4.024
 8770SOL     OW27208   5.083   4.542   2.425
 8770SOL    HW127209   5.170   4.591   2.415
 8770SOL    HW227210   5.060   4.534   2.522
 8771SOL     OW27211   1.085   0.325   6.788
 8771SOL    HW127212   1.105   0.421   6.809
 8771SOL    HW227213   1.165   0.283   6.744
 8772SOL     OW27214   4.872   6.780   6.674
 8772SOL    HW127215   4.778   6.787   6.640
 8772SOL    HW227216   4.891   6.685   6.699
 8773SOL     OW27217   4.582   2.566   3.447
 8773SOL    HW127218   4.631   2.635   3.393
 8773SOL    HW227219   4.617   2.475   3.423
 8774SOL     OW27220   1.238   1.430   6.725
 8774SOL    HW127221   1.140   1.413   6.726
 8774SOL    HW227222   1.286   1.347   6.696
 8775SOL     OW27223   6.360   6.954   5.760
 8775SOL    HW127224   6.419   0.005   5.791
 8775SOL    HW227225   6.373   6.940   5.662
 8776SOL     OW27226   3.780   3.413   6.357
 8776SOL    HW127227   3.750   3.392   6.450
 8776SOL    HW227228   3.878   3.393   6.347
 8777SOL     OW27229   0.018   3.800   1.380
 8777SOL    HW127230   6.943   3.802   1.362
 8777SOL    HW227231   0.048   3.705   1.386
 8778SOL     OW27232   6.334   2.646   4.914
 8778SOL    HW127233   6.306   2.614   4.823
 8778SOL    HW227234   6.372   2.738   4.906
 8779SOL     OW27235   2.810   5.218   2.386
 8779SOL    HW127236   2.872   5.158   2.336
 8779SOL    HW227237   2.856   5.305   2.406
 8780SOL     OW27238   1.014   5.603   2.599
 8780SOL    HW127239   1.073   5.630   2.523
 8780SOL    HW227240   0.994   5.683   2.655
 8781SOL     OW27241   5.737   1.384   3.207
 8781SOL    HW127242   5.807   1.320   3.174
 8781SOL    HW227243   5.652   1.335   3.225
 8782SOL     OW27244   5.213   6.493   1.879
 8782SOL    HW127245   5.298   6.544   1.890
 8782SOL    HW227246   5.210   6.418   1.945
 8783SOL     OW27247   6.455   3.890   3.139
 8783SOL    HW127248   6.554   3.902   3.128
 8783SOL    HW227249   6.437   3.813   3.200
 8784SOL     OW27250   5.715   4.251   6.577
 8784SOL    HW127251   5.658   4.324   6.540
 8784SOL    HW227252   5.695   4.165   6.530
 8785SOL     OW27253   6.103   3.022   6.580
 8785SOL    HW127254   6.109   3.108   6.631
 8785SOL    HW227255   6.063   3.039   6.490
 8786SOL     OW27256   1.761   0.012   0.178
 8786SOL    HW127257   1.720   6.944   0.173
 8786SOL    HW227258   1.856   0.004   0.208
 8787SOL     OW27259   2.957   2.738   1.715
 8787SOL    HW127260   3.022   2.731   1.791
 8787SOL    HW227261   2.874   2.687   1.739
 8788SOL     OW27262   0.539   2.057   6.037
 8788SOL    HW127263   0.630   2.019   6.019
 8788SOL    HW227264   0.493   2.000   6.105
 8789SOL     OW27265   6.109   6.884   5.697
 8789SOL    HW127266   6.205   6.899   5.722
 8789SOL    HW227267   6.103   6.820   5.620
 8790SOL     OW27268   0.642   0.746   6.775
 8790SOL    HW127269   0.570   0.806   6.810
 8790SOL    HW227270   0.663   0.676   6.844
 8791SOL     OW27271   5.491   0.088   5.158
 8791SOL    HW127272   5.549   0.011   5.183
 8791SOL    HW227273   5.546   0.172   5.155
 8792SOL     OW27274   3.468   6.806   2.926
 8792SOL    HW127275   3.468   6.715   2.883
 8792SOL    HW227276   3.418   6.802   3.012
 8793SOL     OW27277   1.869   4.511   3.273
 8793SOL    HW127278   1.921   4.512   3.187
 8793SOL    HW227279   1.771   4.520   3.253
 8794SOL     OW27280   3.953   6.248   1.781
 8794SOL    HW127281   4.028   6.305   1.750
 8794SOL    HW227282   3.965   6.226   1.878
 8795SOL     OW27283   1.720   5.751   5.659
 8795SOL    HW127284   1.770   5.748   5.573
 8795SOL    HW227285   1.683   5.843   5.673
 8796SOL     OW27286   4.144   2.231   4.090
 8796SOL    HW127287   4.239   2.224   4.061
 8796SOL    HW227288   4.085   2.177   4.029
 8797SOL     OW27289   0.508   6.908   6.129
 8797SOL    HW127290   0.606   6.924   6.132
 8797SOL    HW227291   0.468   6.927   6.219
 8798SOL     OW27292   4.942   5.694   5.903
 8798SOL    HW127293   4.874   5.723   5.970
 8798SOL    HW227294   4.970   5.600   5.921
 8799SOL     OW27295   2.370   4.795   3.832
 8799SOL    HW127296   2.354   4.893   3.840
 8799SOL    HW227297   2.284   4.747   3.816
 8800SOL     OW27298   5.803   3.483   5.335
 8800SOL    HW127299   5.897   3.477   5.366
 8800SOL    HW227300   5.801   3.514   5.240
 8801SOL     OW27301   0.253   2.173   5.107
 8801SOL    HW127302   0.294   2.082   5.112
 8801SOL    HW227303   0.312   2.235   5.057
 8802SOL     OW27304   1.637   6.648   0.682
 8802SOL    HW127305   1.613   6.573   0.619
 8802SOL    HW227306   1.673   6.610   0.767
 8803SOL     OW27307   6.416   5.453   6.740
 8803SOL    HW127308   6.355   5.486   6.669
 8803SOL    HW227309   6.392   5.496   6.827
 8804SOL     OW27310   3.000   0.495   2.519
 8804SOL    HW127311   3.051   0.410   2.509
 8804SOL    HW227312   3.022   0.538   2.607
 8805SOL     OW27313   2.904   0.102   4.188
 8805SOL    HW127314   2.815   0.091   4.143
 8805SOL    HW227315   2.964   0.026   4.164
 8806SOL     OW27316   2.958   5.416   2.685
 8806SOL    HW127317   2.896   5.481   2.640
 8806SOL    HW227318   3.010   5.463   2.756
 8807SOL     OW27319   5.447   6.919   6.808
 8807SOL    HW127320   5.468   6.862   6.888
 8807SOL    HW227321   5.520   6.911   6.740
 8808SOL     OW27322   5.981   2.559   0.068
 8808SOL    HW127323   6.047   2.485   0.060
 8808SOL    HW227324   6.009   2.622   0.140
 8809SOL     OW27325   4.719   5.424   3.810
 8809SOL    HW127326   4.805   5.436   3.762
 8809SOL    HW227327   4.700   5.504   3.866
 8810SOL     OW27328   5.300   0.747   6.089
 8810SOL    HW127329   5.300   0.668   6.028
 8810SOL    HW227330   5.285   0.830   6.035
 8811SOL     OW27331   2.833   1.326   3.518
 8811SOL    HW127332   2.905   1.332   3.588
 8811SOL    HW227333   2.863   1.373   3.435
 8812SOL     OW27334   2.057   0.077   1.003
 8812SOL    HW127335   1.989   0.148   0.985
 8812SOL    HW227336   2.039   7.021   0.946
 8813SOL     OW27337   1.624   4.982   1.547
 8813SOL    HW127338   1.562   4.921   1.595
 8813SOL    HW227339   1.712   4.936   1.532
 8814SOL     OW27340   5.398   6.827   1.233
 8814SOL    HW127341   5.337   6.904   1.212
 8814SOL    HW227342   5.379   6.752   1.170
 8815SOL     OW27343   6.365   6.961   0.435
 8815SOL    HW127344   6.304   6.895   0.479
 8815SOL    HW227345   6.312   0.014   0.400
 8816SOL     OW27346   1.574   0.050   6.759
 8816SOL    HW127347   1.558   0.106   6.678
 8816SOL    HW227348   1.522   0.088   6.836
 8817SOL     OW27349   0.792   5.224   4.953
 8817SOL    HW127350   0.741   5.159   4.898
 8817SOL    HW227351   0.890   5.217   4.932
 8818SOL     OW27352   0.385   4.328   4.696
 8818SOL    HW127353   0.343   4.297   4.781
 8818SOL    HW227354   0.314   4.344   4.627
 8819SOL     OW27355   5.196   5.241   5.039
 8819SOL    HW127356   5.257   5.294   4.979
 8819SOL    HW227357   5.103   5.244   5.003
 8820SOL     OW27358   2.006   1.048   4.960
 8820SOL    HW127359   1.958   1.104   5.027
 8820SOL    HW227360   2.072   1.104   4.910
 8821SOL     OW27361   2.864   6.306   0.144
 8821SOL    HW127362   2.780   6.266   0.180
 8821SOL    HW227363   2.864   6.299   0.044
 8822SOL     OW27364   0.336   6.964   4.510
 8822SOL    HW127365   0.363   6.956   4.414
 8822SOL    HW227366   0.289   0.027   4.525
 8823SOL     OW27367   2.794   0.536   1.286
 8823SOL    HW127368   2.717   0.527   1.222
 8823SOL    HW227369   2.877   0.560   1.236
 8824SOL     OW27370   1.250   2.677   0.558
 8824SOL    HW127371   1.275   2.762   0.604
 8824SOL    HW227372   1.168   2.639   0.602
 8825SOL     OW27373   2.004   6.867   2.498
 8825SOL    HW127374   2.059   6.948   2.484
 8825SOL    HW227375   1.941   6.855   2.421
 8826SOL     OW27376   6.475   3.305   1.161
 8826SOL    HW127377   6.427   3.362   1.228
 8826SOL    HW227378   6.419   3.226   1.138
 8827SOL     OW27379   3.876   1.445   2.684
 8827SOL    HW127380   3.874   1.416   2.588
 8827SOL    HW227381   3.865   1.544   2.689
 8828SOL     OW27382   4.754   5.414   5.551
 8828SOL    HW127383   4.678   5.446   5.609
 8828SOL    HW227384   4.720   5.399   5.458
 8829SOL     OW27385   5.269   2.458   0.503
 8829SOL    HW127386   5.230   2.445   0.594
 8829SOL    HW227387   5.357   2.412   0.497
 8830SOL     OW27388   1.257   1.691   2.354
 8830SOL    HW127389   1.294   1.718   2.444
 8830SOL    HW227390   1.228   1.596   2.357
 8831SOL     OW27391   4.951   1.951   4.269
 8831SOL    HW127392   4.869   1.925   4.320
 8831SOL    HW227393   4.955   1.899   4.184
 8832SOL     OW27394   0.047   5.361   3.226
 8832SOL    HW127395   0.001   5.407   3.150
 8832SOL    HW227396   0.051   5.263   3.208
 8833SOL     OW27397   2.591   5.700   5.345
 8833SOL    HW127398   2.499   5.736   5.361
 8833SOL    HW227399   2.585   5.603   5.324
 8834SOL     OW27400   5.231   3.896   4.836
 8834SOL    HW127401   5.265   3.929   4.748
 8834SOL    HW227402   5.144   3.849   4.823
 8835SOL     OW27403   5.164   0.997   5.907
 8835SOL    HW127404   5.117   1.081   5.881
 8835SOL    HW227405   5.246   0.986   5.851
 8836SOL     OW27406   4.900   3.474   6.947
 8836SOL    HW127407   4.953   3.389   6.957
 8836SOL    HW227408   4.839   3.466   6.868
 8837SOL     OW27409   7.002   5.954   2.891
 8837SOL    HW127410   0.004   5.981   2.984
 8837SOL    HW227411   0.040   5.883   2.859
 8838SOL     OW27412   2.835   5.607   3.158
 8838SOL    HW127413   2.759   5.643   3.211
 8838SOL    HW227414   2.820   5.510   3.138
 8839SOL     OW27415   5.610   5.077   3.654
 8839SOL    HW127416   5.662   5.002   3.695
 8839SOL    HW227417   5.668   5.128   3.591
 8840SOL     OW27418   6.777   1.987   2.498
 8840SOL    HW127419   6.698   2.017   2.551
 8840SOL    HW227420   6.836   1.929   2.555
 8841SOL     OW27421   0.425   1.105   5.002
 8841SOL    HW127422   0.511   1.157   4.994
 8841SOL    HW227423   0.361   1.136   4.931
 8842SOL     OW27424   3.456   2.857   2.559
 8842SOL    HW127425   3.498   2.768   2.540
 8842SOL    HW227426   3.427   2.860   2.654
 8843SOL     OW27427   1.600   2.806   5.951
 8843SOL    HW127428   1.520   2.752   5.977
 8843SOL    HW227429   1.578   2.903   5.953
 8844SOL     OW27430   6.810   2.603   6.572
 8844SOL    HW127431   6.789   2.697   6.548
 8844SOL    HW227432   6.881   2.602   6.643
 8845SOL     OW27433   3.565   3.104   6.946
 8845SOL    HW127434   3.557   3.203   6.948
 8845SOL    HW227435   3.490   3.063   6.999
 8846SOL     OW27436   3.327   5.687   3.906
 8846SOL    HW127437   3.237   5.645   3.895
 8846SOL    HW227438   3.327   5.747   3.987
 8847SOL     OW27439   2.877   0.963   2.935
 8847SOL    HW127440   2.959   0.961   2.878
 8847SOL    HW227441   2.796   0.979   2.877
 8848SOL     OW27442   2.351   0.851   1.407
 8848SOL    HW127443   2.281   0.883   1.471
 8848SOL    HW227444   2.428   0.915   1.407
 8849SOL     OW27445   2.876   6.534   3.248
 8849SOL    HW127446   2.813   6.595   3.296
 8849SOL    HW227447   2.968   6.546   3.285
 8850SOL     OW27448   0.519   2.376   0.508
 8850SOL    HW127449   0.536   2.446   0.577
 8850SOL    HW227450   0.539   2.412   0.417
 8851SOL     OW27451   1.393   3.960   3.732
 8851SOL    HW127452   1.368   3.949   3.828
 8851SOL    HW227453   1.411   4.056   3.713
 8852SOL     OW27454   0.016   2.398   5.377
 8852SOL    HW127455   0.039   2.307   5.342
 8852SOL    HW227456   0.094   2.460   5.363
 8853SOL     OW27457   3.115   0.932   1.215
 8853SOL    HW127458   3.154   0.887   1.296
 8853SOL    HW227459   3.045   0.997   1.244
 8854SOL     OW27460   3.182   2.571   5.977
 8854SOL    HW127461   3.148   2.498   6.037
 8854SOL    HW227462   3.252   2.624   6.025
 8855SOL     OW27463   6.723   5.377   1.137
 8855SOL    HW127464   6.685   5.335   1.219
 8855SOL    HW227465   6.766   5.307   1.081
 8856SOL     OW27466   0.475   6.279   6.200
 8856SOL    HW127467   0.475   6.189   6.244
 8856SOL    HW227468   0.411   6.339   6.247
 8857SOL     OW27469   0.018   1.538   4.365
 8857SOL    HW127470   7.000   1.467   4.308
 8857SOL    HW227471   0.018   1.625   4.315
 8858SOL     OW27472   0.415   3.730   4.608
 8858SOL    HW127473   0.484   3.798   4.632
 8858SOL    HW227474   0.328   3.774   4.591
 8859SOL     OW27475   1.449   0.919   3.705
 8859SOL    HW127476   1.537   0.941   3.663
 8859SOL    HW227477   1.462   0.846   3.772
 8860SOL     OW27478   6.872   2.240   2.177
 8860SOL    HW127479   6.839   2.220   2.084
 8860SOL    HW227480   6.825   2.320   2.213
 8861SOL     OW27481   4.213   1.066   6.204
 8861SOL    HW127482   4.293   1.078   6.263
 8861SOL    HW227483   4.210   1.140   6.137
 8862SOL     OW27484   5.545   6.898   3.733
 8862SOL    HW127485   5.579   6.805   3.732
 8862SOL    HW227486   5.446   6.897   3.749
 8863SOL     OW27487   2.495   4.526   3.839
 8863SOL    HW127488   2.443   4.609   3.857
 8863SOL    HW227489   2.448   4.448   3.881
 8864SOL     OW27490   2.734   5.202   6.463
 8864SOL    HW127491   2.668   5.190   6.389
 8864SOL    HW227492   2.790   5.283   6.446
 8865SOL     OW27493   3.030   0.633   4.685
 8865SOL    HW127494   3.071   0.723   4.670
 8865SOL    HW227495   3.099   0.562   4.670
 8866SOL     OW27496   5.209   0.157   2.908
 8866SOL    HW127497   5.189   0.192   2.999
 8866SOL    HW227498   5.126   0.160   2.852
 8867SOL     OW27499   5.719   4.626   3.529
 8867SOL    HW127500   5.763   4.575   3.454
 8867SOL    HW227501   5.733   4.724   3.515
 8868SOL     OW27502   0.227   3.026   1.668
 8868SOL    HW127503   0.234   3.050   1.765
 8868SOL    HW227504   0.253   3.105   1.612
 8869SOL     OW27505   3.710   6.243   5.294
 8869SOL    HW127506   3.793   6.187   5.293
 8869SOL    HW227507   3.732   6.337   5.266
 8870SOL     OW27508   2.501   6.634   1.008
 8870SOL    HW127509   2.571   6.649   0.939
 8870SOL    HW227510   2.426   6.699   0.994
 8871SOL     OW27511   1.863   0.811   4.040
 8871SOL    HW127512   1.894   0.804   4.135
 8871SOL    HW227513   1.798   0.738   4.021
 8872SOL     OW27514   1.572   4.676   5.421
 8872SOL    HW127515   1.516   4.755   5.445
 8872SOL    HW227516   1.542   4.639   5.333
 8873SOL     OW27517   1.087   6.738   2.370
 8873SOL    HW127518   1.044   6.648   2.369
 8873SOL    HW227519   1.186   6.728   2.378
 8874SOL     OW27520   2.572   5.650   2.465
 8874SOL    HW127521   2.597   5.700   2.381
 8874SOL    HW227522   2.650   5.595   2.495
 8875SOL     OW27523   0.393   3.586   4.328
 8875SOL    HW127524   0.412   3.622   4.419
 8875SOL    HW227525   0.349   3.656   4.273
 8876SOL     OW27526   2.291   6.909   5.380
 8876SOL    HW127527   2.320   6.926   5.474
 8876SOL    HW227528   2.342   6.969   5.318
 8877SOL     OW27529   3.037   1.513   4.125
 8877SOL    HW127530   3.136   1.523   4.110
 8877SOL    HW227531   3.005   1.430   4.078
 8878SOL     OW27532   5.167   5.393   0.940
 8878SOL    HW127533   5.089   5.455   0.937
 8878SOL    HW227534   5.170   5.347   1.028
 8879SOL     OW27535   4.263   4.926   2.638
 8879SOL    HW127536   4.271   4.889   2.545
 8879SOL    HW227537   4.281   4.854   2.704
 8880SOL     OW27538   4.312   6.032   4.724
 8880SOL    HW127539   4.328   6.100   4.795
 8880SOL    HW227540   4.397   5.983   4.705
 8881SOL     OW27541   5.365   6.136   3.943
 8881SOL    HW127542   5.379   6.215   4.003
 8881SOL    HW227543   5.453   6.109   3.903
 8882SOL     OW27544   5.390   0.805   1.511
 8882SOL    HW127545   5.360   0.821   1.605
 8882SOL    HW227546   5.314   0.768   1.457
 8883SOL     OW27547   2.307   6.378   6.061
 8883SOL    HW127548   2.381   6.311   6.055
 8883SOL    HW227549   2.335   6.464   6.018
 8884SOL     OW27550   5.921   2.923   5.218
 8884SOL    HW127551   6.015   2.914   5.253
 8884SOL    HW227552   5.886   3.014   5.239
 8885SOL     OW27553   5.234   4.366   1.291
 8885SOL    HW127554   5.136   4.351   1.287
 8885SOL    HW227555   5.281   4.280   1.311
 8886SOL     OW27556   2.704   6.180   4.914
 8886SOL    HW127557   2.742   6.236   4.988
 8886SOL    HW227558   2.764   6.184   4.835
 8887SOL     OW27559   3.800   1.022   1.000
 8887SOL    HW127560   3.735   1.020   1.076
 8887SOL    HW227561   3.761   0.973   0.921
 8888SOL     OW27562   2.026   1.574   5.835
 8888SOL    HW127563   1.978   1.582   5.922
 8888SOL    HW227564   2.074   1.486   5.831
 8889SOL     OW27565   6.901   6.911   6.980
 8889SOL    HW127566   6.913   7.009   6.963
 8889SOL    HW227567   6.806   6.893   7.005
 8890SOL     OW27568   0.118   6.158   5.407
 8890SOL    HW127569   0.151   6.231   5.466
 8890SOL    HW227570   0.047   6.106   5.454
 8891SOL     OW27571   3.858   3.594   6.870
 8891SOL    HW127572   3.848   3.685   6.910
 8891SOL    HW227573   3.946   3.588   6.823
 8892SOL     OW27574   3.707   4.956   3.095
 8892SOL    HW127575   3.608   4.970   3.109
 8892SOL    HW227576   3.726   4.953   2.997
 8893SOL     OW27577   1.010   5.482   4.082
 8893SOL    HW127578   1.055   5.406   4.128
 8893SOL    HW227579   0.937   5.518   4.140
 8894SOL     OW27580   2.823   1.796   6.507
 8894SOL    HW127581   2.758   1.732   6.465
 8894SOL    HW227582   2.816   1.791   6.606
 8895SOL     OW27583   6.791   2.566   2.086
 8895SOL    HW127584   6.709   2.580   2.031
 8895SOL    HW227585   6.854   2.642   2.071
 8896SOL     OW27586   2.109   3.117   5.113
 8896SOL    HW127587   2.200   3.080   5.099
 8896SOL    HW227588   2.041   3.045   5.102
 8897SOL     OW27589   2.520   2.449   3.932
 8897SOL    HW127590   2.598   2.404   3.887
 8897SOL    HW227591   2.449   2.382   3.950
 8898SOL     OW27592   4.953   3.474   2.837
 8898SOL    HW127593   4.881   3.527   2.882
 8898SOL    HW227594   4.963   3.504   2.743
 8899SOL     OW27595   1.077   4.760   1.077
 8899SOL    HW127596   1.068   4.683   1.140
 8899SOL    HW227597   1.159   4.813   1.100
 8900SOL     OW27598   5.353   3.021   3.117
 8900SOL    HW127599   5.360   3.039   3.215
 8900SOL    HW227600   5.318   3.102   3.070
 8901SOL     OW27601   1.303   1.743   4.942
 8901SOL    HW127602   1.223   1.782   4.896
 8901SOL    HW227603   1.311   1.646   4.918
 8902SOL     OW27604   0.624   5.671   0.402
 8902SOL    HW127605   0.559   5.638   0.333
 8902SOL    HW227606   0.708   5.617   0.398
 8903SOL     OW27607   0.660   2.009   4.435
 8903SOL    HW127608   0.716   1.942   4.484
 8903SOL    HW227609   0.645   2.089   4.493
 8904SOL     OW27610   0.030   0.758   4.896
 8904SOL    HW127611   0.123   0.756   4.931
 8904SOL    HW227612   7.020   0.665   4.884
 8905SOL     OW27613   2.059   3.251   3.427
 8905SOL    HW127614   2.078   3.260   3.329
 8905SOL    HW227615   2.120   3.183   3.467
 8906SOL     OW27616   0.809   6.303   0.664
 8906SOL    HW127617   0.871   6.265   0.732
 8906SOL    HW227618   0.807   6.245   0.584
 8907SOL     OW27619   3.140   2.886   5.674
 8907SOL    HW127620   3.054   2.855   5.632
 8907SOL    HW227621   3.195   2.806   5.698
 8908SOL     OW27622   1.682   5.642   0.147
 8908SOL    HW127623   1.690   5.621   0.245
 8908SOL    HW227624   1.670   5.741   0.136
 8909SOL     OW27625   2.446   1.417   5.643
 8909SOL    HW127626   2.458   1.516   5.633
 8909SOL    HW227627   2.424   1.377   5.553
 8910SOL     OW27628   0.579   2.928   5.609
 8910SOL    HW127629   0.648   2.999   5.623
 8910SOL    HW227630   0.538   2.905   5.697
 8911SOL     OW27631   4.599   2.701   4.616
 8911SOL    HW127632   4.600   2.755   4.699
 8911SOL    HW227633   4.565   2.609   4.636
 8912SOL     OW27634   3.297   3.789   0.159
 8912SOL    HW127635   3.245   3.837   0.088
 8912SOL    HW227636   3.287   3.690   0.146
 8913SOL     OW27637   4.119   5.234   6.202
 8913SOL    HW127638   4.147   5.325   6.171
 8913SOL    HW227639   4.025   5.238   6.237
 8914SOL     OW27640   4.594   0.012   4.764
 8914SOL    HW127641   4.581   0.029   4.861
 8914SOL    HW227642   4.520   6.977   4.730
 8915SOL     OW27643   1.515   2.410   3.529
 8915SOL    HW127644   1.424   2.453   3.520
 8915SOL    HW227645   1.556   2.439   3.616
 8916SOL     OW27646   6.589   3.020   1.070
 8916SOL    HW127647   6.543   3.102   1.104
 8916SOL    HW227648   6.533   2.977   0.999
 8917SOL     OW27649   6.316   2.585   0.283
 8917SOL    HW127650   6.349   2.495   0.309
 8917SOL    HW227651   6.344   2.605   0.189
 8918SOL     OW27652   0.271   4.487   1.441
 8918SOL    HW127653   0.262   4.415   1.510
 8918SOL    HW227654   0.360   4.532   1.452
 8919SOL     OW27655   4.789   4.259   0.237
 8919SOL    HW127656   4.765   4.339   0.292
 8919SOL    HW227657   4.809   4.287   0.143
 8920SOL     OW27658   0.072   1.842   6.807
 8920SOL    HW127659   0.125   1.881   6.883
 8920SOL    HW227660   0.116   1.865   6.721
 8921SOL     OW27661   1.675   2.891   1.775
 8921SOL    HW127662   1.640   2.873   1.683
 8921SOL    HW227663   1.669   2.989   1.794
 8922SOL     OW27664   4.143   5.317   2.235
 8922SOL    HW127665   4.219   5.342   2.296
 8922SOL    HW227666   4.079   5.258   2.285
 8923SOL     OW27667   1.826   1.693   6.762
 8923SOL    HW127668   1.838   1.665   6.667
 8923SOL    HW227669   1.790   1.786   6.765
 8924SOL     OW27670   5.019   5.508   5.514
 8924SOL    HW127671   5.042   5.428   5.459
 8924SOL    HW227672   4.920   5.512   5.527
 8925SOL     OW27673   0.530   0.953   2.954
 8925SOL    HW127674   0.495   0.870   2.912
 8925SOL    HW227675   0.598   0.995   2.893
 8926SOL     OW27676   6.588   3.062   6.280
 8926SOL    HW127677   6.647   3.110   6.215
 8926SOL    HW227678   6.606   2.964   6.276
 8927SOL     OW27679   0.375   1.084   4.564
 8927SOL    HW127680   0.334   1.090   4.473
 8927SOL    HW227681   0.367   0.990   4.598
 8928SOL     OW27682   1.248   0.188   6.041
 8928SOL    HW127683   1.305   0.175   5.960
 8928SOL    HW227684   1.218   0.100   6.076
 8929SOL     OW27685   5.448   1.543   4.974
 8929SOL    HW127686   5.404   1.631   4.959
 8929SOL    HW227687   5.495   1.543   5.062
 8930SOL     OW27688   1.202   2.805   4.622
 8930SOL    HW127689   1.164   2.894   4.599
 8930SOL    HW227690   1.294   2.818   4.660
 8931SOL     OW27691   3.089   3.763   1.162
 8931SOL    HW127692   3.014   3.817   1.123
 8931SOL    HW227693   3.051   3.700   1.230
 8932SOL     OW27694   5.757   2.242   1.871
 8932SOL    HW127695   5.778   2.340   1.867
 8932SOL    HW227696   5.688   2.220   1.802
 8933SOL     OW27697   2.634   2.997   6.348
 8933SOL    HW127698   2.711   2.972   6.407
 8933SOL    HW227699   2.657   2.976   6.253
 8934SOL     OW27700   2.501   5.672   4.462
 8934SOL    HW127701   2.574   5.648   4.398
 8934SOL    HW227702   2.412   5.653   4.420
 8935SOL     OW27703   0.754   4.457   0.251
 8935SOL    HW127704   0.748   4.359   0.270
 8935SOL    HW227705   0.662   4.495   0.242
 8936SOL     OW27706   1.209   3.943   2.263
 8936SOL    HW127707   1.203   3.861   2.321
 8936SOL    HW227708   1.249   4.018   2.316
 8937SOL     OW27709   0.665   0.376   5.591
 8937SOL    HW127710   0.664   0.444   5.517
 8937SOL    HW227711   0.610   0.409   5.668
 8938SOL     OW27712   0.338   6.322   0.302
 8938SOL    HW127713   0.278   6.243   0.287
 8938SOL    HW227714   0.411   6.296   0.365
 8939SOL     OW27715   4.936   3.674   4.217
 8939SOL    HW127716   5.005   3.644   4.283
 8939SOL    HW227717   4.873   3.599   4.198
 8940SOL     OW27718   0.227   1.358   1.984
 8940SOL    HW127719   0.281   1.370   1.900
 8940SOL    HW227720   0.289   1.348   2.062
 8941SOL     OW27721   6.337   2.543   5.475
 8941SOL    HW127722   6.395   2.581   5.404
 8941SOL    HW227723   6.324   2.445   5.459
 8942SOL     OW27724   6.507   4.703   5.036
 8942SOL    HW127725   6.534   4.608   5.021
 8942SOL    HW227726   6.410   4.714   5.011
 8943SOL     OW27727   3.503   5.072   6.077
 8943SOL    HW127728   3.491   4.979   6.042
 8943SOL    HW227729   3.597   5.083   6.109
 8944SOL     OW27730   5.808   4.556   5.696
 8944SOL    HW127731   5.870   4.495   5.744
 8944SOL    HW227732   5.726   4.573   5.751
 8945SOL     OW27733   0.993   0.353   2.927
 8945SOL    HW127734   0.948   0.346   2.837
 8945SOL    HW227735   1.010   0.261   2.962
 8946SOL     OW27736   3.062   1.461   5.161
 8946SOL    HW127737   3.156   1.430   5.151
 8946SOL    HW227738   3.017   1.460   5.072
 8947SOL     OW27739   1.957   3.368   5.836
 8947SOL    HW127740   1.930   3.447   5.892
 8947SOL    HW227741   2.047   3.385   5.796
 8948SOL     OW27742   5.980   6.146   4.674
 8948SOL    HW127743   6.044   6.070   4.659
 8948SOL    HW227744   6.008   6.197   4.755
 8949SOL     OW27745   2.684   6.676   0.795
 8949SOL    HW127746   2.718   6.590   0.757
 8949SOL    HW227747   2.711   6.752   0.736
 8950SOL     OW27748   4.677   4.402   6.283
 8950SOL    HW127749   4.774   4.424   6.273
 8950SOL    HW227750   4.652   4.331   6.218
 8951SOL     OW27751   1.258   1.872   5.323
 8951SOL    HW127752   1.280   1.779   5.295
 8951SOL    HW227753   1.339   1.915   5.364
 8952SOL     OW27754   1.506   6.780   2.857
 8952SOL    HW127755   1.492   6.865   2.907
 8952SOL    HW227756   1.423   6.723   2.863
 8953SOL     OW27757   1.381   4.099   6.736
 8953SOL    HW127758   1.343   4.127   6.648
 8953SOL    HW227759   1.454   4.162   6.763
 8954SOL     OW27760   0.796   0.487   4.845
 8954SOL    HW127761   0.701   0.469   4.820
 8954SOL    HW227762   0.856   0.447   4.776
 8955SOL     OW27763   6.925   5.188   2.483
 8955SOL    HW127764   6.970   5.275   2.506
 8955SOL    HW227765   6.993   5.121   2.454
 8956SOL     OW27766   1.390   0.938   6.765
 8956SOL    HW127767   1.300   0.954   6.806
 8956SOL    HW227768   1.458   0.995   6.810
 8957SOL     OW27769   2.889   4.732   0.894
 8957SOL    HW127770   2.941   4.707   0.813
 8957SOL    HW227771   2.895   4.831   0.909
 8958SOL     OW27772   0.591   1.257   4.608
 8958SOL    HW127773   0.503   1.212   4.617
 8958SOL    HW227774   0.614   1.302   4.695
 8959SOL     OW27775   1.916   4.514   1.303
 8959SOL    HW127776   1.929   4.451   1.379
 8959SOL    HW227777   1.916   4.608   1.337
 8960SOL     OW27778   4.890   4.471   2.654
 8960SOL    HW127779   4.820   4.515   2.710
 8960SOL    HW227780   4.846   4.406   2.591
 8961SOL     OW27781   2.436   1.072   4.528
 8961SOL    HW127782   2.504   1.036   4.590
 8961SOL    HW227783   2.354   1.014   4.530
 8962SOL     OW27784   6.228   5.675   2.057
 8962SOL    HW127785   6.162   5.629   1.998
 8962SOL    HW227786   6.210   5.651   2.153
 8963SOL     OW27787   3.975   5.901   4.125
 8963SOL    HW127788   3.981   5.988   4.075
 8963SOL    HW227789   4.030   5.908   4.209
 8964SOL     OW27790   4.934   3.416   3.248
 8964SOL    HW127791   4.926   3.366   3.162
 8964SOL    HW227792   5.008   3.377   3.303
 8965SOL     OW27793   2.734   4.948   0.246
 8965SOL    HW127794   2.685   5.013   0.304
 8965SOL    HW227795   2.742   4.860   0.293
 8966SOL     OW27796   6.811   3.965   0.315
 8966SOL    HW127797   6.827   4.013   0.401
 8966SOL    HW227798   6.737   3.899   0.326
 8967SOL     OW27799   4.265   0.538   1.520
 8967SOL    HW127800   4.244   0.606   1.590
 8967SOL    HW227801   4.220   0.563   1.434
 8968SOL     OW27802   4.994   5.170   3.034
 8968SOL    HW127803   4.937   5.197   3.112
 8968SOL    HW227804   4.964   5.220   2.952
 8969SOL     OW27805   0.029   1.293   4.655
 8969SOL    HW127806   6.993   1.366   4.620
 8969SOL    HW227807   0.030   1.295   4.755
 8970SOL     OW27808   2.432   2.921   0.398
 8970SOL    HW127809   2.377   2.989   0.447
 8970SOL    HW227810   2.454   2.955   0.307
 8971SOL     OW27811   5.416   5.463   1.518
 8971SOL    HW127812   5.318   5.451   1.506
 8971SOL    HW227813   5.465   5.387   1.474
 8972SOL     OW27814   5.420   4.729   6.240
 8972SOL    HW127815   5.380   4.667   6.308
 8972SOL    HW227816   5.399   4.696   6.148
 8973SOL     OW27817   0.636   3.093   2.372
 8973SOL    HW127818   0.630   3.018   2.305
 8973SOL    HW227819   0.605   3.178   2.330
 8974SOL     OW27820   0.999   4.179   5.503
 8974SOL    HW127821   1.081   4.156   5.556
 8974SOL    HW227822   1.024   4.205   5.410
 8975SOL     OW27823   1.654   6.841   5.628
 8975SOL    HW127824   1.652   6.795   5.717
 8975SOL    HW227825   1.591   6.795   5.565
 8976SOL     OW27826   6.956   5.344   5.851
 8976SOL    HW127827   7.001   5.302   5.773
 8976SOL    HW227828   6.990   5.303   5.936
 8977SOL     OW27829   5.915   2.401   0.354
 8977SOL    HW127830   5.979   2.478   0.358
 8977SOL    HW227831   5.923   2.347   0.438
 8978SOL     OW27832   5.962   0.191   4.379
 8978SOL    HW127833   5.872   0.148   4.373
 8978SOL    HW227834   6.018   0.159   4.303
 8979SOL     OW27835   1.468   3.972   4.702
 8979SOL    HW127836   1.514   3.883   4.692
 8979SOL    HW227837   1.371   3.957   4.720
 8980SOL     OW27838   3.088   2.497   5.548
 8980SOL    HW127839   3.101   2.416   5.492
 8980SOL    HW227840   2.997   2.536   5.531
 8981SOL     OW27841   4.140   1.288   5.749
 8981SOL    HW127842   4.133   1.313   5.652
 8981SOL    HW227843   4.076   1.213   5.768
 8982SOL     OW27844   0.956   2.556   1.347
 8982SOL    HW127845   0.906   2.570   1.433
 8982SOL    HW227846   1.013   2.475   1.354
 8983SOL     OW27847   1.339   5.895   6.876
 8983SOL    HW127848   1.282   5.977   6.883
 8983SOL    HW227849   1.386   5.895   6.788
 8984SOL     OW27850   6.854   0.048   4.692
 8984SOL    HW127851   6.797   0.080   4.617
 8984SOL    HW227852   6.937   0.105   4.697
 8985SOL     OW27853   2.642   2.332   0.931
 8985SOL    HW127854   2.692   2.312   1.015
 8985SOL    HW227855   2.683   2.411   0.886
 8986SOL     OW27856   4.563   5.221   2.199
 8986SOL    HW127857   4.642   5.169   2.231
 8986SOL    HW227858   4.553   5.210   2.100
 8987SOL     OW27859   4.914   6.640   1.129
 8987SOL    HW127860   4.941   6.556   1.176
 8987SOL    HW227861   4.987   6.708   1.136
 8988SOL     OW27862   1.287   3.366   5.699
 8988SOL    HW127863   1.352   3.389   5.626
 8988SOL    HW227864   1.259   3.270   5.690
 8989SOL     OW27865   5.152   3.922   1.363
 8989SOL    HW127866   5.184   3.880   1.278
 8989SOL    HW227867   5.196   4.010   1.377
 8990SOL     OW27868   1.855   5.809   3.298
 8990SOL    HW127869   1.910   5.839   3.219
 8990SOL    HW227870   1.838   5.710   3.290
 8991SOL     OW27871   1.423   1.599   6.827
 8991SOL    HW127872   1.393   1.649   6.908
 8991SOL    HW227873   1.348   1.540   6.795
 8992SOL     OW27874   5.759   1.668   6.882
 8992SOL    HW127875   5.835   1.624   6.834
 8992SOL    HW227876   5.792   1.705   6.969
 8993SOL     OW27877   4.711   2.258   2.782
 8993SOL    HW127878   4.656   2.190   2.830
 8993SOL    HW227879   4.738   2.222   2.693
 8994SOL     OW27880   1.526   4.726   4.786
 8994SOL    HW127881   1.569   4.636   4.779
 8994SOL    HW227882   1.445   4.720   4.844
 8995SOL     OW27883   0.921   2.789   0.145
 8995SOL    HW127884   0.919   2.764   0.242
 8995SOL    HW227885   0.961   2.881   0.135
 8996SOL     OW27886   6.084   5.064   0.543
 8996SOL    HW127887   6.152   5.005   0.587
 8996SOL    HW227888   5.992   5.032   0.565
 8997SOL     OW27889   4.685   1.318   5.775
 8997SOL    HW127890   4.744   1.239   5.790
 8997SOL    HW227891   4.660   1.358   5.862
 8998SOL     OW27892   6.254   3.753   4.338
 8998SOL    HW127893   6.201   3.790   4.414
 8998SOL    HW227894   6.197   3.688   4.286
 8999SOL     OW27895   4.817   6.536   6.886
 8999SOL    HW127896   4.717   6.535   6.892
 8999SOL    HW227897   4.848   6.462   6.827
 9000SOL     OW27898   1.769   3.975   0.874
 9000SOL    HW127899   1.735   3.951   0.782
 9000SOL    HW227900   1.863   3.942   0.884
 9001SOL     OW27901   1.468   5.724   2.467
 9001SOL    HW127902   1.433   5.801   2.413
 9001SOL    HW227903   1.521   5.759   2.544
 9002SOL     OW27904   0.055   4.859   5.163
 9002SOL    HW127905   0.052   4.766   5.127
 9002SOL    HW227906   0.150   4.887   5.175
 9003SOL     OW27907   5.152   3.357   1.820
 9003SOL    HW127908   5.065   3.375   1.772
 9003SOL    HW227909   5.132   3.314   1.908
 9004SOL     OW27910   3.699   6.828   1.258
 9004SOL    HW127911   3.744   6.897   1.201
 9004SOL    HW227912   3.628   6.782   1.204
 9005SOL     OW27913   5.442   2.432   4.132
 9005SOL    HW127914   5.478   2.346   4.167
 9005SOL    HW227915   5.442   2.501   4.204
 9006SOL     OW27916   2.286   6.442   0.912
 9006SOL    HW127917   2.326   6.523   0.954
 9006SOL    HW227918   2.318   6.435   0.817
 9007SOL     OW27919   3.502   1.034   4.402
 9007SOL    HW127920   3.541   0.969   4.467
 9007SOL    HW227921   3.495   1.124   4.446
 9008SOL     OW27922   1.308   5.495   3.496
 9008SOL    HW127923   1.358   5.435   3.558
 9008SOL    HW227924   1.339   5.479   3.402
 9009SOL     OW27925   3.075   6.955   0.609
 9009SOL    HW127926   3.055   6.882   0.543
 9009SOL    HW227927   3.174   6.970   0.614
 9010SOL     OW27928   1.210   6.348   3.867
 9010SOL    HW127929   1.257   6.271   3.910
 9010SOL    HW227930   1.185   6.415   3.936
 9011SOL     OW27931   5.303   2.517   2.272
 9011SOL    HW127932   5.264   2.426   2.264
 9011SOL    HW227933   5.353   2.525   2.359
 9012SOL     OW27934   1.998   4.098   1.223
 9012SOL    HW127935   1.917   4.150   1.197
 9012SOL    HW227936   2.066   4.102   1.149
 9013SOL     OW27937   6.937   6.711   5.187
 9013SOL    HW127938   6.952   6.629   5.132
 9013SOL    HW227939   6.931   6.687   5.284
 9014SOL     OW27940   6.651   1.749   0.009
 9014SOL    HW127941   6.602   1.694   6.965
 9014SOL    HW227942   6.597   1.830   0.031
 9015SOL     OW27943   4.891   1.185   1.445
 9015SOL    HW127944   4.928   1.096   1.420
 9015SOL    HW227945   4.798   1.193   1.410
 9016SOL     OW27946   0.581   6.632   6.331
 9016SOL    HW127947   0.603   6.725   6.302
 9016SOL    HW227948   0.613   6.618   6.425
 9017SOL     OW27949   4.261   1.726   3.130
 9017SOL    HW127950   4.177   1.751   3.177
 9017SOL    HW227951   4.332   1.794   3.150
 9018SOL     OW27952   3.902   2.362   6.820
 9018SOL    HW127953   3.978   2.330   6.876
 9018SOL    HW227954   3.920   2.341   6.724
 9019SOL     OW27955   1.463   6.421   2.147
 9019SOL    HW127956   1.441   6.326   2.131
 9019SOL    HW227957   1.535   6.450   2.084
 9020SOL     OW27958   0.485   4.444   1.646
 9020SOL    HW127959   0.401   4.398   1.675
 9020SOL    HW227960   0.470   4.543   1.645
 9021SOL     OW27961   6.741   0.404   3.718
 9021SOL    HW127962   6.662   0.366   3.670
 9021SOL    HW227963   6.710   0.459   3.795
 9022SOL     OW27964   2.869   2.085   6.628
 9022SOL    HW127965   2.786   2.033   6.650
 9022SOL    HW227966   2.937   2.070   6.699
 9023SOL     OW27967   3.263   3.167   2.557
 9023SOL    HW127968   3.247   3.112   2.475
 9023SOL    HW227969   3.361   3.185   2.566
 9024SOL     OW27970   0.951   4.422   5.030
 9024SOL    HW127971   0.901   4.474   4.962
 9024SOL    HW227972   1.049   4.422   5.008
 9025SOL     OW27973   0.844   5.304   0.140
 9025SOL    HW127974   0.931   5.284   0.095
 9025SOL    HW227975   0.829   5.402   0.143
 9026SOL     OW27976   4.283   3.115   1.165
 9026SOL    HW127977   4.230   3.089   1.246
 9026SOL    HW227978   4.373   3.072   1.170
 9027SOL     OW27979   1.315   2.319   3.869
 9027SOL    HW127980   1.318   2.230   3.823
 9027SOL    HW227981   1.392   2.326   3.933
 9028SOL     OW27982   2.423   3.403   5.331
 9028SOL    HW127983   2.407   3.305   5.336
 9028SOL    HW227984   2.521   3.422   5.336
 9029SOL     OW27985   4.025   6.631   4.977
 9029SOL    HW127986   4.012   6.556   5.042
 9029SOL    HW227987   3.957   6.702   4.995
 9030SOL     OW27988   2.285   1.465   3.110
 9030SOL    HW127989   2.330   1.432   3.027
 9030SOL    HW227990   2.327   1.551   3.138
 9031SOL     OW27991   4.375   5.529   4.415
 9031SOL    HW127992   4.297   5.496   4.468
 9031SOL    HW227993   4.447   5.460   4.415
 9032SOL     OW27994   3.787   3.112   0.316
 9032SOL    HW127995   3.881   3.104   0.351
 9032SOL    HW227996   3.785   3.084   0.220
 9033SOL     OW27997   0.964   4.100   3.297
 9033SOL    HW127998   0.917   4.015   3.322
 9033SOL    HW227999   0.985   4.151   3.381
 9034SOL     OW28000   2.960   0.440   5.603
 9034SOL    HW128001   2.917   0.511   5.546
 9034SOL    HW228002   3.048   0.473   5.637
 9035SOL     OW28003   1.663   4.945   6.534
 9035SOL    HW128004   1.611   4.982   6.611
 9035SOL    HW228005   1.606   4.946   6.452
 9036SOL     OW28006   1.394   1.294   5.711
 9036SOL    HW128007   1.354   1.205   5.733
 9036SOL    HW228008   1.406   1.302   5.612
 9037SOL     OW28009   1.253   3.874   5.277
 9037SOL    HW128010   1.303   3.957   5.301
 9037SOL    HW228011   1.301   3.827   5.203
 9038SOL     OW28012   4.502   0.103   5.934
 9038SOL    HW128013   4.466   0.195   5.949
 9038SOL    HW228014   4.601   0.107   5.924
 9039SOL     OW28015   2.643   6.098   5.380
 9039SOL    HW128016   2.627   6.091   5.282
 9039SOL    HW228017   2.556   6.113   5.427
 9040SOL     OW28018   3.371   1.443   2.305
 9040SOL    HW128019   3.399   1.348   2.292
 9040SOL    HW228020   3.444   1.492   2.354
 9041SOL     OW28021   0.814   2.186   1.768
 9041SOL    HW128022   0.840   2.090   1.779
 9041SOL    HW228023   0.742   2.193   1.699
 9042SOL     OW28024   3.410   0.605   4.109
 9042SOL    HW128025   3.407   0.636   4.014
 9042SOL    HW228026   3.425   0.684   4.169
 9043SOL     OW28027   1.120   0.935   0.309
 9043SOL    HW128028   1.219   0.954   0.312
 9043SOL    HW228029   1.104   0.854   0.253
 9044SOL     OW28030   6.326   0.811   0.562
 9044SOL    HW128031   6.391   0.887   0.553
 9044SOL    HW228032   6.345   0.743   0.490
 9045SOL     OW28033   2.421   1.126   2.533
 9045SOL    HW128034   2.338   1.162   2.575
 9045SOL    HW228035   2.470   1.199   2.487
 9046SOL     OW28036   3.638   3.665   3.409
 9046SOL    HW128037   3.607   3.574   3.384
 9046SOL    HW228038   3.564   3.731   3.395
 9047SOL     OW28039   1.942   3.187   6.039
 9047SOL    HW128040   1.994   3.110   6.002
 9047SOL    HW228041   1.902   3.240   5.964
 9048SOL     OW28042   5.229   3.287   6.313
 9048SOL    HW128043   5.171   3.352   6.362
 9048SOL    HW228044   5.304   3.336   6.269
 9049SOL     OW28045   3.223   6.942   5.641
 9049SOL    HW128046   3.276   6.885   5.704
 9049SOL    HW228047   3.126   6.940   5.666
 9050SOL     OW28048   0.187   3.188   0.530
 9050SOL    HW128049   0.164   3.285   0.524
 9050SOL    HW228050   0.200   3.163   0.626
 9051SOL     OW28051   3.932   6.678   0.941
 9051SOL    HW128052   3.859   6.609   0.943
 9051SOL    HW228053   3.895   6.764   0.905
 9052SOL     OW28054   2.588   2.039   4.105
 9052SOL    HW128055   2.525   1.963   4.093
 9052SOL    HW228056   2.659   2.035   4.034
 9053SOL     OW28057   1.973   0.826   2.541
 9053SOL    HW128058   2.035   0.855   2.615
 9053SOL    HW228059   1.939   0.734   2.560
 9054SOL     OW28060   2.943   6.118   3.331
 9054SOL    HW128061   2.992   6.035   3.357
 9054SOL    HW228062   2.907   6.107   3.238
 9055SOL     OW28063   5.370   2.648   4.348
 9055SOL    HW128064   5.389   2.675   4.443
 9055SOL    HW228065   5.274   2.621   4.340
 9056SOL     OW28066   0.507   1.298   2.194
 9056SOL    HW128067   0.426   1.240   2.206
 9056SOL    HW228068   0.515   1.362   2.270
 9057SOL     OW28069   4.914   4.156   6.357
 9057SOL    HW128070   4.941   4.060   6.345
 9057SOL    HW228071   4.984   4.215   6.318
 9058SOL     OW28072   2.354   2.186   2.065
 9058SOL    HW128073   2.272   2.147   2.108
 9058SOL    HW228074   2.435   2.154   2.114
 9059SOL     OW28075   1.080   2.205   4.241
 9059SOL    HW128076   1.134   2.280   4.203
 9059SOL    HW228077   0.983   2.225   4.229
 9060SOL     OW28078   6.414   2.733   3.555
 9060SOL    HW128079   6.459   2.801   3.613
 9060SOL    HW228080   6.336   2.776   3.507
 9061SOL     OW28081   2.338   5.559   2.587
 9061SOL    HW128082   2.271   5.595   2.522
 9061SOL    HW228083   2.427   5.601   2.570
 9062SOL     OW28084   1.545   5.967   2.091
 9062SOL    HW128085   1.629   5.972   2.038
 9062SOL    HW228086   1.557   6.017   2.177
 9063SOL     OW28087   2.692   6.947   3.053
 9063SOL    HW128088   2.689   0.006   3.109
 9063SOL    HW228089   2.785   6.930   3.021
 9064SOL     OW28090   6.520   2.042   5.489
 9064SOL    HW128091   6.465   1.965   5.459
 9064SOL    HW228092   6.587   2.011   5.557
 9065SOL     OW28093   3.332   0.197   5.537
 9065SOL    HW128094   3.240   0.234   5.524
 9065SOL    HW228095   3.326   0.102   5.568
 9066SOL     OW28096   4.733   6.069   0.763
 9066SOL    HW128097   4.815   6.023   0.730
 9066SOL    HW228098   4.659   6.058   0.697
 9067SOL     OW28099   7.009   0.565   4.443
 9067SOL    HW128100   0.008   0.470   4.462
 9067SOL    HW228101   6.911   0.574   4.424
 9068SOL     OW28102   2.419   6.759   4.660
 9068SOL    HW128103   2.426   6.812   4.744
 9068SOL    HW228104   2.503   6.771   4.606
 9069SOL     OW28105   1.875   3.520   1.435
 9069SOL    HW128106   1.928   3.507   1.352
 9069SOL    HW228107   1.936   3.547   1.510
 9070SOL     OW28108   1.253   3.719   4.887
 9070SOL    HW128109   1.221   3.808   4.856
 9070SOL    HW228110   1.306   3.731   4.971
 9071SOL     OW28111   5.759   0.185   1.458
 9071SOL    HW128112   5.662   0.202   1.443
 9071SOL    HW228113   5.813   0.249   1.404
 9072SOL     OW28114   0.084   1.590   1.755
 9072SOL    HW128115   0.057   1.618   1.847
 9072SOL    HW228116   0.014   1.531   1.715
 9073SOL     OW28117   2.878   6.827   2.490
 9073SOL    HW128118   2.871   6.924   2.469
 9073SOL    HW228119   2.945   6.812   2.562
 9074SOL     OW28120   1.599   2.101   2.156
 9074SOL    HW128121   1.519   2.076   2.210
 9074SOL    HW228122   1.574   2.171   2.089
 9075SOL     OW28123   1.129   1.401   2.056
 9075SOL    HW128124   1.099   1.491   2.025
 9075SOL    HW228125   1.050   1.350   2.091
 9076SOL     OW28126   6.591   2.252   5.851
 9076SOL    HW128127   6.599   2.296   5.761
 9076SOL    HW228128   6.654   2.174   5.855
 9077SOL     OW28129   4.219   0.549   0.441
 9077SOL    HW128130   4.257   0.495   0.366
 9077SOL    HW228131   4.231   0.500   0.527
 9078SOL     OW28132   4.025   3.459   6.126
 9078SOL    HW128133   4.006   3.361   6.131
 9078SOL    HW228134   4.101   3.475   6.064
 9079SOL     OW28135   3.375   0.923   4.210
 9079SOL    HW128136   3.385   0.976   4.126
 9079SOL    HW228137   3.427   0.968   4.283
 9080SOL     OW28138   4.350   2.595   6.224
 9080SOL    HW128139   4.444   2.611   6.195
 9080SOL    HW228140   4.299   2.680   6.220
 9081SOL     OW28141   3.573   0.048   2.477
 9081SOL    HW128142   3.624   6.995   2.517
 9081SOL    HW228143   3.477   0.022   2.465
 9082SOL     OW28144   2.122   0.520   5.511
 9082SOL    HW128145   2.052   0.451   5.524
 9082SOL    HW228146   2.178   0.497   5.431
 9083SOL     OW28147   3.257   5.631   5.924
 9083SOL    HW128148   3.307   5.716   5.944
 9083SOL    HW228149   3.225   5.633   5.829
 9084SOL     OW28150   3.085   3.916   4.419
 9084SOL    HW128151   3.055   3.950   4.330
 9084SOL    HW228152   3.168   3.964   4.448
 9085SOL     OW28153   2.240   0.212   1.851
 9085SOL    HW128154   2.274   0.296   1.808
 9085SOL    HW228155   2.306   0.138   1.837
 9086SOL     OW28156   1.113   4.506   0.470
 9086SOL    HW128157   1.047   4.442   0.431
 9086SOL    HW228158   1.113   4.498   0.569
 9087SOL     OW28159   4.254   2.294   1.449
 9087SOL    HW128160   4.245   2.339   1.361
 9087SOL    HW228161   4.214   2.203   1.445
 9088SOL     OW28162   0.114   6.521   0.919
 9088SOL    HW128163   0.159   6.524   0.830
 9088SOL    HW228164   0.017   6.543   0.908
 9089SOL     OW28165   5.433   5.545   5.735
 9089SOL    HW128166   5.496   5.505   5.802
 9089SOL    HW228167   5.339   5.523   5.760
 9090SOL     OW28168   6.916   1.081   4.064
 9090SOL    HW128169   6.925   1.086   3.965
 9090SOL    HW228170   6.992   1.027   4.101
 9091SOL     OW28171   3.326   4.132   6.928
 9091SOL    HW128172   3.312   4.206   6.862
 9091SOL    HW228173   3.303   4.164   7.020
 9092SOL     OW28174   6.409   0.687   6.730
 9092SOL    HW128175   6.501   0.697   6.768
 9092SOL    HW228176   6.390   0.763   6.668
 9093SOL     OW28177   1.048   5.733   5.583
 9093SOL    HW128178   1.001   5.712   5.498
 9093SOL    HW228179   1.086   5.825   5.578
 9094SOL     OW28180   6.391   4.842   3.000
 9094SOL    HW128181   6.473   4.842   3.058
 9094SOL    HW228182   6.362   4.748   2.982
 9095SOL     OW28183   4.870   4.946   6.306
 9095SOL    HW128184   4.889   4.855   6.270
 9095SOL    HW228185   4.854   4.940   6.405
 9096SOL     OW28186   6.329   5.293   2.371
 9096SOL    HW128187   6.399   5.307   2.301
 9096SOL    HW228188   6.309   5.195   2.380
 9097SOL     OW28189   1.392   1.599   1.169
 9097SOL    HW128190   1.439   1.515   1.199
 9097SOL    HW228191   1.306   1.575   1.125
 9098SOL     OW28192   3.503   2.015   4.410
 9098SOL    HW128193   3.563   2.032   4.487
 9098SOL    HW228194   3.424   1.961   4.440
 9099SOL     OW28195   3.248   3.371   5.991
 9099SOL    HW128196   3.313   3.435   6.032
 9099SOL    HW228197   3.172   3.422   5.950
 9100SOL     OW28198   0.176   3.330   3.094
 9100SOL    HW128199   0.128   3.318   3.181
 9100SOL    HW228200   0.209   3.242   3.062
 9101SOL     OW28201   2.756   2.554   1.611
 9101SOL    HW128202   2.850   2.520   1.596
 9101SOL    HW228203   2.705   2.546   1.525
 9102SOL     OW28204   3.551   6.725   2.283
 9102SOL    HW128205   3.630   6.702   2.226
 9102SOL    HW228206   3.508   6.641   2.316
 9103SOL     OW28207   5.642   2.484   6.530
 9103SOL    HW128208   5.589   2.514   6.451
 9103SOL    HW228209   5.594   2.508   6.614
 9104SOL     OW28210   0.025   6.438   1.587
 9104SOL    HW128211   0.047   6.406   1.679
 9104SOL    HW228212   6.963   6.395   1.556
 9105SOL     OW28213   0.448   1.088   6.251
 9105SOL    HW128214   0.426   1.009   6.193
 9105SOL    HW228215   0.378   1.158   6.241
 9106SOL     OW28216   5.636   3.633   1.305
 9106SOL    HW128217   5.546   3.632   1.263
 9106SOL    HW228218   5.685   3.548   1.281
 9107SOL     OW28219   1.995   0.949   6.671
 9107SOL    HW128220   1.984   0.895   6.587
 9107SOL    HW228221   2.091   0.974   6.682
 9108SOL     OW28222   4.994   4.009   5.194
 9108SOL    HW128223   4.976   4.069   5.116
 9108SOL    HW228224   4.909   3.968   5.225
 9109SOL     OW28225   6.032   3.880   3.048
 9109SOL    HW128226   6.097   3.954   3.062
 9109SOL    HW228227   6.035   3.851   2.952
 9110SOL     OW28228   1.971   5.453   4.323
 9110SOL    HW128229   1.962   5.447   4.224
 9110SOL    HW228230   1.925   5.535   4.356
 9111SOL     OW28231   4.460   2.973   6.960
 9111SOL    HW128232   4.469   2.938   0.029
 9111SOL    HW228233   4.513   3.057   6.952
 9112SOL     OW28234   2.196   5.589   2.811
 9112SOL    HW128235   2.255   5.571   2.732
 9112SOL    HW228236   2.253   5.621   2.887
 9113SOL     OW28237   5.140   2.702   2.607
 9113SOL    HW128238   5.073   2.652   2.552
 9113SOL    HW228239   5.163   2.788   2.562
 9114SOL     OW28240   6.817   5.381   3.704
 9114SOL    HW128241   6.819   5.313   3.777
 9114SOL    HW228242   6.725   5.385   3.665
 9115SOL     OW28243   5.674   5.399   5.064
 9115SOL    HW128244   5.696   5.428   5.157
 9115SOL    HW228245   5.690   5.474   5.000
 9116SOL     OW28246   0.385   6.717   3.005
 9116SOL    HW128247   0.468   6.663   3.013
 9116SOL    HW228248   0.371   6.770   3.088
 9117SOL     OW28249   3.588   2.724   5.901
 9117SOL    HW128250   3.574   2.671   5.818
 9117SOL    HW228251   3.557   2.818   5.887
 9118SOL     OW28252   6.401   3.330   0.238
 9118SOL    HW128253   6.449   3.317   0.151
 9118SOL    HW228254   6.321   3.389   0.223
 9119SOL     OW28255   3.632   1.194   2.049
 9119SOL    HW128256   3.715   1.241   2.078
 9119SOL    HW228257   3.641   1.096   2.065
 9120SOL     OW28258   0.164   2.015   5.793
 9120SOL    HW128259   0.229   1.977   5.727
 9120SOL    HW228260   0.197   1.998   5.886
 9121SOL     OW28261   3.744   6.339   4.767
 9121SOL    HW128262   3.685   6.397   4.824
 9121SOL    HW228263   3.777   6.262   4.822
 9122SOL     OW28264   2.651   4.627   2.276
 9122SOL    HW128265   2.687   4.587   2.192
 9122SOL    HW228266   2.655   4.560   2.349
 9123SOL     OW28267   2.228   0.897   4.455
 9123SOL    HW128268   2.231   0.797   4.454
 9123SOL    HW228269   2.132   0.927   4.455
 9124SOL     OW28270   3.896   5.418   0.944
 9124SOL    HW128271   3.813   5.419   0.999
 9124SOL    HW228272   3.936   5.510   0.942
 9125SOL     OW28273   4.138   4.381   1.300
 9125SOL    HW128274   4.061   4.406   1.359
 9125SOL    HW228275   4.135   4.283   1.282
 9126SOL     OW28276   4.651   3.820   1.703
 9126SOL    HW128277   4.727   3.760   1.677
 9126SOL    HW228278   4.575   3.764   1.736
 9127SOL     OW28279   6.720   2.028   5.790
 9127SOL    HW128280   6.692   1.933   5.806
 9127SOL    HW228281   6.813   2.030   5.753
 9128SOL     OW28282   6.013   2.377   5.378
 9128SOL    HW128283   5.972   2.286   5.368
 9128SOL    HW228284   6.103   2.369   5.419
 9129SOL     OW28285   6.341   1.398   0.252
 9129SOL    HW128286   6.287   1.456   0.314
 9129SOL    HW228287   6.428   1.443   0.232
 9130SOL     OW28288   1.073   4.591   6.223
 9130SOL    HW128289   1.006   4.586   6.149
 9130SOL    HW228290   1.148   4.528   6.204
 9131SOL     OW28291   5.176   3.602   6.121
 9131SOL    HW128292   5.241   3.558   6.058
 9131SOL    HW228293   5.085   3.599   6.082
 9132SOL     OW28294   1.104   4.866   4.910
 9132SOL    HW128295   1.110   4.965   4.904
 9132SOL    HW228296   1.118   4.826   4.819
 9133SOL     OW28297   3.419   0.438   1.530
 9133SOL    HW128298   3.404   0.382   1.448
 9133SOL    HW228299   3.394   0.533   1.510
 9134SOL     OW28300   4.242   5.442   1.315
 9134SOL    HW128301   4.300   5.412   1.238
 9134SOL    HW228302   4.212   5.536   1.299
 9135SOL     OW28303   1.017   6.429   1.461
 9135SOL    HW128304   1.002   6.526   1.481
 9135SOL    HW228305   0.961   6.373   1.522
 9136SOL     OW28306   4.569   6.125   5.734
 9136SOL    HW128307   4.581   6.102   5.637
 9136SOL    HW228308   4.496   6.069   5.773
 9137SOL     OW28309   3.922   0.710   6.687
 9137SOL    HW128310   3.946   0.691   6.782
 9137SOL    HW228311   3.957   0.801   6.662
 9138SOL     OW28312   1.307   3.895   6.227
 9138SOL    HW128313   1.362   3.835   6.285
 9138SOL    HW228314   1.312   3.864   6.133
 9139SOL     OW28315   1.420   1.240   2.313
 9139SOL    HW128316   1.510   1.284   2.308
 9139SOL    HW228317   1.405   1.185   2.230
 9140SOL     OW28318   0.995   4.579   1.715
 9140SOL    HW128319   0.958   4.506   1.773
 9140SOL    HW228320   0.922   4.617   1.659
 9141SOL     OW28321   6.557   6.180   6.729
 9141SOL    HW128322   6.467   6.149   6.761
 9141SOL    HW228323   6.569   6.276   6.752
 9142SOL     OW28324   0.500   3.619   1.510
 9142SOL    HW128325   0.457   3.687   1.451
 9142SOL    HW228326   0.521   3.537   1.458
 9143SOL     OW28327   0.192   4.053   1.727
 9143SOL    HW128328   0.229   3.985   1.791
 9143SOL    HW228329   0.100   4.079   1.756
 9144SOL     OW28330   3.316   5.253   4.673
 9144SOL    HW128331   3.390   5.217   4.616
 9144SOL    HW228332   3.304   5.194   4.753
 9145SOL     OW28333   1.684   6.017   6.747
 9145SOL    HW128334   1.658   5.920   6.754
 9145SOL    HW228335   1.772   6.024   6.700
 9146SOL     OW28336   5.406   3.407   2.807
 9146SOL    HW128337   5.506   3.416   2.801
 9146SOL    HW228338   5.369   3.483   2.861
 9147SOL     OW28339   6.779   0.436   5.061
 9147SOL    HW128340   6.693   0.388   5.042
 9147SOL    HW228341   6.805   0.491   4.982
 9148SOL     OW28342   5.933   6.696   1.894
 9148SOL    HW128343   5.962   6.750   1.816
 9148SOL    HW228344   5.999   6.707   1.969
 9149SOL     OW28345   5.760   2.874   1.883
 9149SOL    HW128346   5.772   2.782   1.920
 9149SOL    HW228347   5.669   2.882   1.843
 9150SOL     OW28348   3.492   4.209   0.972
 9150SOL    HW128349   3.427   4.199   0.897
 9150SOL    HW228350   3.563   4.139   0.964
 9151SOL     OW28351   2.170   3.791   3.314
 9151SOL    HW128352   2.170   3.756   3.220
 9151SOL    HW228353   2.178   3.891   3.312
 9152SOL     OW28354   2.035   4.527   4.272
 9152SOL    HW128355   2.010   4.624   4.279
 9152SOL    HW228356   2.094   4.502   4.348
 9153SOL     OW28357   0.153   2.672   0.014
 9153SOL    HW128358   0.216   2.700   6.964
 9153SOL    HW228359   0.170   2.727   0.095
 9154SOL     OW28360   5.227   3.985   3.522
 9154SOL    HW128361   5.133   3.955   3.504
 9154SOL    HW228362   5.273   4.005   3.435
 9155SOL     OW28363   2.188   4.313   3.060
 9155SOL    HW128364   2.108   4.371   3.074
 9155SOL    HW228365   2.268   4.370   3.041
 9156SOL     OW28366   6.541   2.493   1.780
 9156SOL    HW128367   6.536   2.484   1.879
 9156SOL    HW228368   6.454   2.528   1.746
 9157SOL     OW28369   3.321   4.344   6.750
 9157SOL    HW128370   3.251   4.409   6.779
 9157SOL    HW228371   3.283   4.281   6.682
 9158SOL     OW28372   6.447   3.657   4.098
 9158SOL    HW128373   6.450   3.726   4.169
 9158SOL    HW228374   6.391   3.690   4.021
 9159SOL     OW28375   1.902   0.504   3.783
 9159SOL    HW128376   1.978   0.459   3.829
 9159SOL    HW228377   1.857   0.439   3.721
 9160SOL     OW28378   0.354   5.914   5.559
 9160SOL    HW128379   0.266   5.912   5.511
 9160SOL    HW228380   0.354   5.844   5.630
 9161SOL     OW28381   6.215   5.061   3.375
 9161SOL    HW128382   6.152   5.055   3.452
 9161SOL    HW228383   6.219   4.973   3.328
 9162SOL     OW28384   3.739   0.305   2.924
 9162SOL    HW128385   3.809   0.375   2.928
 9162SOL    HW228386   3.755   0.245   2.846
 9163SOL     OW28387   6.805   3.262   2.653
 9163SOL    HW128388   6.883   3.278   2.714
 9163SOL    HW228389   6.725   3.309   2.689
 9164SOL     OW28390   1.588   1.077   6.882
 9164SOL    HW128391   1.643   1.058   6.801
 9164SOL    HW228392   1.625   1.157   6.930
 9165SOL     OW28393   4.555   1.490   5.981
 9165SOL    HW128394   4.527   1.485   6.077
 9165SOL    HW228395   4.561   1.585   5.953
 9166SOL     OW28396   4.191   5.287   0.702
 9166SOL    HW128397   4.183   5.199   0.655
 9166SOL    HW228398   4.240   5.352   0.643
 9167SOL     OW28399   1.438   2.395   6.336
 9167SOL    HW128400   1.481   2.327   6.395
 9167SOL    HW228401   1.480   2.393   6.245
 9168SOL     OW28402   6.794   5.846   6.547
 9168SOL    HW128403   6.836   5.923   6.594
 9168SOL    HW228404   6.729   5.880   6.479
 9169SOL     OW28405   6.368   5.968   6.032
 9169SOL    HW128406   6.434   5.894   6.045
 9169SOL    HW228407   6.407   6.037   5.970
 9170SOL     OW28408   1.787   1.268   6.451
 9170SOL    HW128409   1.824   1.271   6.543
 9170SOL    HW228410   1.730   1.349   6.435
 9171SOL     OW28411   3.102   5.595   0.812
 9171SOL    HW128412   3.031   5.612   0.744
 9171SOL    HW228413   3.122   5.680   0.861
 9172SOL     OW28414   4.345   2.088   4.719
 9172SOL    HW128415   4.425   2.109   4.664
 9172SOL    HW228416   4.278   2.038   4.664
 9173SOL     OW28417   6.318   3.023   4.532
 9173SOL    HW128418   6.248   3.056   4.594
 9173SOL    HW228419   6.342   3.096   4.467
 9174SOL     OW28420   0.772   6.020   0.038
 9174SOL    HW128421   0.793   5.934   7.015
 9174SOL    HW228422   0.692   6.063   7.019
 9175SOL     OW28423   1.291   6.597   6.791
 9175SOL    HW128424   1.333   6.510   6.818
 9175SOL    HW228425   1.224   6.624   6.859
 9176SOL     OW28426   2.660   6.691   1.434
 9176SOL    HW128427   2.634   6.787   1.425
 9176SOL    HW228428   2.750   6.685   1.478
 9177SOL     OW28429   1.665   2.616   3.693
 9177SOL    HW128430   1.665   2.708   3.655
 9177SOL    HW228431   1.613   2.615   3.779
 9178SOL     OW28432   2.363   5.150   6.213
 9178SOL    HW128433   2.415   5.068   6.190
 9178SOL    HW228434   2.280   5.154   6.158
 9179SOL     OW28435   2.273   5.949   5.181
 9179SOL    HW128436   2.205   6.003   5.132
 9179SOL    HW228437   2.365   5.980   5.156
 9180SOL     OW28438   6.305   2.323   3.854
 9180SOL    HW128439   6.310   2.307   3.953
 9180SOL    HW228440   6.211   2.307   3.823
 9181SOL     OW28441   5.045   2.685   3.292
 9181SOL    HW128442   5.042   2.656   3.387
 9181SOL    HW228443   5.027   2.606   3.233
 9182SOL     OW28444   3.354   1.045   3.047
 9182SOL    HW128445   3.361   1.023   3.145
 9182SOL    HW228446   3.353   1.144   3.035
 9183SOL     OW28447   4.709   3.766   6.145
 9183SOL    HW128448   4.725   3.852   6.195
 9183SOL    HW228449   4.611   3.745   6.146
 9184SOL     OW28450   3.696   2.337   1.036
 9184SOL    HW128451   3.716   2.400   1.111
 9184SOL    HW228452   3.689   2.244   1.072
 9185SOL     OW28453   0.966   6.735   6.113
 9185SOL    HW128454   1.059   6.771   6.101
 9185SOL    HW228455   0.931   6.705   6.024
 9186SOL     OW28456   4.935   0.298   5.695
 9186SOL    HW128457   5.006   0.349   5.648
 9186SOL    HW228458   4.976   0.241   5.766
 9187SOL     OW28459   4.216   2.117   6.791
 9187SOL    HW128460   4.195   2.054   6.717
 9187SOL    HW228461   4.276   2.072   6.857
 9188SOL     OW28462   1.243   0.457   1.587
 9188SOL    HW128463   1.317   0.492   1.530
 9188SOL    HW228464   1.156   0.465   1.539
 9189SOL     OW28465   2.774   0.625   3.728
 9189SOL    HW128466   2.789   0.654   3.633
 9189SOL    HW228467   2.838   0.672   3.788
 9190SOL     OW28468   6.717   3.649   5.357
 9190SOL    HW128469   6.738   3.671   5.452
 9190SOL    HW228470   6.800   3.655   5.302
 9191SOL     OW28471   4.634   6.659   6.427
 9191SOL    HW128472   4.672   6.569   6.408
 9191SOL    HW228473   4.705   6.728   6.413
 9192SOL     OW28474   6.438   3.637   6.366
 9192SOL    HW128475   6.350   3.591   6.351
 9192SOL    HW228476   6.427   3.735   6.351
 9193SOL     OW28477   3.373   3.792   3.927
 9193SOL    HW128478   3.369   3.890   3.911
 9193SOL    HW228479   3.426   3.773   4.009
 9194SOL     OW28480   3.240   5.774   1.839
 9194SOL    HW128481   3.233   5.873   1.852
 9194SOL    HW228482   3.271   5.754   1.746
 9195SOL     OW28483   2.194   2.491   4.199
 9195SOL    HW128484   2.155   2.555   4.132
 9195SOL    HW228485   2.284   2.523   4.227
 9196SOL     OW28486   5.951   0.117   3.901
 9196SOL    HW128487   5.959   0.019   3.886
 9196SOL    HW228488   5.856   0.145   3.886
 9197SOL     OW28489   3.750   4.628   0.861
 9197SOL    HW128490   3.771   4.644   0.957
 9197SOL    HW228491   3.690   4.702   0.827
 9198SOL     OW28492   5.756   4.117   6.202
 9198SOL    HW128493   5.748   4.063   6.118
 9198SOL    HW228494   5.842   4.094   6.248
 9199SOL     OW28495   0.493   3.060   6.287
 9199SOL    HW128496   0.476   3.158   6.299
 9199SOL    HW228497   0.438   3.026   6.211
 9200SOL     OW28498   2.090   5.780   6.407
 9200SOL    HW128499   2.078   5.819   6.498
 9200SOL    HW228500   2.002   5.747   6.373
 9201SOL     OW28501   0.484   3.807   1.311
 9201SOL    HW128502   0.468   3.906   1.317
 9201SOL    HW228503   0.542   3.788   1.232
 9202SOL     OW28504   1.295   5.775   4.417
 9202SOL    HW128505   1.223   5.734   4.473
 9202SOL    HW228506   1.376   5.717   4.419
 9203SOL     OW28507   5.503   2.375   6.132
 9203SOL    HW128508   5.408   2.349   6.142
 9203SOL    HW228509   5.555   2.299   6.093
 9204SOL     OW28510   4.994   3.779   3.432
 9204SOL    HW128511   4.920   3.778   3.499
 9204SOL    HW228512   5.057   3.704   3.452
 9205SOL     OW28513   5.190   3.797   2.667
 9205SOL    HW128514   5.122   3.724   2.663
 9205SOL    HW228515   5.155   3.878   2.620
 9206SOL     OW28516   3.321   0.406   4.285
 9206SOL    HW128517   3.294   0.490   4.238
 9206SOL    HW228518   3.240   0.353   4.308
 9207SOL     OW28519   3.554   6.500   5.665
 9207SOL    HW128520   3.522   6.526   5.756
 9207SOL    HW228521   3.523   6.407   5.644
 9208SOL     OW28522   5.301   4.147   2.284
 9208SOL    HW128523   5.210   4.181   2.261
 9208SOL    HW228524   5.368   4.187   2.223
 9209SOL     OW28525   4.019   0.472   2.152
 9209SOL    HW128526   4.114   0.487   2.124
 9209SOL    HW228527   4.014   0.388   2.206
 9210SOL     OW28528   0.855   0.668   0.909
 9210SOL    HW128529   0.839   0.729   0.986
 9210SOL    HW228530   0.907   0.589   0.939
 9211SOL     OW28531   5.138   2.357   5.923
 9211SOL    HW128532   5.066   2.311   5.871
 9211SOL    HW228533   5.210   2.387   5.860
 9212SOL     OW28534   4.976   4.141   4.960
 9212SOL    HW128535   5.061   4.194   4.956
 9212SOL    HW228536   4.996   4.044   4.944
 9213SOL     OW28537   5.228   6.240   4.320
 9213SOL    HW128538   5.215   6.316   4.384
 9213SOL    HW228539   5.322   6.240   4.286
 9214SOL     OW28540   0.226   2.555   5.355
 9214SOL    HW128541   0.311   2.585   5.396
 9214SOL    HW228542   0.237   2.548   5.256
 9215SOL     OW28543   0.659   4.413   2.546
 9215SOL    HW128544   0.672   4.333   2.605
 9215SOL    HW228545   0.650   4.383   2.451
 9216SOL     OW28546   2.475   0.134   4.613
 9216SOL    HW128547   2.492   0.098   4.521
 9216SOL    HW228548   2.549   0.107   4.674
 9217SOL     OW28549   5.527   1.470   6.802
 9217SOL    HW128550   5.447   1.441   6.854
 9217SOL    HW228551   5.504   1.471   6.704
 9218SOL     OW28552   4.010   0.995   6.726
 9218SOL    HW128553   4.022   0.987   6.825
 9218SOL    HW228554   4.078   1.057   6.688
 9219SOL     OW28555   4.173   3.115   5.587
 9219SOL    HW128556   4.081   3.115   5.547
 9219SOL    HW228557   4.226   3.039   5.550
 9220SOL     OW28558   1.835   5.952   2.466
 9220SOL    HW128559   1.888   6.009   2.529
 9220SOL    HW228560   1.883   5.946   2.378
 9221SOL     OW28561   2.427   0.380   5.551
 9221SOL    HW128562   2.475   0.458   5.592
 9221SOL    HW228563   2.360   0.414   5.484
 9222SOL     OW28564   2.417   4.501   4.744
 9222SOL    HW128565   2.359   4.423   4.770
 9222SOL    HW228566   2.437   4.496   4.646
 9223SOL     OW28567   0.926   2.254   3.588
 9223SOL    HW128568   0.868   2.203   3.652
 9223SOL    HW228569   0.943   2.346   3.625
 9224SOL     OW28570   1.899   3.043   3.730
 9224SOL    HW128571   1.887   3.142   3.734
 9224SOL    HW228572   1.866   3.002   3.815
 9225SOL     OW28573   3.939   6.574   6.185
 9225SOL    HW128574   3.970   6.659   6.142
 9225SOL    HW228575   4.008   6.503   6.171
 9226SOL     OW28576   1.382   0.640   1.402
 9226SOL    HW128577   1.362   0.639   1.305
 9226SOL    HW228578   1.313   0.694   1.450
 9227SOL     OW28579   2.457   5.234   1.390
 9227SOL    HW128580   2.536   5.294   1.404
 9227SOL    HW228581   2.402   5.269   1.314
 9228SOL     OW28582   2.187   2.268   6.141
 9228SOL    HW128583   2.213   2.218   6.058
 9228SOL    HW228584   2.200   2.366   6.127
 9229SOL     OW28585   1.333   4.986   6.534
 9229SOL    HW128586   1.307   4.968   6.629
 9229SOL    HW228587   1.294   4.915   6.475
 9230SOL     OW28588   5.027   2.568   3.534
 9230SOL    HW128589   5.011   2.475   3.499
 9230SOL    HW228590   5.095   2.565   3.607
 9231SOL     OW28591   0.873   4.586   5.611
 9231SOL    HW128592   0.962   4.598   5.654
 9231SOL    HW228593   0.867   4.494   5.573
 9232SOL     OW28594   2.483   5.680   1.192
 9232SOL    HW128595   2.500   5.687   1.094
 9232SOL    HW228596   2.500   5.768   1.236
 9233SOL     OW28597   1.140   6.850   0.517
 9233SOL    HW128598   1.081   6.883   0.443
 9233SOL    HW228599   1.123   6.753   0.532
 9234SOL     OW28600   2.639   5.549   0.707
 9234SOL    HW128601   2.584   5.489   0.766
 9234SOL    HW228602   2.579   5.591   0.639
 9235SOL     OW28603   2.519   2.352   3.556
 9235SOL    HW128604   2.444   2.286   3.559
 9235SOL    HW228605   2.483   2.444   3.572
 9236SOL     OW28606   2.336   3.313   6.598
 9236SOL    HW128607   2.328   3.406   6.564
 9236SOL    HW228608   2.260   3.292   6.659
 9237SOL     OW28609   0.506   5.819   2.965
 9237SOL    HW128610   0.547   5.861   3.045
 9237SOL    HW228611   0.457   5.736   2.992
 9238SOL     OW28612   3.123   2.232   6.181
 9238SOL    HW128613   3.143   2.312   6.239
 9238SOL    HW228614   3.207   2.202   6.136
 9239SOL     OW28615   6.804   4.732   6.355
 9239SOL    HW128616   6.705   4.741   6.348
 9239SOL    HW228617   6.844   4.735   6.263
 9240SOL     OW28618   5.050   3.016   2.927
 9240SOL    HW128619   4.997   2.944   2.973
 9240SOL    HW228620   4.990   3.066   2.864
 9241SOL     OW28621   6.961   5.639   0.426
 9241SOL    HW128622   6.941   5.737   0.427
 9241SOL    HW228623   0.026   5.624   0.382
 9242SOL     OW28624   1.920   3.289   1.953
 9242SOL    HW128625   1.915   3.305   2.052
 9242SOL    HW228626   1.835   3.247   1.922
 9243SOL     OW28627   0.911   0.309   2.088
 9243SOL    HW128628   0.983   0.263   2.141
 9243SOL    HW228629   0.884   0.251   2.011
 9244SOL     OW28630   2.490   6.571   6.349
 9244SOL    HW128631   2.549   6.490   6.341
 9244SOL    HW228632   2.509   6.617   6.436
 9245SOL     OW28633   0.360   4.259   3.862
 9245SOL    HW128634   0.446   4.252   3.811
 9245SOL    HW228635   0.372   4.216   3.952
 9246SOL     OW28636   6.072   0.110   4.132
 9246SOL    HW128637   6.060   0.100   4.033
 9246SOL    HW228638   6.163   0.146   4.151
 9247SOL     OW28639   4.330   5.383   3.295
 9247SOL    HW128640   4.383   5.410   3.215
 9247SOL    HW228641   4.349   5.446   3.371
 9248SOL     OW28642   2.909   2.060   5.450
 9248SOL    HW128643   2.920   1.995   5.374
 9248SOL    HW228644   2.818   2.100   5.446
 9249SOL     OW28645   4.423   5.323   1.152
 9249SOL    HW128646   4.387   5.281   1.069
 9249SOL    HW228647   4.482   5.400   1.128
 9250SOL     OW28648   6.922   3.019   4.093
 9250SOL    HW128649   6.975   2.943   4.055
 9250SOL    HW228650   6.936   3.022   4.192
 9251SOL     OW28651   4.447   2.025   2.112
 9251SOL    HW128652   4.381   1.960   2.149
 9251SOL    HW228653   4.490   1.986   2.031
 9252SOL     OW28654   5.401   0.526   4.917
 9252SOL    HW128655   5.337   0.490   4.985
 9252SOL    HW228656   5.437   0.615   4.948
 9253SOL     OW28657   5.308   5.472   6.054
 9253SOL    HW128658   5.373   5.451   5.981
 9253SOL    HW228659   5.238   5.400   6.057
 9254SOL     OW28660   4.972   5.147   2.638
 9254SOL    HW128661   5.034   5.072   2.661
 9254SOL    HW228662   4.978   5.165   2.539
 9255SOL     OW28663   5.414   3.266   6.726
 9255SOL    HW128664   5.397   3.352   6.679
 9255SOL    HW228665   5.406   3.190   6.662
 9256SOL     OW28666   1.901   6.955   1.639
 9256SOL    HW128667   1.949   6.875   1.675
 9256SOL    HW228668   1.956   6.999   1.568
 9257SOL     OW28669   6.077   5.832   2.951
 9257SOL    HW128670   6.031   5.872   2.872
 9257SOL    HW228671   6.021   5.845   3.032
 9258SOL     OW28672   3.833   3.189   1.063
 9258SOL    HW128673   3.899   3.263   1.059
 9258SOL    HW228674   3.870   3.115   1.121
 9259SOL     OW28675   1.591   1.292   0.426
 9259SOL    HW128676   1.515   1.246   0.472
 9259SOL    HW228677   1.559   1.331   0.340
 9260SOL     OW28678   0.082   2.697   6.056
 9260SOL    HW128679   0.134   2.632   6.001
 9260SOL    HW228680   0.041   2.767   5.997
 9261SOL     OW28681   4.519   0.921   6.513
 9261SOL    HW128682   4.495   0.934   6.609
 9261SOL    HW228683   4.600   0.862   6.506
 9262SOL     OW28684   1.066   6.425   5.372
 9262SOL    HW128685   1.023   6.413   5.461
 9262SOL    HW228686   1.013   6.490   5.318
 9263SOL     OW28687   3.266   5.356   2.519
 9263SOL    HW128688   3.221   5.288   2.576
 9263SOL    HW228689   3.351   5.318   2.483
 9264SOL     OW28690   4.352   3.140   0.287
 9264SOL    HW128691   4.431   3.094   0.327
 9264SOL    HW228692   4.381   3.220   0.235
 9265SOL     OW28693   3.876   2.422   6.309
 9265SOL    HW128694   3.825   2.344   6.274
 9265SOL    HW228695   3.818   2.503   6.308
 9266SOL     OW28696   0.319   5.838   1.613
 9266SOL    HW128697   0.338   5.915   1.675
 9266SOL    HW228698   0.255   5.868   1.542
 9267SOL     OW28699   0.791   2.221   4.266
 9267SOL    HW128700   0.784   2.122   4.273
 9267SOL    HW228701   0.701   2.260   4.246
 9268SOL     OW28702   1.154   6.556   2.713
 9268SOL    HW128703   1.199   6.645   2.706
 9268SOL    HW228704   1.099   6.540   2.632
 9269SOL     OW28705   3.881   0.151   6.561
 9269SOL    HW128706   3.838   0.152   6.471
 9269SOL    HW228707   3.830   0.091   6.622
 9270SOL     OW28708   3.811   0.756   5.486
 9270SOL    HW128709   3.739   0.695   5.519
 9270SOL    HW228710   3.900   0.718   5.510
 9271SOL     OW28711   6.829   0.137   0.554
 9271SOL    HW128712   6.904   0.075   0.529
 9271SOL    HW228713   6.744   0.084   0.564
 9272SOL     OW28714   0.748   6.335   6.276
 9272SOL    HW128715   0.753   6.433   6.259
 9272SOL    HW228716   0.670   6.296   6.227
 9273SOL     OW28717   5.469   5.975   2.896
 9273SOL    HW128718   5.564   5.945   2.893
 9273SOL    HW228719   5.409   5.896   2.888
 9274SOL     OW28720   6.681   2.323   6.887
 9274SOL    HW128721   6.655   2.404   6.835
 9274SOL    HW228722   6.605   2.294   6.945
 9275SOL     OW28723   0.068   6.524   0.101
 9275SOL    HW128724   0.130   6.593   0.140
 9275SOL    HW228725   0.022   6.563   0.021
 9276SOL     OW28726   2.141   5.073   6.885
 9276SOL    HW128727   2.117   5.169   6.899
 9276SOL    HW228728   2.219   5.068   6.822
 9277SOL     OW28729   3.856   5.758   2.770
 9277SOL    HW128730   3.944   5.780   2.811
 9277SOL    HW228731   3.795   5.720   2.839
 9278SOL     OW28732   1.279   0.816   5.483
 9278SOL    HW128733   1.228   0.765   5.553
 9278SOL    HW228734   1.217   0.840   5.408
 9279SOL     OW28735   3.622   6.872   1.988
 9279SOL    HW128736   3.571   6.905   2.067
 9279SOL    HW228737   3.592   6.780   1.965
 9280SOL     OW28738   2.256   1.538   2.586
 9280SOL    HW128739   2.222   1.632   2.573
 9280SOL    HW228740   2.288   1.527   2.680
 9281SOL     OW28741   3.414   3.880   6.297
 9281SOL    HW128742   3.456   3.811   6.239
 9281SOL    HW228743   3.482   3.949   6.322
 9282SOL     OW28744   4.399   1.076   4.331
 9282SOL    HW128745   4.489   1.116   4.340
 9282SOL    HW228746   4.407   0.983   4.296
 9283SOL     OW28747   5.157   0.414   5.519
 9283SOL    HW128748   5.227   0.481   5.542
 9283SOL    HW228749   5.200   0.333   5.479
 9284SOL     OW28750   2.712   3.756   5.620
 9284SOL    HW128751   2.725   3.702   5.537
 9284SOL    HW228752   2.800   3.770   5.665
 9285SOL     OW28753   5.203   3.123   0.865
 9285SOL    HW128754   5.123   3.065   0.881
 9285SOL    HW228755   5.206   3.194   0.936
 9286SOL     OW28756   4.867   5.536   0.619
 9286SOL    HW128757   4.880   5.440   0.645
 9286SOL    HW228758   4.895   5.595   0.695
 9287SOL     OW28759   3.563   4.391   5.491
 9287SOL    HW128760   3.508   4.377   5.574
 9287SOL    HW228761   3.512   4.358   5.412
 9288SOL     OW28762   4.802   1.952   2.976
 9288SOL    HW128763   4.863   2.027   2.948
 9288SOL    HW228764   4.708   1.974   2.948
 9289SOL     OW28765   4.243   1.121   6.863
 9289SOL    HW128766   4.240   1.189   6.936
 9289SOL    HW228767   4.217   1.032   6.900
 9290SOL     OW28768   6.347   0.830   4.126
 9290SOL    HW128769   6.313   0.771   4.199
 9290SOL    HW228770   6.294   0.914   4.124
 9291SOL     OW28771   2.087   6.172   6.268
 9291SOL    HW128772   2.101   6.083   6.310
 9291SOL    HW228773   2.170   6.227   6.277
 9292SOL     OW28774   2.007   1.398   6.989
 9292SOL    HW128775   1.927   1.354   0.007
 9292SOL    HW228776   1.978   1.478   6.937
 9293SOL     OW28777   5.366   3.453   6.522
 9293SOL    HW128778   5.273   3.472   6.489
 9293SOL    HW228779   5.423   3.425   6.445
 9294SOL     OW28780   4.972   0.906   6.580
 9294SOL    HW128781   5.011   0.880   6.668
 9294SOL    HW228782   5.037   0.883   6.507
 9295SOL     OW28783   6.547   0.796   4.992
 9295SOL    HW128784   6.605   0.753   5.060
 9295SOL    HW228785   6.467   0.837   5.036
 9296SOL     OW28786   2.213   5.190   0.581
 9296SOL    HW128787   2.175   5.206   0.672
 9296SOL    HW228788   2.311   5.213   0.582
 9297SOL     OW28789   0.713   6.526   3.405
 9297SOL    HW128790   0.711   6.568   3.496
 9297SOL    HW228791   0.625   6.483   3.387
 9298SOL     OW28792   1.388   6.447   6.444
 9298SOL    HW128793   1.393   6.439   6.344
 9298SOL    HW228794   1.315   6.510   6.469
 9299SOL     OW28795   0.865   1.578   3.915
 9299SOL    HW128796   0.903   1.559   3.824
 9299SOL    HW228797   0.917   1.652   3.958
 9300SOL     OW28798   0.428   5.107   5.353
 9300SOL    HW128799   0.506   5.136   5.297
 9300SOL    HW228800   0.375   5.187   5.380
 9301SOL     OW28801   0.039   4.214   5.119
 9301SOL    HW128802   0.133   4.196   5.148
 9301SOL    HW228803   0.031   4.310   5.090
 9302SOL     OW28804   2.162   3.286   4.539
 9302SOL    HW128805   2.179   3.241   4.627
 9302SOL    HW228806   2.147   3.383   4.553
 9303SOL     OW28807   2.661   4.455   0.258
 9303SOL    HW128808   2.749   4.431   0.299
 9303SOL    HW228809   2.659   4.422   0.164
 9304SOL     OW28810   4.171   5.360   0.343
 9304SOL    HW128811   4.085   5.386   0.387
 9304SOL    HW228812   4.156   5.277   0.289
 9305SOL     OW28813   3.480   0.949   0.576
 9305SOL    HW128814   3.572   0.972   0.544
 9305SOL    HW228815   3.485   0.872   0.640
 9306SOL     OW28816   0.474   4.023   5.436
 9306SOL    HW128817   0.519   3.936   5.420
 9306SOL    HW228818   0.529   4.097   5.397
 9307SOL     OW28819   1.361   4.315   0.708
 9307SOL    HW128820   1.307   4.334   0.790
 9307SOL    HW228821   1.457   4.299   0.733
 9308SOL     OW28822   1.313   4.414   1.357
 9308SOL    HW128823   1.408   4.402   1.384
 9308SOL    HW228824   1.281   4.505   1.383
 9309SOL     OW28825   4.148   6.379   5.591
 9309SOL    HW128826   4.068   6.431   5.621
 9309SOL    HW228827   4.226   6.401   5.650
 9310SOL     OW28828   5.540   6.262   5.627
 9310SOL    HW128829   5.499   6.221   5.546
 9310SOL    HW228830   5.509   6.213   5.708
 9311SOL     OW28831   5.440   4.544   1.261
 9311SOL    HW128832   5.522   4.489   1.244
 9311SOL    HW228833   5.364   4.484   1.285
 9312SOL     OW28834   1.418   2.173   1.144
 9312SOL    HW128835   1.483   2.185   1.219
 9312SOL    HW228836   1.427   2.250   1.080
 9313SOL     OW28837   0.539   0.374   1.692
 9313SOL    HW128838   0.609   0.351   1.624
 9313SOL    HW228839   0.460   0.314   1.680
 9314SOL     OW28840   6.417   3.681   1.008
 9314SOL    HW128841   6.470   3.607   0.968
 9314SOL    HW228842   6.471   3.727   1.079
 9315SOL     OW28843   6.315   0.608   6.035
 9315SOL    HW128844   6.335   0.668   6.112
 9315SOL    HW228845   6.217   0.587   6.034
 9316SOL     OW28846   5.889   0.127   5.360
 9316SOL    HW128847   5.905   0.223   5.335
 9316SOL    HW228848   5.953   0.100   5.431
 9317SOL     OW28849   4.118   5.421   3.122
 9317SOL    HW128850   4.033   5.459   3.159
 9317SOL    HW228851   4.185   5.412   3.195
 9318SOL     OW28852   4.328   6.705   6.907
 9318SOL    HW128853   4.346   6.787   6.853
 9318SOL    HW228854   4.239   6.667   6.881
 9319SOL     OW28855   2.410   2.740   0.648
 9319SOL    HW128856   2.388   2.665   0.710
 9319SOL    HW228857   2.446   2.703   0.562
 9320SOL     OW28858   4.843   0.714   6.235
 9320SOL    HW128859   4.810   0.761   6.316
 9320SOL    HW228860   4.811   0.761   6.153
 9321SOL     OW28861   1.182   1.493   5.726
 9321SOL    HW128862   1.240   1.554   5.672
 9321SOL    HW228863   1.239   1.425   5.771
 9322SOL     OW28864   6.899   4.633   6.578
 9322SOL    HW128865   6.992   4.651   6.609
 9322SOL    HW228866   6.881   4.682   6.493
 9323SOL     OW28867   2.306   2.081   4.972
 9323SOL    HW128868   2.359   2.158   5.007
 9323SOL    HW228869   2.250   2.043   5.046
 9324SOL     OW28870   2.173   3.930   2.194
 9324SOL    HW128871   2.237   3.947   2.119
 9324SOL    HW228872   2.161   3.831   2.205
 9325SOL     OW28873   0.686   6.105   1.059
 9325SOL    HW128874   0.698   6.158   1.142
 9325SOL    HW228875   0.656   6.012   1.083
 9326SOL     OW28876   3.184   5.053   6.839
 9326SOL    HW128877   3.160   5.129   6.779
 9326SOL    HW228878   3.284   5.045   6.843
 9327SOL     OW28879   4.401   0.128   3.076
 9327SOL    HW128880   4.495   0.122   3.109
 9327SOL    HW228881   4.342   0.073   3.135
 9328SOL     OW28882   1.958   0.475   5.023
 9328SOL    HW128883   1.972   0.572   5.039
 9328SOL    HW228884   1.865   0.450   5.049
 9329SOL     OW28885   6.683   5.673   0.582
 9329SOL    HW128886   6.718   5.647   0.673
 9329SOL    HW228887   6.759   5.698   0.523
 9330SOL     OW28888   0.304   0.223   6.096
 9330SOL    HW128889   0.289   0.309   6.048
 9330SOL    HW228890   0.284   0.146   6.035
 9331SOL     OW28891   1.969   2.005   6.005
 9331SOL    HW128892   1.936   2.099   5.998
 9331SOL    HW228893   2.045   2.001   6.070
 9332SOL     OW28894   4.397   5.933   0.925
 9332SOL    HW128895   4.389   5.901   0.830
 9332SOL    HW228896   4.492   5.955   0.945
 9333SOL     OW28897   3.928   5.683   6.943
 9333SOL    HW128898   3.856   5.640   6.888
 9333SOL    HW228899   3.892   5.767   6.984
 9334SOL     OW28900   5.089   0.579   4.587
 9334SOL    HW128901   5.107   0.487   4.622
 9334SOL    HW228902   5.175   0.619   4.554
 9335SOL     OW28903   1.437   1.431   0.169
 9335SOL    HW128904   1.440   1.529   0.187
 9335SOL    HW228905   1.351   1.394   0.203
 9336SOL     OW28906   5.588   0.310   4.186
 9336SOL    HW128907   5.575   0.401   4.225
 9336SOL    HW228908   5.684   0.284   4.194
 9337SOL     OW28909   5.179   0.849   6.344
 9337SOL    HW128910   5.245   0.781   6.312
 9337SOL    HW228911   5.120   0.876   6.267
 9338SOL     OW28912   6.932   6.111   1.243
 9338SOL    HW128913   6.887   6.154   1.165
 9338SOL    HW228914   6.999   6.044   1.211
 9339SOL     OW28915   5.703   5.962   0.445
 9339SOL    HW128916   5.678   6.058   0.455
 9339SOL    HW228917   5.624   5.909   0.414
 9340SOL     OW28918   4.274   4.660   2.761
 9340SOL    HW128919   4.335   4.590   2.797
 9340SOL    HW228920   4.203   4.681   2.828
 9341SOL     OW28921   6.365   3.876   0.540
 9341SOL    HW128922   6.321   3.820   0.610
 9341SOL    HW228923   6.361   3.972   0.568
 9342SOL     OW28924   2.785   0.691   4.584
 9342SOL    HW128925   2.789   0.766   4.518
 9342SOL    HW228926   2.878   0.669   4.614
 9343SOL     OW28927   4.897   3.364   2.159
 9343SOL    HW128928   4.985   3.404   2.184
 9343SOL    HW228929   4.868   3.299   2.230
 9344SOL     OW28930   5.125   5.978   6.642
 9344SOL    HW128931   5.034   5.985   6.601
 9344SOL    HW228932   5.183   6.052   6.607
 9345SOL     OW28933   6.489   4.624   0.453
 9345SOL    HW128934   6.576   4.615   0.406
 9345SOL    HW228935   6.441   4.536   0.452
 9346SOL     OW28936   5.244   6.627   2.227
 9346SOL    HW128937   5.207   6.550   2.279
 9346SOL    HW228938   5.169   6.675   2.182
 9347SOL     OW28939   3.041   5.918   0.898
 9347SOL    HW128940   3.027   5.937   0.801
 9347SOL    HW228941   2.978   5.974   0.952
 9348SOL     OW28942   2.902   4.962   3.339
 9348SOL    HW128943   2.881   4.921   3.250
 9348SOL    HW228944   2.943   5.052   3.325
 9349SOL     OW28945   6.430   5.814   1.925
 9349SOL    HW128946   6.519   5.815   1.969
 9349SOL    HW228947   6.367   5.756   1.977
 9350SOL     OW28948   0.437   1.892   4.663
 9350SOL    HW128949   0.444   1.985   4.628
 9350SOL    HW228950   0.342   1.871   4.684
 9351SOL     OW28951   2.808   0.629   6.178
 9351SOL    HW128952   2.720   0.674   6.162
 9351SOL    HW228953   2.834   0.576   6.097
 9352SOL     OW28954   2.548   2.948   5.583
 9352SOL    HW128955   2.584   2.932   5.675
 9352SOL    HW228956   2.463   2.897   5.571
 9353SOL     OW28957   1.815   4.206   2.001
 9353SOL    HW128958   1.780   4.126   2.050
 9353SOL    HW228959   1.746   4.278   2.000
 9354SOL     OW28960   5.998   1.696   0.536
 9354SOL    HW128961   5.956   1.611   0.505
 9354SOL    HW228962   6.098   1.688   0.532
 9355SOL     OW28963   6.391   1.151   4.323
 9355SOL    HW128964   6.396   1.240   4.367
 9355SOL    HW228965   6.467   1.142   4.258
 9356SOL     OW28966   4.640   5.477   1.595
 9356SOL    HW128967   4.541   5.467   1.589
 9356SOL    HW228968   4.663   5.537   1.672
 9357SOL     OW28969   2.537   3.698   6.887
 9357SOL    HW128970   2.634   3.721   6.900
 9357SOL    HW228971   2.485   3.730   6.966
 9358SOL     OW28972   6.287   3.670   1.658
 9358SOL    HW128973   6.349   3.746   1.675
 9358SOL    HW228974   6.193   3.703   1.660
 9359SOL     OW28975   0.881   3.413   5.731
 9359SOL    HW128976   0.792   3.399   5.774
 9359SOL    HW228977   0.952   3.415   5.802
 9360SOL     OW28978   1.171   6.748   5.887
 9360SOL    HW128979   1.235   6.753   5.811
 9360SOL    HW228980   1.085   6.706   5.856
 9361SOL     OW28981   2.720   6.683   3.700
 9361SOL    HW128982   2.745   6.595   3.740
 9361SOL    HW228983   2.707   6.750   3.773
 9362SOL     OW28984   1.459   1.619   2.154
 9362SOL    HW128985   1.386   1.628   2.221
 9362SOL    HW228986   1.535   1.680   2.177
 9363SOL     OW28987   4.231   5.277   1.977
 9363SOL    HW128988   4.176   5.290   2.060
 9363SOL    HW228989   4.260   5.366   1.943
 9364SOL     OW28990   4.530   3.236   5.722
 9364SOL    HW128991   4.539   3.307   5.792
 9364SOL    HW228992   4.443   3.188   5.734
 9365SOL     OW28993   2.751   1.807   5.445
 9365SOL    HW128994   2.684   1.869   5.402
 9365SOL    HW228995   2.739   1.809   5.544
 9366SOL     OW28996   2.711   1.354   0.228
 9366SOL    HW128997   2.628   1.370   0.282
 9366SOL    HW228998   2.790   1.383   0.281
 9367SOL     OW28999   6.833   5.952   3.258
 9367SOL    HW129000   6.932   5.970   3.262
 9367SOL    HW229001   6.810   5.880   3.323
 9368SOL     OW29002   2.940   1.826   3.604
 9368SOL    HW129003   2.872   1.761   3.572
 9368SOL    HW229004   3.022   1.819   3.547
 9369SOL     OW29005   0.252   0.871   5.798
 9369SOL    HW129006   0.245   0.773   5.779
 9369SOL    HW229007   0.199   0.922   5.730
 9370SOL     OW29008   4.785   0.460   2.781
 9370SOL    HW129009   4.733   0.403   2.845
 9370SOL    HW229010   4.836   0.529   2.833
 9371SOL     OW29011   2.192   4.612   0.771
 9371SOL    HW129012   2.241   4.605   0.858
 9371SOL    HW229013   2.193   4.706   0.739
 9372SOL     OW29014   5.637   5.827   3.093
 9372SOL    HW129015   5.723   5.787   3.124
 9372SOL    HW229016   5.583   5.856   3.172
 9373SOL     OW29017   4.254   2.280   2.593
 9373SOL    HW129018   4.162   2.297   2.631
 9373SOL    HW229019   4.261   2.185   2.565
 9374SOL     OW29020   6.268   3.675   0.692
 9374SOL    HW129021   6.180   3.662   0.737
 9374SOL    HW229022   6.326   3.595   0.708
 9375SOL     OW29023   6.768   1.837   2.932
 9375SOL    HW129024   6.732   1.744   2.943
 9375SOL    HW229025   6.724   1.880   2.852
 9376SOL     OW29026   2.475   4.010   1.511
 9376SOL    HW129027   2.485   3.973   1.419
 9376SOL    HW229028   2.565   4.014   1.556
 9377SOL     OW29029   1.681   5.701   3.883
 9377SOL    HW129030   1.661   5.730   3.977
 9377SOL    HW229031   1.649   5.772   3.819
 9378SOL     OW29032   0.712   0.427   5.121
 9378SOL    HW129033   0.745   0.474   5.040
 9378SOL    HW229034   0.786   0.374   5.162
 9379SOL     OW29035   4.517   5.070   5.742
 9379SOL    HW129036   4.491   5.076   5.838
 9379SOL    HW229037   4.489   5.154   5.695
 9380SOL     OW29038   5.837   4.495   4.895
 9380SOL    HW129039   5.757   4.459   4.848
 9380SOL    HW229040   5.912   4.428   4.891
 9381SOL     OW29041   2.651   2.903   5.813
 9381SOL    HW129042   2.742   2.861   5.814
 9381SOL    HW229043   2.638   2.958   5.895
 9382SOL     OW29044   3.641   1.286   3.065
 9382SOL    HW129045   3.652   1.211   3.130
 9382SOL    HW229046   3.545   1.314   3.063
 9383SOL     OW29047   1.944   6.217   4.515
 9383SOL    HW129048   2.026   6.172   4.481
 9383SOL    HW229049   1.896   6.262   4.440
 9384SOL     OW29050   3.049   5.971   1.410
 9384SOL    HW129051   2.952   5.995   1.415
 9384SOL    HW229052   3.076   5.925   1.495
 9385SOL     OW29053   4.321   0.746   2.987
 9385SOL    HW129054   4.314   0.666   3.047
 9385SOL    HW229055   4.232   0.766   2.947
 9386SOL     OW29056   2.335   6.290   4.687
 9386SOL    HW129057   2.354   6.202   4.729
 9386SOL    HW229058   2.339   6.282   4.588
 9387SOL     OW29059   2.756   1.180   6.758
 9387SOL    HW129060   2.713   1.183   6.849
 9387SOL    HW229061   2.695   1.132   6.695
 9388SOL     OW29062   2.212   5.791   3.223
 9388SOL    HW129063   2.152   5.711   3.226
 9388SOL    HW229064   2.305   5.763   3.201
 9389SOL     OW29065   1.413   6.685   5.014
 9389SOL    HW129066   1.381   6.643   5.099
 9389SOL    HW229067   1.482   6.754   5.035
 9390SOL     OW29068   3.493   5.367   4.899
 9390SOL    HW129069   3.407   5.360   4.949
 9390SOL    HW229070   3.517   5.278   4.860
 9391SOL     OW29071   2.567   0.720   5.015
 9391SOL    HW129072   2.651   0.771   4.996
 9391SOL    HW229073   2.488   0.776   4.994
 9392SOL     OW29074   6.863   0.301   5.383
 9392SOL    HW129075   6.819   0.376   5.432
 9392SOL    HW229076   6.795   0.252   5.327
 9393SOL     OW29077   2.843   0.308   5.068
 9393SOL    HW129078   2.752   0.272   5.091
 9393SOL    HW229079   2.835   0.373   4.993
 9394SOL     OW29080   6.970   1.350   1.983
 9394SOL    HW129081   6.947   1.257   1.953
 9394SOL    HW229082   0.046   1.360   1.985
 9395SOL     OW29083   2.240   1.482   0.469
 9395SOL    HW129084   2.231   1.560   0.531
 9395SOL    HW229085   2.188   1.501   0.385
 9396SOL     OW29086   1.482   5.309   3.615
 9396SOL    HW129087   1.536   5.289   3.533
 9396SOL    HW229088   1.411   5.239   3.626
 9397SOL     OW29089   3.169   0.182   6.984
 9397SOL    HW129090   3.162   0.222   0.051
 9397SOL    HW229091   3.161   0.082   6.991
 9398SOL     OW29092   0.908   0.270   5.260
 9398SOL    HW129093   1.006   0.265   5.239
 9398SOL    HW229094   0.895   0.268   5.359
 9399SOL     OW29095   6.833   1.700   6.185
 9399SOL    HW129096   6.771   1.748   6.248
 9399SOL    HW229097   6.795   1.610   6.164
 9400SOL     OW29098   4.150   2.108   1.810
 9400SOL    HW129099   4.083   2.164   1.859
 9400SOL    HW229100   4.242   2.144   1.827
 9401SOL     OW29101   5.072   6.877   3.222
 9401SOL    HW129102   5.054   6.823   3.305
 9401SOL    HW229103   5.091   6.971   3.247
 9402SOL     OW29104   1.128   4.893   3.714
 9402SOL    HW129105   1.189   4.818   3.687
 9402SOL    HW229106   1.038   4.878   3.674
 9403SOL     OW29107   5.783   1.727   2.526
 9403SOL    HW129108   5.774   1.628   2.526
 9403SOL    HW229109   5.703   1.769   2.568
 9404SOL     OW29110   1.041   3.456   6.342
 9404SOL    HW129111   0.965   3.498   6.392
 9404SOL    HW229112   1.028   3.357   6.339
 9405SOL     OW29113   0.566   5.950   2.173
 9405SOL    HW129114   0.497   5.991   2.113
 9405SOL    HW229115   0.568   5.851   2.159
 9406SOL     OW29116   0.066   2.685   6.330
 9406SOL    HW129117   0.065   2.686   6.230
 9406SOL    HW229118   7.010   2.636   6.364
 9407SOL     OW29119   2.673   5.017   3.510
 9407SOL    HW129120   2.735   5.086   3.546
 9407SOL    HW229121   2.725   4.943   3.468
 9408SOL     OW29122   3.957   1.686   6.206
 9408SOL    HW129123   3.874   1.630   6.206
 9408SOL    HW229124   4.018   1.655   6.279
 9409SOL     OW29125   5.784   4.535   6.735
 9409SOL    HW129126   5.727   4.478   6.794
 9409SOL    HW229127   5.845   4.591   6.791
 9410SOL     OW29128   2.953   6.342   1.943
 9410SOL    HW129129   2.924   6.432   1.910
 9410SOL    HW229130   2.910   6.324   2.031
 9411SOL     OW29131   3.613   3.706   1.568
 9411SOL    HW129132   3.597   3.785   1.628
 9411SOL    HW229133   3.540   3.639   1.581
 9412SOL     OW29134   0.195   3.088   1.933
 9412SOL    HW129135   0.117   3.039   1.972
 9412SOL    HW229136   0.257   3.114   2.007
 9413SOL     OW29137   3.498   6.448   4.377
 9413SOL    HW129138   3.400   6.462   4.359
 9413SOL    HW229139   3.530   6.369   4.325
 9414SOL     OW29140   3.164   1.085   3.449
 9414SOL    HW129141   3.093   1.114   3.386
 9414SOL    HW229142   3.187   1.160   3.511
 9415SOL     OW29143   2.496   6.656   1.678
 9415SOL    HW129144   2.483   6.655   1.579
 9415SOL    HW229145   2.567   6.722   1.701
 9416SOL     OW29146   0.592   2.000   1.405
 9416SOL    HW129147   0.679   2.045   1.387
 9416SOL    HW229148   0.525   2.029   1.336
 9417SOL     OW29149   3.642   6.820   5.981
 9417SOL    HW129150   3.718   6.812   6.046
 9417SOL    HW229151   3.672   6.788   5.891
 9418SOL     OW29152   3.442   5.970   1.392
 9418SOL    HW129153   3.518   6.011   1.343
 9418SOL    HW229154   3.356   5.997   1.348
 9419SOL     OW29155   3.463   5.106   5.661
 9419SOL    HW129156   3.404   5.036   5.701
 9419SOL    HW229157   3.409   5.189   5.644
 9420SOL     OW29158   6.776   2.355   5.110
 9420SOL    HW129159   6.681   2.387   5.111
 9420SOL    HW229160   6.837   2.432   5.094
 9421SOL     OW29161   2.087   6.748   5.157
 9421SOL    HW129162   2.177   6.793   5.153
 9421SOL    HW229163   2.100   6.650   5.167
 9422SOL     OW29164   4.991   6.134   3.191
 9422SOL    HW129165   4.942   6.219   3.170
 9422SOL    HW229166   5.089   6.152   3.192
 9423SOL     OW29167   4.257   0.404   3.459
 9423SOL    HW129168   4.296   0.330   3.513
 9423SOL    HW229169   4.327   0.441   3.398
 9424SOL     OW29170   4.976   0.612   5.113
 9424SOL    HW129171   5.039   0.681   5.149
 9424SOL    HW229172   4.881   0.644   5.122
 9425SOL     OW29173   6.820   3.195   6.470
 9425SOL    HW129174   6.772   3.188   6.383
 9425SOL    HW229175   6.757   3.228   6.540
 9426SOL     OW29176   2.627   1.941   0.177
 9426SOL    HW129177   2.643   1.987   0.264
 9426SOL    HW229178   2.678   1.987   0.105
 9427SOL     OW29179   2.604   5.593   4.225
 9427SOL    HW129180   2.597   5.647   4.141
 9427SOL    HW229181   2.522   5.535   4.233
 9428SOL     OW29182   5.563   1.101   1.092
 9428SOL    HW129183   5.639   1.130   1.150
 9428SOL    HW229184   5.515   1.025   1.136
 9429SOL     OW29185   2.108   3.644   2.234
 9429SOL    HW129186   2.125   3.591   2.151
 9429SOL    HW229187   2.109   3.583   2.313
 9430SOL     OW29188   0.709   4.569   2.240
 9430SOL    HW129189   0.685   4.474   2.220
 9430SOL    HW229190   0.768   4.573   2.320
 9431SOL     OW29191   5.587   3.904   1.374
 9431SOL    HW129192   5.624   3.950   1.454
 9431SOL    HW229193   5.618   3.809   1.373
 9432SOL     OW29194   5.054   0.731   3.389
 9432SOL    HW129195   4.969   0.779   3.366
 9432SOL    HW229196   5.033   0.648   3.439
 9433SOL     OW29197   3.636   5.137   3.514
 9433SOL    HW129198   3.728   5.141   3.554
 9433SOL    HW229199   3.628   5.056   3.456
 9434SOL     OW29200   5.241   4.905   3.550
 9434SOL    HW129201   5.318   4.917   3.487
 9434SOL    HW229202   5.156   4.898   3.498
 9435SOL     OW29203   0.416   2.639   5.016
 9435SOL    HW129204   0.480   2.633   5.093
 9435SOL    HW229205   0.428   2.726   4.969
 9436SOL     OW29206   0.995   3.209   2.109
 9436SOL    HW129207   0.968   3.305   2.117
 9436SOL    HW229208   1.092   3.200   2.132
 9437SOL     OW29209   2.538   6.423   3.423
 9437SOL    HW129210   2.447   6.395   3.452
 9437SOL    HW229211   2.607   6.365   3.467
 9438SOL     OW29212   0.093   0.299   1.581
 9438SOL    HW129213   7.023   0.289   1.615
 9438SOL    HW229214   0.099   0.383   1.526
 9439SOL     OW29215   0.335   3.357   1.824
 9439SOL    HW129216   0.261   3.312   1.874
 9439SOL    HW229217   0.359   3.302   1.744
 9440SOL     OW29218   4.183   5.083   4.146
 9440SOL    HW129219   4.137   5.161   4.187
 9440SOL    HW229220   4.125   5.002   4.153
 9441SOL     OW29221   1.355   3.664   5.459
 9441SOL    HW129222   1.442   3.638   5.501
 9441SOL    HW229223   1.357   3.761   5.435
 9442SOL     OW29224   4.598   3.369   0.404
 9442SOL    HW129225   4.512   3.393   0.447
 9442SOL    HW229226   4.624   3.441   0.339
 9443SOL     OW29227   2.616   5.008   1.439
 9443SOL    HW129228   2.611   4.913   1.408
 9443SOL    HW229229   2.537   5.059   1.405
 9444SOL     OW29230   1.112   4.093   6.833
 9444SOL    HW129231   1.207   4.089   6.804
 9444SOL    HW229232   1.065   4.010   6.804
 9445SOL     OW29233   5.834   3.595   2.992
 9445SOL    HW129234   5.921   3.596   3.042
 9445SOL    HW229235   5.776   3.523   3.029
 9446SOL     OW29236   6.538   6.433   4.225
 9446SOL    HW129237   6.442   6.420   4.199
 9446SOL    HW229238   6.582   6.497   4.162
 9447SOL     OW29239   6.196   3.261   4.139
 9447SOL    HW129240   6.160   3.276   4.047
 9447SOL    HW229241   6.198   3.348   4.189
 9448SOL     OW29242   0.037   6.569   6.523
 9448SOL    HW129243   0.070   6.498   6.585
 9448SOL    HW229244   0.099   6.647   6.526
 9449SOL     OW29245   6.662   5.935   6.993
 9449SOL    HW129246   6.711   5.974   6.915
 9449SOL    HW229247   6.573   5.902   6.963
 9450SOL     OW29248   3.108   5.899   5.131
 9450SOL    HW129249   3.063   5.851   5.056
 9450SOL    HW229250   3.040   5.941   5.190
 9451SOL     OW29251   3.999   6.785   6.023
 9451SOL    HW129252   4.022   6.867   5.970
 9451SOL    HW229253   4.043   6.705   5.981
 9452SOL     OW29254   1.411   3.972   0.349
 9452SOL    HW129255   1.351   3.908   0.398
 9452SOL    HW229256   1.402   4.063   0.389
 9453SOL     OW29257   1.967   5.116   3.211
 9453SOL    HW129258   1.960   5.153   3.304
 9453SOL    HW229259   1.908   5.036   3.202
 9454SOL     OW29260   2.263   3.614   6.852
 9454SOL    HW129261   2.198   3.663   6.794
 9454SOL    HW229262   2.347   3.667   6.860
 9455SOL     OW29263   3.797   1.682   2.655
 9455SOL    HW129264   3.735   1.727   2.719
 9455SOL    HW229265   3.849   1.752   2.605
 9456SOL     OW29266   0.523   3.536   1.104
 9456SOL    HW129267   0.458   3.482   1.051
 9456SOL    HW229268   0.489   3.630   1.113
 9457SOL     OW29269   2.163   3.701   4.940
 9457SOL    HW129270   2.148   3.704   4.842
 9457SOL    HW229271   2.212   3.783   4.969
 9458SOL     OW29272   1.561   3.376   0.358
 9458SOL    HW129273   1.508   3.360   0.275
 9458SOL    HW229274   1.530   3.314   0.430
 9459SOL     OW29275   5.024   4.748   2.735
 9459SOL    HW129276   5.094   4.715   2.797
 9459SOL    HW229277   4.959   4.674   2.715
 9460SOL     OW29278   0.537   2.762   3.950
 9460SOL    HW129279   0.553   2.707   4.032
 9460SOL    HW229280   0.529   2.858   3.976
 9461SOL     OW29281   6.467   1.748   2.559
 9461SOL    HW129282   6.486   1.656   2.525
 9461SOL    HW229283   6.447   1.809   2.482
 9462SOL     OW29284   2.172   3.866   2.593
 9462SOL    HW129285   2.174   3.766   2.584
 9462SOL    HW229286   2.260   3.904   2.568
 9463SOL     OW29287   0.271   0.935   1.432
 9463SOL    HW129288   0.190   0.939   1.490
 9463SOL    HW229289   0.264   0.857   1.370
 9464SOL     OW29290   5.641   0.019   1.094
 9464SOL    HW129291   5.569   0.077   1.133
 9464SOL    HW229292   5.606   6.951   1.077
 9465SOL     OW29293   1.540   5.248   3.339
 9465SOL    HW129294   1.501   5.333   3.304
 9465SOL    HW229295   1.468   5.179   3.346
 9466SOL     OW29296   4.490   4.810   5.597
 9466SOL    HW129297   4.458   4.813   5.502
 9466SOL    HW229298   4.476   4.899   5.639
 9467SOL     OW29299   0.921   2.789   1.604
 9467SOL    HW129300   0.857   2.860   1.633
 9467SOL    HW229301   0.871   2.705   1.583
 9468SOL     OW29302   6.235   2.499   6.129
 9468SOL    HW129303   6.308   2.497   6.061
 9468SOL    HW229304   6.156   2.548   6.092
 9469SOL     OW29305   6.049   6.348   1.444
 9469SOL    HW129306   5.994   6.287   1.502
 9469SOL    HW229307   6.109   6.402   1.502
 9470SOL     OW29308   4.324   4.196   5.400
 9470SOL    HW129309   4.348   4.100   5.386
 9470SOL    HW229310   4.247   4.220   5.341
 9471SOL     OW29311   6.639   1.235   4.570
 9471SOL    HW129312   6.553   1.209   4.615
 9471SOL    HW229313   6.714   1.183   4.611
 9472SOL     OW29314   6.006   3.138   4.299
 9472SOL    HW129315   5.980   3.187   4.382
 9472SOL    HW229316   6.073   3.191   4.248
 9473SOL     OW29317   2.923   5.372   5.237
 9473SOL    HW129318   2.923   5.289   5.182
 9473SOL    HW229319   2.848   5.369   5.303
 9474SOL     OW29320   6.874   3.207   0.497
 9474SOL    HW129321   6.966   3.200   0.535
 9474SOL    HW229322   6.881   3.232   0.400
 9475SOL     OW29323   2.929   3.498   6.900
 9475SOL    HW129324   2.972   3.429   6.959
 9475SOL    HW229325   2.909   3.458   6.811
 9476SOL     OW29326   2.906   3.751   5.203
 9476SOL    HW129327   2.920   3.658   5.168
 9476SOL    HW229328   2.877   3.811   5.129
 9477SOL     OW29329   0.546   4.058   2.171
 9477SOL    HW129330   0.579   4.062   2.077
 9477SOL    HW229331   0.556   3.965   2.207
 9478SOL     OW29332   5.493   3.372   6.285
 9478SOL    HW129333   5.502   3.341   6.190
 9478SOL    HW229334   5.582   3.370   6.330
 9479SOL     OW29335   4.539   6.539   6.871
 9479SOL    HW129336   4.514   6.493   6.786
 9479SOL    HW229337   4.466   6.603   6.897
 9480SOL     OW29338   5.113   3.513   0.856
 9480SOL    HW129339   5.097   3.439   0.921
 9480SOL    HW229340   5.146   3.594   0.906
 9481SOL     OW29341   5.257   3.271   2.394
 9481SOL    HW129342   5.163   3.243   2.414
 9481SOL    HW229343   5.288   3.225   2.311
 9482SOL     OW29344   6.830   1.028   3.348
 9482SOL    HW129345   6.780   0.942   3.365
 9482SOL    HW229346   6.819   1.054   3.252
 9483SOL     OW29347   0.796   1.498   1.870
 9483SOL    HW129348   0.835   1.480   1.779
 9483SOL    HW229349   0.747   1.417   1.901
 9484SOL     OW29350   4.139   1.059   3.569
 9484SOL    HW129351   4.134   0.998   3.489
 9484SOL    HW229352   4.120   1.006   3.652
 9485SOL     OW29353   0.824   0.146   1.875
 9485SOL    HW129354   0.879   0.064   1.859
 9485SOL    HW229355   0.736   0.137   1.827
 9486SOL     OW29356   2.668   6.021   1.167
 9486SOL    HW129357   2.708   5.932   1.145
 9486SOL    HW229358   2.597   6.043   1.100
 9487SOL     OW29359   2.871   3.454   3.213
 9487SOL    HW129360   2.795   3.414   3.161
 9487SOL    HW229361   2.919   3.520   3.156
 9488SOL     OW29362   1.334   6.446   0.786
 9488SOL    HW129363   1.408   6.379   0.793
 9488SOL    HW229364   1.366   6.524   0.732
 9489SOL     OW29365   4.214   4.105   1.395
 9489SOL    HW129366   4.222   4.012   1.360
 9489SOL    HW229367   4.300   4.154   1.379
 9490SOL     OW29368   6.546   5.578   1.113
 9490SOL    HW129369   6.621   5.512   1.109
 9490SOL    HW229370   6.577   5.661   1.159
 9491SOL     OW29371   6.857   3.765   3.823
 9491SOL    HW129372   6.829   3.848   3.774
 9491SOL    HW229373   6.834   3.685   3.769
 9492SOL     OW29374   3.416   2.870   3.137
 9492SOL    HW129375   3.506   2.876   3.180
 9492SOL    HW229376   3.347   2.909   3.199
 9493SOL     OW29377   3.869   5.320   3.802
 9493SOL    HW129378   3.888   5.261   3.723
 9493SOL    HW229379   3.794   5.280   3.855
 9494SOL     OW29380   4.643   4.748   1.913
 9494SOL    HW129381   4.633   4.663   1.861
 9494SOL    HW229382   4.576   4.815   1.880
 9495SOL     OW29383   6.734   1.891   3.651
 9495SOL    HW129384   6.749   1.988   3.636
 9495SOL    HW229385   6.694   1.849   3.569
 9496SOL     OW29386   5.697   4.873   1.172
 9496SOL    HW129387   5.754   4.861   1.090
 9496SOL    HW229388   5.611   4.916   1.147
 9497SOL     OW29389   6.190   5.557   6.600
 9497SOL    HW129390   6.151   5.530   6.512
 9497SOL    HW229391   6.123   5.545   6.672
 9498SOL     OW29392   5.473   6.984   4.776
 9498SOL    HW129393   5.437   0.026   4.842
 9498SOL    HW229394   5.474   0.003   4.685
 9499SOL     OW29395   1.869   5.065   6.663
 9499SOL    HW129396   1.789   5.015   6.628
 9499SOL    HW229397   1.901   5.129   6.593
 9500SOL     OW29398   5.128   0.381   0.983
 9500SOL    HW129399   5.164   0.473   0.968
 9500SOL    HW229400   5.086   0.347   0.898
 9501SOL     OW29401   2.799   1.553   5.270
 9501SOL    HW129402   2.827   1.620   5.339
 9501SOL    HW229403   2.868   1.481   5.264
 9502SOL     OW29404   7.010   2.225   5.023
 9502SOL    HW129405   6.945   2.257   5.092
 9502SOL    HW229406   0.079   2.228   5.061
 9503SOL     OW29407   0.247   1.585   1.080
 9503SOL    HW129408   0.318   1.538   1.133
 9503SOL    HW229409   0.270   1.682   1.071
 9504SOL     OW29410   6.886   2.149   0.769
 9504SOL    HW129411   6.816   2.079   0.787
 9504SOL    HW229412   6.970   2.125   0.818
 9505SOL     OW29413   5.424   4.947   3.311
 9505SOL    HW129414   5.371   5.015   3.260
 9505SOL    HW229415   5.432   4.863   3.256
 9506SOL     OW29416   0.313   2.683   6.817
 9506SOL    HW129417   0.291   2.672   6.721
 9506SOL    HW229418   0.397   2.736   6.827
 9507SOL     OW29419   0.857   1.786   3.093
 9507SOL    HW129420   0.827   1.693   3.070
 9507SOL    HW229421   0.924   1.782   3.166
 9508SOL     OW29422   6.508   3.881   0.816
 9508SOL    HW129423   6.509   3.964   0.870
 9508SOL    HW229424   6.471   3.806   0.871
 9509SOL     OW29425   0.330   0.799   4.934
 9509SOL    HW129426   0.363   0.714   4.975
 9509SOL    HW229427   0.357   0.876   4.991
 9510SOL     OW29428   1.266   3.724   2.459
 9510SOL    HW129429   1.190   3.675   2.502
 9510SOL    HW229430   1.340   3.734   2.525
 9511SOL     OW29431   0.443   1.434   0.214
 9511SOL    HW129432   0.447   1.500   0.289
 9511SOL    HW229433   0.367   1.457   0.153
 9512SOL     OW29434   5.313   1.313   1.472
 9512SOL    HW129435   5.380   1.386   1.467
 9512SOL    HW229436   5.223   1.348   1.448
 9513SOL     OW29437   1.521   3.424   5.873
 9513SOL    HW129438   1.441   3.393   5.821
 9513SOL    HW229439   1.492   3.453   5.964
 9514SOL     OW29440   2.166   4.603   6.804
 9514SOL    HW129441   2.261   4.633   6.797
 9514SOL    HW229442   2.110   4.653   6.738
 9515SOL     OW29443   1.430   6.385   1.444
 9515SOL    HW129444   1.529   6.374   1.451
 9515SOL    HW229445   1.404   6.475   1.479
 9516SOL     OW29446   5.709   3.576   5.088
 9516SOL    HW129447   5.705   3.676   5.084
 9516SOL    HW229448   5.622   3.537   5.058
 9517SOL     OW29449   0.604   4.577   1.184
 9517SOL    HW129450   0.670   4.543   1.251
 9517SOL    HW229451   0.646   4.650   1.130
 9518SOL     OW29452   0.689   1.800   0.189
 9518SOL    HW129453   0.681   1.898   0.204
 9518SOL    HW229454   0.735   1.758   0.267
 9519SOL     OW29455   3.458   4.172   4.187
 9519SOL    HW129456   3.422   4.261   4.157
 9519SOL    HW229457   3.453   4.107   4.111
 9520SOL     OW29458   0.741   1.590   3.325
 9520SOL    HW129459   0.676   1.665   3.316
 9520SOL    HW229460   0.720   1.536   3.407
 9521SOL     OW29461   4.270   5.117   1.378
 9521SOL    HW129462   4.202   5.179   1.418
 9521SOL    HW229463   4.238   5.086   1.289
 9522SOL     OW29464   4.043   5.335   1.483
 9522SOL    HW129465   3.968   5.386   1.527
 9522SOL    HW229466   4.084   5.392   1.412
 9523SOL     OW29467   2.377   5.430   4.641
 9523SOL    HW129468   2.390   5.518   4.596
 9523SOL    HW229469   2.279   5.409   4.645
 9524SOL     OW29470   2.741   2.980   0.818
 9524SOL    HW129471   2.713   2.922   0.741
 9524SOL    HW229472   2.841   2.973   0.830
 9525SOL     OW29473   2.629   2.002   5.730
 9525SOL    HW129474   2.657   1.906   5.724
 9525SOL    HW229475   2.547   2.016   5.676
 9526SOL     OW29476   5.297   4.700   1.030
 9526SOL    HW129477   5.362   4.728   0.960
 9526SOL    HW229478   5.347   4.666   1.110
 9527SOL     OW29479   0.679   0.544   4.360
 9527SOL    HW129480   0.628   0.628   4.343
 9527SOL    HW229481   0.761   0.566   4.414
 9528SOL     OW29482   6.695   1.629   0.987
 9528SOL    HW129483   6.627   1.690   1.028
 9528SOL    HW229484   6.770   1.684   0.949
 9529SOL     OW29485   6.413   3.291   6.310
 9529SOL    HW129486   6.463   3.204   6.308
 9529SOL    HW229487   6.466   3.361   6.262
 9530SOL     OW29488   1.849   2.733   3.344
 9530SOL    HW129489   1.898   2.820   3.345
 9530SOL    HW229490   1.913   2.657   3.353
 9531SOL     OW29491   4.814   4.581   2.342
 9531SOL    HW129492   4.757   4.513   2.296
 9531SOL    HW229493   4.902   4.538   2.367
 9532SOL     OW29494   0.178   5.920   1.391
 9532SOL    HW129495   0.155   6.016   1.400
 9532SOL    HW229496   0.100   5.870   1.353
 9533SOL     OW29497   0.107   5.702   4.941
 9533SOL    HW129498   0.086   5.706   5.039
 9533SOL    HW229499   0.022   5.702   4.889
 9534SOL     OW29500   6.962   4.028   5.294
 9534SOL    HW129501   6.897   3.963   5.255
 9534SOL    HW229502   6.989   4.094   5.225
 9535SOL     OW29503   1.757   0.487   5.706
 9535SOL    HW129504   1.731   0.470   5.611
 9535SOL    HW229505   1.677   0.475   5.766
 9536SOL     OW29506   3.118   3.898   5.588
 9536SOL    HW129507   3.084   3.925   5.498
 9536SOL    HW229508   3.101   3.971   5.653
 9537SOL     OW29509   2.867   0.350   4.260
 9537SOL    HW129510   2.879   0.257   4.225
 9537SOL    HW229511   2.878   0.415   4.185
 9538SOL     OW29512   5.937   0.794   3.567
 9538SOL    HW129513   5.844   0.769   3.541
 9538SOL    HW229514   5.937   0.827   3.662
 9539SOL     OW29515   3.670   3.887   4.345
 9539SOL    HW129516   3.613   3.863   4.423
 9539SOL    HW229517   3.658   3.983   4.323
 9540SOL     OW29518   5.892   4.595   4.428
 9540SOL    HW129519   5.814   4.585   4.490
 9540SOL    HW229520   5.971   4.628   4.479
 9541SOL     OW29521   3.181   0.575   5.845
 9541SOL    HW129522   3.115   0.644   5.814
 9541SOL    HW229523   3.269   0.590   5.799
 9542SOL     OW29524   4.887   4.327   4.732
 9542SOL    HW129525   4.881   4.300   4.828
 9542SOL    HW229526   4.941   4.260   4.681
 9543SOL     OW29527   3.585   0.769   5.761
 9543SOL    HW129528   3.602   0.868   5.755
 9543SOL    HW229529   3.517   0.751   5.832
 9544SOL     OW29530   6.789   2.150   3.640
 9544SOL    HW129531   6.737   2.218   3.588
 9544SOL    HW229532   6.830   2.195   3.720
 9545SOL     OW29533   5.561   6.165   4.338
 9545SOL    HW129534   5.503   6.084   4.344
 9545SOL    HW229535   5.654   6.142   4.368
 9546SOL     OW29536   4.279   2.084   5.215
 9546SOL    HW129537   4.315   2.048   5.129
 9546SOL    HW229538   4.338   2.054   5.291
 9547SOL     OW29539   2.669   5.028   4.428
 9547SOL    HW129540   2.746   4.998   4.372
 9547SOL    HW229541   2.689   5.010   4.524
 9548SOL     OW29542   5.906   4.319   5.810
 9548SOL    HW129543   5.827   4.260   5.792
 9548SOL    HW229544   5.983   4.292   5.753
 9549SOL     OW29545   2.566   2.801   1.526
 9549SOL    HW129546   2.549   2.891   1.487
 9549SOL    HW229547   2.635   2.753   1.471
 9550SOL     OW29548   6.883   1.206   0.329
 9550SOL    HW129549   6.835   1.242   0.409
 9550SOL    HW229550   6.978   1.238   0.330
 9551SOL     OW29551   5.692   1.877   5.663
 9551SOL    HW129552   5.640   1.961   5.652
 9551SOL    HW229553   5.714   1.840   5.573
 9552SOL     OW29554   1.497   6.849   4.249
 9552SOL    HW129555   1.595   6.855   4.266
 9552SOL    HW229556   1.481   6.790   4.170
 9553SOL     OW29557   5.909   2.207   0.156
 9553SOL    HW129558   5.893   2.282   0.220
 9553SOL    HW229559   6.007   2.198   0.140
 9554SOL     OW29560   2.677   6.852   1.741
 9554SOL    HW129561   2.776   6.840   1.743
 9554SOL    HW229562   2.655   6.946   1.715
 9555SOL     OW29563   0.737   0.807   2.820
 9555SOL    HW129564   0.710   0.734   2.759
 9555SOL    HW229565   0.807   0.774   2.883
 9556SOL     OW29566   1.911   3.896   1.588
 9556SOL    HW129567   1.988   3.890   1.652
 9556SOL    HW229568   1.881   3.991   1.581
 9557SOL     OW29569   6.899   5.661   1.988
 9557SOL    HW129570   6.970   5.704   1.932
 9557SOL    HW229571   6.928   5.660   2.084
 9558SOL     OW29572   5.997   6.366   5.381
 9558SOL    HW129573   5.922   6.376   5.447
 9558SOL    HW229574   6.038   6.455   5.364
 9559SOL     OW29575   0.218   5.010   1.290
 9559SOL    HW129576   0.174   5.005   1.380
 9559SOL    HW229577   0.317   5.002   1.301
 9560SOL     OW29578   1.921   1.763   3.075
 9560SOL    HW129579   1.961   1.837   3.129
 9560SOL    HW229580   1.882   1.695   3.136
 9561SOL     OW29581   2.011   0.304   0.605
 9561SOL    HW129582   1.915   0.290   0.581
 9561SOL    HW229583   2.041   0.394   0.571
 9562SOL     OW29584   2.742   0.580   5.414
 9562SOL    HW129585   2.701   0.535   5.335
 9562SOL    HW229586   2.671   0.623   5.470
 9563SOL     OW29587   6.932   6.248   0.664
 9563SOL    HW129588   6.836   6.241   0.691
 9563SOL    HW229589   6.939   6.243   0.564
 9564SOL     OW29590   2.957   0.294   0.589
 9564SOL    HW129591   3.025   0.260   0.524
 9564SOL    HW229592   2.913   0.217   0.635
 9565SOL     OW29593   3.644   0.577   4.712
 9565SOL    HW129594   3.660   0.509   4.641
 9565SOL    HW229595   3.601   0.534   4.791
 9566SOL     OW29596   2.190   4.625   0.054
 9566SOL    HW129597   2.262   4.585   0.111
 9566SOL    HW229598   2.215   4.616   6.982
 9567SOL     OW29599   4.689   4.934   1.092
 9567SOL    HW129600   4.637   4.848   1.096
 9567SOL    HW229601   4.668   4.989   1.173
 9568SOL     OW29602   4.123   2.337   6.224
 9568SOL    HW129603   4.157   2.340   6.318
 9568SOL    HW229604   4.033   2.380   6.220
 9569SOL     OW29605   6.808   1.395   2.242
 9569SOL    HW129606   6.888   1.349   2.203
 9569SOL    HW229607   6.805   1.490   2.210
 9570SOL     OW29608   0.877   3.435   2.153
 9570SOL    HW129609   0.840   3.420   2.244
 9570SOL    HW229610   0.922   3.523   2.148
 9571SOL     OW29611   3.613   4.119   5.976
 9571SOL    HW129612   3.523   4.136   6.016
 9571SOL    HW229613   3.656   4.206   5.952
 9572SOL     OW29614   2.399   5.251   2.015
 9572SOL    HW129615   2.345   5.167   2.017
 9572SOL    HW229616   2.350   5.325   2.061
 9573SOL     OW29617   0.511   2.864   6.851
 9573SOL    HW129618   0.527   2.963   6.845
 9573SOL    HW229619   0.539   2.831   6.941
 9574SOL     OW29620   4.180   3.445   3.319
 9574SOL    HW129621   4.131   3.379   3.375
 9574SOL    HW229622   4.279   3.434   3.333
 9575SOL     OW29623   0.565   1.071   1.117
 9575SOL    HW129624   0.560   1.042   1.021
 9575SOL    HW229625   0.607   1.161   1.122
 9576SOL     OW29626   1.888   0.655   1.783
 9576SOL    HW129627   1.824   0.656   1.707
 9576SOL    HW229628   1.872   0.573   1.839
 9577SOL     OW29629   1.109   0.675   5.995
 9577SOL    HW129630   1.094   0.719   6.084
 9577SOL    HW229631   1.094   0.576   6.005
 9578SOL     OW29632   0.242   4.040   3.452
 9578SOL    HW129633   0.342   4.046   3.457
 9578SOL    HW229634   0.217   3.978   3.378
 9579SOL     OW29635   1.655   4.927   2.400
 9579SOL    HW129636   1.619   4.838   2.428
 9579SOL    HW229637   1.643   4.993   2.473
 9580SOL     OW29638   4.721   3.448   0.677
 9580SOL    HW129639   4.666   3.411   0.601
 9580SOL    HW229640   4.816   3.457   0.647
 9581SOL     OW29641   0.497   4.938   5.852
 9581SOL    HW129642   0.474   4.882   5.931
 9581SOL    HW229643   0.581   4.990   5.871
 9582SOL     OW29644   4.794   5.398   6.300
 9582SOL    HW129645   4.868   5.431   6.357
 9582SOL    HW229646   4.821   5.312   6.257
 9583SOL     OW29647   3.653   3.966   1.097
 9583SOL    HW129648   3.644   3.878   1.051
 9583SOL    HW229649   3.736   4.012   1.064
 9584SOL     OW29650   6.819   5.503   0.032
 9584SOL    HW129651   6.912   5.466   0.027
 9584SOL    HW229652   6.759   5.448   6.997
 9585SOL     OW29653   0.002   0.194   4.252
 9585SOL    HW129654   7.013   0.210   4.154
 9585SOL    HW229655   6.958   0.128   4.284
 9586SOL     OW29656   5.599   4.731   2.160
 9586SOL    HW129657   5.578   4.682   2.245
 9586SOL    HW229658   5.660   4.807   2.180
 9587SOL     OW29659   0.274   0.799   1.786
 9587SOL    HW129660   0.211   0.830   1.716
 9587SOL    HW229661   0.248   0.707   1.817
 9588SOL     OW29662   6.397   1.582   1.402
 9588SOL    HW129663   6.461   1.530   1.345
 9588SOL    HW229664   6.323   1.618   1.344
 9589SOL     OW29665   2.140   4.833   6.353
 9589SOL    HW129666   2.148   4.930   6.375
 9589SOL    HW229667   2.210   4.809   6.285
 9590SOL     OW29668   6.524   3.166   2.095
 9590SOL    HW129669   6.490   3.076   2.121
 9590SOL    HW229670   6.613   3.156   2.050
 9591SOL     OW29671   3.272   6.221   6.355
 9591SOL    HW129672   3.289   6.187   6.448
 9591SOL    HW229673   3.195   6.284   6.357
 9592SOL     OW29674   3.910   4.043   1.118
 9592SOL    HW129675   3.947   3.977   1.184
 9592SOL    HW229676   3.984   4.075   1.058
 9593SOL     OW29677   0.300   1.186   5.396
 9593SOL    HW129678   0.379   1.131   5.370
 9593SOL    HW229679   0.232   1.127   5.440
 9594SOL     OW29680   1.677   5.820   2.643
 9594SOL    HW129681   1.743   5.851   2.574
 9594SOL    HW229682   1.721   5.820   2.733
 9595SOL     OW29683   0.633   4.300   5.350
 9595SOL    HW129684   0.689   4.283   5.268
 9595SOL    HW229685   0.694   4.316   5.428
 9596SOL     OW29686   6.751   5.638   6.718
 9596SOL    HW129687   6.759   5.710   6.649
 9596SOL    HW229688   6.708   5.557   6.677
 9597SOL     OW29689   0.799   4.454   1.375
 9597SOL    HW129690   0.787   4.501   1.463
 9597SOL    HW229691   0.749   4.368   1.376
 9598SOL     OW29692   1.399   3.345   4.011
 9598SOL    HW129693   1.369   3.261   4.055
 9598SOL    HW229694   1.421   3.414   4.080
 9599SOL     OW29695   4.344   6.976   5.015
 9599SOL    HW129696   4.437   7.008   4.998
 9599SOL    HW229697   4.279   0.009   4.964
 9600SOL     OW29698   1.934   0.615   6.750
 9600SOL    HW129699   1.999   0.555   6.797
 9600SOL    HW229700   1.982   0.670   6.682
 9601SOL     OW29701   5.326   4.123   1.372
 9601SOL    HW129702   5.384   4.048   1.341
 9601SOL    HW229703   5.359   4.157   1.460
 9602SOL     OW29704   6.727   5.185   6.395
 9602SOL    HW129705   6.800   5.120   6.375
 9602SOL    HW229706   6.687   5.218   6.309
 9603SOL     OW29707   4.003   1.652   3.896
 9603SOL    HW129708   4.023   1.666   3.993
 9603SOL    HW229709   3.956   1.733   3.860
 9604SOL     OW29710   4.150   0.148   6.915
 9604SOL    HW129711   4.239   0.108   6.894
 9604SOL    HW229712   4.144   0.239   6.873
 9605SOL     OW29713   0.763   5.497   3.499
 9605SOL    HW129714   0.718   5.526   3.415
 9605SOL    HW229715   0.862   5.497   3.487
 9606SOL     OW29716   2.085   6.532   6.130
 9606SOL    HW129717   2.017   6.515   6.202
 9606SOL    HW229718   2.146   6.453   6.123
 9607SOL     OW29719   1.485   1.856   0.590
 9607SOL    HW129720   1.551   1.838   0.662
 9607SOL    HW229721   1.494   1.950   0.559
 9608SOL     OW29722   6.667   6.062   2.428
 9608SOL    HW129723   6.726   6.061   2.509
 9608SOL    HW229724   6.579   6.104   2.451
 9609SOL     OW29725   1.754   3.980   6.513
 9609SOL    HW129726   1.845   3.952   6.544
 9609SOL    HW229727   1.685   3.926   6.561
 9610SOL     OW29728   1.650   4.902   4.070
 9610SOL    HW129729   1.609   4.949   3.992
 9610SOL    HW229730   1.692   4.970   4.131
 9611SOL     OW29731   0.137   6.364   6.757
 9611SOL    HW129732   0.229   6.400   6.740
 9611SOL    HW229733   0.117   6.367   6.855
 9612SOL     OW29734   0.941   3.968   1.818
 9612SOL    HW129735   0.982   3.889   1.773
 9612SOL    HW229736   0.979   3.978   1.910
 9613SOL     OW29737   4.857   6.359   3.106
 9613SOL    HW129738   4.773   6.368   3.160
 9613SOL    HW229739   4.845   6.405   3.018
 9614SOL     OW29740   3.229   2.174   0.327
 9614SOL    HW129741   3.238   2.247   0.395
 9614SOL    HW229742   3.214   2.214   0.237
 9615SOL     OW29743   0.679   0.191   0.828
 9615SOL    HW129744   0.656   0.118   0.892
 9615SOL    HW229745   0.779   0.198   0.821
 9616SOL     OW29746   4.463   3.295   1.375
 9616SOL    HW129747   4.404   3.326   1.300
 9616SOL    HW229748   4.450   3.354   1.454
 9617SOL     OW29749   2.285   2.811   3.851
 9617SOL    HW129750   2.281   2.909   3.870
 9617SOL    HW229751   2.200   2.768   3.881
 9618SOL     OW29752   3.692   6.953   5.652
 9618SOL    HW129753   3.629   6.922   5.581
 9618SOL    HW229754   3.751   6.877   5.680
 9619SOL     OW29755   1.178   6.687   0.035
 9619SOL    HW129756   1.126   6.771   0.050
 9619SOL    HW229757   1.135   6.611   0.084
 9620SOL     OW29758   4.250   2.329   6.574
 9620SOL    HW129759   4.286   2.288   6.658
 9620SOL    HW229760   4.282   2.424   6.568
 9621SOL     OW29761   0.749   0.896   2.210
 9621SOL    HW129762   0.650   0.911   2.212
 9621SOL    HW229763   0.794   0.966   2.264
 9622SOL     OW29764   6.660   0.742   0.255
 9622SOL    HW129765   6.586   0.708   0.314
 9622SOL    HW229766   6.626   0.752   0.161
 9623SOL     OW29767   3.201   4.732   5.673
 9623SOL    HW129768   3.165   4.821   5.704
 9623SOL    HW229769   3.179   4.719   5.577
 9624SOL     OW29770   6.339   4.590   2.919
 9624SOL    HW129771   6.294   4.537   2.990
 9624SOL    HW229772   6.323   4.548   2.830
 9625SOL     OW29773   4.887   5.477   0.361
 9625SOL    HW129774   4.950   5.400   0.364
 9625SOL    HW229775   4.884   5.522   0.450
 9626SOL     OW29776   2.694   6.444   6.766
 9626SOL    HW129777   2.694   6.351   6.728
 9626SOL    HW229778   2.771   6.495   6.730
 9627SOL     OW29779   0.137   4.685   2.965
 9627SOL    HW129780   0.063   4.618   2.973
 9627SOL    HW229781   0.161   4.719   3.055
 9628SOL     OW29782   5.857   4.911   6.822
 9628SOL    HW129783   5.781   4.942   6.765
 9628SOL    HW229784   5.912   4.989   6.851
 9629SOL     OW29785   0.454   6.383   3.071
 9629SOL    HW129786   0.485   6.303   3.019
 9629SOL    HW229787   0.522   6.456   3.063
 9630SOL     OW29788   6.310   6.411   5.623
 9630SOL    HW129789   6.357   6.390   5.709
 9630SOL    HW229790   6.268   6.502   5.630
 9631SOL     OW29791   5.990   0.488   0.050
 9631SOL    HW129792   6.058   0.416   0.041
 9631SOL    HW229793   5.926   0.482   6.996
 9632SOL     OW29794   2.329   5.484   3.060
 9632SOL    HW129795   2.292   5.442   2.977
 9632SOL    HW229796   2.267   5.468   3.136
 9633SOL     OW29797   4.871   4.981   6.904
 9633SOL    HW129798   4.890   5.079   6.897
 9633SOL    HW229799   4.948   4.930   6.865
 9634SOL     OW29800   0.980   6.809   4.763
 9634SOL    HW129801   0.984   6.754   4.680
 9634SOL    HW229802   0.890   6.853   4.770
 9635SOL     OW29803   1.328   4.508   5.630
 9635SOL    HW129804   1.291   4.474   5.544
 9635SOL    HW229805   1.377   4.434   5.677
 9636SOL     OW29806   4.186   1.544   5.894
 9636SOL    HW129807   4.156   1.462   5.845
 9636SOL    HW229808   4.111   1.609   5.898
 9637SOL     OW29809   2.406   2.072   0.097
 9637SOL    HW129810   2.312   2.064   0.132
 9637SOL    HW229811   2.466   2.012   0.149
 9638SOL     OW29812   6.906   3.258   0.218
 9638SOL    HW129813   6.863   3.333   0.169
 9638SOL    HW229814   7.005   3.260   0.203
 9639SOL     OW29815   4.542   1.554   2.241
 9639SOL    HW129816   4.460   1.517   2.284
 9639SOL    HW229817   4.574   1.491   2.170
 9640SOL     OW29818   3.127   1.751   3.191
 9640SOL    HW129819   3.206   1.768   3.132
 9640SOL    HW229820   3.074   1.674   3.154
 9641SOL     OW29821   5.357   6.282   0.857
 9641SOL    HW129822   5.308   6.340   0.792
 9641SOL    HW229823   5.455   6.296   0.846
 9642SOL     OW29824   2.585   6.058   4.382
 9642SOL    HW129825   2.576   6.156   4.365
 9642SOL    HW229826   2.682   6.034   4.389
 9643SOL     OW29827   6.342   4.383   4.349
 9643SOL    HW129828   6.242   4.393   4.350
 9643SOL    HW229829   6.368   4.329   4.269
 9644SOL     OW29830   0.591   5.235   4.572
 9644SOL    HW129831   0.669   5.173   4.581
 9644SOL    HW229832   0.559   5.235   4.477
 9645SOL     OW29833   3.417   4.936   3.697
 9645SOL    HW129834   3.427   4.956   3.600
 9645SOL    HW229835   3.332   4.977   3.731
 9646SOL     OW29836   2.832   4.792   2.169
 9646SOL    HW129837   2.825   4.735   2.087
 9646SOL    HW229838   2.753   4.775   2.229
 9647SOL     OW29839   0.580   5.799   1.667
 9647SOL    HW129840   0.586   5.701   1.649
 9647SOL    HW229841   0.484   5.825   1.680
 9648SOL     OW29842   3.396   2.018   6.906
 9648SOL    HW129843   3.449   2.096   6.874
 9648SOL    HW229844   3.358   1.969   6.827
 9649SOL     OW29845   2.541   5.237   6.907
 9649SOL    HW129846   2.637   5.265   6.904
 9649SOL    HW229847   2.482   5.316   6.888
 9650SOL     OW29848   4.850   4.580   3.246
 9650SOL    HW129849   4.837   4.530   3.161
 9650SOL    HW229850   4.946   4.607   3.254
 9651SOL     OW29851   6.495   0.727   7.014
 9651SOL    HW129852   6.495   0.823   0.017
 9651SOL    HW229853   6.406   0.686   0.013
 9652SOL     OW29854   2.109   4.194   0.897
 9652SOL    HW129855   2.080   4.274   0.949
 9652SOL    HW229856   2.060   4.192   0.810
 9653SOL     OW29857   4.596   5.299   5.077
 9653SOL    HW129858   4.545   5.300   4.991
 9653SOL    HW229859   4.688   5.262   5.061
 9654SOL     OW29860   3.725   3.315   2.425
 9654SOL    HW129861   3.810   3.263   2.431
 9654SOL    HW229862   3.745   3.413   2.428
 9655SOL     OW29863   6.516   0.970   0.099
 9655SOL    HW129864   6.547   1.065   0.099
 9655SOL    HW229865   6.433   0.963   0.155
 9656SOL     OW29866   4.028   2.081   0.824
 9656SOL    HW129867   4.103   2.144   0.805
 9656SOL    HW229868   4.020   2.066   0.922
 9657SOL     OW29869   6.190   1.963   3.305
 9657SOL    HW129870   6.193   2.056   3.267
 9657SOL    HW229871   6.120   1.910   3.258
 9658SOL     OW29872   5.517   1.776   2.625
 9658SOL    HW129873   5.506   1.867   2.586
 9658SOL    HW229874   5.453   1.713   2.580
 9659SOL     OW29875   6.671   3.490   0.544
 9659SOL    HW129876   6.727   3.419   0.586
 9659SOL    HW229877   6.681   3.575   0.595
 9660SOL     OW29878   0.099   6.506   2.353
 9660SOL    HW129879   0.058   6.586   2.397
 9660SOL    HW229880   0.184   6.482   2.400
 9661SOL     OW29881   3.249   6.387   1.681
 9661SOL    HW129882   3.151   6.395   1.699
 9661SOL    HW229883   3.295   6.357   1.764
 9662SOL     OW29884   4.703   2.822   5.386
 9662SOL    HW129885   4.797   2.792   5.403
 9662SOL    HW229886   4.692   2.916   5.417
 9663SOL     OW29887   6.913   6.006   3.721
 9663SOL    HW129888   6.864   6.060   3.789
 9663SOL    HW229889   6.858   5.927   3.694
 9664SOL     OW29890   5.664   6.505   4.065
 9664SOL    HW129891   5.626   6.495   3.973
 9664SOL    HW229892   5.736   6.438   4.079
 9665SOL     OW29893   4.869   6.771   0.039
 9665SOL    HW129894   4.896   6.701   6.997
 9665SOL    HW229895   4.895   6.861   0.005
 9666SOL     OW29896   6.160   3.776   1.351
 9666SOL    HW129897   6.120   3.688   1.379
 9666SOL    HW229898   6.126   3.800   1.261
 9667SOL     OW29899   4.000   3.297   5.239
 9667SOL    HW129900   3.916   3.325   5.193
 9667SOL    HW229901   3.982   3.218   5.297
 9668SOL     OW29902   0.043   0.822   6.161
 9668SOL    HW129903   0.007   0.885   6.231
 9668SOL    HW229904   0.071   0.737   6.205
 9669SOL     OW29905   1.473   0.326   2.166
 9669SOL    HW129906   1.395   0.356   2.220
 9669SOL    HW229907   1.486   0.388   2.089
 9670SOL     OW29908   6.025   4.741   6.677
 9670SOL    HW129909   5.956   4.800   6.718
 9670SOL    HW229910   6.087   4.796   6.620
 9671SOL     OW29911   5.812   4.761   0.018
 9671SOL    HW129912   5.837   4.812   6.959
 9671SOL    HW229913   5.716   4.734   0.013
 9672SOL     OW29914   1.818   6.018   3.992
 9672SOL    HW129915   1.904   6.067   3.982
 9672SOL    HW229916   1.785   5.988   3.902
 9673SOL     OW29917   5.514   3.612   0.647
 9673SOL    HW129918   5.442   3.548   0.675
 9673SOL    HW229919   5.598   3.560   0.626
 9674SOL     OW29920   2.768   6.091   3.085
 9674SOL    HW129921   2.751   6.093   2.987
 9674SOL    HW229922   2.821   6.009   3.108
 9675SOL     OW29923   5.508   2.336   0.485
 9675SOL    HW129924   5.524   2.244   0.521
 9675SOL    HW229925   5.508   2.333   0.385
 9676SOL     OW29926   1.237   3.814   5.716
 9676SOL    HW129927   1.231   3.770   5.627
 9676SOL    HW229928   1.313   3.879   5.717
 9677SOL     OW29929   1.332   5.143   5.266
 9677SOL    HW129930   1.423   5.174   5.239
 9677SOL    HW229931   1.339   5.066   5.329
 9678SOL     OW29932   3.270   3.535   3.209
 9678SOL    HW129933   3.222   3.615   3.245
 9678SOL    HW229934   3.345   3.510   3.270
 9679SOL     OW29935   2.457   0.963   2.289
 9679SOL    HW129936   2.398   1.021   2.345
 9679SOL    HW229937   2.407   0.932   2.208
 9680SOL     OW29938   5.155   0.983   2.649
 9680SOL    HW129939   5.206   1.015   2.728
 9680SOL    HW229940   5.071   0.938   2.679
 9681SOL     OW29941   3.007   1.188   0.356
 9681SOL    HW129942   3.054   1.134   0.286
 9681SOL    HW229943   3.031   1.153   0.447
 9682SOL     OW29944   5.235   4.795   3.915
 9682SOL    HW129945   5.145   4.838   3.913
 9682SOL    HW229946   5.304   4.860   3.884
 9683SOL     OW29947   2.737   5.332   0.550
 9683SOL    HW129948   2.803   5.351   0.477
 9683SOL    HW229949   2.717   5.417   0.599
 9684SOL     OW29950   6.933   2.999   5.422
 9684SOL    HW129951   6.977   3.024   5.508
 9684SOL    HW229952   6.891   3.080   5.381
 9685SOL     OW29953   2.705   4.604   1.240
 9685SOL    HW129954   2.700   4.550   1.324
 9685SOL    HW229955   2.772   4.563   1.177
 9686SOL     OW29956   6.627   1.379   6.345
 9686SOL    HW129957   6.530   1.404   6.340
 9686SOL    HW229958   6.677   1.420   6.269
 9687SOL     OW29959   1.689   0.623   3.967
 9687SOL    HW129960   1.764   0.575   3.922
 9687SOL    HW229961   1.673   0.583   4.057
 9688SOL     OW29962   0.539   3.075   2.617
 9688SOL    HW129963   0.586   3.051   2.702
 9688SOL    HW229964   0.606   3.091   2.545
 9689SOL     OW29965   1.227   5.482   6.644
 9689SOL    HW129966   1.178   5.400   6.615
 9689SOL    HW229967   1.183   5.563   6.603
 9690SOL     OW29968   5.644   5.778   6.709
 9690SOL    HW129969   5.709   5.813   6.777
 9690SOL    HW229970   5.560   5.751   6.755
 9691SOL     OW29971   2.976   5.151   1.596
 9691SOL    HW129972   3.036   5.136   1.517
 9691SOL    HW229973   2.967   5.066   1.648
 9692SOL     OW29974   3.836   5.363   2.546
 9692SOL    HW129975   3.888   5.301   2.488
 9692SOL    HW229976   3.838   5.330   2.640
 9693SOL     OW29977   6.140   4.910   1.638
 9693SOL    HW129978   6.155   4.994   1.586
 9693SOL    HW229979   6.228   4.864   1.654
 9694SOL     OW29980   2.164   0.892   0.186
 9694SOL    HW129981   2.102   0.961   0.149
 9694SOL    HW229982   2.116   0.804   0.191
 9695SOL     OW29983   0.066   3.730   2.438
 9695SOL    HW129984   0.025   3.768   2.521
 9695SOL    HW229985   0.002   3.741   2.362
 9696SOL     OW29986   5.323   3.422   0.689
 9696SOL    HW129987   5.255   3.452   0.756
 9696SOL    HW229988   5.304   3.328   0.662
 9697SOL     OW29989   0.228   5.806   6.940
 9697SOL    HW129990   0.154   5.770   6.883
 9697SOL    HW229991   0.257   5.895   6.905
 9698SOL     OW29992   4.574   1.132   6.058
 9698SOL    HW129993   4.492   1.179   6.024
 9698SOL    HW229994   4.559   1.103   6.153
 9699SOL     OW29995   6.621   5.031   6.717
 9699SOL    HW129996   6.719   5.042   6.700
 9699SOL    HW229997   6.596   5.078   6.802
 9700SOL     OW29998   4.458   5.279   4.847
 9700SOL    HW129999   4.436   5.181   4.850
 9700SOL    HW230000   4.535   5.294   4.786
 9701SOL     OW30001   3.921   4.879   5.351
 9701SOL    HW130002   3.942   4.786   5.322
 9701SOL    HW230003   3.852   4.877   5.424
 9702SOL     OW30004   4.581   0.191   0.044
 9702SOL    HW130005   4.628   0.219   0.128
 9702SOL    HW230006   4.647   0.185   6.993
 9703SOL     OW30007   4.428   4.654   3.684
 9703SOL    HW130008   4.445   4.752   3.679
 9703SOL    HW230009   4.513   4.605   3.703
 9704SOL     OW30010   3.474   0.888   2.851
 9704SOL    HW130011   3.572   0.901   2.869
 9704SOL    HW230012   3.421   0.949   2.909
 9705SOL     OW30013   5.929   4.588   6.422
 9705SOL    HW130014   5.914   4.530   6.503
 9705SOL    HW230015   5.900   4.682   6.443
 9706SOL     OW30016   0.392   3.357   0.915
 9706SOL    HW130017   0.398   3.445   0.868
 9706SOL    HW230018   0.401   3.283   0.848
 9707SOL     OW30019   6.674   4.991   1.965
 9707SOL    HW130020   6.640   4.898   1.978
 9707SOL    HW230021   6.766   4.987   1.925
 9708SOL     OW30022   1.428   1.963   2.647
 9708SOL    HW130023   1.495   1.964   2.721
 9708SOL    HW230024   1.337   1.978   2.684
 9709SOL     OW30025   5.986   6.443   3.165
 9709SOL    HW130026   5.963   6.428   3.069
 9709SOL    HW230027   6.079   6.479   3.172
 9710SOL     OW30028   0.224   1.160   1.754
 9710SOL    HW130029   0.226   1.198   1.662
 9710SOL    HW230030   0.131   1.129   1.775
 9711SOL     OW30031   2.083   4.918   5.963
 9711SOL    HW130032   2.155   4.851   5.944
 9711SOL    HW230033   1.995   4.880   5.935
 9712SOL     OW30034   6.060   4.086   6.581
 9712SOL    HW130035   6.044   4.175   6.625
 9712SOL    HW230036   6.026   4.014   6.641
 9713SOL     OW30037   1.201   5.122   3.117
 9713SOL    HW130038   1.176   5.113   3.214
 9713SOL    HW230039   1.295   5.089   3.104
 9714SOL     OW30040   2.922   0.440   0.214
 9714SOL    HW130041   2.855   0.369   0.238
 9714SOL    HW230042   2.875   0.527   0.202
 9715SOL     OW30043   5.333   4.089   6.417
 9715SOL    HW130044   5.350   4.095   6.515
 9715SOL    HW230045   5.294   4.000   6.395
 9716SOL     OW30046   3.828   3.060   0.060
 9716SOL    HW130047   3.901   3.099   0.004
 9716SOL    HW230048   3.740   3.079   0.017
 9717SOL     OW30049   5.154   6.125   5.800
 9717SOL    HW130050   5.102   6.043   5.777
 9717SOL    HW230051   5.251   6.101   5.810
 9718SOL     OW30052   4.847   2.541   0.306
 9718SOL    HW130053   4.888   2.595   0.233
 9718SOL    HW230054   4.870   2.582   0.395
 9719SOL     OW30055   6.479   1.736   6.132
 9719SOL    HW130056   6.539   1.676   6.080
 9719SOL    HW230057   6.514   1.747   6.225
 9720SOL     OW30058   6.916   5.493   2.282
 9720SOL    HW130059   7.013   5.494   2.258
 9720SOL    HW230060   6.906   5.475   2.380
 9721SOL     OW30061   0.164   2.471   1.702
 9721SOL    HW130062   0.229   2.535   1.663
 9721SOL    HW230063   0.119   2.420   1.628
 9722SOL     OW30064   6.520   0.310   4.004
 9722SOL    HW130065   6.539   0.406   3.986
 9722SOL    HW230066   6.606   0.261   4.016
 9723SOL     OW30067   2.170   6.634   3.239
 9723SOL    HW130068   2.206   6.607   3.150
 9723SOL    HW230069   2.107   6.564   3.272
 9724SOL     OW30070   1.419   4.526   0.453
 9724SOL    HW130071   1.469   4.569   0.528
 9724SOL    HW230072   1.328   4.501   0.483
 9725SOL     OW30073   3.928   4.852   6.223
 9725SOL    HW130074   3.930   4.782   6.294
 9725SOL    HW230075   4.021   4.889   6.209
 9726SOL     OW30076   5.239   0.411   4.100
 9726SOL    HW130077   5.193   0.324   4.083
 9726SOL    HW230078   5.268   0.416   4.195
 9727SOL     OW30079   0.488   3.844   5.937
 9727SOL    HW130080   0.538   3.911   5.993
 9727SOL    HW230081   0.551   3.773   5.906
 9728SOL     OW30082   0.331   0.679   6.157
 9728SOL    HW130083   0.370   0.769   6.138
 9728SOL    HW230084   0.274   0.684   6.239
 9729SOL     OW30085   0.975   4.426   3.176
 9729SOL    HW130086   0.897   4.441   3.236
 9729SOL    HW230087   1.055   4.402   3.231
 9730SOL     OW30088   1.052   3.954   3.784
 9730SOL    HW130089   1.052   4.048   3.752
 9730SOL    HW230090   1.118   3.944   3.859
 9731SOL     OW30091   4.543   4.623   1.059
 9731SOL    HW130092   4.477   4.548   1.058
 9731SOL    HW230093   4.504   4.701   1.108
 9732SOL     OW30094   5.997   5.453   3.178
 9732SOL    HW130095   6.017   5.419   3.270
 9732SOL    HW230096   6.081   5.451   3.123
 9733SOL     OW30097   5.458   5.143   0.619
 9733SOL    HW130098   5.398   5.198   0.561
 9733SOL    HW230099   5.535   5.109   0.566
 9734SOL     OW30100   6.490   1.503   2.412
 9734SOL    HW130101   6.576   1.512   2.363
 9734SOL    HW230102   6.413   1.519   2.349
 9735SOL     OW30103   2.604   4.728   3.311
 9735SOL    HW130104   2.550   4.811   3.312
 9735SOL    HW230105   2.625   4.700   3.404
 9736SOL     OW30106   6.322   1.662   6.896
 9736SOL    HW130107   6.325   1.742   6.835
 9736SOL    HW230108   6.266   1.683   6.976
 9737SOL     OW30109   5.809   2.479   3.987
 9737SOL    HW130110   5.904   2.499   3.961
 9737SOL    HW230111   5.800   2.488   4.086
 9738SOL     OW30112   1.580   0.364   1.200
 9738SOL    HW130113   1.498   0.345   1.147
 9738SOL    HW230114   1.596   0.290   1.265
 9739SOL     OW30115   6.153   4.671   2.066
 9739SOL    HW130116   6.183   4.703   1.976
 9739SOL    HW230117   6.145   4.571   2.064
 9740SOL     OW30118   6.454   2.607   3.165
 9740SOL    HW130119   6.463   2.581   3.261
 9740SOL    HW230120   6.362   2.585   3.133
 9741SOL     OW30121   5.056   1.425   3.264
 9741SOL    HW130122   5.035   1.485   3.187
 9741SOL    HW230123   5.038   1.330   3.239
 9742SOL     OW30124   4.508   6.817   1.368
 9742SOL    HW130125   4.441   6.771   1.310
 9742SOL    HW230126   4.475   6.910   1.389
 9743SOL     OW30127   0.749   1.870   5.074
 9743SOL    HW130128   0.690   1.949   5.089
 9743SOL    HW230129   0.827   1.897   5.017
 9744SOL     OW30130   0.565   0.195   3.180
 9744SOL    HW130131   0.564   0.292   3.204
 9744SOL    HW230132   0.497   0.177   3.109
 9745SOL     OW30133   6.477   2.569   5.981
 9745SOL    HW130134   6.475   2.668   5.996
 9745SOL    HW230135   6.567   2.533   6.005
 9746SOL     OW30136   6.498   0.964   5.662
 9746SOL    HW130137   6.527   0.890   5.601
 9746SOL    HW230138   6.439   1.027   5.612
 9747SOL     OW30139   2.192   0.859   1.198
 9747SOL    HW130140   2.268   0.838   1.259
 9747SOL    HW230141   2.112   0.884   1.253
 9748SOL     OW30142   0.393   1.428   3.288
 9748SOL    HW130143   0.465   1.462   3.348
 9748SOL    HW230144   0.305   1.431   3.336
 9749SOL     OW30145   2.102   1.724   5.160
 9749SOL    HW130146   2.177   1.726   5.093
 9749SOL    HW230147   2.040   1.649   5.138
 9750SOL     OW30148   5.826   4.508   3.750
 9750SOL    HW130149   5.758   4.449   3.794
 9750SOL    HW230150   5.784   4.554   3.672
 9751SOL     OW30151   0.430   0.829   0.437
 9751SOL    HW130152   0.433   0.733   0.462
 9751SOL    HW230153   0.335   0.857   0.422
 9752SOL     OW30154   4.800   1.858   5.809
 9752SOL    HW130155   4.842   1.770   5.833
 9752SOL    HW230156   4.859   1.907   5.746
 9753SOL     OW30157   5.874   6.112   5.555
 9753SOL    HW130158   5.949   6.123   5.489
 9753SOL    HW230159   5.911   6.100   5.647
 9754SOL     OW30160   0.725   1.456   6.563
 9754SOL    HW130161   0.696   1.482   6.471
 9754SOL    HW230162   0.781   1.529   6.602
 9755SOL     OW30163   4.143   3.426   5.042
 9755SOL    HW130164   4.220   3.371   5.010
 9755SOL    HW230165   4.084   3.371   5.102
 9756SOL     OW30166   5.851   3.192   0.902
 9756SOL    HW130167   5.905   3.277   0.909
 9756SOL    HW230168   5.765   3.212   0.856
 9757SOL     OW30169   6.014   3.840   3.485
 9757SOL    HW130170   6.070   3.758   3.494
 9757SOL    HW230171   6.004   3.883   3.575
 9758SOL     OW30172   2.471   7.012   6.780
 9758SOL    HW130173   2.545   6.945   6.779
 9758SOL    HW230174   2.499   0.070   6.729
 9759SOL     OW30175   2.054   6.935   6.851
 9759SOL    HW130176   2.083   6.977   6.765
 9759SOL    HW230177   2.063   7.003   6.925
 9760SOL     OW30178   4.955   3.350   4.969
 9760SOL    HW130179   5.021   3.357   5.044
 9760SOL    HW230180   4.903   3.436   4.963
 9761SOL     OW30181   6.068   0.874   2.314
 9761SOL    HW130182   6.144   0.846   2.255
 9761SOL    HW230183   6.066   0.816   2.395
 9762SOL     OW30184   3.876   1.782   4.573
 9762SOL    HW130185   3.964   1.734   4.572
 9762SOL    HW230186   3.837   1.779   4.665
 9763SOL     OW30187   4.933   2.362   2.110
 9763SOL    HW130188   4.957   2.434   2.045
 9763SOL    HW230189   4.954   2.273   2.070
 9764SOL     OW30190   0.451   3.076   3.105
 9764SOL    HW130191   0.477   3.001   3.167
 9764SOL    HW230192   0.512   3.153   3.120
 9765SOL     OW30193   6.625   1.449   3.357
 9765SOL    HW130194   6.571   1.487   3.281
 9765SOL    HW230195   6.696   1.514   3.383
 9766SOL     OW30196   2.635   0.533   3.448
 9766SOL    HW130197   2.654   0.592   3.370
 9766SOL    HW230198   2.720   0.490   3.479
 9767SOL     OW30199   4.947   1.541   5.512
 9767SOL    HW130200   4.961   1.620   5.453
 9767SOL    HW230201   4.870   1.558   5.573
 9768SOL     OW30202   5.768   2.075   3.203
 9768SOL    HW130203   5.691   2.092   3.141
 9768SOL    HW230204   5.850   2.056   3.150
 9769SOL     OW30205   2.722   0.672   2.760
 9769SOL    HW130206   2.803   0.622   2.791
 9769SOL    HW230207   2.735   0.703   2.666
 9770SOL     OW30208   5.704   7.012   0.127
 9770SOL    HW130209   5.774   0.055   0.100
 9770SOL    HW230210   5.620   0.008   0.077
 9771SOL     OW30211   3.061   4.890   1.176
 9771SOL    HW130212   3.007   4.938   1.107
 9771SOL    HW230213   3.000   4.846   1.242
 9772SOL     OW30214   1.094   6.049   3.081
 9772SOL    HW130215   1.027   6.025   3.010
 9772SOL    HW230216   1.061   6.017   3.169
 9773SOL     OW30217   5.106   5.987   4.351
 9773SOL    HW130218   5.064   5.953   4.268
 9773SOL    HW230219   5.121   6.086   4.343
 9774SOL     OW30220   6.625   5.139   1.686
 9774SOL    HW130221   6.718   5.143   1.721
 9774SOL    HW230222   6.560   5.136   1.762
 9775SOL     OW30223   2.206   0.925   3.730
 9775SOL    HW130224   2.183   0.988   3.656
 9775SOL    HW230225   2.121   0.891   3.772
 9776SOL     OW30226   0.972   4.814   4.159
 9776SOL    HW130227   0.998   4.908   4.139
 9776SOL    HW230228   0.939   4.808   4.253
 9777SOL     OW30229   5.391   4.392   6.185
 9777SOL    HW130230   5.371   4.338   6.103
 9777SOL    HW230231   5.480   4.436   6.175
 9778SOL     OW30232   0.436   0.867   3.195
 9778SOL    HW130233   0.493   0.904   3.122
 9778SOL    HW230234   0.433   0.931   3.272
 9779SOL     OW30235   2.041   0.819   4.832
 9779SOL    HW130236   2.138   0.809   4.852
 9779SOL    HW230237   2.006   0.901   4.877
 9780SOL     OW30238   2.531   1.688   1.165
 9780SOL    HW130239   2.619   1.717   1.128
 9780SOL    HW230240   2.476   1.647   1.091
 9781SOL     OW30241   1.806   3.824   4.545
 9781SOL    HW130242   1.891   3.820   4.492
 9781SOL    HW230243   1.826   3.857   4.637
 9782SOL     OW30244   6.547   0.497   1.611
 9782SOL    HW130245   6.467   0.541   1.653
 9782SOL    HW230246   6.605   0.568   1.570
 9783SOL     OW30247   5.106   1.924   3.074
 9783SOL    HW130248   5.135   1.913   3.169
 9783SOL    HW230249   5.006   1.935   3.071
 9784SOL     OW30250   4.125   1.351   4.566
 9784SOL    HW130251   4.029   1.321   4.570
 9784SOL    HW230252   4.170   1.309   4.488
 9785SOL     OW30253   0.239   3.815   5.737
 9785SOL    HW130254   0.311   3.817   5.805
 9785SOL    HW230255   0.150   3.809   5.782
 9786SOL     OW30256   2.227   4.305   6.877
 9786SOL    HW130257   2.253   4.356   6.959
 9786SOL    HW230258   2.185   4.368   6.811
 9787SOL     OW30259   4.441   3.392   1.646
 9787SOL    HW130260   4.535   3.423   1.662
 9787SOL    HW230261   4.432   3.296   1.674
 9788SOL     OW30262   0.706   0.792   3.686
 9788SOL    HW130263   0.770   0.716   3.672
 9788SOL    HW230264   0.757   0.875   3.708
 9789SOL     OW30265   1.225   5.597   0.323
 9789SOL    HW130266   1.219   5.506   0.284
 9789SOL    HW230267   1.288   5.596   0.400
 9790SOL     OW30268   6.145   3.841   5.377
 9790SOL    HW130269   6.154   3.936   5.405
 9790SOL    HW230270   6.069   3.833   5.311
 9791SOL     OW30271   0.117   1.241   2.717
 9791SOL    HW130272   0.214   1.258   2.702
 9791SOL    HW230273   0.098   1.144   2.704
 9792SOL     OW30274   5.207   5.446   1.741
 9792SOL    HW130275   5.264   5.513   1.790
 9792SOL    HW230276   5.253   5.357   1.741
 9793SOL     OW30277   5.043   5.237   3.485
 9793SOL    HW130278   5.064   5.306   3.416
 9793SOL    HW230279   5.056   5.145   3.446
 9794SOL     OW30280   6.311   4.097   0.273
 9794SOL    HW130281   6.392   4.118   0.326
 9794SOL    HW230282   6.317   4.003   0.237
 9795SOL     OW30283   1.781   1.967   4.119
 9795SOL    HW130284   1.717   2.015   4.059
 9795SOL    HW230285   1.874   1.981   4.086
 9796SOL     OW30286   4.459   2.382   1.646
 9796SOL    HW130287   4.392   2.370   1.573
 9796SOL    HW230288   4.549   2.350   1.615
 9797SOL     OW30289   3.151   5.144   6.575
 9797SOL    HW130290   3.121   5.084   6.501
 9797SOL    HW230291   3.127   5.239   6.552
 9798SOL     OW30292   2.873   0.243   1.146
 9798SOL    HW130293   2.844   0.338   1.158
 9798SOL    HW230294   2.844   0.189   1.226
 9799SOL     OW30295   3.442   3.833   3.375
 9799SOL    HW130296   3.390   3.800   3.454
 9799SOL    HW230297   3.378   3.868   3.305
 9800SOL     OW30298   3.664   6.514   5.195
 9800SOL    HW130299   3.611   6.467   5.125
 9800SOL    HW230300   3.721   6.584   5.151
 9801SOL     OW30301   4.722   4.104   0.720
 9801SOL    HW130302   4.730   4.175   0.650
 9801SOL    HW230303   4.669   4.027   0.683
 9802SOL     OW30304   0.746   2.956   1.728
 9802SOL    HW130305   0.806   3.018   1.778
 9802SOL    HW230306   0.730   2.874   1.784
 9803SOL     OW30307   6.490   1.430   6.922
 9803SOL    HW130308   6.426   1.501   6.893
 9803SOL    HW230309   6.443   1.342   6.924
 9804SOL     OW30310   1.107   6.458   2.977
 9804SOL    HW130311   1.093   6.490   2.884
 9804SOL    HW230312   1.159   6.372   2.976
 9805SOL     OW30313   1.200   6.188   5.748
 9805SOL    HW130314   1.194   6.103   5.695
 9805SOL    HW230315   1.190   6.266   5.688
 9806SOL     OW30316   1.431   1.393   0.940
 9806SOL    HW130317   1.472   1.319   0.889
 9806SOL    HW230318   1.456   1.481   0.898
 9807SOL     OW30319   2.042   3.120   0.319
 9807SOL    HW130320   1.972   3.178   0.360
 9807SOL    HW230321   2.020   3.024   0.337
 9808SOL     OW30322   5.864   1.527   5.440
 9808SOL    HW130323   5.793   1.457   5.429
 9808SOL    HW230324   5.938   1.490   5.497
 9809SOL     OW30325   0.635   2.061   0.101
 9809SOL    HW130326   0.562   2.090   0.163
 9809SOL    HW230327   0.595   2.007   0.026
 9810SOL     OW30328   2.696   2.437   4.140
 9810SOL    HW130329   2.675   2.408   4.233
 9810SOL    HW230330   2.611   2.461   4.093
 9811SOL     OW30331   5.473   5.775   3.838
 9811SOL    HW130332   5.525   5.858   3.859
 9811SOL    HW230333   5.443   5.778   3.743
 9812SOL     OW30334   3.217   2.213   5.751
 9812SOL    HW130335   3.299   2.181   5.704
 9812SOL    HW230336   3.143   2.228   5.684
 9813SOL     OW30337   6.098   0.605   6.680
 9813SOL    HW130338   6.162   0.530   6.664
 9813SOL    HW230339   6.037   0.582   6.756
 9814SOL     OW30340   0.103   1.002   0.176
 9814SOL    HW130341   0.007   1.027   0.161
 9814SOL    HW230342   0.160   1.084   0.173
 9815SOL     OW30343   5.738   3.965   2.886
 9815SOL    HW130344   5.769   3.878   2.849
 9815SOL    HW230345   5.674   4.008   2.822
 9816SOL     OW30346   0.261   1.946   6.033
 9816SOL    HW130347   0.178   1.912   6.077
 9816SOL    HW230348   0.337   1.944   6.099
 9817SOL     OW30349   2.663   5.560   2.897
 9817SOL    HW130350   2.658   5.659   2.884
 9817SOL    HW230351   2.644   5.514   2.811
 9818SOL     OW30352   1.786   0.531   4.458
 9818SOL    HW130353   1.865   0.558   4.514
 9818SOL    HW230354   1.702   0.540   4.512
 9819SOL     OW30355   4.722   2.919   4.764
 9819SOL    HW130356   4.727   2.981   4.843
 9819SOL    HW230357   4.809   2.921   4.715
 9820SOL     OW30358   3.472   3.477   6.208
 9820SOL    HW130359   3.525   3.547   6.255
 9820SOL    HW230360   3.527   3.436   6.135
 9821SOL     OW30361   4.908   0.868   0.655
 9821SOL    HW130362   4.951   0.949   0.695
 9821SOL    HW230363   4.811   0.886   0.641
 9822SOL     OW30364   2.728   5.646   3.625
 9822SOL    HW130365   2.640   5.599   3.634
 9822SOL    HW230366   2.725   5.732   3.675
 9823SOL     OW30367   2.322   0.034   1.642
 9823SOL    HW130368   2.248   0.055   1.578
 9823SOL    HW230369   2.394   0.103   1.632
 9824SOL     OW30370   1.932   5.702   4.420
 9824SOL    HW130371   2.015   5.676   4.470
 9824SOL    HW230372   1.958   5.736   4.329
 9825SOL     OW30373   5.324   6.722   4.466
 9825SOL    HW130374   5.414   6.734   4.508
 9825SOL    HW230375   5.310   6.626   4.443
 9826SOL     OW30376   3.361   6.424   5.448
 9826SOL    HW130377   3.340   6.363   5.524
 9826SOL    HW230378   3.396   6.371   5.371
 9827SOL     OW30379   1.686   3.939   3.266
 9827SOL    HW130380   1.719   3.856   3.220
 9827SOL    HW230381   1.655   3.915   3.358
 9828SOL     OW30382   3.208   2.797   5.195
 9828SOL    HW130383   3.165   2.747   5.120
 9828SOL    HW230384   3.224   2.735   5.272
 9829SOL     OW30385   4.405   5.886   6.242
 9829SOL    HW130386   4.499   5.893   6.274
 9829SOL    HW230387   4.358   5.973   6.257
 9830SOL     OW30388   5.181   1.754   1.872
 9830SOL    HW130389   5.231   1.744   1.958
 9830SOL    HW230390   5.210   1.682   1.808
 9831SOL     OW30391   1.186   4.171   2.453
 9831SOL    HW130392   1.101   4.203   2.412
 9831SOL    HW230393   1.180   4.177   2.553
 9832SOL     OW30394   4.826   5.938   1.789
 9832SOL    HW130395   4.822   6.003   1.865
 9832SOL    HW230396   4.879   5.857   1.816
 9833SOL     OW30397   3.470   3.442   3.386
 9833SOL    HW130398   3.530   3.363   3.385
 9833SOL    HW230399   3.436   3.457   3.479
 9834SOL     OW30400   2.011   4.484   5.388
 9834SOL    HW130401   2.043   4.572   5.352
 9834SOL    HW230402   2.074   4.453   5.459
 9835SOL     OW30403   3.622   3.299   4.186
 9835SOL    HW130404   3.531   3.339   4.189
 9835SOL    HW230405   3.656   3.288   4.279
 9836SOL     OW30406   0.665   4.236   4.231
 9836SOL    HW130407   0.642   4.294   4.309
 9836SOL    HW230408   0.740   4.175   4.256
 9837SOL     OW30409   4.921   0.467   2.539
 9837SOL    HW130410   4.836   0.453   2.590
 9837SOL    HW230411   4.994   0.411   2.578
 9838SOL     OW30412   1.546   6.783   0.451
 9838SOL    HW130413   1.593   6.722   0.514
 9838SOL    HW230414   1.447   6.778   0.467
 9839SOL     OW30415   5.138   6.326   2.962
 9839SOL    HW130416   5.145   6.374   3.049
 9839SOL    HW230417   5.080   6.379   2.900
 9840SOL     OW30418   4.851   1.758   0.430
 9840SOL    HW130419   4.783   1.828   0.453
 9840SOL    HW230420   4.941   1.801   0.423
 9841SOL     OW30421   1.236   4.471   3.988
 9841SOL    HW130422   1.194   4.541   3.930
 9841SOL    HW230423   1.241   4.385   3.937
 9842SOL     OW30424   3.382   3.405   1.157
 9842SOL    HW130425   3.306   3.457   1.119
 9842SOL    HW230426   3.383   3.415   1.257
 9843SOL     OW30427   6.961   0.066   1.631
 9843SOL    HW130428   6.917   0.001   1.569
 9843SOL    HW230429   0.015   0.109   1.585
 9844SOL     OW30430   6.159   1.168   3.953
 9844SOL    HW130431   6.185   1.090   3.896
 9844SOL    HW230432   6.157   1.141   4.049
 9845SOL     OW30433   1.584   2.259   3.060
 9845SOL    HW130434   1.608   2.341   3.007
 9845SOL    HW230435   1.573   2.182   2.997
 9846SOL     OW30436   4.283   1.977   0.584
 9846SOL    HW130437   4.278   2.077   0.582
 9846SOL    HW230438   4.191   1.939   0.588
 9847SOL     OW30439   4.024   3.230   2.318
 9847SOL    HW130440   4.005   3.200   2.412
 9847SOL    HW230441   4.048   3.327   2.318
 9848SOL     OW30442   4.377   4.860   5.936
 9848SOL    HW130443   4.420   4.790   5.879
 9848SOL    HW230444   4.445   4.901   5.996
 9849SOL     OW30445   0.825   6.973   6.475
 9849SOL    HW130446   0.868   6.889   6.508
 9849SOL    HW230447   0.860   0.027   6.527
 9850SOL     OW30448   0.197   0.836   3.739
 9850SOL    HW130449   0.282   0.888   3.742
 9850SOL    HW230450   0.182   0.792   3.828
 9851SOL     OW30451   2.286   6.818   4.385
 9851SOL    HW130452   2.324   6.862   4.466
 9851SOL    HW230453   2.187   6.833   4.383
 9852SOL     OW30454   1.692   1.689   5.254
 9852SOL    HW130455   1.711   1.714   5.349
 9852SOL    HW230456   1.736   1.754   5.193
 9853SOL     OW30457   6.432   3.203   5.375
 9853SOL    HW130458   6.332   3.198   5.376
 9853SOL    HW230459   6.461   3.274   5.310
 9854SOL     OW30460   0.363   5.620   4.433
 9854SOL    HW130461   0.415   5.610   4.348
 9854SOL    HW230462   0.416   5.585   4.510
 9855SOL     OW30463   2.216   3.708   0.475
 9855SOL    HW130464   2.286   3.653   0.521
 9855SOL    HW230465   2.126   3.668   0.492
 9856SOL     OW30466   5.426   4.569   4.011
 9856SOL    HW130467   5.454   4.572   3.915
 9856SOL    HW230468   5.388   4.658   4.038
 9857SOL     OW30469   5.267   2.625   2.869
 9857SOL    HW130470   5.305   2.713   2.895
 9857SOL    HW230471   5.205   2.636   2.791
 9858SOL     OW30472   0.437   6.725   1.462
 9858SOL    HW130473   0.351   6.698   1.418
 9858SOL    HW230474   0.418   6.789   1.536
 9859SOL     OW30475   6.646   4.641   4.229
 9859SOL    HW130476   6.566   4.672   4.280
 9859SOL    HW230477   6.617   4.578   4.158
 9860SOL     OW30478   1.449   2.664   4.937
 9860SOL    HW130479   1.363   2.653   4.987
 9860SOL    HW230480   1.459   2.589   4.871
 9861SOL     OW30481   2.888   0.428   3.441
 9861SOL    HW130482   2.922   0.363   3.508
 9861SOL    HW230483   2.890   0.386   3.350
 9862SOL     OW30484   2.758   3.758   0.460
 9862SOL    HW130485   2.670   3.788   0.421
 9862SOL    HW230486   2.810   3.837   0.491
 9863SOL     OW30487   3.126   5.758   1.096
 9863SOL    HW130488   3.112   5.821   1.019
 9863SOL    HW230489   3.220   5.766   1.130
 9864SOL     OW30490   3.575   0.471   4.993
 9864SOL    HW130491   3.664   0.452   5.035
 9864SOL    HW230492   3.532   0.548   5.040
 9865SOL     OW30493   1.207   6.266   4.316
 9865SOL    HW130494   1.276   6.228   4.255
 9865SOL    HW230495   1.126   6.292   4.264
 9866SOL     OW30496   6.242   4.397   5.113
 9866SOL    HW130497   6.246   4.471   5.046
 9866SOL    HW230498   6.281   4.428   5.200
 9867SOL     OW30499   6.367   2.220   2.784
 9867SOL    HW130500   6.394   2.280   2.708
 9867SOL    HW230501   6.303   2.152   2.751
 9868SOL     OW30502   0.902   3.362   4.415
 9868SOL    HW130503   0.822   3.406   4.373
 9868SOL    HW230504   0.979   3.426   4.414
 9869SOL     OW30505   0.481   2.978   0.864
 9869SOL    HW130506   0.561   2.944   0.814
 9869SOL    HW230507   0.504   2.988   0.960
 9870SOL     OW30508   4.319   6.558   2.833
 9870SOL    HW130509   4.267   6.481   2.798
 9870SOL    HW230510   4.257   6.623   2.877
 9871SOL     OW30511   6.536   3.358   5.950
 9871SOL    HW130512   6.447   3.403   5.958
 9871SOL    HW230513   6.536   3.299   5.870
 9872SOL     OW30514   2.655   5.409   4.710
 9872SOL    HW130515   2.687   5.501   4.688
 9872SOL    HW230516   2.561   5.398   4.680
 9873SOL     OW30517   2.242   2.322   6.655
 9873SOL    HW130518   2.271   2.417   6.666
 9873SOL    HW230519   2.261   2.292   6.562
 9874SOL     OW30520   0.293   3.415   5.676
 9874SOL    HW130521   0.204   3.421   5.630
 9874SOL    HW230522   0.346   3.498   5.658
 9875SOL     OW30523   6.749   6.036   2.697
 9875SOL    HW130524   6.833   6.016   2.748
 9875SOL    HW230525   6.675   5.978   2.730
 9876SOL     OW30526   5.511   0.984   3.604
 9876SOL    HW130527   5.484   0.888   3.615
 9876SOL    HW230528   5.572   1.010   3.678
 9877SOL     OW30529   6.793   4.629   4.452
 9877SOL    HW130530   6.720   4.643   4.385
 9877SOL    HW230531   6.810   4.531   4.462
 9878SOL     OW30532   2.534   3.786   5.965
 9878SOL    HW130533   2.543   3.781   6.064
 9878SOL    HW230534   2.542   3.694   5.926
 9879SOL     OW30535   6.701   4.777   5.245
 9879SOL    HW130536   6.775   4.710   5.250
 9879SOL    HW230537   6.630   4.742   5.184
 9880SOL     OW30538   2.322   0.362   1.069
 9880SOL    HW130539   2.256   0.340   0.997
 9880SOL    HW230540   2.289   0.441   1.121
 9881SOL     OW30541   6.767   1.385   4.354
 9881SOL    HW130542   6.717   1.317   4.408
 9881SOL    HW230543   6.851   1.344   4.318
 9882SOL     OW30544   3.345   3.444   5.638
 9882SOL    HW130545   3.302   3.521   5.591
 9882SOL    HW230546   3.439   3.469   5.664
 9883SOL     OW30547   0.901   6.138   1.426
 9883SOL    HW130548   0.893   6.042   1.398
 9883SOL    HW230549   0.997   6.165   1.424
 9884SOL     OW30550   3.730   2.182   0.787
 9884SOL    HW130551   3.823   2.161   0.758
 9884SOL    HW230552   3.726   2.182   0.887
 9885SOL     OW30553   0.558   3.176   4.449
 9885SOL    HW130554   0.589   3.231   4.372
 9885SOL    HW230555   0.492   3.229   4.503
 9886SOL     OW30556   0.144   6.197   2.252
 9886SOL    HW130557   0.074   6.267   2.267
 9886SOL    HW230558   0.228   6.240   2.219
 9887SOL     OW30559   3.157   0.295   0.193
 9887SOL    HW130560   3.072   0.346   0.183
 9887SOL    HW230561   3.204   0.323   0.277
 9888SOL     OW30562   5.531   6.005   3.513
 9888SOL    HW130563   5.457   6.044   3.457
 9888SOL    HW230564   5.516   5.906   3.523
 9889SOL     OW30565   1.351   5.102   2.553
 9889SOL    HW130566   1.275   5.145   2.504
 9889SOL    HW230567   1.339   5.117   2.651
 9890SOL     OW30568   6.674   3.291   1.381
 9890SOL    HW130569   6.648   3.280   1.286
 9890SOL    HW230570   6.705   3.204   1.418
 9891SOL     OW30571   5.365   4.786   1.390
 9891SOL    HW130572   5.395   4.696   1.356
 9891SOL    HW230573   5.265   4.786   1.399
 9892SOL     OW30574   2.489   5.565   3.379
 9892SOL    HW130575   2.525   5.632   3.314
 9892SOL    HW230576   2.405   5.525   3.342
 9893SOL     OW30577   6.525   6.400   2.663
 9893SOL    HW130578   6.519   6.365   2.569
 9893SOL    HW230579   6.612   6.373   2.704
 9894SOL     OW30580   2.198   1.373   6.629
 9894SOL    HW130581   2.281   1.351   6.679
 9894SOL    HW230582   2.200   1.329   6.539
 9895SOL     OW30583   6.360   2.107   5.802
 9895SOL    HW130584   6.295   2.126   5.729
 9895SOL    HW230585   6.408   2.191   5.826
 9896SOL     OW30586   4.846   2.329   0.060
 9896SOL    HW130587   4.770   2.360   0.002
 9896SOL    HW230588   4.912   2.402   0.071
 9897SOL     OW30589   5.024   0.489   2.277
 9897SOL    HW130590   4.971   0.469   2.359
 9897SOL    HW230591   5.121   0.472   2.295
 9898SOL     OW30592   0.710   5.027   4.797
 9898SOL    HW130593   0.611   5.009   4.800
 9898SOL    HW230594   0.735   5.062   4.707
 9899SOL     OW30595   6.431   4.962   2.269
 9899SOL    HW130596   6.477   4.917   2.346
 9899SOL    HW230597   6.471   4.930   2.184
 9900SOL     OW30598   2.251   1.813   2.552
 9900SOL    HW130599   2.227   1.879   2.481
 9900SOL    HW230600   2.278   1.862   2.635
 9901SOL     OW30601   1.374   2.293   0.374
 9901SOL    HW130602   1.446   2.355   0.343
 9901SOL    HW230603   1.355   2.225   0.303
 9902SOL     OW30604   3.548   3.198   1.427
 9902SOL    HW130605   3.628   3.200   1.367
 9902SOL    HW230606   3.507   3.290   1.431
 9903SOL     OW30607   4.540   6.789   2.367
 9903SOL    HW130608   4.617   6.732   2.339
 9903SOL    HW230609   4.552   6.817   2.462
 9904SOL     OW30610   6.568   3.682   6.903
 9904SOL    HW130611   6.515   3.763   6.930
 9904SOL    HW230612   6.666   3.704   6.908
 9905SOL     OW30613   1.567   6.434   0.553
 9905SOL    HW130614   1.478   6.390   0.552
 9905SOL    HW230615   1.636   6.371   0.517
 9906SOL     OW30616   1.873   3.667   0.246
 9906SOL    HW130617   1.945   3.652   0.178
 9906SOL    HW230618   1.827   3.753   0.227
 9907SOL     OW30619   2.657   0.117   3.441
 9907SOL    HW130620   2.595   0.061   3.495
 9907SOL    HW230621   2.618   0.131   3.349
 9908SOL     OW30622   0.485   3.658   5.306
 9908SOL    HW130623   0.582   3.658   5.280
 9908SOL    HW230624   0.477   3.635   5.403
 9909SOL     OW30625   3.613   0.367   3.352
 9909SOL    HW130626   3.532   0.391   3.299
 9909SOL    HW230627   3.586   0.317   3.434
 9910SOL     OW30628   0.896   5.493   1.620
 9910SOL    HW130629   0.852   5.525   1.703
 9910SOL    HW230630   0.908   5.394   1.625
 9911SOL     OW30631   4.753   5.543   2.740
 9911SOL    HW130632   4.765   5.547   2.641
 9911SOL    HW230633   4.747   5.635   2.777
 9912SOL     OW30634   4.140   1.023   1.778
 9912SOL    HW130635   4.133   1.074   1.692
 9912SOL    HW230636   4.106   1.080   1.853
 9913SOL     OW30637   6.409   2.977   2.293
 9913SOL    HW130638   6.446   3.039   2.362
 9913SOL    HW230639   6.331   3.020   2.247
 9914SOL     OW30640   0.777   0.605   5.925
 9914SOL    HW130641   0.789   0.574   6.019
 9914SOL    HW230642   0.703   0.554   5.882
 9915SOL     OW30643   4.819   2.813   4.164
 9915SOL    HW130644   4.809   2.810   4.264
 9915SOL    HW230645   4.857   2.902   4.137
 9916SOL     OW30646   2.761   2.356   3.346
 9916SOL    HW130647   2.681   2.308   3.381
 9916SOL    HW230648   2.744   2.382   3.251
 9917SOL     OW30649   3.070   3.086   4.259
 9917SOL    HW130650   3.149   3.027   4.243
 9917SOL    HW230651   3.068   3.115   4.354
 9918SOL     OW30652   0.718   1.901   0.788
 9918SOL    HW130653   0.775   1.864   0.862
 9918SOL    HW230654   0.623   1.874   0.803
 9919SOL     OW30655   2.050   5.307   1.737
 9919SOL    HW130656   2.136   5.273   1.699
 9919SOL    HW230657   2.039   5.404   1.715
 9920SOL     OW30658   3.682   1.046   3.177
 9920SOL    HW130659   3.603   1.012   3.228
 9920SOL    HW230660   3.703   0.985   3.101
 9921SOL     OW30661   5.666   6.420   4.388
 9921SOL    HW130662   5.583   6.370   4.366
 9921SOL    HW230663   5.694   6.400   4.482
 9922SOL     OW30664   4.800   4.363   0.874
 9922SOL    HW130665   4.852   4.365   0.789
 9922SOL    HW230666   4.816   4.276   0.921
 9923SOL     OW30667   6.917   3.460   0.650
 9923SOL    HW130668   6.968   3.449   0.564
 9923SOL    HW230669   6.965   3.414   0.724
 9924SOL     OW30670   5.339   2.030   2.693
 9924SOL    HW130671   5.400   2.025   2.613
 9924SOL    HW230672   5.314   2.125   2.710
 9925SOL     OW30673   2.031   4.169   5.198
 9925SOL    HW130674   2.035   4.261   5.160
 9925SOL    HW230675   2.095   4.109   5.150
 9926SOL     OW30676   2.966   2.561   1.379
 9926SOL    HW130677   2.932   2.651   1.410
 9926SOL    HW230678   2.988   2.505   1.459
 9927SOL     OW30679   0.749   2.349   1.323
 9927SOL    HW130680   0.763   2.258   1.364
 9927SOL    HW230681   0.837   2.396   1.317
 9928SOL     OW30682   6.449   4.273   2.266
 9928SOL    HW130683   6.447   4.190   2.322
 9928SOL    HW230684   6.393   4.259   2.185
 9929SOL     OW30685   2.826   4.175   5.283
 9929SOL    HW130686   2.759   4.117   5.329
 9929SOL    HW230687   2.827   4.265   5.326
 9930SOL     OW30688   0.382   6.933   5.803
 9930SOL    HW130689   0.361   6.847   5.757
 9930SOL    HW230690   0.426   6.915   5.891
 9931SOL     OW30691   0.227   5.437   5.107
 9931SOL    HW130692   0.156   5.368   5.097
 9931SOL    HW230693   0.188   5.528   5.093
 9932SOL     OW30694   1.326   2.071   0.207
 9932SOL    HW130695   1.244   2.055   0.153
 9932SOL    HW230696   1.398   2.009   0.176
 9933SOL     OW30697   1.951   1.070   4.097
 9933SOL    HW130698   1.928   0.986   4.049
 9933SOL    HW230699   1.893   1.145   4.063
 9934SOL     OW30700   6.101   1.903   0.255
 9934SOL    HW130701   6.089   1.824   0.195
 9934SOL    HW230702   6.020   1.912   0.314
 9935SOL     OW30703   2.197   1.310   0.671
 9935SOL    HW130704   2.232   1.373   0.601
 9935SOL    HW230705   2.210   1.216   0.641
 9936SOL     OW30706   5.964   4.968   6.358
 9936SOL    HW130707   6.047   5.019   6.380
 9936SOL    HW230708   5.984   4.900   6.287
 9937SOL     OW30709   1.135   0.911   3.027
 9937SOL    HW130710   1.157   0.956   3.113
 9937SOL    HW230711   1.218   0.904   2.971
 9938SOL     OW30712   5.709   0.482   3.746
 9938SOL    HW130713   5.722   0.387   3.718
 9938SOL    HW230714   5.712   0.541   3.665
 9939SOL     OW30715   2.053   3.149   1.192
 9939SOL    HW130716   2.090   3.226   1.243
 9939SOL    HW230717   2.098   3.142   1.103
 9940SOL     OW30718   0.949   0.679   3.350
 9940SOL    HW130719   0.989   0.631   3.272
 9940SOL    HW230720   0.865   0.725   3.322
 9941SOL     OW30721   3.157   5.601   5.637
 9941SOL    HW130722   3.102   5.684   5.643
 9941SOL    HW230723   3.242   5.621   5.588
 9942SOL     OW30724   4.755   5.503   2.434
 9942SOL    HW130725   4.680   5.568   2.438
 9942SOL    HW230726   4.763   5.466   2.341
 9943SOL     OW30727   0.457   4.390   6.121
 9943SOL    HW130728   0.538   4.430   6.163
 9943SOL    HW230729   0.485   4.319   6.055
 9944SOL     OW30730   6.984   5.691   6.398
 9944SOL    HW130731   6.927   5.761   6.441
 9944SOL    HW230732   6.944   5.601   6.414
 9945SOL     OW30733   5.601   3.851   6.610
 9945SOL    HW130734   5.516   3.802   6.594
 9945SOL    HW230735   5.610   3.926   6.544
 9946SOL     OW30736   6.382   0.007   3.365
 9946SOL    HW130737   6.367   0.061   3.282
 9946SOL    HW230738   6.480   7.021   3.381
 9947SOL     OW30739   1.797   1.433   3.707
 9947SOL    HW130740   1.725   1.501   3.722
 9947SOL    HW230741   1.798   1.406   3.611
 9948SOL     OW30742   6.800   5.438   4.908
 9948SOL    HW130743   6.825   5.370   4.839
 9948SOL    HW230744   6.803   5.530   4.868
 9949SOL     OW30745   0.025   4.713   4.365
 9949SOL    HW130746   0.069   4.676   4.283
 9949SOL    HW230747   6.973   4.653   4.392
 9950SOL     OW30748   6.701   5.546   5.854
 9950SOL    HW130749   6.638   5.618   5.883
 9950SOL    HW230750   6.734   5.496   5.934
 9951SOL     OW30751   1.350   1.784   2.919
 9951SOL    HW130752   1.374   1.881   2.931
 9951SOL    HW230753   1.432   1.728   2.934
 9952SOL     OW30754   1.404   4.023   1.221
 9952SOL    HW130755   1.343   3.944   1.223
 9952SOL    HW230756   1.460   4.020   1.138
 9953SOL     OW30757   5.315   2.260   3.417
 9953SOL    HW130758   5.381   2.325   3.381
 9953SOL    HW230759   5.359   2.202   3.486
 9954SOL     OW30760   1.624   0.604   4.900
 9954SOL    HW130761   1.670   0.538   4.959
 9954SOL    HW230762   1.591   0.681   4.955
 9955SOL     OW30763   4.386   3.953   6.727
 9955SOL    HW130764   4.330   4.033   6.708
 9955SOL    HW230765   4.344   3.899   6.800
 9956SOL     OW30766   0.431   4.090   2.442
 9956SOL    HW130767   0.506   4.096   2.375
 9956SOL    HW230768   0.414   3.994   2.463
 9957SOL     OW30769   5.540   6.955   1.724
 9957SOL    HW130770   5.507   6.925   1.635
 9957SOL    HW230771   5.639   6.970   1.721
 9958SOL     OW30772   2.978   5.815   5.586
 9958SOL    HW130773   2.976   5.854   5.494
 9958SOL    HW230774   2.924   5.873   5.647
 9959SOL     OW30775   4.113   3.150   2.063
 9959SOL    HW130776   4.162   3.065   2.082
 9959SOL    HW230777   4.078   3.188   2.149
 9960SOL     OW30778   0.515   6.435   1.222
 9960SOL    HW130779   0.595   6.374   1.226
 9960SOL    HW230780   0.540   6.518   1.172
 9961SOL     OW30781   2.424   4.396   2.702
 9961SOL    HW130782   2.331   4.430   2.707
 9961SOL    HW230783   2.483   4.449   2.763
 9962SOL     OW30784   3.917   0.781   2.323
 9962SOL    HW130785   3.838   0.726   2.296
 9962SOL    HW230786   3.888   0.877   2.331
 9963SOL     OW30787   2.352   3.567   6.474
 9963SOL    HW130788   2.393   3.638   6.530
 9963SOL    HW230789   2.423   3.515   6.427
 9964SOL     OW30790   3.747   4.901   5.567
 9964SOL    HW130791   3.753   4.939   5.659
 9964SOL    HW230792   3.715   4.807   5.571
 9965SOL     OW30793   3.285   5.829   4.826
 9965SOL    HW130794   3.281   5.752   4.890
 9965SOL    HW230795   3.192   5.859   4.804
 9966SOL     OW30796   2.619   5.424   2.099
 9966SOL    HW130797   2.532   5.378   2.117
 9966SOL    HW230798   2.673   5.369   2.035
 9967SOL     OW30799   6.116   5.138   2.805
 9967SOL    HW130800   6.191   5.200   2.828
 9967SOL    HW230801   6.133   5.097   2.715
 9968SOL     OW30802   3.686   5.517   6.835
 9968SOL    HW130803   3.674   5.418   6.823
 9968SOL    HW230804   3.655   5.563   6.752
 9969SOL     OW30805   1.587   2.908   4.510
 9969SOL    HW130806   1.684   2.883   4.516
 9969SOL    HW230807   1.534   2.853   4.574
 9970SOL     OW30808   6.572   4.969   1.238
 9970SOL    HW130809   6.548   5.007   1.327
 9970SOL    HW230810   6.657   4.917   1.246
 9971SOL     OW30811   2.419   3.208   1.262
 9971SOL    HW130812   2.435   3.127   1.206
 9971SOL    HW230813   2.405   3.182   1.357
 9972SOL     OW30814   2.782   4.185   0.958
 9972SOL    HW130815   2.767   4.107   0.897
 9972SOL    HW230816   2.700   4.243   0.957
 9973SOL     OW30817   4.064   2.175   4.353
 9973SOL    HW130818   3.981   2.119   4.345
 9973SOL    HW230819   4.086   2.213   4.263
 9974SOL     OW30820   0.318   3.237   2.637
 9974SOL    HW130821   0.224   3.208   2.616
 9974SOL    HW230822   0.380   3.159   2.628
 9975SOL     OW30823   0.220   5.245   6.230
 9975SOL    HW130824   0.300   5.279   6.277
 9975SOL    HW230825   0.244   5.224   6.135
 9976SOL     OW30826   0.868   5.350   5.568
 9976SOL    HW130827   0.860   5.255   5.598
 9976SOL    HW230828   0.960   5.383   5.588
 9977SOL     OW30829   6.068   4.872   5.800
 9977SOL    HW130830   6.023   4.811   5.865
 9977SOL    HW230831   6.141   4.922   5.847
 9978SOL     OW30832   6.244   1.466   5.629
 9978SOL    HW130833   6.213   1.543   5.684
 9978SOL    HW230834   6.314   1.414   5.679
 9979SOL     OW30835   6.720   3.993   6.578
 9979SOL    HW130836   6.819   3.983   6.591
 9979SOL    HW230837   6.673   3.911   6.610
 9980SOL     OW30838   1.715   0.330   0.494
 9980SOL    HW130839   1.658   0.261   0.450
 9980SOL    HW230840   1.672   0.361   0.578
 9981SOL     OW30841   2.667   2.078   0.399
 9981SOL    HW130842   2.652   2.051   0.494
 9981SOL    HW230843   2.622   2.166   0.381
 9982SOL     OW30844   1.447   1.105   4.258
 9982SOL    HW130845   1.545   1.085   4.262
 9982SOL    HW230846   1.432   1.202   4.276
 9983SOL     OW30847   0.666   1.282   1.956
 9983SOL    HW130848   0.610   1.296   2.038
 9983SOL    HW230849   0.618   1.222   1.892
 9984SOL     OW30850   0.873   6.537   0.008
 9984SOL    HW130851   0.951   6.528   0.069
 9984SOL    HW230852   0.817   6.454   0.012
 9985SOL     OW30853   2.962   6.134   1.075
 9985SOL    HW130854   3.047   6.175   1.108
 9985SOL    HW230855   2.886   6.166   1.132
 9986SOL     OW30856   5.478   4.810   0.844
 9986SOL    HW130857   5.476   4.905   0.877
 9986SOL    HW230858   5.558   4.798   0.784
 9987SOL     OW30859   6.244   2.529   2.650
 9987SOL    HW130860   6.151   2.507   2.679
 9987SOL    HW230861   6.302   2.448   2.660
 9988SOL     OW30862   6.590   5.316   4.441
 9988SOL    HW130863   6.496   5.282   4.429
 9988SOL    HW230864   6.589   5.416   4.438
 9989SOL     OW30865   6.299   4.229   2.617
 9989SOL    HW130866   6.306   4.318   2.663
 9989SOL    HW230867   6.375   4.219   2.553
 9990SOL     OW30868   2.277   6.761   3.753
 9990SOL    HW130869   2.264   6.753   3.654
 9990SOL    HW230870   2.187   6.765   3.797
 9991SOL     OW30871   2.183   3.112   4.115
 9991SOL    HW130872   2.264   3.062   4.147
 9991SOL    HW230873   2.151   3.071   4.029
 9992SOL     OW30874   3.930   3.512   0.796
 9992SOL    HW130875   3.918   3.447   0.722
 9992SOL    HW230876   3.927   3.605   0.760
 9993SOL     OW30877   3.963   6.629   3.468
 9993SOL    HW130878   3.965   6.531   3.449
 9993SOL    HW230879   4.011   6.648   3.554
 9994SOL     OW30880   6.793   4.466   2.535
 9994SOL    HW130881   6.791   4.517   2.621
 9994SOL    HW230882   6.742   4.516   2.465
 9995SOL     OW30883   3.246   0.848   3.504
 9995SOL    HW130884   3.193   0.924   3.467
 9995SOL    HW230885   3.315   0.883   3.567
 9996SOL     OW30886   2.802   3.352   1.784
 9996SOL    HW130887   2.704   3.345   1.762
 9996SOL    HW230888   2.815   3.331   1.881
 9997SOL     OW30889   5.016   0.887   1.990
 9997SOL    HW130890   5.035   0.790   1.973
 9997SOL    HW230891   4.982   0.929   1.906
 9998SOL     OW30892   5.691   3.511   2.425
 9998SOL    HW130893   5.599   3.473   2.436
 9998SOL    HW230894   5.687   3.594   2.370
 9999SOL     OW30895   0.343   5.740   4.798
 9999SOL    HW130896   0.408   5.764   4.870
 9999SOL    HW230897   0.251   5.732   4.838
10000SOL     OW30898   5.377   2.028   0.239
10000SOL    HW130899   5.286   2.047   0.275
10000SOL    HW230900   5.425   2.115   0.223
10001SOL     OW30901   3.964   0.857   1.519
10001SOL    HW130902   3.907   0.778   1.544
10001SOL    HW230903   3.938   0.888   1.427
10002SOL     OW30904   1.939   1.201   1.763
10002SOL    HW130905   1.920   1.231   1.669
10002SOL    HW230906   1.886   1.118   1.783
10003SOL     OW30907   2.997   2.187   2.226
10003SOL    HW130908   3.097   2.181   2.218
10003SOL    HW230909   2.962   2.246   2.153
10004SOL     OW30910   5.400   2.832   5.163
10004SOL    HW130911   5.483   2.798   5.118
10004SOL    HW230912   5.332   2.759   5.167
10005SOL     OW30913   3.500   5.630   2.216
10005SOL    HW130914   3.554   5.560   2.262
10005SOL    HW230915   3.469   5.697   2.283
10006SOL     OW30916   6.087   0.098   5.558
10006SOL    HW130917   6.107   0.028   5.626
10006SOL    HW230918   6.166   0.108   5.497
10007SOL     OW30919   0.546   3.266   3.845
10007SOL    HW130920   0.452   3.300   3.853
10007SOL    HW230921   0.548   3.189   3.781
10008SOL     OW30922   4.727   1.068   3.637
10008SOL    HW130923   4.711   1.137   3.566
10008SOL    HW230924   4.824   1.041   3.636
10009SOL     OW30925   1.568   4.398   1.441
10009SOL    HW130926   1.592   4.302   1.450
10009SOL    HW230927   1.613   4.451   1.512
10010SOL     OW30928   2.660   6.146   0.206
10010SOL    HW130929   2.637   6.067   0.263
10010SOL    HW230930   2.654   6.119   0.109
10011SOL     OW30931   0.645   4.015   6.268
10011SOL    HW130932   0.688   4.042   6.182
10011SOL    HW230933   0.657   3.917   6.282
10012SOL     OW30934   5.521   0.408   2.419
10012SOL    HW130935   5.609   0.439   2.452
10012SOL    HW230936   5.534   0.328   2.361
10013SOL     OW30937   1.647   1.665   3.751
10013SOL    HW130938   1.711   1.724   3.701
10013SOL    HW230939   1.603   1.718   3.824
10014SOL     OW30940   0.911   1.326   1.262
10014SOL    HW130941   0.840   1.319   1.191
10014SOL    HW230942   0.998   1.351   1.220
10015SOL     OW30943   3.986   5.478   0.067
10015SOL    HW130944   3.901   5.433   0.093
10015SOL    HW230945   3.967   5.556   0.007
10016SOL     OW30946   1.346   0.510   4.862
10016SOL    HW130947   1.435   0.556   4.854
10016SOL    HW230948   1.356   0.428   4.919
10017SOL     OW30949   1.767   1.561   3.178
10017SOL    HW130950   1.766   1.461   3.180
10017SOL    HW230951   1.693   1.597   3.236
10018SOL     OW30952   6.696   4.893   6.056
10018SOL    HW130953   6.613   4.837   6.051
10018SOL    HW230954   6.670   4.989   6.065
10019SOL     OW30955   0.530   2.183   3.466
10019SOL    HW130956   0.583   2.191   3.381
10019SOL    HW230957   0.452   2.122   3.450
10020SOL     OW30958   0.649   0.797   1.257
10020SOL    HW130959   0.695   0.881   1.229
10020SOL    HW230960   0.587   0.767   1.185
10021SOL     OW30961   1.165   2.290   2.553
10021SOL    HW130962   1.180   2.256   2.646
10021SOL    HW230963   1.192   2.220   2.487
10022SOL     OW30964   3.629   6.772   0.716
10022SOL    HW130965   3.681   6.758   0.632
10022SOL    HW230966   3.644   6.696   0.778
10023SOL     OW30967   2.292   4.706   4.897
10023SOL    HW130968   2.332   4.645   4.828
10023SOL    HW230969   2.266   4.792   4.853
10024SOL     OW30970   2.000   5.882   1.573
10024SOL    HW130971   1.923   5.819   1.563
10024SOL    HW230972   2.045   5.895   1.485
10025SOL     OW30973   2.079   2.886   2.094
10025SOL    HW130974   1.979   2.882   2.090
10025SOL    HW230975   2.116   2.886   2.001
10026SOL     OW30976   5.111   0.097   3.308
10026SOL    HW130977   5.153   0.146   3.232
10026SOL    HW230978   5.015   0.122   3.316
10027SOL     OW30979   0.354   2.949   5.211
10027SOL    HW130980   0.329   3.029   5.267
10027SOL    HW230981   0.362   2.977   5.116
10028SOL     OW30982   1.669   1.802   2.166
10028SOL    HW130983   1.759   1.785   2.125
10028SOL    HW230984   1.653   1.900   2.172
10029SOL     OW30985   1.810   1.855   3.630
10029SOL    HW130986   1.878   1.826   3.563
10029SOL    HW230987   1.794   1.953   3.622
10030SOL     OW30988   3.244   0.373   4.655
10030SOL    HW130989   3.334   0.351   4.616
10030SOL    HW230990   3.174   0.364   4.583
10031SOL     OW30991   5.544   4.659   4.497
10031SOL    HW130992   5.449   4.637   4.477
10031SOL    HW230993   5.564   4.637   4.593
10032SOL     OW30994   4.303   0.456   5.243
10032SOL    HW130995   4.338   0.368   5.275
10032SOL    HW230996   4.235   0.441   5.171
10033SOL     OW30997   4.390   2.416   3.562
10033SOL    HW130998   4.445   2.472   3.501
10033SOL    HW230999   4.408   2.442   3.657
10034SOL     OW31000   3.518   0.358   4.048
10034SOL    HW131001   3.596   0.325   4.101
10034SOL    HW231002   3.496   0.451   4.078
10035SOL     OW31003   6.479   4.753   1.520
10035SOL    HW131004   6.576   4.733   1.505
10035SOL    HW231005   6.465   4.785   1.613
10036SOL     OW31006   6.419   0.273   0.616
10036SOL    HW131007   6.473   0.292   0.534
10036SOL    HW231008   6.406   0.357   0.668
10037SOL     OW31009   5.693   1.205   0.427
10037SOL    HW131010   5.745   1.138   0.374
10037SOL    HW231011   5.613   1.234   0.375
10038SOL     OW31012   4.105   0.013   6.474
10038SOL    HW131013   4.021   0.053   6.510
10038SOL    HW231014   4.170   0.085   6.453
10039SOL     OW31015   4.122   6.628   5.290
10039SOL    HW131016   4.052   6.652   5.358
10039SOL    HW231017   4.098   6.541   5.248
10040SOL     OW31018   4.072   5.762   5.986
10040SOL    HW131019   4.018   5.735   6.065
10040SOL    HW231020   4.023   5.832   5.933
10041SOL     OW31021   3.987   6.159   6.662
10041SOL    HW131022   3.967   6.078   6.608
10041SOL    HW231023   3.953   6.146   6.755
10042SOL     OW31024   1.570   2.122   5.152
10042SOL    HW131025   1.494   2.154   5.095
10042SOL    HW231026   1.618   2.048   5.105
10043SOL     OW31027   0.556   2.406   4.566
10043SOL    HW131028   0.547   2.505   4.560
10043SOL    HW231029   0.472   2.363   4.532
10044SOL     OW31030   2.991   1.504   4.667
10044SOL    HW131031   3.029   1.514   4.576
10044SOL    HW231032   3.057   1.538   4.735
10045SOL     OW31033   5.253   6.835   3.823
10045SOL    HW131034   5.242   6.762   3.890
10045SOL    HW231035   5.170   6.842   3.767
10046SOL     OW31036   1.674   3.706   1.311
10046SOL    HW131037   1.753   3.762   1.287
10046SOL    HW231038   1.679   3.681   1.407
10047SOL     OW31039   6.469   2.949   5.223
10047SOL    HW131040   6.562   2.968   5.193
10047SOL    HW231041   6.415   3.034   5.219
10048SOL     OW31042   6.121   1.548   2.484
10048SOL    HW131043   6.097   1.626   2.542
10048SOL    HW231044   6.040   1.517   2.435
10049SOL     OW31045   0.614   0.265   6.613
10049SOL    HW131046   0.581   0.326   6.541
10049SOL    HW231047   0.591   0.303   6.703
10050SOL     OW31048   5.982   2.226   4.712
10050SOL    HW131049   5.974   2.232   4.811
10050SOL    HW231050   6.073   2.190   4.688
10051SOL     OW31051   6.395   2.166   5.028
10051SOL    HW131052   6.374   2.263   5.038
10051SOL    HW231053   6.423   2.148   4.934
10052SOL     OW31054   2.885   2.251   2.784
10052SOL    HW131055   2.962   2.201   2.744
10052SOL    HW231056   2.851   2.201   2.864
10053SOL     OW31057   3.204   6.044   1.877
10053SOL    HW131058   3.169   6.096   1.954
10053SOL    HW231059   3.295   6.078   1.851
10054SOL     OW31060   5.295   4.993   6.619
10054SOL    HW131061   5.286   5.038   6.531
10054SOL    HW231062   5.302   5.062   6.691
10055SOL     OW31063   6.450   1.892   5.099
10055SOL    HW131064   6.445   1.991   5.103
10055SOL    HW231065   6.467   1.863   5.004
10056SOL     OW31066   5.574   4.315   2.430
10056SOL    HW131067   5.501   4.267   2.477
10056SOL    HW231068   5.647   4.251   2.407
10057SOL     OW31069   3.947   1.912   4.339
10057SOL    HW131070   3.900   1.873   4.418
10057SOL    HW231071   3.879   1.948   4.274
10058SOL     OW31072   0.766   4.025   4.430
10058SOL    HW131073   0.796   3.949   4.489
10058SOL    HW231074   0.683   3.999   4.382
10059SOL     OW31075   5.555   0.684   1.055
10059SOL    HW131076   5.615   0.614   1.095
10059SOL    HW231077   5.560   0.768   1.109
10060SOL     OW31078   1.567   1.548   1.508
10060SOL    HW131079   1.593   1.589   1.596
10060SOL    HW231080   1.601   1.605   1.433
10061SOL     OW31081   4.616   1.509   4.326
10061SOL    HW131082   4.652   1.561   4.249
10061SOL    HW231083   4.661   1.540   4.410
10062SOL     OW31084   6.777   0.236   4.040
10062SOL    HW131085   6.773   0.259   4.138
10062SOL    HW231086   6.872   0.228   4.012
10063SOL     OW31087   2.417   0.724   3.783
10063SOL    HW131088   2.364   0.801   3.747
10063SOL    HW231089   2.421   0.652   3.714
10064SOL     OW31090   4.705   6.937   0.297
10064SOL    HW131091   4.776   6.921   0.228
10064SOL    HW231092   4.689   0.011   0.307
10065SOL     OW31093   2.032   0.009   2.087
10065SOL    HW131094   2.031   0.108   2.102
10065SOL    HW231095   2.124   6.998   2.107
10066SOL     OW31096   0.935   2.539   3.698
10066SOL    HW131097   0.980   2.612   3.646
10066SOL    HW231098   0.841   2.567   3.720
10067SOL     OW31099   6.743   4.264   4.663
10067SOL    HW131100   6.760   4.209   4.745
10067SOL    HW231101   6.689   4.345   4.687
10068SOL     OW31102   0.199   3.585   3.025
10068SOL    HW131103   0.291   3.621   3.042
10068SOL    HW231104   0.193   3.493   3.065
10069SOL     OW31105   2.550   4.949   2.953
10069SOL    HW131106   2.557   4.992   3.043
10069SOL    HW231107   2.500   4.862   2.961
10070SOL     OW31108   6.357   6.981   5.118
10070SOL    HW131109   6.397   7.010   5.032
10070SOL    HW231110   6.292   6.906   5.102
10071SOL     OW31111   6.107   5.917   4.251
10071SOL    HW131112   6.096   5.884   4.345
10071SOL    HW231113   6.029   5.886   4.196
10072SOL     OW31114   0.193   6.552   3.825
10072SOL    HW131115   0.182   6.469   3.878
10072SOL    HW231116   0.103   6.590   3.804
10073SOL     OW31117   5.819   4.140   5.495
10073SOL    HW131118   5.781   4.230   5.475
10073SOL    HW231119   5.797   4.115   5.589
10074SOL     OW31120   1.706   0.741   5.288
10074SOL    HW131121   1.712   0.809   5.361
10074SOL    HW231122   1.774   0.760   5.218
10075SOL     OW31123   1.935   2.914   2.797
10075SOL    HW131124   1.846   2.906   2.752
10075SOL    HW231125   2.003   2.947   2.731
10076SOL     OW31126   0.600   0.177   3.710
10076SOL    HW131127   0.614   0.276   3.710
10076SOL    HW231128   0.588   0.145   3.804
10077SOL     OW31129   4.001   3.178   6.182
10077SOL    HW131130   4.057   3.137   6.254
10077SOL    HW231131   3.917   3.125   6.171
10078SOL     OW31132   0.493   5.434   4.059
10078SOL    HW131133   0.474   5.532   4.061
10078SOL    HW231134   0.423   5.387   4.006
10079SOL     OW31135   6.494   4.127   2.814
10079SOL    HW131136   6.400   4.159   2.828
10079SOL    HW231137   6.532   4.098   2.902
10080SOL     OW31138   4.445   1.286   5.575
10080SOL    HW131139   4.477   1.267   5.668
10080SOL    HW231140   4.457   1.383   5.555
10081SOL     OW31141   0.111   0.115   0.734
10081SOL    HW131142   0.079   0.165   0.653
10081SOL    HW231143   0.211   0.117   0.737
10082SOL     OW31144   0.292   5.117   1.560
10082SOL    HW131145   0.200   5.150   1.579
10082SOL    HW231146   0.348   5.192   1.524
10083SOL     OW31147   4.568   0.874   3.397
10083SOL    HW131148   4.495   0.888   3.331
10083SOL    HW231149   4.547   0.924   3.481
10084SOL     OW31150   2.104   0.884   5.256
10084SOL    HW131151   2.074   0.963   5.310
10084SOL    HW231152   2.160   0.824   5.313
10085SOL     OW31153   2.460   5.580   1.452
10085SOL    HW131154   2.539   5.566   1.510
10085SOL    HW231155   2.490   5.594   1.357
10086SOL     OW31156   4.242   5.785   2.429
10086SOL    HW131157   4.287   5.712   2.377
10086SOL    HW231158   4.178   5.744   2.495
10087SOL     OW31159   6.903   6.912   3.755
10087SOL    HW131160   6.806   6.937   3.761
10087SOL    HW231161   6.953   6.983   3.706
10088SOL     OW31162   6.464   0.321   1.402
10088SOL    HW131163   6.374   0.365   1.407
10088SOL    HW231164   6.524   0.360   1.472
10089SOL     OW31165   2.809   1.956   2.205
10089SOL    HW131166   2.857   1.877   2.243
10089SOL    HW231167   2.866   2.038   2.215
10090SOL     OW31168   1.534   4.707   1.356
10090SOL    HW131169   1.542   4.743   1.449
10090SOL    HW231170   1.437   4.694   1.334
10091SOL     OW31171   0.416   4.273   6.498
10091SOL    HW131172   0.398   4.175   6.487
10091SOL    HW231173   0.330   4.320   6.518
10092SOL     OW31174   2.156   2.522   5.475
10092SOL    HW131175   2.060   2.548   5.463
10092SOL    HW231176   2.209   2.603   5.500
10093SOL     OW31177   6.456   2.904   4.903
10093SOL    HW131178   6.473   2.928   4.998
10093SOL    HW231179   6.377   2.955   4.869
10094SOL     OW31180   2.668   5.698   2.204
10094SOL    HW131181   2.696   5.754   2.127
10094SOL    HW231182   2.634   5.610   2.171
10095SOL     OW31183   6.067   1.766   5.150
10095SOL    HW131184   6.074   1.674   5.190
10095SOL    HW231185   5.971   1.794   5.147
10096SOL     OW31186   4.400   5.046   3.067
10096SOL    HW131187   4.306   5.079   3.067
10096SOL    HW231188   4.440   5.058   2.976
10097SOL     OW31189   0.647   1.323   0.466
10097SOL    HW131190   0.730   1.300   0.517
10097SOL    HW231191   0.595   1.240   0.448
10098SOL     OW31192   2.869   0.506   4.868
10098SOL    HW131193   2.822   0.470   4.788
10098SOL    HW231194   2.944   0.566   4.838
10099SOL     OW31195   0.117   5.198   1.085
10099SOL    HW131196   0.174   5.179   1.005
10099SOL    HW231197   0.141   5.136   1.159
10100SOL     OW31198   4.918   0.053   4.810
10100SOL    HW131199   4.822   0.026   4.808
10100SOL    HW231200   4.925   0.152   4.803
10101SOL     OW31201   6.516   3.896   1.669
10101SOL    HW131202   6.597   3.848   1.701
10101SOL    HW231203   6.505   3.981   1.721
10102SOL     OW31204   0.630   1.453   2.424
10102SOL    HW131205   0.699   1.460   2.352
10102SOL    HW231206   0.650   1.519   2.496
10103SOL     OW31207   2.504   0.490   5.968
10103SOL    HW131208   2.414   0.463   5.932
10103SOL    HW231209   2.525   0.436   6.049
10104SOL     OW31210   2.255   1.866   3.916
10104SOL    HW131211   2.348   1.845   3.945
10104SOL    HW231212   2.256   1.947   3.858
10105SOL     OW31213   1.403   0.993   0.324
10105SOL    HW131214   1.448   0.905   0.308
10105SOL    HW231215   1.450   1.040   0.399
10106SOL     OW31216   3.986   6.504   0.474
10106SOL    HW131217   3.997   6.495   0.375
10106SOL    HW231218   3.918   6.439   0.506
10107SOL     OW31219   6.443   1.397   5.857
10107SOL    HW131220   6.507   1.472   5.846
10107SOL    HW231221   6.356   1.432   5.894
10108SOL     OW31222   6.445   0.302   6.979
10108SOL    HW131223   6.480   0.241   6.908
10108SOL    HW231224   6.356   0.339   6.952
10109SOL     OW31225   5.591   0.069   0.365
10109SOL    HW131226   5.648   0.027   0.295
10109SOL    HW231227   5.620   0.164   0.379
10110SOL     OW31228   3.664   5.537   4.464
10110SOL    HW131229   3.685   5.626   4.424
10110SOL    HW231230   3.701   5.464   4.406
10111SOL     OW31231   5.661   3.229   3.448
10111SOL    HW131232   5.663   3.322   3.412
10111SOL    HW231233   5.574   3.186   3.425
10112SOL     OW31234   5.498   3.465   3.791
10112SOL    HW131235   5.543   3.548   3.757
10112SOL    HW231236   5.556   3.423   3.862
10113SOL     OW31237   4.319   0.381   0.241
10113SOL    HW131238   4.360   0.306   0.294
10113SOL    HW231239   4.367   0.391   0.154
10114SOL     OW31240   4.823   1.598   0.890
10114SOL    HW131241   4.739   1.545   0.902
10114SOL    HW231242   4.835   1.661   0.968
10115SOL     OW31243   3.974   0.711   5.002
10115SOL    HW131244   4.069   0.732   4.977
10115SOL    HW231245   3.912   0.754   4.938
10116SOL     OW31246   0.729   6.395   0.318
10116SOL    HW131247   0.763   6.471   0.374
10116SOL    HW231248   0.684   6.328   0.377
10117SOL     OW31249   6.713   5.875   5.883
10117SOL    HW131250   6.631   5.819   5.873
10117SOL    HW231251   6.794   5.816   5.881
10118SOL     OW31252   2.300   4.681   2.617
10118SOL    HW131253   2.245   4.598   2.606
10118SOL    HW231254   2.240   4.761   2.616
10119SOL     OW31255   0.116   5.822   4.504
10119SOL    HW131256   0.184   5.751   4.521
10119SOL    HW231257   0.093   5.868   4.590
10120SOL     OW31258   2.072   3.424   4.906
10120SOL    HW131259   2.122   3.510   4.901
10120SOL    HW231260   2.027   3.417   4.995
10121SOL     OW31261   6.210   3.226   6.774
10121SOL    HW131262   6.242   3.142   6.818
10121SOL    HW231263   6.150   3.275   6.837
10122SOL     OW31264   6.061   3.276   2.229
10122SOL    HW131265   6.049   3.327   2.143
10122SOL    HW231266   5.973   3.268   2.275
10123SOL     OW31267   5.147   6.434   0.018
10123SOL    HW131268   5.218   6.364   0.014
10123SOL    HW231269   5.071   6.408   6.981
10124SOL     OW31270   1.355   4.193   0.468
10124SOL    HW131271   1.321   4.255   0.397
10124SOL    HW231272   1.356   4.241   0.556
10125SOL     OW31273   1.903   0.963   1.985
10125SOL    HW131274   1.932   0.913   1.904
10125SOL    HW231275   1.973   0.957   2.056
10126SOL     OW31276   6.816   6.681   6.529
10126SOL    HW131277   6.913   6.657   6.525
10126SOL    HW231278   6.792   6.737   6.450
10127SOL     OW31279   2.770   4.629   6.380
10127SOL    HW131280   2.802   4.686   6.456
10127SOL    HW231281   2.670   4.621   6.384
10128SOL     OW31282   2.759   1.231   0.540
10128SOL    HW131283   2.732   1.313   0.590
10128SOL    HW231284   2.824   1.255   0.468
10129SOL     OW31285   5.854   1.819   2.210
10129SOL    HW131286   5.810   1.769   2.135
10129SOL    HW231287   5.799   1.809   2.293
10130SOL     OW31288   1.358   3.364   1.636
10130SOL    HW131289   1.385   3.455   1.604
10130SOL    HW231290   1.379   3.296   1.565
10131SOL     OW31291   1.231   6.894   4.933
10131SOL    HW131292   1.296   6.818   4.920
10131SOL    HW231293   1.148   6.876   4.880
10132SOL     OW31294   3.693   0.807   4.100
10132SOL    HW131295   3.693   0.737   4.029
10132SOL    HW231296   3.766   0.788   4.166
10133SOL     OW31297   3.732   6.641   0.472
10133SOL    HW131298   3.667   6.583   0.519
10133SOL    HW231299   3.823   6.599   0.474
10134SOL     OW31300   0.001   6.593   2.925
10134SOL    HW131301   0.058   6.512   2.931
10134SOL    HW231302   6.946   6.574   2.866
10135SOL     OW31303   5.083   3.034   3.681
10135SOL    HW131304   5.159   2.971   3.693
10135SOL    HW231305   5.094   3.085   3.596
10136SOL     OW31306   5.446   1.226   2.324
10136SOL    HW131307   5.431   1.181   2.236
10136SOL    HW231308   5.426   1.162   2.399
10137SOL     OW31309   6.947   3.304   4.425
10137SOL    HW131310   6.871   3.360   4.393
10137SOL    HW231311   0.009   3.343   4.394
10138SOL     OW31312   5.346   3.591   6.967
10138SOL    HW131313   5.325   3.535   0.023
10138SOL    HW231314   5.280   3.666   6.961
10139SOL     OW31315   2.883   3.642   3.594
10139SOL    HW131316   2.815   3.585   3.639
10139SOL    HW231317   2.951   3.584   3.548
10140SOL     OW31318   6.061   5.509   6.866
10140SOL    HW131319   5.988   5.456   6.822
10140SOL    HW231320   6.049   5.505   6.965
10141SOL     OW31321   3.874   0.976   5.659
10141SOL    HW131322   3.842   0.893   5.611
10141SOL    HW231323   3.913   1.039   5.592
10142SOL     OW31324   6.703   6.846   5.686
10142SOL    HW131325   6.680   6.930   5.638
10142SOL    HW231326   6.698   6.862   5.785
10143SOL     OW31327   5.382   1.049   6.967
10143SOL    HW131328   5.386   0.963   7.018
10143SOL    HW231329   5.417   1.035   6.875
10144SOL     OW31330   3.249   0.959   5.813
10144SOL    HW131331   3.305   0.937   5.734
10144SOL    HW231332   3.300   1.022   5.873
10145SOL     OW31333   2.919   5.137   3.969
10145SOL    HW131334   2.824   5.105   3.976
10145SOL    HW231335   2.934   5.210   4.036
10146SOL     OW31336   4.466   4.573   4.736
10146SOL    HW131337   4.457   4.664   4.696
10146SOL    HW231338   4.415   4.569   4.822
10147SOL     OW31339   5.506   4.057   5.344
10147SOL    HW131340   5.431   4.035   5.282
10147SOL    HW231341   5.593   4.031   5.301
10148SOL     OW31342   5.421   5.131   6.141
10148SOL    HW131343   5.381   5.039   6.145
10148SOL    HW231344   5.353   5.196   6.107
10149SOL     OW31345   5.802   3.422   1.210
10149SOL    HW131346   5.883   3.373   1.178
10149SOL    HW231347   5.722   3.393   1.157
10150SOL     OW31348   3.559   3.215   0.702
10150SOL    HW131349   3.649   3.174   0.718
10150SOL    HW231350   3.556   3.306   0.744
10151SOL     OW31351   0.365   5.807   0.146
10151SOL    HW131352   0.308   5.811   0.064
10151SOL    HW231353   0.433   5.735   0.137
10152SOL     OW31354   6.647   5.983   4.465
10152SOL    HW131355   6.561   5.975   4.413
10152SOL    HW231356   6.722   5.946   4.410
10153SOL     OW31357   4.326   5.856   3.391
10153SOL    HW131358   4.350   5.806   3.474
10153SOL    HW231359   4.226   5.854   3.378
10154SOL     OW31360   4.040   6.412   5.147
10154SOL    HW131361   4.035   6.343   5.220
10154SOL    HW231362   4.087   6.373   5.068
10155SOL     OW31363   3.768   2.207   6.222
10155SOL    HW131364   3.762   2.112   6.190
10155SOL    HW231365   3.681   2.234   6.262
10156SOL     OW31366   5.865   1.053   2.092
10156SOL    HW131367   5.911   0.967   2.072
10156SOL    HW231368   5.910   1.127   2.043
10157SOL     OW31369   0.298   1.774   0.581
10157SOL    HW131370   0.346   1.712   0.518
10157SOL    HW231371   0.204   1.742   0.594
10158SOL     OW31372   6.271   5.801   0.943
10158SOL    HW131373   6.262   5.788   0.844
10158SOL    HW231374   6.338   5.873   0.961
10159SOL     OW31375   2.261   3.107   0.514
10159SOL    HW131376   2.210   3.145   0.437
10159SOL    HW231377   2.273   3.178   0.583
10160SOL     OW31378   1.843   3.390   2.258
10160SOL    HW131379   1.777   3.459   2.289
10160SOL    HW231380   1.796   3.305   2.237
10161SOL     OW31381   4.049   3.357   1.020
10161SOL    HW131382   4.140   3.324   1.044
10161SOL    HW231383   4.056   3.417   0.940
10162SOL     OW31384   3.806   4.696   1.145
10162SOL    HW131385   3.850   4.785   1.152
10162SOL    HW231386   3.745   4.682   1.223
10163SOL     OW31387   6.334   4.224   6.985
10163SOL    HW131388   6.310   4.207   0.058
10163SOL    HW231389   6.278   4.298   6.949
10164SOL     OW31390   6.044   3.204   3.847
10164SOL    HW131391   5.959   3.158   3.872
10164SOL    HW231392   6.113   3.135   3.823
10165SOL     OW31393   6.466   1.232   3.430
10165SOL    HW131394   6.422   1.198   3.347
10165SOL    HW231395   6.530   1.306   3.406
10166SOL     OW31396   3.459   1.751   1.812
10166SOL    HW131397   3.559   1.754   1.812
10166SOL    HW231398   3.423   1.822   1.872
10167SOL     OW31399   1.386   4.455   6.797
10167SOL    HW131400   1.479   4.418   6.790
10167SOL    HW231401   1.353   4.444   6.891
10168SOL     OW31402   5.523   2.770   6.522
10168SOL    HW131403   5.598   2.819   6.478
10168SOL    HW231404   5.487   2.701   6.458
10169SOL     OW31405   6.879   4.419   3.417
10169SOL    HW131406   6.977   4.399   3.420
10169SOL    HW231407   6.842   4.419   3.509
10170SOL     OW31408   6.346   5.414   5.571
10170SOL    HW131409   6.410   5.394   5.646
10170SOL    HW231410   6.330   5.331   5.518
10171SOL     OW31411   6.990   2.264   4.732
10171SOL    HW131412   0.005   2.186   4.682
10171SOL    HW231413   6.989   2.243   4.830
10172SOL     OW31414   0.849   6.134   5.208
10172SOL    HW131415   0.808   6.153   5.119
10172SOL    HW231416   0.804   6.190   5.278
10173SOL     OW31417   2.070   2.456   0.513
10173SOL    HW131418   2.060   2.484   0.609
10173SOL    HW231419   1.980   2.435   0.475
10174SOL     OW31420   5.292   4.596   3.433
10174SOL    HW131421   5.225   4.541   3.383
10174SOL    HW231422   5.364   4.626   3.371
10175SOL     OW31423   5.516   1.751   2.894
10175SOL    HW131424   5.529   1.763   2.796
10175SOL    HW231425   5.464   1.829   2.930
10176SOL     OW31426   0.070   3.165   5.605
10176SOL    HW131427   0.097   3.157   5.701
10176SOL    HW231428   0.034   3.256   5.588
10177SOL     OW31429   2.198   1.228   1.401
10177SOL    HW131430   2.174   1.316   1.441
10177SOL    HW231431   2.188   1.233   1.301
10178SOL     OW31432   0.323   1.165   6.613
10178SOL    HW131433   0.383   1.176   6.692
10178SOL    HW231434   0.344   1.080   6.566
10179SOL     OW31435   0.673   2.768   6.640
10179SOL    HW131436   0.631   2.782   6.730
10179SOL    HW231437   0.619   2.815   6.571
10180SOL     OW31438   3.933   1.052   5.907
10180SOL    HW131439   3.911   1.001   5.824
10180SOL    HW231440   4.005   1.006   5.957
10181SOL     OW31441   6.453   3.455   1.621
10181SOL    HW131442   6.380   3.519   1.643
10181SOL    HW231443   6.466   3.451   1.522
10182SOL     OW31444   4.798   0.662   1.813
10182SOL    HW131445   4.751   0.650   1.901
10182SOL    HW231446   4.732   0.684   1.742
10183SOL     OW31447   6.330   2.846   6.555
10183SOL    HW131448   6.243   2.892   6.572
10183SOL    HW231449   6.405   2.907   6.579
10184SOL     OW31450   4.122   1.316   6.427
10184SOL    HW131451   4.155   1.282   6.338
10184SOL    HW231452   4.023   1.303   6.433
10185SOL     OW31453   6.001   5.973   2.748
10185SOL    HW131454   5.917   6.026   2.750
10185SOL    HW231455   6.034   5.966   2.654
10186SOL     OW31456   5.173   3.786   4.046
10186SOL    HW131457   5.225   3.713   4.002
10186SOL    HW231458   5.111   3.747   4.114
10187SOL     OW31459   1.224   3.604   0.128
10187SOL    HW131460   1.233   3.512   0.088
10187SOL    HW231461   1.128   3.621   0.150
10188SOL     OW31462   4.120   4.800   0.439
10188SOL    HW131463   4.096   4.736   0.366
10188SOL    HW231464   4.189   4.758   0.498
10189SOL     OW31465   0.627   1.221   6.666
10189SOL    HW131466   0.680   1.297   6.626
10189SOL    HW231467   0.643   1.138   6.613
10190SOL     OW31468   4.841   2.886   1.464
10190SOL    HW131469   4.796   2.975   1.458
10190SOL    HW231470   4.773   2.813   1.455
10191SOL     OW31471   3.870   5.944   6.524
10191SOL    HW131472   3.792   5.900   6.569
10191SOL    HW231473   3.858   5.941   6.425
10192SOL     OW31474   4.194   1.359   5.476
10192SOL    HW131475   4.209   1.372   5.378
10192SOL    HW231476   4.274   1.315   5.516
10193SOL     OW31477   3.721   2.893   2.047
10193SOL    HW131478   3.736   2.842   2.131
10193SOL    HW231479   3.651   2.847   1.992
10194SOL     OW31480   4.924   6.198   5.392
10194SOL    HW131481   4.843   6.215   5.336
10194SOL    HW231482   4.942   6.099   5.395
10195SOL     OW31483   6.688   6.045   0.531
10195SOL    HW131484   6.612   6.110   0.528
10195SOL    HW231485   6.700   6.014   0.626
10196SOL     OW31486   4.245   2.057   3.793
10196SOL    HW131487   4.267   1.961   3.807
10196SOL    HW231488   4.306   2.114   3.848
10197SOL     OW31489   5.543   1.795   4.656
10197SOL    HW131490   5.531   1.832   4.749
10197SOL    HW231491   5.598   1.711   4.661
10198SOL     OW31492   2.607   6.790   2.610
10198SOL    HW131493   2.703   6.789   2.582
10198SOL    HW231494   2.551   6.747   2.539
10199SOL     OW31495   1.309   2.924   0.639
10199SOL    HW131496   1.307   3.024   0.627
10199SOL    HW231497   1.386   2.899   0.697
10200SOL     OW31498   4.856   3.154   5.940
10200SOL    HW131499   4.766   3.173   5.981
10200SOL    HW231500   4.902   3.084   5.995
10201SOL     OW31501   1.230   5.317   0.251
10201SOL    HW131502   1.183   5.239   0.291
10201SOL    HW231503   1.329   5.305   0.262
10202SOL     OW31504   3.041   4.892   0.402
10202SOL    HW131505   3.045   4.937   0.491
10202SOL    HW231506   2.954   4.844   0.393
10203SOL     OW31507   6.996   2.709   2.838
10203SOL    HW131508   6.963   2.620   2.867
10203SOL    HW231509   0.068   2.701   2.808
10204SOL     OW31510   3.931   5.542   6.667
10204SOL    HW131511   3.940   5.452   6.711
10204SOL    HW231512   3.834   5.563   6.656
10205SOL     OW31513   2.469   0.650   1.829
10205SOL    HW131514   2.527   0.684   1.754
10205SOL    HW231515   2.464   0.720   1.900
10206SOL     OW31516   6.889   0.167   6.645
10206SOL    HW131517   6.861   0.087   6.698
10206SOL    HW231518   6.975   0.147   6.599
10207SOL     OW31519   0.512   2.586   0.289
10207SOL    HW131520   0.435   2.603   0.349
10207SOL    HW231521   0.479   2.557   0.199
10208SOL     OW31522   5.996   5.050   4.282
10208SOL    HW131523   6.026   4.965   4.325
10208SOL    HW231524   5.923   5.091   4.337
10209SOL     OW31525   0.229   6.760   6.505
10209SOL    HW131526   0.290   6.801   6.573
10209SOL    HW231527   0.274   6.682   6.463
10210SOL     OW31528   4.648   6.470   1.292
10210SOL    HW131529   4.628   6.412   1.371
10210SOL    HW231530   4.686   6.557   1.323
10211SOL     OW31531   4.734   6.116   4.736
10211SOL    HW131532   4.694   6.206   4.716
10211SOL    HW231533   4.694   6.080   4.821
10212SOL     OW31534   0.645   0.081   5.640
10212SOL    HW131535   0.671   0.176   5.653
10212SOL    HW231536   0.588   0.072   5.559
10213SOL     OW31537   5.748   2.519   1.800
10213SOL    HW131538   5.772   2.583   1.727
10213SOL    HW231539   5.652   2.530   1.824
10214SOL     OW31540   0.133   1.696   1.519
10214SOL    HW131541   0.153   1.792   1.540
10214SOL    HW231542   0.112   1.647   1.603
10215SOL     OW31543   3.673   3.380   3.719
10215SOL    HW131544   3.579   3.405   3.742
10215SOL    HW231545   3.721   3.461   3.687
10216SOL     OW31546   0.026   1.099   1.420
10216SOL    HW131547   7.010   1.050   1.342
10216SOL    HW231548   0.124   1.110   1.405
10217SOL     OW31549   2.234   1.794   3.412
10217SOL    HW131550   2.154   1.734   3.412
10217SOL    HW231551   2.259   1.817   3.506
10218SOL     OW31552   0.946   0.846   1.441
10218SOL    HW131553   0.917   0.941   1.431
10218SOL    HW231554   0.876   0.794   1.490
10219SOL     OW31555   0.304   2.392   2.799
10219SOL    HW131556   0.217   2.343   2.808
10219SOL    HW231557   0.370   2.333   2.753
10220SOL     OW31558   4.620   1.932   1.178
10220SOL    HW131559   4.613   1.991   1.258
10220SOL    HW231560   4.624   1.989   1.095
10221SOL     OW31561   1.912   4.265   4.720
10221SOL    HW131562   1.822   4.222   4.711
10221SOL    HW231563   1.901   4.363   4.737
10222SOL     OW31564   3.091   4.293   5.226
10222SOL    HW131565   3.040   4.378   5.218
10222SOL    HW231566   3.034   4.225   5.273
10223SOL     OW31567   2.891   5.013   1.006
10223SOL    HW131568   2.835   5.053   1.079
10223SOL    HW231569   2.931   5.086   0.951
10224SOL     OW31570   6.353   2.437   5.755
10224SOL    HW131571   6.360   2.486   5.668
10224SOL    HW231572   6.401   2.489   5.826
10225SOL     OW31573   1.835   6.122   5.472
10225SOL    HW131574   1.918   6.083   5.432
10225SOL    HW231575   1.775   6.154   5.399
10226SOL     OW31576   1.926   0.201   6.017
10226SOL    HW131577   1.830   0.223   5.999
10226SOL    HW231578   1.984   0.270   5.974
10227SOL     OW31579   5.144   4.912   0.177
10227SOL    HW131580   5.209   4.863   0.234
10227SOL    HW231581   5.183   4.925   0.085
10228SOL     OW31582   0.754   6.085   1.992
10228SOL    HW131583   0.677   6.033   2.027
10228SOL    HW231584   0.826   6.022   1.963
10229SOL     OW31585   2.034   2.708   4.801
10229SOL    HW131586   2.120   2.756   4.822
10229SOL    HW231587   2.054   2.629   4.743
10230SOL     OW31588   6.203   6.611   3.163
10230SOL    HW131589   6.303   6.616   3.155
10230SOL    HW231590   6.168   6.696   3.201
10231SOL     OW31591   6.185   4.674   5.023
10231SOL    HW131592   6.117   4.623   5.075
10231SOL    HW231593   6.144   4.759   4.989
10232SOL     OW31594   3.433   1.487   3.427
10232SOL    HW131595   3.405   1.565   3.483
10232SOL    HW231596   3.494   1.518   3.355
10233SOL     OW31597   3.655   3.933   4.921
10233SOL    HW131598   3.596   3.893   4.851
10233SOL    HW231599   3.623   3.908   5.012
10234SOL     OW31600   5.149   0.833   0.537
10234SOL    HW131601   5.179   0.898   0.607
10234SOL    HW231602   5.052   0.813   0.550
10235SOL     OW31603   3.205   2.205   1.346
10235SOL    HW131604   3.299   2.193   1.313
10235SOL    HW231605   3.174   2.121   1.390
10236SOL     OW31606   1.591   1.311   1.617
10236SOL    HW131607   1.569   1.395   1.567
10236SOL    HW231608   1.546   1.312   1.706
10237SOL     OW31609   0.060   5.148   6.405
10237SOL    HW131610   7.009   5.134   6.339
10237SOL    HW231611   0.144   5.172   6.355
10238SOL     OW31612   3.958   3.914   2.263
10238SOL    HW131613   3.899   3.976   2.313
10238SOL    HW231614   4.004   3.852   2.326
10239SOL     OW31615   2.157   3.776   5.786
10239SOL    HW131616   2.230   3.711   5.762
10239SOL    HW231617   2.069   3.741   5.755
10240SOL     OW31618   2.158   4.181   2.369
10240SOL    HW131619   2.109   4.108   2.322
10240SOL    HW231620   2.200   4.144   2.453
10241SOL     OW31621   6.964   6.145   3.488
10241SOL    HW131622   7.016   6.100   3.416
10241SOL    HW231623   6.952   6.083   3.565
10242SOL     OW31624   0.624   1.259   1.561
10242SOL    HW131625   0.594   1.248   1.467
10242SOL    HW231626   0.710   1.210   1.575
10243SOL     OW31627   2.397   4.495   3.024
10243SOL    HW131628   2.464   4.521   2.955
10243SOL    HW231629   2.353   4.577   3.061
10244SOL     OW31630   1.611   4.370   1.045
10244SOL    HW131631   1.639   4.462   1.072
10244SOL    HW231632   1.652   4.347   0.957
10245SOL     OW31633   3.818   4.255   1.240
10245SOL    HW131634   3.840   4.345   1.202
10245SOL    HW231635   3.874   4.185   1.194
10246SOL     OW31636   3.074   3.485   3.513
10246SOL    HW131637   3.073   3.390   3.482
10246SOL    HW231638   3.085   3.546   3.435
10247SOL     OW31639   0.193   4.436   6.565
10247SOL    HW131640   0.202   4.457   6.468
10247SOL    HW231641   0.188   4.520   6.618
10248SOL     OW31642   1.720   6.617   2.745
10248SOL    HW131643   1.665   6.695   2.717
10248SOL    HW231644   1.776   6.586   2.668
10249SOL     OW31645   2.333   6.262   6.765
10249SOL    HW131646   2.384   6.241   6.681
10249SOL    HW231647   2.381   6.333   6.816
10250SOL     OW31648   6.469   2.424   2.085
10250SOL    HW131649   6.523   2.383   2.159
10250SOL    HW231650   6.435   2.351   2.025
10251SOL     OW31651   2.420   1.295   4.775
10251SOL    HW131652   2.474   1.343   4.705
10251SOL    HW231653   2.479   1.271   4.852
10252SOL     OW31654   4.002   4.763   5.846
10252SOL    HW131655   3.996   4.707   5.929
10252SOL    HW231656   4.019   4.704   5.767
10253SOL     OW31657   2.631   0.114   0.531
10253SOL    HW131658   2.532   0.108   0.529
10253SOL    HW231659   2.662   0.118   0.626
10254SOL     OW31660   4.784   1.178   5.456
10254SOL    HW131661   4.763   1.227   5.540
10254SOL    HW231662   4.741   1.225   5.378
10255SOL     OW31663   2.500   6.210   1.007
10255SOL    HW131664   2.575   6.275   1.014
10255SOL    HW231665   2.429   6.234   1.074
10256SOL     OW31666   4.975   1.630   1.411
10256SOL    HW131667   5.000   1.538   1.379
10256SOL    HW231668   4.960   1.628   1.510
10257SOL     OW31669   2.014   4.735   4.467
10257SOL    HW131670   2.086   4.666   4.473
10257SOL    HW231671   2.018   4.794   4.548
10258SOL     OW31672   3.225   1.312   3.613
10258SOL    HW131673   3.154   1.322   3.682
10258SOL    HW231674   3.309   1.278   3.656
10259SOL     OW31675   0.921   4.964   3.195
10259SOL    HW131676   1.017   4.981   3.171
10259SOL    HW231677   0.875   5.051   3.214
10260SOL     OW31678   1.880   1.065   3.726
10260SOL    HW131679   1.900   0.972   3.757
10260SOL    HW231680   1.954   1.097   3.666
10261SOL     OW31681   6.661   5.192   2.461
10261SOL    HW131682   6.758   5.184   2.485
10261SOL    HW231683   6.648   5.161   2.367
10262SOL     OW31684   2.585   6.969   5.210
10262SOL    HW131685   2.620   0.026   5.258
10262SOL    HW231686   2.601   6.979   5.112
10263SOL     OW31687   5.165   6.918   6.710
10263SOL    HW131688   5.261   6.936   6.730
10263SOL    HW231689   5.108   6.990   6.748
10264SOL     OW31690   5.995   6.925   6.781
10264SOL    HW131691   5.923   6.993   6.792
10264SOL    HW231692   6.068   6.963   6.724
10265SOL     OW31693   2.240   2.940   1.771
10265SOL    HW131694   2.170   2.983   1.715
10265SOL    HW231695   2.329   2.982   1.752
10266SOL     OW31696   3.749   3.716   3.983
10266SOL    HW131697   3.844   3.748   3.975
10266SOL    HW231698   3.749   3.616   3.987
10267SOL     OW31699   5.901   2.584   6.536
10267SOL    HW131700   5.850   2.510   6.494
10267SOL    HW231701   5.844   2.631   6.603
10268SOL     OW31702   6.328   5.742   2.416
10268SOL    HW131703   6.282   5.663   2.377
10268SOL    HW231704   6.418   5.753   2.374
10269SOL     OW31705   0.176   3.584   0.060
10269SOL    HW131706   0.149   3.576   6.988
10269SOL    HW231707   0.116   3.650   0.106
10270SOL     OW31708   3.876   4.854   2.829
10270SOL    HW131709   3.943   4.864   2.902
10270SOL    HW231710   3.902   4.777   2.770
10271SOL     OW31711   3.341   2.705   6.142
10271SOL    HW131712   3.354   2.791   6.092
10271SOL    HW231713   3.427   2.680   6.187
10272SOL     OW31714   1.410   1.663   5.223
10272SOL    HW131715   1.393   1.674   5.125
10272SOL    HW231716   1.507   1.680   5.242
10273SOL     OW31717   3.051   5.648   2.822
10273SOL    HW131718   3.079   5.638   2.918
10273SOL    HW231719   3.007   5.737   2.810
10274SOL     OW31720   0.887   5.870   5.209
10274SOL    HW131721   0.851   5.963   5.218
10274SOL    HW231722   0.868   5.836   5.117
10275SOL     OW31723   0.333   6.568   1.908
10275SOL    HW131724   0.303   6.584   2.002
10275SOL    HW231725   0.292   6.636   1.847
10276SOL     OW31726   5.267   4.932   5.739
10276SOL    HW131727   5.273   4.921   5.640
10276SOL    HW231728   5.227   4.850   5.780
10277SOL     OW31729   1.439   5.536   4.117
10277SOL    HW131730   1.413   5.496   4.029
10277SOL    HW231731   1.512   5.603   4.103
10278SOL     OW31732   0.336   2.103   4.290
10278SOL    HW131733   0.251   2.110   4.239
10278SOL    HW231734   0.352   2.007   4.316
10279SOL     OW31735   2.082   5.056   4.197
10279SOL    HW131736   2.073   4.956   4.199
10279SOL    HW231737   2.141   5.082   4.120
10280SOL     OW31738   0.078   3.081   0.771
10280SOL    HW131739   0.002   3.114   0.826
10280SOL    HW231740   0.138   3.025   0.828
10281SOL     OW31741   5.722   1.461   2.582
10281SOL    HW131742   5.729   1.389   2.512
10281SOL    HW231743   5.629   1.462   2.618
10282SOL     OW31744   4.880   3.133   4.345
10282SOL    HW131745   4.851   3.068   4.415
10282SOL    HW231746   4.884   3.088   4.256
10283SOL     OW31747   1.034   3.491   0.690
10283SOL    HW131748   0.965   3.428   0.654
10283SOL    HW231749   1.077   3.539   0.614
10284SOL     OW31750   5.469   2.727   4.858
10284SOL    HW131751   5.538   2.726   4.930
10284SOL    HW231752   5.386   2.683   4.892
10285SOL     OW31753   6.106   0.064   2.715
10285SOL    HW131754   6.178   0.000   2.687
10285SOL    HW231755   6.144   0.129   2.781
10286SOL     OW31756   3.455   1.627   3.107
10286SOL    HW131757   3.411   1.709   3.070
10286SOL    HW231758   3.524   1.595   3.043
10287SOL     OW31759   2.124   6.984   1.246
10287SOL    HW131760   2.139   0.019   1.167
10287SOL    HW231761   2.212   6.958   1.286
10288SOL     OW31762   4.889   6.034   2.949
10288SOL    HW131763   4.948   6.091   3.006
10288SOL    HW231764   4.808   6.007   3.001
10289SOL     OW31765   2.044   6.722   0.274
10289SOL    HW131766   1.983   6.682   0.205
10289SOL    HW231767   2.025   6.820   0.281
10290SOL     OW31768   3.304   3.904   2.846
10290SOL    HW131769   3.386   3.955   2.872
10290SOL    HW231770   3.240   3.966   2.801
10291SOL     OW31771   4.383   1.365   2.884
10291SOL    HW131772   4.415   1.281   2.841
10291SOL    HW231773   4.300   1.397   2.838
10292SOL     OW31774   1.838   1.124   5.151
10292SOL    HW131775   1.753   1.080   5.180
10292SOL    HW231776   1.873   1.180   5.226
10293SOL     OW31777   2.121   4.467   2.696
10293SOL    HW131778   2.022   4.472   2.682
10293SOL    HW231779   2.144   4.381   2.740
10294SOL     OW31780   5.723   3.261   3.092
10294SOL    HW131781   5.812   3.269   3.137
10294SOL    HW231782   5.709   3.167   3.062
10295SOL     OW31783   0.068   4.536   5.524
10295SOL    HW131784   7.013   4.481   5.552
10295SOL    HW231785   0.086   4.521   5.427
10296SOL     OW31786   5.176   1.253   6.983
10296SOL    HW131787   5.268   1.212   6.983
10296SOL    HW231788   5.125   1.219   6.904
10297SOL     OW31789   1.774   0.117   6.360
10297SOL    HW131790   1.759   0.194   6.423
10297SOL    HW231791   1.818   0.151   6.276
10298SOL     OW31792   2.832   4.696   1.606
10298SOL    HW131793   2.866   4.630   1.673
10298SOL    HW231794   2.732   4.695   1.606
10299SOL     OW31795   4.964   4.906   3.014
10299SOL    HW131796   4.983   5.003   2.998
10299SOL    HW231797   4.989   4.853   2.932
10300SOL     OW31798   1.689   4.008   2.645
10300SOL    HW131799   1.773   3.987   2.593
10300SOL    HW231800   1.612   3.961   2.603
10301SOL     OW31801   5.026   2.341   4.229
10301SOL    HW131802   4.936   2.345   4.187
10301SOL    HW231803   5.048   2.429   4.270
10302SOL     OW31804   2.282   0.234   4.173
10302SOL    HW131805   2.227   0.204   4.251
10302SOL    HW231806   2.221   0.274   4.104
10303SOL     OW31807   1.851   6.217   2.996
10303SOL    HW131808   1.805   6.305   2.983
10303SOL    HW231809   1.809   6.168   3.072
10304SOL     OW31810   5.960   6.876   1.698
10304SOL    HW131811   5.888   6.917   1.755
10304SOL    HW231812   6.038   6.938   1.694
10305SOL     OW31813   0.803   4.385   6.822
10305SOL    HW131814   0.902   4.369   6.832
10305SOL    HW231815   0.775   4.456   6.886
10306SOL     OW31816   4.792   6.885   6.381
10306SOL    HW131817   4.790   6.912   6.285
10306SOL    HW231818   4.751   6.959   6.436
10307SOL     OW31819   2.253   2.338   5.286
10307SOL    HW131820   2.216   2.399   5.356
10307SOL    HW231821   2.226   2.371   5.196
10308SOL     OW31822   2.036   4.331   3.436
10308SOL    HW131823   1.963   4.281   3.388
10308SOL    HW231824   2.012   4.428   3.441
10309SOL     OW31825   6.910   1.409   5.208
10309SOL    HW131826   6.828   1.354   5.190
10309SOL    HW231827   6.987   1.348   5.230
10310SOL     OW31828   3.305   3.738   0.964
10310SOL    HW131829   3.244   3.663   0.938
10310SOL    HW231830   3.272   3.778   1.049
10311SOL     OW31831   0.005   6.228   0.325
10311SOL    HW131832   6.974   6.212   0.244
10311SOL    HW231833   0.013   6.326   0.342
10312SOL     OW31834   3.654   6.344   2.544
10312SOL    HW131835   3.746   6.353   2.582
10312SOL    HW231836   3.613   6.258   2.575
10313SOL     OW31837   5.010   6.467   1.326
10313SOL    HW131838   5.100   6.511   1.328
10313SOL    HW231839   4.962   6.486   1.411
10314SOL     OW31840   6.499   0.943   2.048
10314SOL    HW131841   6.530   1.024   1.997
10314SOL    HW231842   6.533   0.947   2.141
10315SOL     OW31843   4.900   5.960   5.100
10315SOL    HW131844   4.975   6.024   5.082
10315SOL    HW231845   4.834   6.003   5.161
10316SOL     OW31846   6.398   1.574   4.220
10316SOL    HW131847   6.465   1.606   4.154
10316SOL    HW231848   6.328   1.645   4.234
10317SOL     OW31849   4.236   5.683   4.744
10317SOL    HW131850   4.285   5.705   4.660
10317SOL    HW231851   4.258   5.752   4.814
10318SOL     OW31852   5.003   5.726   6.842
10318SOL    HW131853   5.041   5.680   6.761
10318SOL    HW231854   5.070   5.725   6.916
10319SOL     OW31855   1.079   2.911   4.968
10319SOL    HW131856   1.121   2.969   4.899
10319SOL    HW231857   1.052   2.966   5.047
10320SOL     OW31858   0.221   0.620   2.896
10320SOL    HW131859   0.307   0.669   2.877
10320SOL    HW231860   0.167   0.672   2.961
10321SOL     OW31861   4.190   1.836   1.855
10321SOL    HW131862   4.195   1.934   1.838
10321SOL    HW231863   4.151   1.820   1.945
10322SOL     OW31864   6.548   5.481   5.369
10322SOL    HW131865   6.550   5.458   5.271
10322SOL    HW231866   6.456   5.466   5.404
10323SOL     OW31867   5.818   2.764   5.891
10323SOL    HW131868   5.871   2.811   5.820
10323SOL    HW231869   5.732   2.812   5.905
10324SOL     OW31870   3.474   3.417   2.479
10324SOL    HW131871   3.496   3.382   2.570
10324SOL    HW231872   3.534   3.374   2.411
10325SOL     OW31873   0.277   4.224   2.072
10325SOL    HW131874   0.258   4.233   2.170
10325SOL    HW231875   0.346   4.153   2.057
10326SOL     OW31876   3.936   4.171   0.377
10326SOL    HW131877   3.987   4.254   0.357
10326SOL    HW231878   3.991   4.091   0.351
10327SOL     OW31879   2.543   1.870   1.495
10327SOL    HW131880   2.556   1.915   1.584
10327SOL    HW231881   2.547   1.771   1.508
10328SOL     OW31882   5.711   2.908   0.881
10328SOL    HW131883   5.613   2.907   0.897
10328SOL    HW231884   5.755   2.971   0.945
10329SOL     OW31885   3.498   0.166   3.847
10329SOL    HW131886   3.487   0.249   3.902
10329SOL    HW231887   3.547   0.098   3.901
10330SOL     OW31888   4.574   0.387   2.344
10330SOL    HW131889   4.618   0.357   2.259
10330SOL    HW231890   4.601   0.326   2.418
10331SOL     OW31891   0.092   1.233   5.237
10331SOL    HW131892   0.029   1.155   5.226
10331SOL    HW231893   0.171   1.204   5.292
10332SOL     OW31894   6.140   1.068   0.678
10332SOL    HW131895   6.110   0.987   0.629
10332SOL    HW231896   6.087   1.147   0.646
10333SOL     OW31897   6.429   4.082   4.618
10333SOL    HW131898   6.332   4.061   4.602
10333SOL    HW231899   6.468   4.121   4.535
10334SOL     OW31900   3.961   6.332   3.692
10334SOL    HW131901   4.013   6.392   3.753
10334SOL    HW231902   4.016   6.252   3.669
10335SOL     OW31903   2.878   4.392   6.890
10335SOL    HW131904   2.950   4.461   6.877
10335SOL    HW231905   2.837   4.370   6.802
10336SOL     OW31906   6.732   6.391   3.006
10336SOL    HW131907   6.821   6.352   3.030
10336SOL    HW231908   6.740   6.441   2.920
10337SOL     OW31909   0.087   6.635   5.703
10337SOL    HW131910   0.033   6.624   5.786
10337SOL    HW231911   0.047   6.708   5.647
10338SOL     OW31912   2.132   6.229   2.388
10338SOL    HW131913   2.155   6.173   2.468
10338SOL    HW231914   2.203   6.218   2.318
10339SOL     OW31915   3.470   4.841   0.026
10339SOL    HW131916   3.458   4.757   0.080
10339SOL    HW231917   3.499   4.817   6.957
10340SOL     OW31918   2.246   5.092   1.212
10340SOL    HW131919   2.218   5.082   1.308
10340SOL    HW231920   2.183   5.154   1.165
10341SOL     OW31921   2.109   3.600   1.609
10341SOL    HW131922   2.164   3.682   1.625
10341SOL    HW231923   2.112   3.542   1.691
10342SOL     OW31924   1.028   6.916   5.478
10342SOL    HW131925   1.093   6.972   5.528
10342SOL    HW231926   0.946   6.902   5.535
10343SOL     OW31927   3.384   5.808   0.074
10343SOL    HW131928   3.440   5.725   0.070
10343SOL    HW231929   3.429   5.876   0.131
10344SOL     OW31930   4.639   4.255   1.664
10344SOL    HW131931   4.547   4.229   1.691
10344SOL    HW231932   4.703   4.229   1.736
10345SOL     OW31933   1.666   1.297   0.026
10345SOL    HW131934   1.579   1.335   0.058
10345SOL    HW231935   1.740   1.325   0.087
10346SOL     OW31936   6.490   0.036   1.466
10346SOL    HW131937   6.536   0.000   1.385
10346SOL    HW231938   6.508   0.134   1.474
10347SOL     OW31939   4.767   2.154   2.553
10347SOL    HW131940   4.752   2.191   2.462
10347SOL    HW231941   4.865   2.136   2.566
10348SOL     OW31942   6.345   1.194   0.439
10348SOL    HW131943   6.340   1.280   0.388
10348SOL    HW231944   6.265   1.186   0.499
10349SOL     OW31945   0.049   1.118   1.057
10349SOL    HW131946   0.062   1.139   0.960
10349SOL    HW231947   0.106   1.178   1.112
10350SOL     OW31948   2.047   0.055   5.409
10350SOL    HW131949   2.114   7.007   5.391
10350SOL    HW231950   2.018   0.095   5.322
10351SOL     OW31951   4.378   5.178   6.327
10351SOL    HW131952   4.290   5.154   6.287
10351SOL    HW231953   4.410   5.264   6.288
10352SOL     OW31954   4.575   2.293   6.246
10352SOL    HW131955   4.492   2.239   6.230
10352SOL    HW231956   4.560   2.387   6.215
10353SOL     OW31957   0.326   2.867   5.773
10353SOL    HW131958   0.311   2.772   5.800
10353SOL    HW231959   0.268   2.890   5.695
10354SOL     OW31960   5.820   2.614   2.079
10354SOL    HW131961   5.876   2.572   2.007
10354SOL    HW231962   5.726   2.583   2.069
10355SOL     OW31963   1.645   0.028   2.333
10355SOL    HW131964   1.550   0.024   2.303
10355SOL    HW231965   1.704   0.041   2.253
10356SOL     OW31966   7.021   4.475   6.161
10356SOL    HW131967   6.964   4.393   6.173
10356SOL    HW231968   6.962   4.556   6.159
10357SOL     OW31969   2.932   3.326   6.393
10357SOL    HW131970   2.844   3.324   6.346
10357SOL    HW231971   2.991   3.393   6.350
10358SOL     OW31972   6.394   3.229   3.433
10358SOL    HW131973   6.440   3.144   3.458
10358SOL    HW231974   6.344   3.215   3.348
10359SOL     OW31975   6.830   1.566   1.400
10359SOL    HW131976   6.892   1.611   1.336
10359SOL    HW231977   6.762   1.513   1.350
10360SOL     OW31978   4.057   5.685   2.183
10360SOL    HW131979   4.003   5.602   2.193
10360SOL    HW231980   4.037   5.748   2.258
10361SOL     OW31981   2.481   0.644   2.880
10361SOL    HW131982   2.499   0.549   2.903
10361SOL    HW231983   2.555   0.681   2.825
10362SOL     OW31984   0.734   5.199   3.802
10362SOL    HW131985   0.653   5.255   3.786
10362SOL    HW231986   0.719   5.138   3.879
10363SOL     OW31987   4.564   2.087   0.948
10363SOL    HW131988   4.500   2.141   1.003
10363SOL    HW231989   4.513   2.033   0.881
10364SOL     OW31990   4.010   3.736   2.452
10364SOL    HW131991   3.916   3.743   2.484
10364SOL    HW231992   4.060   3.670   2.508
10365SOL     OW31993   5.096   4.241   5.313
10365SOL    HW131994   5.020   4.306   5.310
10365SOL    HW231995   5.068   4.155   5.271
10366SOL     OW31996   5.011   0.171   3.983
10366SOL    HW131997   5.103   0.173   3.942
10366SOL    HW231998   5.003   0.246   4.049
10367SOL     OW31999   6.889   1.474   1.657
10367SOL    HW132000   6.867   1.378   1.642
10367SOL    HW232001   6.884   1.524   1.571
10368SOL     OW32002   2.314   0.564   2.158
10368SOL    HW132003   2.256   0.617   2.096
10368SOL    HW232004   2.310   0.603   2.249
10369SOL     OW32005   4.243   1.293   5.190
10369SOL    HW132006   4.339   1.300   5.162
10369SOL    HW232007   4.208   1.203   5.168
10370SOL     OW32008   5.773   1.842   5.145
10370SOL    HW132009   5.753   1.746   5.125
10370SOL    HW232010   5.744   1.899   5.067
10371SOL     OW32011   1.904   5.779   4.141
10371SOL    HW132012   1.995   5.748   4.111
10371SOL    HW232013   1.889   5.873   4.109
10372SOL     OW32014   1.553   1.000   0.723
10372SOL    HW132015   1.463   1.004   0.680
10372SOL    HW232016   1.601   0.917   0.694
10373SOL     OW32017   1.803   6.736   4.848
10373SOL    HW132018   1.726   6.798   4.835
10373SOL    HW232019   1.799   6.664   4.778
10374SOL     OW32020   4.083   0.856   3.103
10374SOL    HW132021   4.043   0.947   3.085
10374SOL    HW232022   4.086   0.840   3.202
10375SOL     OW32023   2.658   1.623   6.389
10375SOL    HW132024   2.591   1.574   6.444
10375SOL    HW232025   2.613   1.666   6.311
10376SOL     OW32026   1.375   5.738   3.776
10376SOL    HW132027   1.306   5.669   3.754
10376SOL    HW232028   1.416   5.773   3.692
10377SOL     OW32029   6.939   1.075   3.789
10377SOL    HW132030   6.912   1.139   3.717
10377SOL    HW232031   6.871   1.002   3.797
10378SOL     OW32032   6.121   0.252   5.842
10378SOL    HW132033   6.034   0.261   5.794
10378SOL    HW232034   6.118   0.171   5.901
10379SOL     OW32035   3.052   6.655   4.168
10379SOL    HW132036   3.006   6.655   4.079
10379SOL    HW232037   3.119   6.581   4.170
10380SOL     OW32038   0.533   2.165   4.703
10380SOL    HW132039   0.544   2.234   4.631
10380SOL    HW232040   0.530   2.211   4.792
10381SOL     OW32041   4.448   4.305   0.359
10381SOL    HW132042   4.380   4.271   0.425
10381SOL    HW232043   4.447   4.247   0.277
10382SOL     OW32044   2.140   4.927   0.676
10382SOL    HW132045   2.118   4.867   0.599
10382SOL    HW232046   2.199   5.002   0.645
10383SOL     OW32047   6.699   3.737   0.702
10383SOL    HW132048   6.773   3.746   0.768
10383SOL    HW232049   6.623   3.797   0.728
10384SOL     OW32050   0.368   0.047   0.710
10384SOL    HW132051   0.454   0.074   0.753
10384SOL    HW232052   0.355   6.972   0.722
10385SOL     OW32053   3.256   6.575   5.684
10385SOL    HW132054   3.316   6.549   5.608
10385SOL    HW232055   3.298   6.648   5.737
10386SOL     OW32056   6.435   1.848   5.718
10386SOL    HW132057   6.356   1.787   5.716
10386SOL    HW232058   6.406   1.939   5.747
10387SOL     OW32059   4.698   1.730   2.693
10387SOL    HW132060   4.703   1.781   2.779
10387SOL    HW232061   4.644   1.647   2.706
10388SOL     OW32062   2.167   5.990   2.116
10388SOL    HW132063   2.087   5.955   2.164
10388SOL    HW232064   2.214   6.057   2.174
10389SOL     OW32065   0.120   6.709   1.130
10389SOL    HW132066   0.101   6.677   1.223
10389SOL    HW232067   0.157   6.634   1.075
10390SOL     OW32068   1.882   2.444   1.776
10390SOL    HW132069   1.888   2.463   1.874
10390SOL    HW232070   1.970   2.464   1.733
10391SOL     OW32071   1.169   5.754   4.184
10391SOL    HW132072   1.196   5.666   4.144
10391SOL    HW232073   1.215   5.766   4.272
10392SOL     OW32074   6.860   4.352   0.113
10392SOL    HW132075   6.831   4.438   0.072
10392SOL    HW232076   6.856   4.359   0.212
10393SOL     OW32077   1.934   2.381   2.299
10393SOL    HW132078   1.901   2.287   2.296
10393SOL    HW232079   2.025   2.384   2.339
10394SOL     OW32080   2.375   5.949   4.546
10394SOL    HW132081   2.458   5.996   4.515
10394SOL    HW232082   2.401   5.873   4.605
10395SOL     OW32083   0.082   1.011   3.417
10395SOL    HW132084   7.007   1.021   3.429
10395SOL    HW232085   0.109   0.916   3.434
10396SOL     OW32086   2.483   0.558   4.054
10396SOL    HW132087   2.550   0.548   3.981
10396SOL    HW232088   2.498   0.644   4.102
10397SOL     OW32089   3.094   1.755   4.016
10397SOL    HW132090   3.029   1.722   4.085
10397SOL    HW232091   3.175   1.696   4.016
10398SOL     OW32092   5.847   2.254   0.720
10398SOL    HW132093   5.783   2.219   0.652
10398SOL    HW232094   5.802   2.258   0.809
10399SOL     OW32095   4.162   1.973   4.578
10399SOL    HW132096   4.102   1.948   4.655
10399SOL    HW232097   4.115   2.039   4.519
10400SOL     OW32098   3.893   5.880   1.064
10400SOL    HW132099   3.945   5.935   0.999
10400SOL    HW232100   3.801   5.865   1.028
10401SOL     OW32101   0.268   0.156   2.511
10401SOL    HW132102   0.343   0.220   2.522
10401SOL    HW232103   0.273   0.086   2.582
10402SOL     OW32104   0.170   2.597   5.630
10402SOL    HW132105   0.178   2.538   5.549
10402SOL    HW232106   0.159   2.692   5.601
10403SOL     OW32107   5.470   1.090   2.570
10403SOL    HW132108   5.509   1.156   2.634
10403SOL    HW232109   5.543   1.036   2.529
10404SOL     OW32110   0.245   6.784   3.989
10404SOL    HW132111   0.211   6.712   3.928
10404SOL    HW232112   0.316   6.746   4.048
10405SOL     OW32113   1.172   5.413   4.967
10405SOL    HW132114   1.204   5.506   4.986
10405SOL    HW232115   1.073   5.410   4.976
10406SOL     OW32116   1.999   3.392   5.178
10406SOL    HW132117   2.030   3.304   5.143
10406SOL    HW232118   2.078   3.452   5.192
10407SOL     OW32119   2.320   0.638   6.608
10407SOL    HW132120   2.415   0.609   6.623
10407SOL    HW232121   2.285   0.682   6.691
10408SOL     OW32122   3.368   6.298   1.911
10408SOL    HW132123   3.457   6.257   1.890
10408SOL    HW232124   3.380   6.367   1.982
10409SOL     OW32125   0.254   4.066   0.821
10409SOL    HW132126   0.181   4.133   0.806
10409SOL    HW232127   0.332   4.088   0.763
10410SOL     OW32128   5.441   1.905   1.220
10410SOL    HW132129   5.403   1.908   1.128
10410SOL    HW232130   5.375   1.861   1.281
10411SOL     OW32131   4.136   5.439   4.537
10411SOL    HW132132   4.071   5.510   4.564
10411SOL    HW232133   4.115   5.355   4.587
10412SOL     OW32134   0.187   1.093   0.579
10412SOL    HW132135   0.205   1.116   0.484
10412SOL    HW232136   0.176   0.994   0.589
10413SOL     OW32137   0.006   2.059   1.224
10413SOL    HW132138   0.089   2.078   1.172
10413SOL    HW232139   0.031   2.030   1.317
10414SOL     OW32140   4.100   6.155   5.892
10414SOL    HW132141   4.191   6.143   5.853
10414SOL    HW232142   4.107   6.160   5.992
10415SOL     OW32143   2.397   4.362   4.017
10415SOL    HW132144   2.380   4.310   3.933
10415SOL    HW232145   2.389   4.301   4.096
10416SOL     OW32146   6.224   0.536   5.065
10416SOL    HW132147   6.305   0.519   5.121
10416SOL    HW232148   6.182   0.623   5.092
10417SOL     OW32149   4.524   4.532   4.239
10417SOL    HW132150   4.447   4.595   4.254
10417SOL    HW232151   4.524   4.502   4.144
10418SOL     OW32152   6.235   3.925   5.776
10418SOL    HW132153   6.243   4.017   5.815
10418SOL    HW232154   6.150   3.918   5.725
10419SOL     OW32155   3.184   0.398   5.362
10419SOL    HW132156   3.099   0.439   5.330
10419SOL    HW232157   3.226   0.346   5.288
10420SOL     OW32158   6.532   3.427   3.758
10420SOL    HW132159   6.453   3.468   3.804
10420SOL    HW232160   6.523   3.327   3.761
10421SOL     OW32161   1.308   3.309   4.867
10421SOL    HW132162   1.373   3.372   4.823
10421SOL    HW232163   1.263   3.356   4.942
10422SOL     OW32164   6.798   3.278   5.538
10422SOL    HW132165   6.809   3.358   5.597
10422SOL    HW232166   6.833   3.299   5.447
10423SOL     OW32167   4.496   4.779   5.040
10423SOL    HW132168   4.425   4.722   4.999
10423SOL    HW232169   4.466   4.875   5.042
10424SOL     OW32170   4.195   2.676   0.318
10424SOL    HW132171   4.217   2.676   0.415
10424SOL    HW232172   4.104   2.637   0.304
10425SOL     OW32173   0.807   5.903   2.324
10425SOL    HW132174   0.780   5.945   2.238
10425SOL    HW232175   0.907   5.896   2.327
10426SOL     OW32176   5.595   3.654   5.691
10426SOL    HW132177   5.523   3.692   5.632
10426SOL    HW232178   5.572   3.672   5.787
10427SOL     OW32179   4.932   6.974   6.869
10427SOL    HW132180   5.018   6.969   6.919
10427SOL    HW232181   4.933   6.907   6.794
10428SOL     OW32182   2.592   1.930   4.592
10428SOL    HW132183   2.509   1.949   4.645
10428SOL    HW232184   2.650   2.012   4.591
10429SOL     OW32185   0.774   4.094   3.031
10429SOL    HW132186   0.863   4.100   3.076
10429SOL    HW232187   0.784   4.043   2.946
10430SOL     OW32188   3.902   6.504   4.597
10430SOL    HW132189   3.872   6.445   4.672
10430SOL    HW232190   3.892   6.600   4.625
10431SOL     OW32191   3.141   1.120   4.259
10431SOL    HW132192   3.167   1.025   4.278
10431SOL    HW232193   3.212   1.182   4.295
10432SOL     OW32194   0.336   1.882   5.624
10432SOL    HW132195   0.336   1.866   5.525
10432SOL    HW232196   0.331   1.794   5.671
10433SOL     OW32197   0.275   6.209   2.749
10433SOL    HW132198   0.260   6.185   2.654
10433SOL    HW232199   0.281   6.126   2.805
10434SOL     OW32200   4.561   6.336   4.660
10434SOL    HW132201   4.522   6.286   4.582
10434SOL    HW232202   4.546   6.434   4.648
10435SOL     OW32203   1.855   1.757   6.281
10435SOL    HW132204   1.778   1.807   6.243
10435SOL    HW232205   1.940   1.807   6.263
10436SOL     OW32206   6.136   3.945   3.971
10436SOL    HW132207   6.115   3.949   3.873
10436SOL    HW232208   6.063   3.896   4.018
10437SOL     OW32209   6.043   4.931   5.028
10437SOL    HW132210   6.125   4.987   5.016
10437SOL    HW232211   5.962   4.989   5.019
10438SOL     OW32212   0.495   6.168   5.593
10438SOL    HW132213   0.441   6.088   5.568
10438SOL    HW232214   0.434   6.241   5.623
10439SOL     OW32215   5.702   1.169   5.005
10439SOL    HW132216   5.642   1.156   4.926
10439SOL    HW232217   5.724   1.266   5.015
10440SOL     OW32218   0.006   6.686   6.891
10440SOL    HW132219   0.100   6.717   6.876
10440SOL    HW232220   6.974   6.762   6.926
10441SOL     OW32221   2.605   1.244   1.093
10441SOL    HW132222   2.552   1.247   1.178
10441SOL    HW232223   2.702   1.238   1.115
10442SOL     OW32224   4.191   6.897   5.237
10442SOL    HW132225   4.246   6.889   5.155
10442SOL    HW232226   4.153   6.808   5.262
10443SOL     OW32227   6.036   2.785   3.097
10443SOL    HW132228   5.937   2.793   3.091
10443SOL    HW232229   6.078   2.842   3.026
10444SOL     OW32230   3.665   5.439   2.358
10444SOL    HW132231   3.701   5.420   2.449
10444SOL    HW232232   3.586   5.380   2.341
10445SOL     OW32233   0.788   3.964   2.793
10445SOL    HW132234   0.724   3.919   2.731
10445SOL    HW232235   0.869   3.907   2.805
10446SOL     OW32236   1.950   3.779   6.457
10446SOL    HW132237   1.928   3.729   6.374
10446SOL    HW232238   1.954   3.716   6.534
10447SOL     OW32239   6.805   0.629   2.377
10447SOL    HW132240   6.874   0.556   2.380
10447SOL    HW232241   6.808   0.681   2.462
10448SOL     OW32242   3.242   0.302   2.427
10448SOL    HW132243   3.276   0.333   2.516
10448SOL    HW232244   3.320   0.288   2.365
10449SOL     OW32245   2.656   5.748   6.677
10449SOL    HW132246   2.668   5.709   6.585
10449SOL    HW232247   2.559   5.767   6.692
10450SOL     OW32248   6.818   1.526   6.506
10450SOL    HW132249   6.736   1.480   6.473
10450SOL    HW232250   6.800   1.624   6.517
10451SOL     OW32251   3.193   0.041   3.134
10451SOL    HW132252   3.151   0.050   3.224
10451SOL    HW232253   3.273   7.005   3.140
10452SOL     OW32254   6.705   3.066   2.833
10452SOL    HW132255   6.760   3.087   2.753
10452SOL    HW232256   6.608   3.069   2.809
10453SOL     OW32257   4.766   6.497   1.732
10453SOL    HW132258   4.757   6.565   1.658
10453SOL    HW232259   4.688   6.434   1.729
10454SOL     OW32260   5.106   1.519   0.856
10454SOL    HW132261   5.157   1.582   0.916
10454SOL    HW232262   5.040   1.571   0.802
10455SOL     OW32263   0.179   6.020   3.794
10455SOL    HW132264   0.107   5.976   3.849
10455SOL    HW232265   0.142   6.103   3.751
10456SOL     OW32266   0.640   5.785   1.084
10456SOL    HW132267   0.728   5.811   1.125
10456SOL    HW232268   0.655   5.755   0.989
10457SOL     OW32269   4.004   2.803   0.688
10457SOL    HW132270   4.087   2.842   0.728
10457SOL    HW232271   4.028   2.731   0.623
10458SOL     OW32272   6.260   0.046   6.733
10458SOL    HW132273   6.284   0.139   6.703
10458SOL    HW232274   6.309   7.003   6.677
10459SOL     OW32275   4.359   5.448   1.563
10459SOL    HW132276   4.319   5.425   1.475
10459SOL    HW232277   4.288   5.488   1.622
10460SOL     OW32278   1.171   3.983   2.003
10460SOL    HW132279   1.226   3.918   1.952
10460SOL    HW232280   1.195   3.977   2.100
10461SOL     OW32281   5.987   4.746   5.313
10461SOL    HW132282   5.891   4.733   5.287
10461SOL    HW232283   6.019   4.834   5.277
10462SOL     OW32284   5.890   2.373   3.032
10462SOL    HW132285   5.895   2.416   3.122
10462SOL    HW232286   5.873   2.442   2.962
10463SOL     OW32287   4.352   1.974   5.753
10463SOL    HW132288   4.325   1.992   5.847
10463SOL    HW232289   4.436   1.920   5.752
10464SOL     OW32290   5.849   6.422   1.826
10464SOL    HW132291   5.891   6.360   1.893
10464SOL    HW232292   5.884   6.515   1.841
10465SOL     OW32293   4.747   5.818   1.547
10465SOL    HW132294   4.768   5.850   1.639
10465SOL    HW232295   4.649   5.803   1.538
10466SOL     OW32296   4.991   4.815   5.437
10466SOL    HW132297   5.001   4.812   5.337
10466SOL    HW232298   5.081   4.804   5.479
10467SOL     OW32299   1.715   2.346   0.675
10467SOL    HW132300   1.630   2.392   0.700
10467SOL    HW232301   1.757   2.305   0.756
10468SOL     OW32302   4.006   4.948   3.745
10468SOL    HW132303   3.976   4.908   3.658
10468SOL    HW232304   4.071   4.886   3.789
10469SOL     OW32305   4.373   4.172   5.919
10469SOL    HW132306   4.432   4.218   5.985
10469SOL    HW232307   4.423   4.159   5.833
10470SOL     OW32308   2.439   1.091   3.088
10470SOL    HW132309   2.455   1.019   3.156
10470SOL    HW232310   2.527   1.123   3.053
10471SOL     OW32311   2.346   0.018   0.440
10471SOL    HW132312   2.360   6.991   0.354
10471SOL    HW232313   2.337   6.976   0.515
10472SOL     OW32314   3.200   5.605   0.544
10472SOL    HW132315   3.255   5.662   0.604
10472SOL    HW232316   3.104   5.608   0.572
10473SOL     OW32317   6.429   6.497   5.925
10473SOL    HW132318   6.421   6.583   5.974
10473SOL    HW232319   6.508   6.501   5.863
10474SOL     OW32320   4.280   0.905   4.090
10474SOL    HW132321   4.276   0.974   4.018
10474SOL    HW232322   4.315   0.819   4.053
10475SOL     OW32323   3.155   6.684   1.665
10475SOL    HW132324   3.222   6.610   1.662
10475SOL    HW232325   3.165   6.735   1.750
10476SOL     OW32326   5.550   6.480   5.864
10476SOL    HW132327   5.475   6.414   5.869
10476SOL    HW232328   5.548   6.539   5.944
10477SOL     OW32329   6.852   0.885   5.012
10477SOL    HW132330   6.933   0.850   4.964
10477SOL    HW232331   6.861   0.983   5.025
10478SOL     OW32332   6.564   6.680   7.008
10478SOL    HW132333   6.646   6.648   6.960
10478SOL    HW232334   6.565   6.779   7.013
10479SOL     OW32335   6.913   1.630   1.962
10479SOL    HW132336   6.915   1.530   1.971
10479SOL    HW232337   6.838   1.656   1.902
10480SOL     OW32338   0.795   0.992   1.945
10480SOL    HW132339   0.775   1.087   1.920
10480SOL    HW232340   0.753   0.972   2.034
10481SOL     OW32341   2.069   6.318   3.753
10481SOL    HW132342   2.039   6.410   3.780
10481SOL    HW232343   2.004   6.280   3.687
10482SOL     OW32344   6.122   5.164   4.619
10482SOL    HW132345   6.063   5.100   4.570
10482SOL    HW232346   6.218   5.140   4.604
10483SOL     OW32347   5.209   5.324   0.476
10483SOL    HW132348   5.160   5.289   0.397
10483SOL    HW232349   5.183   5.272   0.558
10484SOL     OW32350   4.935   1.358   1.997
10484SOL    HW132351   4.944   1.268   2.040
10484SOL    HW232352   4.960   1.352   1.900
10485SOL     OW32353   3.375   4.283   0.297
10485SOL    HW132354   3.300   4.300   0.234
10485SOL    HW232355   3.349   4.312   0.389
10486SOL     OW32356   0.272   0.576   0.446
10486SOL    HW132357   0.219   0.655   0.414
10486SOL    HW232358   0.278   0.579   0.546
10487SOL     OW32359   4.926   0.324   1.897
10487SOL    HW132360   5.015   0.367   1.881
10487SOL    HW232361   4.930   0.227   1.872
10488SOL     OW32362   3.479   1.676   5.349
10488SOL    HW132363   3.461   1.767   5.313
10488SOL    HW232364   3.529   1.683   5.435
10489SOL     OW32365   0.791   6.869   5.254
10489SOL    HW132366   0.758   6.896   5.344
10489SOL    HW232367   0.829   6.948   5.207
10490SOL     OW32368   5.903   1.667   0.931
10490SOL    HW132369   5.854   1.631   0.851
10490SOL    HW232370   5.967   1.737   0.902
10491SOL     OW32371   2.035   2.839   0.289
10491SOL    HW132372   1.938   2.820   0.272
10491SOL    HW232373   2.088   2.818   0.206
10492SOL     OW32374   5.991   3.908   5.642
10492SOL    HW132375   5.910   3.944   5.688
10492SOL    HW232376   5.964   3.865   5.556
10493SOL     OW32377   3.437   0.871   1.939
10493SOL    HW132378   3.354   0.838   1.986
10493SOL    HW232379   3.514   0.870   2.003
10494SOL     OW32380   5.404   3.980   5.964
10494SOL    HW132381   5.413   3.992   6.063
10494SOL    HW232382   5.421   4.067   5.919
10495SOL     OW32383   2.392   0.068   7.021
10495SOL    HW132384   2.433   0.042   6.934
10495SOL    HW232385   2.451   0.135   0.044
10496SOL     OW32386   0.115   4.674   6.681
10496SOL    HW132387   0.091   4.635   6.770
10496SOL    HW232388   0.154   4.765   6.693
10497SOL     OW32389   2.290   6.933   2.131
10497SOL    HW132390   2.302   6.859   2.197
10497SOL    HW232391   2.295   6.896   2.038
10498SOL     OW32392   2.990   5.568   1.254
10498SOL    HW132393   2.997   5.588   1.351
10498SOL    HW232394   3.040   5.636   1.201
10499SOL     OW32395   3.326   7.011   2.472
10499SOL    HW132396   3.245   6.993   2.416
10499SOL    HW232397   3.304   6.995   2.568
10500SOL     OW32398   0.031   1.459   5.959
10500SOL    HW132399   7.006   1.437   5.874
10500SOL    HW232400   0.083   1.543   5.947
10501SOL     OW32401   2.032   5.921   3.099
10501SOL    HW132402   2.110   5.876   3.144
10501SOL    HW232403   2.064   6.001   3.048
10502SOL     OW32404   2.638   0.131   0.807
10502SOL    HW132405   2.615   0.078   0.888
10502SOL    HW232406   2.594   0.221   0.811
10503SOL     OW32407   4.240   2.884   0.820
10503SOL    HW132408   4.272   2.803   0.870
10503SOL    HW232409   4.316   2.920   0.765
10504SOL     OW32410   1.732   1.637   7.016
10504SOL    HW132411   1.653   1.579   6.997
10504SOL    HW232412   1.777   1.661   6.929
10505SOL     OW32413   5.123   6.176   0.385
10505SOL    HW132414   5.189   6.187   0.459
10505SOL    HW232415   5.030   6.183   0.422
10506SOL     OW32416   0.154   5.224   0.312
10506SOL    HW132417   0.080   5.217   0.378
10506SOL    HW232418   0.222   5.291   0.345
10507SOL     OW32419   1.957   0.385   0.121
10507SOL    HW132420   1.901   0.357   0.198
10507SOL    HW232421   1.921   0.345   0.036
10508SOL     OW32422   6.468   6.968   4.853
10508SOL    HW132423   6.561   6.974   4.890
10508SOL    HW232424   6.464   6.893   4.787
10509SOL     OW32425   0.932   5.874   4.234
10509SOL    HW132426   0.950   5.928   4.316
10509SOL    HW232427   1.016   5.826   4.207
10510SOL     OW32428   4.640   5.940   6.327
10510SOL    HW132429   4.733   5.928   6.292
10510SOL    HW232430   4.636   5.907   6.421
10511SOL     OW32431   4.389   1.514   1.739
10511SOL    HW132432   4.476   1.516   1.788
10511SOL    HW232433   4.402   1.549   1.646
10512SOL     OW32434   4.104   0.205   5.477
10512SOL    HW132435   4.063   0.296   5.464
10512SOL    HW232436   4.050   0.153   5.542
10513SOL     OW32437   6.373   2.751   4.508
10513SOL    HW132438   6.353   2.849   4.510
10513SOL    HW232439   6.464   2.735   4.547
10514SOL     OW32440   6.566   3.773   0.368
10514SOL    HW132441   6.493   3.779   0.436
10514SOL    HW232442   6.577   3.678   0.339
10515SOL     OW32443   0.764   3.564   2.988
10515SOL    HW132444   0.769   3.508   3.070
10515SOL    HW232445   0.668   3.579   2.964
10516SOL     OW32446   3.903   1.037   0.655
10516SOL    HW132447   3.860   1.101   0.718
10516SOL    HW232448   3.839   1.013   0.582
10517SOL     OW32449   0.515   2.740   2.454
10517SOL    HW132450   0.525   2.643   2.432
10517SOL    HW232451   0.604   2.779   2.478
10518SOL     OW32452   0.898   5.498   6.483
10518SOL    HW132453   0.816   5.484   6.427
10518SOL    HW232454   0.965   5.550   6.430
10519SOL     OW32455   2.103   3.302   6.757
10519SOL    HW132456   2.115   3.387   6.808
10519SOL    HW232457   2.006   3.290   6.735
10520SOL     OW32458   0.940   2.843   6.694
10520SOL    HW132459   0.864   2.813   6.636
10520SOL    HW232460   1.023   2.796   6.666
10521SOL     OW32461   6.112   6.402   2.000
10521SOL    HW132462   6.109   6.362   2.091
10521SOL    HW232463   6.140   6.498   2.006
10522SOL     OW32464   6.955   0.598   6.022
10522SOL    HW132465   6.972   0.688   5.983
10522SOL    HW232466   6.989   0.595   6.116
10523SOL     OW32467   0.214   5.078   4.139
10523SOL    HW132468   0.187   5.172   4.116
10523SOL    HW232469   0.133   5.019   4.142
10524SOL     OW32470   2.000   0.602   4.661
10524SOL    HW132471   2.073   0.634   4.600
10524SOL    HW232472   1.989   0.666   4.736
10525SOL     OW32473   3.744   6.601   6.394
10525SOL    HW132474   3.822   6.601   6.331
10525SOL    HW232475   3.726   6.508   6.425
10526SOL     OW32476   1.052   6.714   3.612
10526SOL    HW132477   1.115   6.636   3.615
10526SOL    HW232478   0.989   6.709   3.690
10527SOL     OW32479   6.776   1.464   4.880
10527SOL    HW132480   6.696   1.514   4.911
10527SOL    HW232481   6.773   1.454   4.780
10528SOL     OW32482   1.963   3.618   6.022
10528SOL    HW132483   1.921   3.583   6.106
10528SOL    HW232484   2.023   3.695   6.044
10529SOL     OW32485   2.415   6.006   3.722
10529SOL    HW132486   2.337   5.971   3.774
10529SOL    HW232487   2.406   5.979   3.626
10530SOL     OW32488   2.269   0.351   6.299
10530SOL    HW132489   2.353   0.388   6.339
10530SOL    HW232490   2.292   0.284   6.229
10531SOL     OW32491   1.279   2.817   3.810
10531SOL    HW132492   1.313   2.810   3.716
10531SOL    HW232493   1.343   2.871   3.865
10532SOL     OW32494   1.433   4.773   6.033
10532SOL    HW132495   1.480   4.708   5.974
10532SOL    HW232496   1.457   4.754   6.129
10533SOL     OW32497   2.559   1.246   4.990
10533SOL    HW132498   2.547   1.314   5.061
10533SOL    HW232499   2.656   1.237   4.968
10534SOL     OW32500   6.241   5.746   1.468
10534SOL    HW132501   6.337   5.740   1.444
10534SOL    HW232502   6.229   5.807   1.546
10535SOL     OW32503   0.872   2.259   1.041
10535SOL    HW132504   0.868   2.311   0.956
10535SOL    HW232505   0.791   2.278   1.096
10536SOL     OW32506   3.942   0.499   2.956
10536SOL    HW132507   3.967   0.497   3.053
10536SOL    HW232508   3.937   0.594   2.925
10537SOL     OW32509   4.032   5.227   4.310
10537SOL    HW132510   4.093   5.282   4.366
10537SOL    HW232511   3.941   5.270   4.307
10538SOL     OW32512   5.044   1.718   0.087
10538SOL    HW132513   5.048   1.631   0.136
10538SOL    HW232514   4.996   1.706   0.001
10539SOL     OW32515   0.326   3.883   0.467
10539SOL    HW132516   0.358   3.906   0.375
10539SOL    HW232517   0.238   3.927   0.483
10540SOL     OW32518   1.196   2.660   5.037
10540SOL    HW132519   1.159   2.752   5.040
10540SOL    HW232520   1.144   2.605   4.971
10541SOL     OW32521   3.758   4.064   2.388
10541SOL    HW132522   3.727   4.013   2.469
10541SOL    HW232523   3.763   4.162   2.411
10542SOL     OW32524   6.795   0.516   5.541
10542SOL    HW132525   6.892   0.543   5.545
10542SOL    HW232526   6.771   0.468   5.625
10543SOL     OW32527   0.476   0.990   5.265
10543SOL    HW132528   0.549   0.924   5.282
10543SOL    HW232529   0.501   1.049   5.189
10544SOL     OW32530   2.023   6.511   2.054
10544SOL    HW132531   2.028   6.450   1.975
10544SOL    HW232532   1.968   6.591   2.031
10545SOL     OW32533   6.076   1.252   2.445
10545SOL    HW132534   6.006   1.287   2.382
10545SOL    HW232535   6.148   1.208   2.392
10546SOL     OW32536   1.724   0.902   0.029
10546SOL    HW132537   1.667   0.960   6.995
10546SOL    HW232538   1.665   0.848   0.090
10547SOL     OW32539   5.978   2.881   2.129
10547SOL    HW132540   5.994   2.913   2.036
10547SOL    HW232541   5.955   2.784   2.128
10548SOL     OW32542   5.259   4.562   4.470
10548SOL    HW132543   5.235   4.549   4.373
10548SOL    HW232544   5.176   4.578   4.523
10549SOL     OW32545   6.838   6.772   2.089
10549SOL    HW132546   6.742   6.780   2.116
10549SOL    HW232547   6.870   6.860   2.054
10550SOL     OW32548   4.143   5.935   4.353
10550SOL    HW132549   4.202   5.867   4.397
10550SOL    HW232550   4.167   6.026   4.387
10551SOL     OW32551   1.268   2.585   6.439
10551SOL    HW132552   1.322   2.520   6.387
10551SOL    HW232553   1.245   2.545   6.528
10552SOL     OW32554   3.418   1.393   6.576
10552SOL    HW132555   3.357   1.457   6.529
10552SOL    HW232556   3.363   1.331   6.633
10553SOL     OW32557   0.723   5.111   1.352
10553SOL    HW132558   0.763   5.202   1.366
10553SOL    HW232559   0.690   5.103   1.259
10554SOL     OW32560   5.388   5.237   0.093
10554SOL    HW132561   5.432   5.287   0.168
10554SOL    HW232562   5.416   5.141   0.096
10555SOL     OW32563   1.979   3.514   0.466
10555SOL    HW132564   1.943   3.421   0.460
10555SOL    HW232565   1.934   3.572   0.398
10556SOL     OW32566   2.360   2.059   5.386
10556SOL    HW132567   2.312   2.015   5.310
10556SOL    HW232568   2.363   2.158   5.370
10557SOL     OW32569   2.673   2.408   3.100
10557SOL    HW132570   2.581   2.423   3.134
10557SOL    HW232571   2.697   2.480   3.035
10558SOL     OW32572   4.086   0.974   3.840
10558SOL    HW132573   4.050   0.904   3.901
10558SOL    HW232574   4.033   1.058   3.849
10559SOL     OW32575   5.047   0.221   1.181
10559SOL    HW132576   5.070   0.275   1.101
10559SOL    HW232577   5.071   0.271   1.264
10560SOL     OW32578   3.780   5.979   3.538
10560SOL    HW132579   3.762   6.076   3.552
10560SOL    HW232580   3.801   5.936   3.625
10561SOL     OW32581   3.327   4.413   0.561
10561SOL    HW132582   3.423   4.432   0.544
10561SOL    HW232583   3.304   4.438   0.655
10562SOL     OW32584   4.625   5.836   0.371
10562SOL    HW132585   4.564   5.849   0.293
10562SOL    HW232586   4.713   5.880   0.351
10563SOL     OW32587   0.688   1.411   3.529
10563SOL    HW132588   0.668   1.331   3.585
10563SOL    HW232589   0.731   1.481   3.586
10564SOL     OW32590   5.582   6.403   1.765
10564SOL    HW132591   5.681   6.411   1.777
10564SOL    HW232592   5.559   6.308   1.744
10565SOL     OW32593   0.041   0.558   6.264
10565SOL    HW132594   0.054   0.599   6.354
10565SOL    HW232595   0.011   0.463   6.274
10566SOL     OW32596   3.979   2.529   0.223
10566SOL    HW132597   3.955   2.612   0.173
10566SOL    HW232598   3.913   2.457   0.203
10567SOL     OW32599   3.156   1.783   4.314
10567SOL    HW132600   3.184   1.840   4.237
10567SOL    HW232601   3.171   1.687   4.291
10568SOL     OW32602   6.267   2.254   1.363
10568SOL    HW132603   6.353   2.230   1.408
10568SOL    HW232604   6.281   2.334   1.305
10569SOL     OW32605   5.431   2.091   2.036
10569SOL    HW132606   5.528   2.102   2.060
10569SOL    HW232607   5.383   2.047   2.111
10570SOL     OW32608   1.765   4.936   3.269
10570SOL    HW132609   1.714   5.011   3.227
10570SOL    HW232610   1.712   4.852   3.262
10571SOL     OW32611   6.984   5.228   5.394
10571SOL    HW132612   6.934   5.152   5.352
10571SOL    HW232613   7.001   5.299   5.325
10572SOL     OW32614   0.014   3.703   3.555
10572SOL    HW132615   6.991   3.636   3.612
10572SOL    HW232616   6.974   3.776   3.531
10573SOL     OW32617   4.516   7.007   5.321
10573SOL    HW132618   4.525   7.000   5.420
10573SOL    HW232619   4.457   6.933   5.288
10574SOL     OW32620   1.504   1.317   3.946
10574SOL    HW132621   1.473   1.236   3.995
10574SOL    HW232622   1.587   1.295   3.894
10575SOL     OW32623   6.550   1.282   2.948
10575SOL    HW132624   6.478   1.338   2.989
10575SOL    HW232625   6.530   1.185   2.964
10576SOL     OW32626   0.133   6.129   5.043
10576SOL    HW132627   0.193   6.062   5.086
10576SOL    HW232628   0.157   6.221   5.076
10577SOL     OW32629   1.809   2.734   0.591
10577SOL    HW132630   1.765   2.688   0.514
10577SOL    HW232631   1.908   2.732   0.579
10578SOL     OW32632   5.620   0.954   2.856
10578SOL    HW132633   5.665   1.041   2.878
10578SOL    HW232634   5.649   0.924   2.765
10579SOL     OW32635   4.351   2.202   1.088
10579SOL    HW132636   4.311   2.126   1.140
10579SOL    HW232637   4.278   2.255   1.045
10580SOL     OW32638   6.834   0.385   0.134
10580SOL    HW132639   6.920   0.433   0.147
10580SOL    HW232640   6.767   0.447   0.093
10581SOL     OW32641   0.016   0.149   3.072
10581SOL    HW132642   7.008   0.081   3.005
10581SOL    HW232643   6.968   0.164   3.140
10582SOL     OW32644   5.194   4.957   6.924
10582SOL    HW132645   5.171   4.892   6.851
10582SOL    HW232646   5.230   5.041   6.884
10583SOL     OW32647   4.249   1.586   5.145
10583SOL    HW132648   4.213   1.499   5.179
10583SOL    HW232649   4.216   1.660   5.203
10584SOL     OW32650   6.985   6.410   1.235
10584SOL    HW132651   7.003   6.406   1.137
10584SOL    HW232652   6.956   6.320   1.267
10585SOL     OW32653   2.134   2.992   6.033
10585SOL    HW132654   2.045   2.960   6.067
10585SOL    HW232655   2.197   3.003   6.109
10586SOL     OW32656   0.179   4.718   4.827
10586SOL    HW132657   0.129   4.798   4.796
10586SOL    HW232658   0.269   4.716   4.784
10587SOL     OW32659   6.177   3.879   6.996
10587SOL    HW132660   6.240   3.877   0.049
10587SOL    HW232661   6.122   3.796   6.996
10588SOL     OW32662   0.175   3.832   3.293
10588SOL    HW132663   0.168   3.837   3.194
10588SOL    HW232664   0.187   3.737   3.322
10589SOL     OW32665   5.968   0.883   4.356
10589SOL    HW132666   5.884   0.898   4.409
10589SOL    HW232667   6.041   0.853   4.417
10590SOL     OW32668   1.331   0.221   1.878
10590SOL    HW132669   1.247   0.180   1.914
10590SOL    HW232670   1.323   0.321   1.879
10591SOL     OW32671   0.907   1.634   6.691
10591SOL    HW132672   0.842   1.680   6.751
10591SOL    HW232673   0.961   1.702   6.642
10592SOL     OW32674   5.992   3.563   1.398
10592SOL    HW132675   5.990   3.479   1.452
10592SOL    HW232676   5.925   3.557   1.324
10593SOL     OW32677   2.512   5.078   0.390
10593SOL    HW132678   2.475   5.112   0.303
10593SOL    HW232679   2.501   5.147   0.461
10594SOL     OW32680   5.165   0.128   2.449
10594SOL    HW132681   5.189   0.143   2.545
10594SOL    HW232682   5.211   0.047   2.415
10595SOL     OW32683   3.550   6.845   5.374
10595SOL    HW132684   3.563   6.751   5.407
10595SOL    HW232685   3.636   6.879   5.335
10596SOL     OW32686   4.444   0.693   0.070
10596SOL    HW132687   4.453   0.595   0.056
10596SOL    HW232688   4.347   0.718   0.070
10597SOL     OW32689   3.842   1.395   4.938
10597SOL    HW132690   3.905   1.318   4.936
10597SOL    HW232691   3.774   1.384   4.865
10598SOL     OW32692   2.851   2.408   0.171
10598SOL    HW132693   2.853   2.379   0.075
10598SOL    HW232694   2.887   2.335   0.229
10599SOL     OW32695   4.673   2.660   6.560
10599SOL    HW132696   4.761   2.674   6.606
10599SOL    HW232697   4.605   2.723   6.598
10600SOL     OW32698   2.303   2.326   0.550
10600SOL    HW132699   2.221   2.382   0.557
10600SOL    HW232700   2.277   2.230   0.537
10601SOL     OW32701   1.751   4.404   6.120
10601SOL    HW132702   1.841   4.360   6.116
10601SOL    HW232703   1.698   4.365   6.195
10602SOL     OW32704   4.423   1.563   3.351
10602SOL    HW132705   4.435   1.469   3.383
10602SOL    HW232706   4.391   1.562   3.256
10603SOL     OW32707   2.910   5.631   3.924
10603SOL    HW132708   2.886   5.539   3.953
10603SOL    HW232709   2.868   5.698   3.986
10604SOL     OW32710   6.172   4.290   5.388
10604SOL    HW132711   6.179   4.386   5.416
10604SOL    HW232712   6.113   4.282   5.308
10605SOL     OW32713   2.146   5.348   1.144
10605SOL    HW132714   2.076   5.417   1.129
10605SOL    HW232715   2.236   5.391   1.143
10606SOL     OW32716   0.066   0.342   2.069
10606SOL    HW132717   6.994   0.347   2.099
10606SOL    HW232718   0.126   0.333   2.149
10607SOL     OW32719   4.219   4.685   6.107
10607SOL    HW132720   4.200   4.783   6.101
10607SOL    HW232721   4.314   4.672   6.136
10608SOL     OW32722   5.173   2.211   5.232
10608SOL    HW132723   5.227   2.201   5.316
10608SOL    HW232724   5.204   2.292   5.183
10609SOL     OW32725   2.926   6.520   1.330
10609SOL    HW132726   2.913   6.570   1.416
10609SOL    HW232727   2.862   6.556   1.262
10610SOL     OW32728   1.231   2.820   5.818
10610SOL    HW132729   1.232   2.845   5.721
10610SOL    HW232730   1.175   2.886   5.868
10611SOL     OW32731   4.217   3.872   5.734
10611SOL    HW132732   4.285   3.932   5.690
10611SOL    HW232733   4.168   3.923   5.804
10612SOL     OW32734   2.912   0.818   5.458
10612SOL    HW132735   2.943   0.848   5.367
10612SOL    HW232736   2.832   0.758   5.448
10613SOL     OW32737   6.356   6.920   5.486
10613SOL    HW132738   6.332   6.989   5.418
10613SOL    HW232739   6.347   6.829   5.445
10614SOL     OW32740   6.395   2.201   4.417
10614SOL    HW132741   6.322   2.190   4.350
10614SOL    HW232742   6.445   2.115   4.428
10615SOL     OW32743   3.270   6.221   5.929
10615SOL    HW132744   3.290   6.156   6.002
10615SOL    HW232745   3.177   6.208   5.896
10616SOL     OW32746   2.471   6.394   0.684
10616SOL    HW132747   2.571   6.403   0.688
10616SOL    HW232748   2.447   6.298   0.675
10617SOL     OW32749   2.421   2.450   1.032
10617SOL    HW132750   2.485   2.398   0.976
10617SOL    HW232751   2.467   2.532   1.067
10618SOL     OW32752   6.967   3.830   6.561
10618SOL    HW132753   6.951   3.839   6.463
10618SOL    HW232754   6.962   3.734   6.588
10619SOL     OW32755   0.206   4.238   2.320
10619SOL    HW132756   0.242   4.184   2.396
10619SOL    HW232757   0.106   4.238   2.324
10620SOL     OW32758   1.538   5.307   5.506
10620SOL    HW132759   1.570   5.273   5.418
10620SOL    HW232760   1.470   5.379   5.491
10621SOL     OW32761   1.382   6.259   1.801
10621SOL    HW132762   1.475   6.262   1.764
10621SOL    HW232763   1.355   6.351   1.829
10622SOL     OW32764   4.813   0.980   1.223
10622SOL    HW132765   4.803   0.882   1.243
10622SOL    HW232766   4.758   1.002   1.142
10623SOL     OW32767   0.224   4.466   4.509
10623SOL    HW132768   0.191   4.421   4.426
10623SOL    HW232769   0.169   4.547   4.527
10624SOL     OW32770   0.497   1.769   4.967
10624SOL    HW132771   0.593   1.768   4.995
10624SOL    HW232772   0.491   1.785   4.868
10625SOL     OW32773   0.417   4.132   7.014
10625SOL    HW132774   0.364   4.184   0.057
10625SOL    HW232775   0.455   4.194   6.945
10626SOL     OW32776   2.512   3.118   0.784
10626SOL    HW132777   2.448   3.071   0.844
10626SOL    HW232778   2.597   3.064   0.777
10627SOL     OW32779   5.696   6.423   0.646
10627SOL    HW132780   5.780   6.467   0.613
10627SOL    HW232781   5.617   6.471   0.610
10628SOL     OW32782   4.451   5.480   0.169
10628SOL    HW132783   4.522   5.521   0.112
10628SOL    HW232784   4.363   5.524   0.151
10629SOL     OW32785   2.809   4.868   4.894
10629SOL    HW132786   2.837   4.785   4.942
10629SOL    HW232787   2.752   4.925   4.954
10630SOL     OW32788   6.746   1.401   4.039
10630SOL    HW132789   6.706   1.338   3.972
10630SOL    HW232790   6.713   1.376   4.130
10631SOL     OW32791   2.424   5.288   4.881
10631SOL    HW132792   2.420   5.335   4.793
10631SOL    HW232793   2.345   5.313   4.936
10632SOL     OW32794   5.932   1.872   3.965
10632SOL    HW132795   6.013   1.925   3.939
10632SOL    HW232796   5.952   1.774   3.960
10633SOL     OW32797   2.744   3.651   1.671
10633SOL    HW132798   2.782   3.570   1.717
10633SOL    HW232799   2.644   3.645   1.672
10634SOL     OW32800   2.988   5.294   1.150
10634SOL    HW132801   2.994   5.373   1.212
10634SOL    HW232802   2.894   5.261   1.148
10635SOL     OW32803   3.603   1.381   1.146
10635SOL    HW132804   3.524   1.348   1.198
10635SOL    HW232805   3.580   1.467   1.101
10636SOL     OW32806   0.893   1.116   1.481
10636SOL    HW132807   0.888   1.185   1.409
10636SOL    HW232808   0.986   1.114   1.518
10637SOL     OW32809   2.857   4.672   5.584
10637SOL    HW132810   2.906   4.746   5.631
10637SOL    HW232811   2.921   4.622   5.526
10638SOL     OW32812   6.953   5.355   2.942
10638SOL    HW132813   6.869   5.409   2.934
10638SOL    HW232814   0.002   5.399   2.889
10639SOL     OW32815   1.013   3.506   2.786
10639SOL    HW132816   0.989   3.409   2.794
10639SOL    HW232817   0.940   3.562   2.827
10640SOL     OW32818   3.517   0.316   5.737
10640SOL    HW132819   3.482   0.273   5.654
10640SOL    HW232820   3.586   0.256   5.779
10641SOL     OW32821   3.820   2.313   0.238
10641SOL    HW132822   3.797   2.262   0.155
10641SOL    HW232823   3.737   2.324   0.293
10642SOL     OW32824   6.398   3.155   1.817
10642SOL    HW132825   6.486   3.202   1.814
10642SOL    HW232826   6.393   3.099   1.900
10643SOL     OW32827   2.361   5.225   5.430
10643SOL    HW132828   2.444   5.194   5.476
10643SOL    HW232829   2.381   5.308   5.378
10644SOL     OW32830   5.408   2.478   3.308
10644SOL    HW132831   5.500   2.494   3.344
10644SOL    HW232832   5.372   2.564   3.271
10645SOL     OW32833   0.881   1.470   5.239
10645SOL    HW132834   0.809   1.529   5.201
10645SOL    HW232835   0.857   1.374   5.224
10646SOL     OW32836   0.206   1.228   6.206
10646SOL    HW132837   0.145   1.174   6.265
10646SOL    HW232838   0.170   1.321   6.199
10647SOL     OW32839   3.364   5.585   6.788
10647SOL    HW132840   3.429   5.579   6.864
10647SOL    HW232841   3.369   5.502   6.733
10648SOL     OW32842   5.219   4.263   5.982
10648SOL    HW132843   5.299   4.208   5.958
10648SOL    HW232844   5.178   4.302   5.899
10649SOL     OW32845   0.570   4.072   3.383
10649SOL    HW132846   0.663   4.069   3.418
10649SOL    HW232847   0.567   4.130   3.301
10650SOL     OW32848   1.006   5.954   3.372
10650SOL    HW132849   0.930   6.018   3.380
10650SOL    HW232850   1.074   5.973   3.443
10651SOL     OW32851   4.827   6.917   6.120
10651SOL    HW132852   4.750   6.870   6.077
10651SOL    HW232853   4.913   6.882   6.082
10652SOL     OW32854   3.870   6.943   6.241
10652SOL    HW132855   3.939   7.005   6.204
10652SOL    HW232856   3.914   6.857   6.266
10653SOL     OW32857   5.644   3.664   4.304
10653SOL    HW132858   5.564   3.605   4.316
10653SOL    HW232859   5.630   3.724   4.226
10654SOL     OW32860   4.119   1.427   0.788
10654SOL    HW132861   4.067   1.359   0.841
10654SOL    HW232862   4.070   1.514   0.790
10655SOL     OW32863   2.758   5.335   1.380
10655SOL    HW132864   2.812   5.418   1.365
10655SOL    HW232865   2.772   5.304   1.474
10656SOL     OW32866   6.579   2.492   1.505
10656SOL    HW132867   6.596   2.500   1.603
10656SOL    HW232868   6.659   2.523   1.454
10657SOL     OW32869   6.609   0.598   6.340
10657SOL    HW132870   6.542   0.671   6.351
10657SOL    HW232871   6.648   0.601   6.248
10658SOL     OW32872   6.239   3.687   4.776
10658SOL    HW132873   6.228   3.634   4.860
10658SOL    HW232874   6.188   3.772   4.783
10659SOL     OW32875   0.087   5.934   1.082
10659SOL    HW132876   0.038   5.858   1.124
10659SOL    HW232877   0.021   5.996   1.040
10660SOL     OW32878   5.628   4.177   6.833
10660SOL    HW132879   5.680   4.222   6.760
10660SOL    HW232880   5.655   4.081   6.839
10661SOL     OW32881   0.184   6.386   2.941
10661SOL    HW132882   0.256   6.447   2.975
10661SOL    HW232883   0.219   6.332   2.865
10662SOL     OW32884   5.699   0.630   2.260
10662SOL    HW132885   5.724   0.577   2.341
10662SOL    HW232886   5.667   0.721   2.289
10663SOL     OW32887   0.561   0.697   1.928
10663SOL    HW132888   0.592   0.714   1.834
10663SOL    HW232889   0.514   0.778   1.962
10664SOL     OW32890   1.593   4.945   4.644
10664SOL    HW132891   1.520   5.014   4.644
10664SOL    HW232892   1.564   4.867   4.699
10665SOL     OW32893   0.622   0.923   0.879
10665SOL    HW132894   0.592   0.988   0.810
10665SOL    HW232895   0.622   0.830   0.841
10666SOL     OW32896   3.110   4.233   0.542
10666SOL    HW132897   3.189   4.280   0.581
10666SOL    HW232898   3.044   4.213   0.614
10667SOL     OW32899   3.995   3.043   5.363
10667SOL    HW132900   4.052   2.994   5.298
10667SOL    HW232901   3.904   3.001   5.367
10668SOL     OW32902   1.528   1.970   5.389
10668SOL    HW132903   1.608   1.916   5.417
10668SOL    HW232904   1.551   2.022   5.306
10669SOL     OW32905   6.086   6.800   1.002
10669SOL    HW132906   6.032   6.877   1.038
10669SOL    HW232907   6.129   6.752   1.077
10670SOL     OW32908   4.749   3.958   5.265
10670SOL    HW132909   4.698   4.039   5.296
10670SOL    HW232910   4.689   3.878   5.266
10671SOL     OW32911   2.505   2.044   2.500
10671SOL    HW132912   2.507   1.944   2.490
10671SOL    HW232913   2.461   2.084   2.419
10672SOL     OW32914   6.734   2.372   0.642
10672SOL    HW132915   6.791   2.443   0.602
10672SOL    HW232916   6.792   2.297   0.676
10673SOL     OW32917   1.350   1.745   0.004
10673SOL    HW132918   1.264   1.705   6.996
10673SOL    HW232919   1.353   1.744   0.104
10674SOL     OW32920   3.123   4.158   1.111
10674SOL    HW132921   3.190   4.120   1.048
10674SOL    HW232922   3.063   4.221   1.062
10675SOL     OW32923   1.934   0.699   5.608
10675SOL    HW132924   1.855   0.645   5.637
10675SOL    HW232925   1.989   0.645   5.545
10676SOL     OW32926   6.164   6.391   5.999
10676SOL    HW132927   6.253   6.419   5.965
10676SOL    HW232928   6.093   6.414   5.932
10677SOL     OW32929   0.965   0.409   1.730
10677SOL    HW132930   1.059   0.431   1.755
10677SOL    HW232931   0.946   0.314   1.756
10678SOL     OW32932   3.652   5.411   2.000
10678SOL    HW132933   3.735   5.449   2.040
10678SOL    HW232934   3.587   5.484   1.982
10679SOL     OW32935   5.240   4.401   5.520
10679SOL    HW132936   5.210   4.337   5.449
10679SOL    HW232937   5.227   4.495   5.489
10680SOL     OW32938   2.474   1.782   4.072
10680SOL    HW132939   2.437   1.691   4.090
10680SOL    HW232940   2.537   1.778   3.995
10681SOL     OW32941   0.109   4.006   0.082
10681SOL    HW132942   0.163   3.924   0.061
10681SOL    HW232943   0.018   3.997   0.043
10682SOL     OW32944   2.143   2.339   3.346
10682SOL    HW132945   2.196   2.298   3.272
10682SOL    HW232946   2.177   2.307   3.434
10683SOL     OW32947   3.850   1.872   3.812
10683SOL    HW132948   3.874   1.930   3.734
10683SOL    HW232949   3.805   1.928   3.882
10684SOL     OW32950   4.703   3.572   0.945
10684SOL    HW132951   4.728   3.665   0.918
10684SOL    HW232952   4.694   3.515   0.863
10685SOL     OW32953   6.165   4.376   2.370
10685SOL    HW132954   6.145   4.409   2.277
10685SOL    HW232955   6.249   4.419   2.403
10686SOL     OW32956   3.406   5.322   6.662
10686SOL    HW132957   3.382   5.330   6.565
10686SOL    HW232958   3.413   5.225   6.687
10687SOL     OW32959   0.159   5.141   2.010
10687SOL    HW132960   0.116   5.057   1.977
10687SOL    HW232961   0.258   5.132   2.003
10688SOL     OW32962   6.606   4.500   2.845
10688SOL    HW132963   6.563   4.566   2.907
10688SOL    HW232964   6.700   4.528   2.825
10689SOL     OW32965   0.638   0.091   3.977
10689SOL    HW132966   0.704   0.017   3.975
10689SOL    HW232967   0.681   0.174   4.013
10690SOL     OW32968   6.229   5.202   4.274
10690SOL    HW132969   6.205   5.299   4.261
10690SOL    HW232970   6.146   5.147   4.276
10691SOL     OW32971   0.147   1.381   2.445
10691SOL    HW132972   0.077   1.352   2.510
10691SOL    HW232973   0.121   1.469   2.405
10692SOL     OW32974   3.672   4.903   3.369
10692SOL    HW132975   3.661   4.805   3.388
10692SOL    HW232976   3.703   4.916   3.275
10693SOL     OW32977   1.860   0.429   1.933
10693SOL    HW132978   1.893   0.409   2.025
10693SOL    HW232979   1.893   0.360   1.869
10694SOL     OW32980   3.754   6.216   1.559
10694SOL    HW132981   3.656   6.237   1.568
10694SOL    HW232982   3.802   6.245   1.641
10695SOL     OW32983   5.996   2.419   2.698
10695SOL    HW132984   5.996   2.324   2.728
10695SOL    HW232985   5.929   2.471   2.751
10696SOL     OW32986   6.720   4.675   2.265
10696SOL    HW132987   6.750   4.764   2.297
10696SOL    HW232988   6.799   4.622   2.233
10697SOL     OW32989   7.012   6.220   4.205
10697SOL    HW132990   7.002   6.129   4.245
10697SOL    HW232991   6.932   6.275   4.228
10698SOL     OW32992   3.794   6.617   3.860
10698SOL    HW132993   3.765   6.534   3.908
10698SOL    HW232994   3.758   6.697   3.909
10699SOL     OW32995   4.557   1.986   2.616
10699SOL    HW132996   4.637   2.040   2.590
10699SOL    HW232997   4.570   1.891   2.586
10700SOL     OW32998   1.248   7.020   0.315
10700SOL    HW132999   1.214   0.076   0.264
10700SOL    HW233000   1.347   0.003   0.325
10701SOL     OW33001   3.717   6.095   0.176
10701SOL    HW133002   3.650   6.043   0.228
10701SOL    HW233003   3.801   6.105   0.230
10702SOL     OW33004   6.598   2.573   2.953
10702SOL    HW133005   6.644   2.485   2.950
10702SOL    HW233006   6.553   2.584   3.042
10703SOL     OW33007   4.072   3.363   3.989
10703SOL    HW133008   4.073   3.265   4.007
10703SOL    HW233009   4.028   3.410   4.065
10704SOL     OW33010   5.580   5.742   1.671
10704SOL    HW133011   5.660   5.707   1.720
10704SOL    HW233012   5.536   5.813   1.726
10705SOL     OW33013   0.258   3.672   1.131
10705SOL    HW133014   0.243   3.758   1.082
10705SOL    HW233015   0.256   3.688   1.229
10706SOL     OW33016   4.751   6.502   2.134
10706SOL    HW133017   4.782   6.438   2.063
10706SOL    HW233018   4.657   6.480   2.160
10707SOL     OW33019   0.516   0.460   4.795
10707SOL    HW133020   0.477   0.528   4.859
10707SOL    HW233021   0.485   0.369   4.822
10708SOL     OW33022   4.721   0.665   2.113
10708SOL    HW133023   4.786   0.723   2.163
10708SOL    HW233024   4.707   0.580   2.164
10709SOL     OW33025   6.693   1.272   5.074
10709SOL    HW133026   6.744   1.329   5.009
10709SOL    HW233027   6.681   1.181   5.035
10710SOL     OW33028   1.034   6.623   4.953
10710SOL    HW133029   1.025   6.698   4.887
10710SOL    HW233030   1.127   6.587   4.950
10711SOL     OW33031   2.453   0.165   3.814
10711SOL    HW133032   2.392   0.133   3.887
10711SOL    HW233033   2.463   0.094   3.745
10712SOL     OW33034   3.738   0.618   2.699
10712SOL    HW133035   3.701   0.607   2.792
10712SOL    HW233036   3.795   0.701   2.696
10713SOL     OW33037   1.863   4.568   2.106
10713SOL    HW133038   1.806   4.645   2.136
10713SOL    HW233039   1.804   4.498   2.066
10714SOL     OW33040   6.529   2.450   5.155
10714SOL    HW133041   6.433   2.453   5.127
10714SOL    HW233042   6.545   2.519   5.225
10715SOL     OW33043   4.442   0.871   2.650
10715SOL    HW133044   4.446   0.861   2.551
10715SOL    HW233045   4.501   0.802   2.693
10716SOL     OW33046   0.207   2.833   3.393
10716SOL    HW133047   0.294   2.813   3.348
10716SOL    HW233048   0.150   2.889   3.333
10717SOL     OW33049   1.127   2.445   0.998
10717SOL    HW133050   1.114   2.351   1.028
10717SOL    HW233051   1.209   2.483   1.039
10718SOL     OW33052   6.363   4.887   0.109
10718SOL    HW133053   6.438   4.851   0.054
10718SOL    HW233054   6.365   4.846   0.200
10719SOL     OW33055   4.463   5.745   1.544
10719SOL    HW133056   4.491   5.679   1.475
10719SOL    HW233057   4.365   5.763   1.536
10720SOL     OW33058   0.126   4.185   6.332
10720SOL    HW133059   0.177   4.271   6.322
10720SOL    HW233060   0.131   4.154   6.427
10721SOL     OW33061   6.588   2.327   4.277
10721SOL    HW133062   6.510   2.282   4.321
10721SOL    HW233063   6.558   2.368   4.191
10722SOL     OW33064   6.826   2.943   0.590
10722SOL    HW133065   6.827   3.037   0.556
10722SOL    HW233066   6.909   2.896   0.561
10723SOL     OW33067   5.862   3.865   6.692
10723SOL    HW133068   5.772   3.842   6.656
10723SOL    HW233069   5.854   3.941   6.756
10724SOL     OW33070   3.255   0.157   5.811
10724SOL    HW133071   3.317   0.218   5.761
10724SOL    HW233072   3.285   0.062   5.799
10725SOL     OW33073   7.023   4.931   4.124
10725SOL    HW133074   7.011   4.858   4.057
10725SOL    HW233075   6.936   4.978   4.138
10726SOL     OW33076   5.707   6.968   5.224
10726SOL    HW133077   5.753   6.882   5.201
10726SOL    HW233078   5.772   0.008   5.265
10727SOL     OW33079   1.811   5.081   5.349
10727SOL    HW133080   1.887   5.078   5.284
10727SOL    HW233081   1.758   4.997   5.343
10728SOL     OW33082   6.270   6.483   2.385
10728SOL    HW133083   6.227   6.480   2.475
10728SOL    HW233084   6.206   6.449   2.317
10729SOL     OW33085   6.481   1.787   2.825
10729SOL    HW133086   6.485   1.776   2.726
10729SOL    HW233087   6.512   1.702   2.869
10730SOL     OW33088   2.636   6.316   1.542
10730SOL    HW133089   2.717   6.296   1.599
10730SOL    HW233090   2.666   6.338   1.449
10731SOL     OW33091   2.801   5.579   0.355
10731SOL    HW133092   2.846   5.492   0.335
10731SOL    HW233093   2.813   5.642   0.278
10732SOL     OW33094   6.530   0.266   2.724
10732SOL    HW133095   6.567   0.309   2.806
10732SOL    HW233096   6.444   0.311   2.698
10733SOL     OW33097   5.467   2.263   0.184
10733SOL    HW133098   5.432   2.303   0.099
10733SOL    HW233099   5.558   2.226   0.167
10734SOL     OW33100   1.152   0.975   6.857
10734SOL    HW133101   1.120   1.033   6.932
10734SOL    HW233102   1.131   0.879   6.878
10735SOL     OW33103   1.276   4.946   2.193
10735SOL    HW133104   1.310   5.017   2.132
10735SOL    HW233105   1.333   4.864   2.185
10736SOL     OW33106   0.660   1.107   3.212
10736SOL    HW133107   0.740   1.152   3.251
10736SOL    HW233108   0.689   1.032   3.152
10737SOL     OW33109   0.609   2.540   0.713
10737SOL    HW133110   0.598   2.513   0.808
10737SOL    HW233111   0.704   2.566   0.696
10738SOL     OW33112   2.426   6.978   2.658
10738SOL    HW133113   2.496   6.913   2.628
10738SOL    HW233114   2.419   6.976   2.758
10739SOL     OW33115   6.913   1.390   2.784
10739SOL    HW133116   6.899   1.487   2.764
10739SOL    HW233117   7.011   1.370   2.785
10740SOL     OW33118   1.469   5.690   5.815
10740SOL    HW133119   1.431   5.772   5.857
10740SOL    HW233120   1.557   5.668   5.859
10741SOL     OW33121   1.110   1.343   3.347
10741SOL    HW133122   1.168   1.359   3.267
10741SOL    HW233123   1.103   1.428   3.400
10742SOL     OW33124   6.190   6.677   2.021
10742SOL    HW133125   6.194   6.777   2.019
10742SOL    HW233126   6.267   6.639   1.970
10743SOL     OW33127   2.718   2.341   3.759
10743SOL    HW133128   2.783   2.414   3.739
10743SOL    HW233129   2.654   2.332   3.683
10744SOL     OW33130   3.177   1.592   2.437
10744SOL    HW133131   3.132   1.541   2.510
10744SOL    HW233132   3.245   1.534   2.393
10745SOL     OW33133   1.871   4.447   0.143
10745SOL    HW133134   1.946   4.381   0.144
10745SOL    HW233135   1.863   4.487   0.052
10746SOL     OW33136   1.785   5.723   1.466
10746SOL    HW133137   1.786   5.702   1.369
10746SOL    HW233138   1.692   5.719   1.501
10747SOL     OW33139   5.295   1.420   3.054
10747SOL    HW133140   5.367   1.488   3.067
10747SOL    HW233141   5.321   1.334   3.098
10748SOL     OW33142   5.873   5.838   0.876
10748SOL    HW133143   5.796   5.860   0.816
10748SOL    HW233144   5.909   5.748   0.852
10749SOL     OW33145   0.222   5.118   3.051
10749SOL    HW133146   0.172   5.105   2.966
10749SOL    HW233147   0.259   5.031   3.082
10750SOL     OW33148   4.672   4.401   4.588
10750SOL    HW133149   4.755   4.398   4.644
10750SOL    HW233150   4.607   4.465   4.628
10751SOL     OW33151   0.998   3.254   5.003
10751SOL    HW133152   0.998   3.160   5.035
10751SOL    HW233153   0.905   3.292   5.011
10752SOL     OW33154   6.328   4.102   6.547
10752SOL    HW133155   6.232   4.082   6.566
10752SOL    HW233156   6.339   4.200   6.533
10753SOL     OW33157   6.408   0.183   3.800
10753SOL    HW133158   6.461   0.235   3.867
10753SOL    HW233159   6.445   0.200   3.709
10754SOL     OW33160   1.711   2.547   2.336
10754SOL    HW133161   1.625   2.497   2.338
10754SOL    HW233162   1.787   2.483   2.331
10755SOL     OW33163   0.079   1.638   0.593
10755SOL    HW133164   7.017   1.672   0.553
10755SOL    HW233165   0.058   1.570   0.663
10756SOL     OW33166   6.232   3.195   0.716
10756SOL    HW133167   6.318   3.244   0.700
10756SOL    HW233168   6.215   3.133   0.639
10757SOL     OW33169   0.116   3.457   0.474
10757SOL    HW133170   0.165   3.435   0.390
10757SOL    HW233171   0.068   3.544   0.463
10758SOL     OW33172   0.429   5.777   5.331
10758SOL    HW133173   0.415   5.851   5.397
10758SOL    HW233174   0.422   5.689   5.377
10759SOL     OW33175   2.085   3.041   6.616
10759SOL    HW133176   2.050   2.959   6.660
10759SOL    HW233177   2.184   3.032   6.605
10760SOL     OW33178   0.242   6.399   1.208
10760SOL    HW133179   0.342   6.405   1.216
10760SOL    HW233180   0.217   6.383   1.113
10761SOL     OW33181   0.974   2.650   6.489
10761SOL    HW133182   1.071   2.649   6.467
10761SOL    HW233183   0.943   2.557   6.510
10762SOL     OW33184   4.794   0.864   5.033
10762SOL    HW133185   4.753   0.872   5.124
10762SOL    HW233186   4.743   0.920   4.968
10763SOL     OW33187   4.277   0.239   1.332
10763SOL    HW133188   4.214   0.253   1.255
10763SOL    HW233189   4.332   0.158   1.316
10764SOL     OW33190   5.040   1.709   6.336
10764SOL    HW133191   4.984   1.711   6.419
10764SOL    HW233192   5.013   1.785   6.276
10765SOL     OW33193   5.622   1.536   1.717
10765SOL    HW133194   5.635   1.553   1.815
10765SOL    HW233195   5.560   1.458   1.705
10766SOL     OW33196   2.759   3.520   0.605
10766SOL    HW133197   2.785   3.605   0.558
10766SOL    HW233198   2.804   3.517   0.695
10767SOL     OW33199   1.303   0.004   0.665
10767SOL    HW133200   1.253   6.955   0.618
10767SOL    HW233201   1.265   0.093   0.638
10768SOL     OW33202   5.465   5.853   0.367
10768SOL    HW133203   5.406   5.773   0.374
10768SOL    HW233204   5.439   5.908   0.288
10769SOL     OW33205   3.153   5.125   5.518
10769SOL    HW133206   3.075   5.174   5.558
10769SOL    HW233207   3.219   5.191   5.484
10770SOL     OW33208   5.615   0.345   5.128
10770SOL    HW133209   5.518   0.369   5.129
10770SOL    HW233210   5.665   0.407   5.188
10771SOL     OW33211   4.631   0.376   5.362
10771SOL    HW133212   4.581   0.296   5.327
10771SOL    HW233213   4.625   0.377   5.462
10772SOL     OW33214   7.009   0.295   3.385
10772SOL    HW133215   6.961   0.368   3.432
10772SOL    HW233216   6.956   0.264   3.306
10773SOL     OW33217   6.615   4.836   6.944
10773SOL    HW133218   6.641   4.933   6.946
10773SOL    HW233219   6.649   4.794   6.860
10774SOL     OW33220   1.361   2.539   1.090
10774SOL    HW133221   1.369   2.512   1.186
10774SOL    HW233222   1.452   2.535   1.047
10775SOL     OW33223   2.283   4.451   0.534
10775SOL    HW133224   2.260   4.542   0.568
10775SOL    HW233225   2.212   4.386   0.561
10776SOL     OW33226   0.494   6.412   1.535
10776SOL    HW133227   0.469   6.499   1.493
10776SOL    HW233228   0.511   6.344   1.463
10777SOL     OW33229   3.863   0.298   3.222
10777SOL    HW133230   3.881   0.287   3.320
10777SOL    HW233231   3.768   0.327   3.209
10778SOL     OW33232   6.516   6.812   4.634
10778SOL    HW133233   6.502   6.717   4.606
10778SOL    HW233234   6.528   6.870   4.553
10779SOL     OW33235   0.092   4.725   2.494
10779SOL    HW133236   0.098   4.816   2.453
10779SOL    HW233237   0.122   4.729   2.590
10780SOL     OW33238   0.355   5.850   3.638
10780SOL    HW133239   0.441   5.897   3.618
10780SOL    HW233240   0.296   5.908   3.693
10781SOL     OW33241   4.754   1.846   4.401
10781SOL    HW133242   4.656   1.849   4.387
10781SOL    HW233243   4.778   1.769   4.459
10782SOL     OW33244   6.520   2.527   3.403
10782SOL    HW133245   6.606   2.502   3.448
10782SOL    HW233246   6.470   2.593   3.461
10783SOL     OW33247   1.933   3.283   2.712
10783SOL    HW133248   1.838   3.293   2.741
10783SOL    HW233249   1.936   3.237   2.623
10784SOL     OW33250   2.280   6.748   0.917
10784SOL    HW133251   2.281   6.845   0.894
10784SOL    HW233252   2.186   6.718   0.931
10785SOL     OW33253   1.880   4.874   1.531
10785SOL    HW133254   1.947   4.928   1.582
10785SOL    HW233255   1.907   4.869   1.435
10786SOL     OW33256   5.491   2.773   1.865
10786SOL    HW133257   5.503   2.682   1.826
10786SOL    HW233258   5.477   2.766   1.963
10787SOL     OW33259   3.635   1.373   4.774
10787SOL    HW133260   3.667   1.355   4.681
10787SOL    HW233261   3.576   1.453   4.774
10788SOL     OW33262   2.352   4.077   0.371
10788SOL    HW133263   2.417   4.009   0.337
10788SOL    HW233264   2.399   4.164   0.386
10789SOL     OW33265   5.512   0.990   0.592
10789SOL    HW133266   5.470   1.081   0.592
10789SOL    HW233267   5.507   0.951   0.684
10790SOL     OW33268   0.648   0.547   5.378
10790SOL    HW133269   0.551   0.547   5.352
10790SOL    HW233270   0.702   0.504   5.306
10791SOL     OW33271   1.402   1.745   1.920
10791SOL    HW133272   1.428   1.710   2.009
10791SOL    HW233273   1.481   1.740   1.858
10792SOL     OW33274   3.418   3.068   1.655
10792SOL    HW133275   3.478   3.106   1.726
10792SOL    HW233276   3.462   3.078   1.565
10793SOL     OW33277   5.572   2.223   3.879
10793SOL    HW133278   5.651   2.268   3.920
10793SOL    HW233279   5.552   2.139   3.931
10794SOL     OW33280   3.606   3.969   1.724
10794SOL    HW133281   3.532   3.975   1.791
10794SOL    HW233282   3.689   4.010   1.763
10795SOL     OW33283   6.566   4.328   3.078
10795SOL    HW133284   6.574   4.335   2.978
10795SOL    HW233285   6.506   4.252   3.101
10796SOL     OW33286   3.606   6.925   6.302
10796SOL    HW133287   3.702   6.900   6.307
10796SOL    HW233288   3.583   6.950   6.208
10797SOL     OW33289   3.980   2.453   0.531
10797SOL    HW133290   3.980   2.443   0.431
10797SOL    HW233291   3.885   2.456   0.564
10798SOL     OW33292   2.169   0.222   0.377
10798SOL    HW133293   2.101   0.245   0.447
10798SOL    HW233294   2.235   0.158   0.415
10799SOL     OW33295   3.604   2.085   2.265
10799SOL    HW133296   3.680   2.123   2.319
10799SOL    HW233297   3.590   2.142   2.184
10800SOL     OW33298   1.918   5.849   0.303
10800SOL    HW133299   1.983   5.862   0.378
10800SOL    HW233300   1.915   5.752   0.279
10801SOL     OW33301   1.331   0.543   3.924
10801SOL    HW133302   1.405   0.608   3.936
10801SOL    HW233303   1.323   0.519   3.827
10802SOL     OW33304   2.271   2.842   4.781
10802SOL    HW133305   2.324   2.913   4.828
10802SOL    HW233306   2.262   2.866   4.684
10803SOL     OW33307   5.056   4.561   4.662
10803SOL    HW133308   4.985   4.493   4.681
10803SOL    HW233309   5.049   4.636   4.727
10804SOL     OW33310   6.717   4.766   0.939
10804SOL    HW133311   6.722   4.674   0.898
10804SOL    HW233312   6.672   4.829   0.875
10805SOL     OW33313   3.606   0.666   6.763
10805SOL    HW133314   3.693   0.666   6.714
10805SOL    HW233315   3.605   0.591   6.829
10806SOL     OW33316   5.491   3.922   0.097
10806SOL    HW133317   5.436   4.005   0.101
10806SOL    HW233318   5.493   3.887   0.004
10807SOL     OW33319   3.758   6.943   3.273
10807SOL    HW133320   3.710   7.014   3.221
10807SOL    HW233321   3.767   6.972   3.368
10808SOL     OW33322   6.361   3.831   0.150
10808SOL    HW133323   6.449   3.859   0.112
10808SOL    HW233324   6.375   3.788   0.239
10809SOL     OW33325   2.957   0.547   4.036
10809SOL    HW133326   3.022   0.485   3.993
10809SOL    HW233327   2.914   0.604   3.965
10810SOL     OW33328   1.056   1.749   6.372
10810SOL    HW133329   0.972   1.795   6.344
10810SOL    HW233330   1.117   1.815   6.416
10811SOL     OW33331   4.061   5.143   5.401
10811SOL    HW133332   4.045   5.054   5.359
10811SOL    HW233333   4.011   5.150   5.487
10812SOL     OW33334   0.561   3.822   1.932
10812SOL    HW133335   0.589   3.756   2.001
10812SOL    HW233336   0.511   3.775   1.859
10813SOL     OW33337   2.770   6.415   0.672
10813SOL    HW133338   2.820   6.343   0.720
10813SOL    HW233339   2.782   6.403   0.573
10814SOL     OW33340   1.004   0.814   5.413
10814SOL    HW133341   1.019   0.911   5.393
10814SOL    HW233342   0.927   0.805   5.476
10815SOL     OW33343   5.045   4.992   3.359
10815SOL    HW133344   5.099   4.923   3.310
10815SOL    HW233345   4.950   4.990   3.325
10816SOL     OW33346   1.887   1.614   2.277
10816SOL    HW133347   1.951   1.542   2.251
10816SOL    HW233348   1.893   1.689   2.212
10817SOL     OW33349   5.715   6.641   2.875
10817SOL    HW133350   5.715   6.667   2.778
10817SOL    HW233351   5.621   6.623   2.904
10818SOL     OW33352   5.712   2.086   5.397
10818SOL    HW133353   5.794   2.086   5.340
10818SOL    HW233354   5.640   2.033   5.351
10819SOL     OW33355   0.301   3.826   6.883
10819SOL    HW133356   0.239   3.877   6.823
10819SOL    HW233357   0.360   3.890   6.932
10820SOL     OW33358   7.021   6.798   4.462
10820SOL    HW133359   6.982   6.712   4.431
10820SOL    HW233360   0.057   6.836   4.392
10821SOL     OW33361   6.035   6.743   2.729
10821SOL    HW133362   6.055   6.819   2.790
10821SOL    HW233363   5.943   6.753   2.691
10822SOL     OW33364   1.669   2.667   2.577
10822SOL    HW133365   1.570   2.672   2.587
10822SOL    HW233366   1.692   2.656   2.480
10823SOL     OW33367   1.780   5.199   1.624
10823SOL    HW133368   1.728   5.116   1.605
10823SOL    HW233369   1.865   5.175   1.671
10824SOL     OW33370   5.067   6.857   3.580
10824SOL    HW133371   4.996   6.898   3.636
10824SOL    HW233372   5.025   6.789   3.519
10825SOL     OW33373   2.761   0.494   0.959
10825SOL    HW133374   2.847   0.445   0.945
10825SOL    HW233375   2.759   0.574   0.899
10826SOL     OW33376   6.683   3.497   3.049
10826SOL    HW133377   6.597   3.534   3.083
10826SOL    HW233378   6.688   3.399   3.068
10827SOL     OW33379   5.858   3.556   3.648
10827SOL    HW133380   5.816   3.466   3.662
10827SOL    HW233381   5.836   3.615   3.725
10828SOL     OW33382   1.370   5.950   2.370
10828SOL    HW133383   1.294   5.992   2.321
10828SOL    HW233384   1.446   6.015   2.376
10829SOL     OW33385   3.125   3.517   1.041
10829SOL    HW133386   3.077   3.448   1.094
10829SOL    HW233387   3.116   3.606   1.086
10830SOL     OW33388   5.195   2.199   3.138
10830SOL    HW133389   5.175   2.102   3.121
10830SOL    HW233390   5.235   2.209   3.229
10831SOL     OW33391   4.975   6.635   1.824
10831SOL    HW133392   5.056   6.577   1.836
10831SOL    HW233393   4.898   6.580   1.794
10832SOL     OW33394   0.312   2.433   1.061
10832SOL    HW133395   0.285   2.351   1.011
10832SOL    HW233396   0.278   2.428   1.155
10833SOL     OW33397   1.330   0.545   3.604
10833SOL    HW133398   1.233   0.562   3.621
10833SOL    HW233399   1.359   0.596   3.522
10834SOL     OW33400   1.216   1.676   6.149
10834SOL    HW133401   1.310   1.646   6.163
10834SOL    HW233402   1.177   1.705   6.237
10835SOL     OW33403   5.432   1.624   0.984
10835SOL    HW133404   5.439   1.681   0.903
10835SOL    HW233405   5.523   1.611   1.024
10836SOL     OW33406   0.078   1.522   5.675
10836SOL    HW133407   0.102   1.427   5.693
10836SOL    HW233408   0.009   1.525   5.602
10837SOL     OW33409   0.166   4.651   0.043
10837SOL    HW133410   0.161   4.588   6.989
10837SOL    HW233411   0.215   4.734   0.015
10838SOL     OW33412   5.676   0.240   4.596
10838SOL    HW133413   5.683   0.288   4.684
10838SOL    HW233414   5.764   0.244   4.549
10839SOL     OW33415   3.037   2.582   0.511
10839SOL    HW133416   2.983   2.641   0.451
10839SOL    HW233417   3.001   2.590   0.604
10840SOL     OW33418   3.926   5.821   1.317
10840SOL    HW133419   3.939   5.852   1.223
10840SOL    HW233420   3.837   5.774   1.325
10841SOL     OW33421   2.996   5.912   6.000
10841SOL    HW133422   2.964   5.833   5.947
10841SOL    HW233423   3.064   5.882   6.066
10842SOL     OW33424   6.159   3.560   1.069
10842SOL    HW133425   6.127   3.647   1.107
10842SOL    HW233426   6.257   3.565   1.049
10843SOL     OW33427   0.533   1.581   1.891
10843SOL    HW133428   0.463   1.539   1.834
10843SOL    HW233429   0.624   1.557   1.856
10844SOL     OW33430   0.628   6.412   4.397
10844SOL    HW133431   0.569   6.484   4.359
10844SOL    HW233432   0.669   6.444   4.482
10845SOL     OW33433   1.889   0.847   1.302
10845SOL    HW133434   1.830   0.766   1.308
10845SOL    HW233435   1.840   0.926   1.338
10846SOL     OW33436   4.516   2.376   0.914
10846SOL    HW133437   4.590   2.310   0.925
10846SOL    HW233438   4.501   2.425   0.999
10847SOL     OW33439   2.310   1.696   6.822
10847SOL    HW133440   2.343   1.779   6.869
10847SOL    HW233441   2.212   1.706   6.804
10848SOL     OW33442   2.942   2.281   6.437
10848SOL    HW133443   2.915   2.230   6.520
10848SOL    HW233444   3.012   2.229   6.388
10849SOL     OW33445   3.897   4.975   3.996
10849SOL    HW133446   3.937   4.951   3.908
10849SOL    HW233447   3.803   5.006   3.983
10850SOL     OW33448   4.066   6.700   6.753
10850SOL    HW133449   4.134   6.773   6.750
10850SOL    HW233450   4.049   6.666   6.660
10851SOL     OW33451   2.605   2.363   6.444
10851SOL    HW133452   2.653   2.370   6.531
10851SOL    HW233453   2.661   2.312   6.379
10852SOL     OW33454   0.672   0.272   6.112
10852SOL    HW133455   0.629   0.227   6.034
10852SOL    HW233456   0.617   0.258   6.194
10853SOL     OW33457   3.737   1.690   4.825
10853SOL    HW133458   3.811   1.629   4.853
10853SOL    HW233459   3.694   1.730   4.906
10854SOL     OW33460   6.321   0.379   6.360
10854SOL    HW133461   6.393   0.385   6.291
10854SOL    HW233462   6.332   0.453   6.427
10855SOL     OW33463   2.997   6.289   2.625
10855SOL    HW133464   3.060   6.364   2.645
10855SOL    HW233465   2.953   6.304   2.536
10856SOL     OW33466   5.966   0.844   1.296
10856SOL    HW133467   6.024   0.907   1.348
10856SOL    HW233468   6.010   0.824   1.208
10857SOL     OW33469   5.416   3.010   3.677
10857SOL    HW133470   5.497   2.952   3.672
10857SOL    HW233471   5.408   3.048   3.769
10858SOL     OW33472   1.623   2.683   6.745
10858SOL    HW133473   1.706   2.646   6.702
10858SOL    HW233474   1.557   2.705   6.674
10859SOL     OW33475   1.889   3.826   3.618
10859SOL    HW133476   1.793   3.805   3.597
10859SOL    HW233477   1.897   3.922   3.644
10860SOL     OW33478   6.976   1.281   6.144
10860SOL    HW133479   7.002   1.342   6.069
10860SOL    HW233480   6.997   1.186   6.119
10861SOL     OW33481   3.744   2.551   1.707
10861SOL    HW133482   3.820   2.515   1.652
10861SOL    HW233483   3.697   2.474   1.752
10862SOL     OW33484   2.541   1.542   6.644
10862SOL    HW133485   2.632   1.499   6.647
10862SOL    HW233486   2.494   1.526   6.731
10863SOL     OW33487   3.160   1.159   2.595
10863SOL    HW133488   3.157   1.060   2.608
10863SOL    HW233489   3.174   1.179   2.498
10864SOL     OW33490   2.415   4.429   1.399
10864SOL    HW133491   2.325   4.393   1.420
10864SOL    HW233492   2.430   4.428   1.300
10865SOL     OW33493   5.918   2.526   3.251
10865SOL    HW133494   5.986   2.545   3.321
10865SOL    HW233495   5.920   2.598   3.182
10866SOL     OW33496   5.671   3.113   1.085
10866SOL    HW133497   5.679   3.047   1.161
10866SOL    HW233498   5.762   3.130   1.047
10867SOL     OW33499   2.693   2.862   0.570
10867SOL    HW133500   2.692   2.762   0.573
10867SOL    HW233501   2.599   2.896   0.556
10868SOL     OW33502   1.565   2.081   2.868
10868SOL    HW133503   1.655   2.051   2.899
10868SOL    HW233504   1.577   2.141   2.788
10869NA      NA33505   0.723   2.322   6.419
10870NA      NA33506   4.505   4.554   5.171
10871NA      NA33507   2.417   4.720   2.376
10872NA      NA33508   5.244   4.692   3.661
10873NA      NA33509   4.226   2.308   5.256
10874NA      NA33510   3.403   4.225   1.464
10875NA      NA33511   1.124   4.704   0.324
10876NA      NA33512   4.097   4.166   1.598
10877NA      NA33513   4.661   4.585   0.859
10878NA      NA33514   3.603   1.049   5.264
10879NA      NA33515   5.562   5.645   1.434
10880NA      NA33516   0.983   0.724   5.793
10881NA      NA33517   4.966   4.916   2.053
10882NA      NA33518   3.400   3.078   0.866
   7.02355   7.02355   7.02355
