Generated by trjconv : CNT in water t= 147.00000
33518
    1C        C    1   2.838   2.762   4.747
    1C        C    2   2.894   2.713   4.867
    1C        C    3   2.835   2.760   4.985
    1C        C    4   2.846   2.769   4.258
    1C        C    5   2.896   2.724   4.382
    1C        C    6   2.839   2.768   4.503
    1C        C    7   3.007   2.640   4.625
    1C        C    8   2.887   2.713   4.624
    1C        C    9   3.071   2.600   4.744
    1C        C   10   3.006   2.627   4.867
    1C        C   11   3.180   2.490   4.978
    1C        C   12   3.058   2.558   4.977
    1C        C   13   2.846   2.767   3.770
    1C        C   14   2.893   2.713   3.891
    1C        C   15   2.845   2.768   4.012
    1C        C   16   3.013   2.640   4.138
    1C        C   17   2.898   2.722   4.135
    1C        C   18   3.076   2.610   4.260
    1C        C   19   3.011   2.642   4.382
    1C        C   20   3.206   2.559   4.502
    1C        C   21   3.073   2.606   4.504
    1C        C   22   3.273   2.538   4.624
    1C        C   23   3.203   2.547   4.746
    1C        C   24   3.410   2.488   4.862
    1C        C   25   3.268   2.506   4.866
    1C        C   26   3.491   2.486   4.977
    1C        C   27   2.841   2.758   3.281
    1C        C   28   2.899   2.717   3.403
    1C        C   29   2.845   2.763   3.525
    1C        C   30   3.012   2.635   3.648
    1C        C   31   2.896   2.716   3.648
    1C        C   32   3.074   2.602   3.771
    1C        C   33   3.010   2.634   3.893
    1C        C   34   3.204   2.551   4.015
    1C        C   35   3.071   2.599   4.015
    1C        C   36   3.273   2.530   4.136
    1C        C   37   3.206   2.554   4.258
    1C        C   38   3.413   2.514   4.380
    1C        C   39   3.274   2.538   4.381
    1C        C   40   3.486   2.505   4.501
    1C        C   41   3.412   2.510   4.621
    1C        C   42   3.626   2.485   4.742
    1C        C   43   3.484   2.487   4.741
    1C        C   44   3.704   2.487   4.859
    1C        C   45   3.629   2.472   4.977
    1C        C   46   2.829   2.742   2.792
    1C        C   47   2.888   2.701   2.914
    1C        C   48   2.835   2.753   3.034
    1C        C   49   3.012   2.639   3.158
    1C        C   50   2.892   2.712   3.157
    1C        C   51   3.075   2.602   3.279
    1C        C   52   3.015   2.637   3.402
    1C        C   53   3.204   2.544   3.525
    1C        C   54   3.074   2.601   3.526
    1C        C   55   3.272   2.525   3.647
    1C        C   56   3.205   2.550   3.769
    1C        C   57   3.411   2.509   3.892
    1C        C   58   3.271   2.531   3.892
    1C        C   59   3.483   2.504   4.013
    1C        C   60   3.413   2.507   4.135
    1C        C   61   3.625   2.506   4.257
    1C        C   62   3.483   2.504   4.258
    1C        C   63   3.699   2.511   4.377
    1C        C   64   3.627   2.506   4.499
    1C        C   65   3.831   2.550   4.619
    1C        C   66   3.696   2.509   4.622
    1C        C   67   3.904   2.564   4.740
    1C        C   68   3.840   2.527   4.860
    1C        C   69   4.050   2.580   4.973
    1C        C   70   3.918   2.532   4.975
    1C        C   71   2.820   2.730   2.307
    1C        C   72   2.882   2.689   2.427
    1C        C   73   2.828   2.742   2.547
    1C        C   74   3.001   2.621   2.669
    1C        C   75   2.881   2.695   2.669
    1C        C   76   3.070   2.595   2.790
    1C        C   77   3.009   2.628   2.913
    1C        C   78   3.203   2.547   3.035
    1C        C   79   3.072   2.600   3.036
    1C        C   80   3.273   2.529   3.156
    1C        C   81   3.206   2.550   3.279
    1C        C   82   3.410   2.501   3.402
    1C        C   83   3.270   2.522   3.402
    1C        C   84   3.481   2.498   3.524
    1C        C   85   3.412   2.502   3.647
    1C        C   86   3.623   2.504   3.766
    1C        C   87   3.482   2.499   3.770
    1C        C   88   3.693   2.514   3.889
    1C        C   89   3.624   2.508   4.012
    1C        C   90   3.832   2.546   4.133
    1C        C   91   3.693   2.518   4.135
    1C        C   92   3.903   2.571   4.253
    1C        C   93   3.835   2.548   4.375
    1C        C   94   4.028   2.633   4.498
    1C        C   95   3.900   2.575   4.498
    1C        C   96   4.091   2.675   4.618
    1C        C   97   4.031   2.628   4.737
    1C        C   98   4.191   2.761   4.861
    1C        C   99   4.100   2.651   4.859
    1C        C  100   4.214   2.840   4.974
    1C        C  101   2.818   2.728   2.069
    1C        C  102   2.991   2.595   2.186
    1C        C  103   2.870   2.673   2.187
    1C        C  104   3.064   2.573   2.306
    1C        C  105   3.000   2.611   2.426
    1C        C  106   3.198   2.538   2.550
    1C        C  107   3.065   2.585   2.548
    1C        C  108   3.270   2.522   2.670
    1C        C  109   3.200   2.540   2.791
    1C        C  110   3.407   2.493   2.913
    1C        C  111   3.267   2.517   2.913
    1C        C  112   3.480   2.493   3.034
    1C        C  113   3.412   2.500   3.157
    1C        C  114   3.622   2.506   3.278
    1C        C  115   3.481   2.495   3.280
    1C        C  116   3.692   2.517   3.400
    1C        C  117   3.622   2.505   3.523
    1C        C  118   3.831   2.547   3.646
    1C        C  119   3.693   2.515   3.644
    1C        C  120   3.896   2.570   3.769
    1C        C  121   3.829   2.553   3.892
    1C        C  122   4.027   2.636   4.009
    1C        C  123   3.901   2.572   4.013
    1C        C  124   4.090   2.669   4.131
    1C        C  125   4.028   2.635   4.253
    1C        C  126   4.196   2.763   4.374
    1C        C  127   4.088   2.672   4.376
    1C        C  128   4.243   2.819   4.495
    1C        C  129   4.192   2.773   4.618
    1C        C  130   4.328   2.934   4.739
    1C        C  131   4.243   2.820   4.742
    1C        C  132   4.352   3.004   4.859
    1C        C  133   4.284   2.961   4.973
    1C        C  134   3.175   2.472   2.080
    1C        C  135   3.040   2.511   2.082
    1C        C  136   3.263   2.483   2.188
    1C        C  137   3.198   2.526   2.307
    1C        C  138   3.404   2.486   2.427
    1C        C  139   3.263   2.502   2.430
    1C        C  140   3.479   2.489   2.547
    1C        C  141   3.409   2.499   2.669
    1C        C  142   3.620   2.494   2.791
    1C        C  143   3.479   2.489   2.792
    1C        C  144   3.691   2.509   2.912
    1C        C  145   3.621   2.503   3.035
    1C        C  146   3.832   2.537   3.156
    1C        C  147   3.693   2.512   3.156
    1C        C  148   3.899   2.562   3.278
    1C        C  149   3.830   2.548   3.400
    1C        C  150   4.023   2.632   3.522
    1C        C  151   3.897   2.568   3.523
    1C        C  152   4.085   2.666   3.645
    1C        C  153   4.022   2.634   3.768
    1C        C  154   4.198   2.761   3.887
    1C        C  155   4.083   2.678   3.887
    1C        C  156   4.250   2.808   4.009
    1C        C  157   4.199   2.760   4.132
    1C        C  158   4.343   2.917   4.253
    1C        C  159   4.251   2.811   4.253
    1C        C  160   4.378   2.983   4.373
    1C        C  161   4.330   2.931   4.495
    1C        C  162   4.435   3.116   4.615
    1C        C  163   4.368   2.992   4.616
    1C        C  164   4.467   3.183   4.736
    1C        C  165   4.430   3.122   4.858
    1C        C  166   4.511   3.321   4.969
    1C        C  167   4.477   3.186   4.973
    1C        C  168   3.477   2.441   2.071
    1C        C  169   3.402   2.458   2.188
    1C        C  170   3.618   2.466   2.305
    1C        C  171   3.476   2.465   2.308
    1C        C  172   3.694   2.479   2.424
    1C        C  173   3.620   2.487   2.544
    1C        C  174   3.823   2.543   2.664
    1C        C  175   3.688   2.503   2.667
    1C        C  176   3.890   2.566   2.787
    1C        C  177   3.827   2.546   2.912
    1C        C  178   4.026   2.621   3.031
    1C        C  179   3.896   2.566   3.033
    1C        C  180   4.087   2.660   3.152
    1C        C  181   4.026   2.624   3.275
    1C        C  182   4.197   2.746   3.398
    1C        C  183   4.084   2.661   3.398
    1C        C  184   4.243   2.803   3.519
    1C        C  185   4.195   2.753   3.642
    1C        C  186   4.330   2.921   3.761
    1C        C  187   4.246   2.808   3.762
    1C        C  188   4.376   2.974   3.884
    1C        C  189   4.339   2.918   4.009
    1C        C  190   4.448   3.101   4.129
    1C        C  191   4.381   2.976   4.130
    1C        C  192   4.472   3.172   4.249
    1C        C  193   4.446   3.107   4.371
    1C        C  194   4.507   3.313   4.488
    1C        C  195   4.468   3.177   4.492
    1C        C  196   4.523   3.386   4.607
    1C        C  197   4.507   3.319   4.731
    1C        C  198   4.550   3.535   4.848
    1C        C  199   4.529   3.393   4.850
    1C        C  200   4.579   3.618   4.960
    1C        C  201   3.615   2.417   2.071
    1C        C  202   3.826   2.511   2.180
    1C        C  203   3.693   2.458   2.184
    1C        C  204   3.898   2.538   2.300
    1C        C  205   3.830   2.515   2.422
    1C        C  206   4.020   2.616   2.541
    1C        C  207   3.893   2.553   2.542
    1C        C  208   4.077   2.657   2.663
    1C        C  209   4.019   2.622   2.788
    1C        C  210   4.193   2.748   2.906
    1C        C  211   4.084   2.658   2.908
    1C        C  212   4.249   2.794   3.027
    1C        C  213   4.197   2.749   3.150
    1C        C  214   4.333   2.906   3.271
    1C        C  215   4.247   2.794   3.274
    1C        C  216   4.366   2.971   3.392
    1C        C  217   4.326   2.917   3.516
    1C        C  218   4.431   3.103   3.638
    1C        C  219   4.368   2.977   3.637
    1C        C  220   4.460   3.166   3.761
    1C        C  221   4.437   3.101   3.884
    1C        C  222   4.502   3.303   4.001
    1C        C  223   4.470   3.165   4.006
    1C        C  224   4.514   3.377   4.121
    1C        C  225   4.504   3.310   4.246
    1C        C  226   4.520   3.524   4.366
    1C        C  227   4.521   3.383   4.366
    1C        C  228   4.518   3.599   4.486
    1C        C  229   4.525   3.527   4.607
    1C        C  230   4.500   3.743   4.724
    1C        C  231   4.535   3.605   4.725
    1C        C  232   4.495   3.817   4.844
    1C        C  233   4.545   3.754   4.959
    1C        C  234   4.013   2.614   2.060
    1C        C  235   3.893   2.545   2.062
    1C        C  236   4.081   2.650   2.178
    1C        C  237   4.022   2.608   2.299
    1C        C  238   4.201   2.730   2.420
    1C        C  239   4.085   2.647   2.419
    1C        C  240   4.252   2.780   2.541
    1C        C  241   4.189   2.742   2.662
    1C        C  242   4.331   2.905   2.782
    1C        C  243   4.243   2.793   2.782
    1C        C  244   4.371   2.963   2.904
    1C        C  245   4.336   2.906   3.028
    1C        C  246   4.436   3.093   3.145
    1C        C  247   4.375   2.965   3.150
    1C        C  248   4.456   3.160   3.268
    1C        C  249   4.427   3.099   3.392
    1C        C  250   4.491   3.302   3.511
    1C        C  251   4.452   3.166   3.513
    1C        C  252   4.505   3.371   3.633
    1C        C  253   4.495   3.303   3.757
    1C        C  254   4.521   3.514   3.877
    1C        C  255   4.513   3.373   3.879
    1C        C  256   4.515   3.587   3.998
    1C        C  257   4.519   3.518   4.121
    1C        C  258   4.490   3.730   4.237
    1C        C  259   4.517   3.591   4.242
    1C        C  260   4.470   3.802   4.357
    1C        C  261   4.488   3.737   4.481
    1C        C  262   4.422   3.940   4.603
    1C        C  263   4.477   3.810   4.602
    1C        C  264   4.394   4.008   4.723
    1C        C  265   4.436   3.945   4.843
    1C        C  266   4.315   4.131   4.959
    1C        C  267   4.386   4.011   4.955
    1C        C  268   4.259   2.772   2.059
    1C        C  269   4.196   2.731   2.177
    1C        C  270   4.348   2.884   2.298
    1C        C  271   4.254   2.777   2.298
    1C        C  272   4.389   2.947   2.417
    1C        C  273   4.344   2.888   2.538
    1C        C  274   4.442   3.080   2.658
    1C        C  275   4.374   2.956   2.657
    1C        C  276   4.466   3.150   2.778
    1C        C  277   4.441   3.086   2.902
    1C        C  278   4.506   3.290   3.023
    1C        C  279   4.469   3.154   3.022
    1C        C  280   4.513   3.363   3.144
    1C        C  281   4.496   3.296   3.267
    1C        C  282   4.511   3.511   3.389
    1C        C  283   4.504   3.370   3.387
    1C        C  284   4.516   3.580   3.512
    1C        C  285   4.518   3.512   3.635
    1C        C  286   4.492   3.725   3.750
    1C        C  287   4.518   3.586   3.756
    1C        C  288   4.473   3.793   3.872
    1C        C  289   4.486   3.725   3.996
    1C        C  290   4.427   3.933   4.116
    1C        C  291   4.472   3.799   4.115
    1C        C  292   4.398   4.000   4.237
    1C        C  293   4.428   3.937   4.359
    1C        C  294   4.327   4.126   4.478
    1C        C  295   4.397   4.004   4.480
    1C        C  296   4.287   4.192   4.596
    1C        C  297   4.322   4.131   4.719
    1C        C  298   4.194   4.309   4.835
    1C        C  299   4.281   4.195   4.839
    1C        C  300   4.165   4.393   4.947
    1C        C  301   4.343   2.883   2.062
    1C        C  302   4.470   3.065   2.177
    1C        C  303   4.397   2.941   2.177
    1C        C  304   4.480   3.142   2.296
    1C        C  305   4.449   3.074   2.416
    1C        C  306   4.507   3.281   2.537
    1C        C  307   4.477   3.143   2.537
    1C        C  308   4.512   3.356   2.656
    1C        C  309   4.497   3.288   2.779
    1C        C  310   4.527   3.499   2.899
    1C        C  311   4.519   3.358   2.900
    1C        C  312   4.521   3.573   3.019
    1C        C  313   4.521   3.504   3.142
    1C        C  314   4.492   3.716   3.259
    1C        C  315   4.513   3.576   3.263
    1C        C  316   4.473   3.786   3.381
    1C        C  317   4.492   3.719   3.504
    1C        C  318   4.426   3.922   3.624
    1C        C  319   4.474   3.789   3.625
    1C        C  320   4.399   3.987   3.747
    1C        C  321   4.428   3.927   3.871
    1C        C  322   4.321   4.112   3.988
    1C        C  323   4.401   3.995   3.992
    1C        C  324   4.284   4.175   4.109
    1C        C  325   4.323   4.120   4.233
    1C        C  326   4.185   4.282   4.352
    1C        C  327   4.279   4.177   4.355
    1C        C  328   4.134   4.338   4.471
    1C        C  329   4.192   4.296   4.593
    1C        C  330   4.024   4.436   4.712
    1C        C  331   4.141   4.354   4.711
    1C        C  332   3.966   4.488   4.829
    1C        C  333   4.047   4.469   4.942
    1C        C  334   4.544   3.269   2.059
    1C        C  335   4.518   3.132   2.061
    1C        C  336   4.539   3.350   2.174
    1C        C  337   4.515   3.280   2.294
    1C        C  338   4.526   3.494   2.411
    1C        C  339   4.516   3.353   2.415
    1C        C  340   4.523   3.565   2.533
    1C        C  341   4.519   3.497   2.657
    1C        C  342   4.494   3.710   2.773
    1C        C  343   4.520   3.571   2.777
    1C        C  344   4.471   3.781   2.894
    1C        C  345   4.489   3.711   3.015
    1C        C  346   4.429   3.916   3.138
    1C        C  347   4.478   3.784   3.136
    1C        C  348   4.389   3.979   3.258
    1C        C  349   4.423   3.918   3.381
    1C        C  350   4.323   4.107   3.499
    1C        C  351   4.396   3.986   3.502
    1C        C  352   4.278   4.162   3.621
    1C        C  353   4.326   4.108   3.743
    1C        C  354   4.178   4.264   3.865
    1C        C  355   4.278   4.164   3.864
    1C        C  356   4.123   4.313   3.986
    1C        C  357   4.181   4.271   4.108
    1C        C  358   4.012   4.401   4.227
    1C        C  359   4.130   4.324   4.228
    1C        C  360   3.952   4.447   4.347
    1C        C  361   4.017   4.416   4.469
    1C        C  362   3.827   4.515   4.591
    1C        C  363   3.958   4.461   4.589
    1C        C  364   3.759   4.551   4.709
    1C        C  365   3.835   4.542   4.828
    1C        C  366   3.624   4.583   4.948
    1C        C  367   3.763   4.575   4.943
    1C        C  368   4.513   3.562   2.049
    1C        C  369   4.524   3.490   2.168
    1C        C  370   4.499   3.703   2.283
    1C        C  371   4.515   3.563   2.288
    1C        C  372   4.478   3.771   2.405
    1C        C  373   4.498   3.704   2.527
    1C        C  374   4.421   3.904   2.643
    1C        C  375   4.476   3.773   2.648
    1C        C  376   4.394   3.972   2.764
    1C        C  377   4.427   3.914   2.889
    1C        C  378   4.317   4.091   3.010
    1C        C  379   4.397   3.974   3.013
    1C        C  380   4.273   4.152   3.130
    1C        C  381   4.311   4.096   3.254
    1C        C  382   4.173   4.255   3.376
    1C        C  383   4.275   4.158   3.376
    1C        C  384   4.119   4.301   3.498
    1C        C  385   4.173   4.255   3.621
    1C        C  386   4.004   4.384   3.738
    1C        C  387   4.120   4.303   3.743
    1C        C  388   3.943   4.424   3.859
    1C        C  389   4.004   4.389   3.982
    1C        C  390   3.815   4.481   4.106
    1C        C  391   3.944   4.424   4.105
    1C        C  392   3.751   4.512   4.228
    1C        C  393   3.821   4.499   4.350
    1C        C  394   3.616   4.552   4.472
    1C        C  395   3.755   4.530   4.471
    1C        C  396   3.542   4.564   4.592
    1C        C  397   3.619   4.573   4.710
    1C        C  398   3.408   4.549   4.837
    1C        C  399   3.547   4.574   4.831
    1C        C  400   3.339   4.509   4.953
    1C        C  401   4.498   3.701   2.047
    1C        C  402   4.447   3.913   2.164
    1C        C  403   4.488   3.778   2.164
    1C        C  404   4.406   3.977   2.283
    1C        C  405   4.434   3.905   2.402
    1C        C  406   4.319   4.090   2.523
    1C        C  407   4.394   3.970   2.521
    1C        C  408   4.272   4.144   2.644
    1C        C  409   4.314   4.088   2.767
    1C        C  410   4.170   4.244   2.886
    1C        C  411   4.271   4.146   2.889
    1C        C  412   4.120   4.293   3.008
    1C        C  413   4.173   4.252   3.133
    1C        C  414   3.996   4.372   3.251
    1C        C  415   4.117   4.298   3.253
    1C        C  416   3.939   4.410   3.374
    1C        C  417   4.001   4.379   3.497
    1C        C  418   3.809   4.475   3.616
    1C        C  419   3.938   4.417   3.617
    1C        C  420   3.745   4.499   3.740
    1C        C  421   3.814   4.481   3.861
    1C        C  422   3.610   4.529   3.984
    1C        C  423   3.749   4.508   3.984
    1C        C  424   3.540   4.534   4.107
    1C        C  425   3.612   4.538   4.228
    1C        C  426   3.402   4.544   4.354
    1C        C  427   3.543   4.555   4.351
    1C        C  428   3.330   4.536   4.475
    1C        C  429   3.402   4.552   4.596
    1C        C  430   3.192   4.517   4.720
    1C        C  431   3.332   4.544   4.719
    1C        C  432   3.122   4.493   4.842
    1C        C  433   3.201   4.497   4.958
    1C        C  434   4.381   4.123   2.047
    1C        C  435   4.445   3.999   2.053
    1C        C  436   4.300   4.162   2.159
    1C        C  437   4.330   4.097   2.281
    1C        C  438   4.180   4.250   2.401
    1C        C  439   4.282   4.153   2.402
    1C        C  440   4.124   4.299   2.522
    1C        C  441   4.170   4.242   2.643
    1C        C  442   4.001   4.374   2.763
    1C        C  443   4.112   4.286   2.764
    1C        C  444   3.941   4.409   2.886
    1C        C  445   4.004   4.374   3.007
    1C        C  446   3.811   4.470   3.129
    1C        C  447   3.939   4.410   3.127
    1C        C  448   3.743   4.491   3.251
    1C        C  449   3.808   4.465   3.374
    1C        C  450   3.603   4.523   3.497
    1C        C  451   3.742   4.497   3.494
    1C        C  452   3.535   4.531   3.621
    1C        C  453   3.607   4.529   3.742
    1C        C  454   3.395   4.539   3.867
    1C        C  455   3.536   4.541   3.864
    1C        C  456   3.328   4.524   3.990
    1C        C  457   3.399   4.533   4.112
    1C        C  458   3.190   4.502   4.235
    1C        C  459   3.329   4.528   4.234
    1C        C  460   3.126   4.479   4.359
    1C        C  461   3.191   4.511   4.480
    1C        C  462   2.994   4.431   4.602
    1C        C  463   3.121   4.493   4.601
    1C        C  464   2.925   4.402   4.722
    1C        C  465   2.987   4.446   4.842
    1C        C  466   2.802   4.334   4.961
    1C        C  467   2.904   4.429   4.958
    1C        C  468   4.124   4.289   2.040
    1C        C  469   4.189   4.253   2.158
    1C        C  470   4.007   4.373   2.276
    1C        C  471   4.126   4.296   2.279
    1C        C  472   3.942   4.407   2.397
    1C        C  473   4.006   4.376   2.519
    1C        C  474   3.811   4.463   2.643
    1C        C  475   3.942   4.410   2.640
    1C        C  476   3.744   4.494   2.764
    1C        C  477   3.812   4.467   2.885
    1C        C  478   3.604   4.516   3.009
    1C        C  479   3.743   4.489   3.006
    1C        C  480   3.533   4.527   3.130
    1C        C  481   3.605   4.517   3.252
    1C        C  482   3.393   4.531   3.375
    1C        C  483   3.534   4.528   3.374
    1C        C  484   3.324   4.530   3.498
    1C        C  485   3.393   4.535   3.622
    1C        C  486   3.187   4.500   3.742
    1C        C  487   3.324   4.534   3.745
    1C        C  488   3.123   4.476   3.866
    1C        C  489   3.190   4.492   3.989
    1C        C  490   2.998   4.415   4.115
    1C        C  491   3.123   4.479   4.113
    1C        C  492   2.938   4.381   4.239
    1C        C  493   2.996   4.422   4.361
    1C        C  494   2.821   4.303   4.483
    1C        C  495   2.930   4.392   4.482
    1C        C  496   2.764   4.257   4.604
    1C        C  497   2.811   4.317   4.722
    1C        C  498   2.665   4.164   4.842
    1C        C  499   2.751   4.276   4.843
    1C        C  500   2.594   4.119   4.954
    1C        C  501   4.000   4.351   2.041
    1C        C  502   3.813   4.465   2.154
    1C        C  503   3.941   4.407   2.156
    1C        C  504   3.743   4.480   2.275
    1C        C  505   3.811   4.460   2.397
    1C        C  506   3.607   4.513   2.519
    1C        C  507   3.745   4.484   2.520
    1C        C  508   3.534   4.519   2.640
    1C        C  509   3.605   4.520   2.762
    1C        C  510   3.395   4.524   2.884
    1C        C  511   3.536   4.525   2.885
    1C        C  512   3.322   4.521   3.005
    1C        C  513   3.392   4.532   3.127
    1C        C  514   3.187   4.494   3.255
    1C        C  515   3.325   4.525   3.251
    1C        C  516   3.121   4.466   3.376
    1C        C  517   3.187   4.497   3.498
    1C        C  518   2.993   4.416   3.623
    1C        C  519   3.119   4.478   3.620
    1C        C  520   2.939   4.374   3.747
    1C        C  521   2.997   4.412   3.870
    1C        C  522   2.832   4.283   3.997
    1C        C  523   2.938   4.376   3.993
    1C        C  524   2.779   4.237   4.119
    1C        C  525   2.828   4.292   4.239
    1C        C  526   2.691   4.133   4.364
    1C        C  527   2.774   4.247   4.362
    1C        C  528   2.650   4.074   4.486
    1C        C  529   2.682   4.142   4.605
    1C        C  530   2.575   3.959   4.730
    1C        C  531   2.636   4.088   4.727
    1C        C  532   2.534   3.901   4.853
    1C        C  533   2.528   3.995   4.961
    1C        C  534   3.616   4.556   2.039
    1C        C  535   3.747   4.507   2.038
    1C        C  536   3.534   4.533   2.154
    1C        C  537   3.603   4.506   2.275
    1C        C  538   3.393   4.514   2.398
    1C        C  539   3.534   4.518   2.398
    1C        C  540   3.320   4.511   2.519
    1C        C  541   3.393   4.513   2.640
    1C        C  542   3.184   4.482   2.765
    1C        C  543   3.323   4.507   2.763
    1C        C  544   3.119   4.461   2.889
    1C        C  545   3.185   4.485   3.011
    1C        C  546   2.993   4.405   3.135
    1C        C  547   3.117   4.473   3.134
    1C        C  548   2.936   4.363   3.257
    1C        C  549   2.993   4.405   3.379
    1C        C  550   2.827   4.280   3.505
    1C        C  551   2.933   4.373   3.503
    1C        C  552   2.780   4.231   3.629
    1C        C  553   2.831   4.283   3.750
    1C        C  554   2.697   4.122   3.873
    1C        C  555   2.784   4.233   3.873
    1C        C  556   2.655   4.066   3.996
    1C        C  557   2.687   4.129   4.119
    1C        C  558   2.598   3.941   4.244
    1C        C  559   2.653   4.071   4.243
    1C        C  560   2.563   3.881   4.367
    1C        C  561   2.586   3.948   4.489
    1C        C  562   2.529   3.745   4.616
    1C        C  563   2.562   3.883   4.612
    1C        C  564   2.515   3.679   4.740
    1C        C  565   2.516   3.759   4.858
    1C        C  566   2.534   3.546   4.978
    1C        C  567   2.525   3.684   4.976
    1C        C  568   3.327   4.477   2.038
    1C        C  569   3.393   4.518   2.154
    1C        C  570   3.183   4.475   2.279
    1C        C  571   3.321   4.508   2.277
    1C        C  572   3.115   4.450   2.401
    1C        C  573   3.182   4.480   2.521
    1C        C  574   2.987   4.400   2.647
    1C        C  575   3.115   4.459   2.644
    1C        C  576   2.929   4.366   2.771
    1C        C  577   2.993   4.397   2.893
    1C        C  578   2.819   4.276   3.012
    1C        C  579   2.932   4.361   3.015
    1C        C  580   2.771   4.227   3.136
    1C        C  581   2.826   4.275   3.257
    1C        C  582   2.693   4.117   3.381
    1C        C  583   2.777   4.231   3.382
    1C        C  584   2.655   4.060   3.504
    1C        C  585   2.694   4.119   3.626
    1C        C  586   2.594   3.937   3.754
    1C        C  587   2.658   4.062   3.751
    1C        C  588   2.573   3.870   3.878
    1C        C  589   2.602   3.935   4.000
    1C        C  590   2.535   3.736   4.127
    1C        C  591   2.577   3.871   4.123
    1C        C  592   2.520   3.671   4.252
    1C        C  593   2.526   3.744   4.372
    1C        C  594   2.515   3.533   4.497
    1C        C  595   2.516   3.675   4.495
    1C        C  596   2.517   3.463   4.619
    1C        C  597   2.519   3.537   4.740
    1C        C  598   2.535   3.326   4.862
    1C        C  599   2.527   3.467   4.862
    1C        C  600   2.532   3.245   4.976
    1C        C  601   3.196   4.433   2.044
    1C        C  602   2.980   4.396   2.156
    1C        C  603   3.117   4.437   2.159
    1C        C  604   2.923   4.356   2.280
    1C        C  605   2.985   4.394   2.401
    1C        C  606   2.819   4.269   2.528
    1C        C  607   2.929   4.358   2.525
    1C        C  608   2.765   4.223   2.650
    1C        C  609   2.818   4.278   2.769
    1C        C  610   2.685   4.112   2.893
    1C        C  611   2.768   4.227   2.891
    1C        C  612   2.648   4.053   3.016
    1C        C  613   2.687   4.114   3.138
    1C        C  614   2.596   3.924   3.266
    1C        C  615   2.655   4.052   3.261
    1C        C  616   2.572   3.861   3.390
    1C        C  617   2.600   3.930   3.510
    1C        C  618   2.535   3.730   3.638
    1C        C  619   2.570   3.867   3.634
    1C        C  620   2.531   3.660   3.760
    1C        C  621   2.539   3.734   3.880
    1C        C  622   2.512   3.527   4.007
    1C        C  623   2.524   3.668   4.004
    1C        C  624   2.513   3.457   4.130
    1C        C  625   2.512   3.530   4.251
    1C        C  626   2.536   3.323   4.378
    1C        C  627   2.515   3.462   4.375
    1C        C  628   2.554   3.254   4.500
    1C        C  629   2.538   3.323   4.622
    1C        C  630   2.597   3.117   4.742
    1C        C  631   2.551   3.252   4.743
    1C        C  632   2.616   3.046   4.864
    1C        C  633   2.560   3.108   4.980
    1C        C  634   2.776   4.302   2.053
    1C        C  635   2.887   4.388   2.048
    1C        C  636   2.746   4.227   2.167
    1C        C  637   2.806   4.276   2.285
    1C        C  638   2.681   4.105   2.407
    1C        C  639   2.762   4.221   2.408
    1C        C  640   2.640   4.047   2.529
    1C        C  641   2.683   4.108   2.649
    1C        C  642   2.589   3.920   2.775
    1C        C  643   2.650   4.048   2.772
    1C        C  644   2.564   3.857   2.899
    1C        C  645   2.589   3.925   3.021
    1C        C  646   2.533   3.722   3.148
    1C        C  647   2.570   3.859   3.144
    1C        C  648   2.520   3.654   3.271
    1C        C  649   2.535   3.724   3.392
    1C        C  650   2.516   3.518   3.516
    1C        C  651   2.520   3.659   3.517
    1C        C  652   2.517   3.448   3.639
    1C        C  653   2.516   3.519   3.761
    1C        C  654   2.540   3.315   3.890
    1C        C  655   2.517   3.454   3.886
    1C        C  656   2.552   3.246   4.013
    1C        C  657   2.538   3.318   4.134
    1C        C  658   2.606   3.120   4.257
    1C        C  659   2.556   3.252   4.257
    1C        C  660   2.637   3.057   4.380
    1C        C  661   2.603   3.121   4.501
    1C        C  662   2.707   2.933   4.625
    1C        C  663   2.633   3.053   4.621
    1C        C  664   2.752   2.875   4.746
    1C        C  665   2.695   2.926   4.866
    1C        C  666   2.742   2.864   4.982
    1C        C  667   2.673   4.026   2.049
    1C        C  668   2.681   4.101   2.167
    1C        C  669   2.587   3.909   2.289
    1C        C  670   2.639   4.042   2.288
    1C        C  671   2.560   3.846   2.413
    1C        C  672   2.583   3.918   2.532
    1C        C  673   2.521   3.717   2.659
    1C        C  674   2.563   3.851   2.655
    1C        C  675   2.513   3.648   2.783
    1C        C  676   2.536   3.719   2.903
    1C        C  677   2.511   3.511   3.029
    1C        C  678   2.521   3.652   3.026
    1C        C  679   2.513   3.440   3.151
    1C        C  680   2.511   3.513   3.272
    1C        C  681   2.537   3.305   3.399
    1C        C  682   2.517   3.444   3.395
    1C        C  683   2.557   3.240   3.523
    1C        C  684   2.537   3.308   3.645
    1C        C  685   2.604   3.111   3.771
    1C        C  686   2.554   3.243   3.769
    1C        C  687   2.636   3.049   3.894
    1C        C  688   2.600   3.113   4.015
    1C        C  689   2.706   2.930   4.138
    1C        C  690   2.628   3.048   4.137
    1C        C  691   2.755   2.877   4.259
    1C        C  692   2.711   2.936   4.379
    1C        C  693   2.751   2.879   4.502
    1C        C  694   2.630   3.893   2.058
    1C        C  695   2.533   3.697   2.174
    1C        C  696   2.578   3.831   2.172
    1C        C  697   2.513   3.633   2.298
    1C        C  698   2.520   3.710   2.416
    1C        C  699   2.497   3.503   2.542
    1C        C  700   2.503   3.644   2.540
    1C        C  701   2.510   3.434   2.665
    1C        C  702   2.506   3.507   2.786
    1C        C  703   2.532   3.298   2.909
    1C        C  704   2.508   3.437   2.909
    1C        C  705   2.556   3.232   3.032
    1C        C  706   2.537   3.300   3.154
    1C        C  707   2.598   3.101   3.281
    1C        C  708   2.549   3.233   3.277
    1C        C  709   2.627   3.037   3.404
    1C        C  710   2.604   3.107   3.525
    1C        C  711   2.708   2.927   3.648
    1C        C  712   2.632   3.046   3.649
    1C        C  713   2.752   2.873   3.770
    1C        C  714   2.711   2.930   3.893
    1C        C  715   2.751   2.874   4.017
    1C        C  716   2.446   3.498   2.064
    1C        C  717   2.491   3.631   2.058
    1C        C  718   2.471   3.419   2.181
    1C        C  719   2.485   3.494   2.301
    1C        C  720   2.515   3.288   2.426
    1C        C  721   2.485   3.425   2.424
    1C        C  722   2.539   3.219   2.547
    1C        C  723   2.532   3.295   2.666
    1C        C  724   2.596   3.093   2.791
    1C        C  725   2.550   3.227   2.789
    1C        C  726   2.623   3.028   2.913
    1C        C  727   2.597   3.097   3.034
    1C        C  728   2.705   2.919   3.158
    1C        C  729   2.628   3.037   3.159
    1C        C  730   2.750   2.867   3.281
    1C        C  731   2.703   2.917   3.404
    1C        C  732   2.744   2.862   3.527
    1C        C  733   2.484   3.193   2.072
    1C        C  734   2.485   3.277   2.184
    1C        C  735   2.580   3.083   2.303
    1C        C  736   2.521   3.213   2.306
    1C        C  737   2.614   3.019   2.424
    1C        C  738   2.588   3.087   2.545
    1C        C  739   2.690   2.903   2.669
    1C        C  740   2.621   3.027   2.669
    1C        C  741   2.734   2.846   2.791
    1C        C  742   2.692   2.905   2.912
    1C        C  743   2.741   2.858   3.036
    1C        C  744   2.538   3.065   2.071
    1C        C  745   2.683   2.896   2.183
    1C        C  746   2.601   3.011   2.184
    1C        C  747   2.727   2.838   2.304
    1C        C  748   2.685   2.897   2.425
    1C        C  749   2.731   2.845   2.548
    1C        C  750   2.731   2.836   2.066
    1C        C  751   3.658   2.316   1.971
    1C        O  752   3.696   2.202   2.009
    1C        O  753   3.675   2.338   1.834
    1C        C  754   4.610   3.064   1.966
    1C        O  755   4.619   3.102   1.847
    1C        O  756   4.738   3.026   2.008
    1C        C  757   4.459   4.227   1.977
    1C        O  758   4.535   4.312   2.031
    1C        O  759   4.453   4.267   1.843
    1C        C  760   3.591   4.666   1.942
    1C        O  761   3.594   4.784   1.987
    1C        O  762   3.566   4.652   1.805
    1C        C  763   2.870   4.491   1.943
    1C        O  764   2.915   4.471   1.827
    1C        O  765   2.791   4.605   1.956
    1C        C  766   2.311   3.481   2.005
    1C        O  767   2.292   3.466   1.881
    1C        O  768   2.197   3.536   2.066
    1C        C  769   4.696   3.580   5.042
    1C        O  770   4.694   3.522   5.154
    1C        O  771   4.829   3.597   5.001
    1C        C  772   4.275   4.432   5.038
    1C        O  773   4.244   4.455   5.158
    1C        O  774   4.339   4.549   4.996
    1C        C  775   4.150   2.514   5.060
    1C        O  776   4.226   2.424   5.015
    1C        O  777   4.206   2.579   5.171
    1C        C  778   2.890   4.543   5.051
    1C        O  779   2.869   4.661   5.011
    1C        O  780   2.962   4.537   5.171
    1C        C  781   2.463   3.033   5.063
    1C        O  782   2.409   2.927   5.021
    1C        O  783   2.418   3.068   5.189
    1C        C  784   2.437   3.965   5.074
    1C        O  785   2.319   4.008   5.066
    1C        O  786   2.491   3.953   5.203
    1C        C  787   2.945   2.429   2.004
    1C        O  788   2.920   2.458   1.884
    1C        O  789   2.902   2.299   2.031
    1C        C  790   3.156   2.361   5.047
    1C        O  791   3.146   2.248   4.994
    1C        O  792   3.149   2.360   5.187
    1C        H  793   4.280   3.024   5.059
    1C        H  794   4.214   2.789   5.068
    1C        H  795   4.511   3.128   5.056
    1C        H  796   4.573   3.356   5.050
    1C        H  797   4.521   3.800   5.053
    1C        H  798   4.413   3.976   5.053
    1C        H  799   4.258   4.146   5.048
    1C        H  800   4.036   4.544   5.017
    1C        H  801   3.808   4.628   5.024
    1C        H  802   3.582   4.643   5.026
    1C        H  803   3.390   4.465   5.037
    1C        H  804   3.156   4.527   5.051
    1C        H  805   3.904   2.454   5.047
    1C        H  806   3.673   2.400   5.043
    1C        H  807   3.037   2.605   5.070
    1C        H  808   3.454   2.530   5.067
    1C        H  809   2.895   2.750   5.072
    1C        H  810   2.694   2.874   5.077
    1C        H  811   2.500   3.286   5.070
    1C        H  812   2.568   3.500   5.068
    1C        H  813   2.553   3.734   5.067
    1C        H  814   2.572   4.187   5.033
    1C        H  815   2.787   4.283   5.054
    1C        H  816   2.695   2.877   1.973
    1C        H  817   2.857   2.703   1.973
    1C        H  818   3.202   2.398   2.007
    1C        H  819   3.428   2.444   1.976
    1C        H  820   3.849   2.529   1.965
    1C        H  821   4.061   2.628   1.966
    1C        H  822   4.263   2.708   1.974
    1C        H  823   4.357   2.935   1.969
    1C        H  824   4.579   3.310   1.966
    1C        H  825   4.520   3.511   1.955
    1C        H  826   4.470   3.748   1.956
    1C        H  827   3.800   4.517   1.945
    1C        H  828   3.937   4.324   1.959
    1C        H  829   4.177   4.280   1.947
    1C        H  830   4.534   3.989   1.994
    1C        H  831   2.628   3.838   1.966
    1C        H  832   2.733   4.054   1.965
    1C        H  833   2.720   4.283   1.964
    1C        H  834   3.351   4.542   1.956
    1C        H  835   3.171   4.364   1.966
    1C        H  836   2.523   3.005   1.983
    1C        H  837   2.418   3.213   1.991
    1C        H  838   2.487   3.682   1.964
    2V3OU   H29  839   2.808   3.533   1.647
    2V3OU   C27  840   2.781   3.499   1.750
    2V3OU   H27  841   2.727   3.568   1.820
    2V3OU   H28  842   2.725   3.403   1.742
    2V3OU   O11  843   2.913   3.465   1.796
    2V3OU   C15  844   2.921   3.399   1.916
    2V3OU   C13  845   3.050   3.371   1.966
    2V3OU   C14  846   3.076   3.267   2.056
    2V3OU   C16  847   2.971   3.188   2.101
    2V3OU    H6  848   2.992   3.101   2.167
    2V3OU   C12  849   3.210   3.230   2.105
    2V3OU    O2  850   3.242   3.127   2.168
    2V3OU   C10  851   3.322   3.310   2.053
    2V3OU    C8  852   3.454   3.270   2.075
    2V3OU   O10  853   3.490   3.157   2.141
    2V3OU   H26  854   3.403   3.121   2.163
    2V3OU    C6  855   3.566   3.348   2.036
    2V3OU    C5  856   3.538   3.468   1.970
    2V3OU    C4  857   3.705   3.294   2.046
    2V3OU    H4  858   3.724   3.224   2.132
    2V3OU    H5  859   3.711   3.232   1.952
    2V3OU    C2  860   3.816   3.399   2.042
    2V3OU    O6  861   3.810   3.476   2.162
    2V3OU   H21  862   3.761   3.557   2.141
    2V3OU    C3  863   3.786   3.492   1.924
    2V3OU    H2  864   3.867   3.570   1.926
    2V3OU    H3  865   3.782   3.431   1.831
    2V3OU   C25  866   3.947   3.323   2.017
    2V3OU    O7  867   3.996   3.290   1.909
    2V3OU   C26  868   4.030   3.287   2.139
    2V3OU   H22  869   4.056   3.382   2.191
    2V3OU   H23  870   4.115   3.221   2.110
    2V3OU    O8  871   3.964   3.202   2.230
    2V3OU   H24  872   3.927   3.263   2.296
    2V3OU    C1  873   3.651   3.560   1.936
    2V3OU    H1  874   3.624   3.611   1.839
    2V3OU    O3  875   3.661   3.650   2.047
    2V3OU   C19  876   3.622   3.787   2.033
    2V3OU    H9  877   3.520   3.790   1.985
    2V3OU    O4  878   3.714   3.846   1.945
    2V3OU   C20  879   3.844   3.876   1.996
    2V3OU   H10  880   3.894   3.775   2.004
    2V3OU   C24  881   3.610   3.848   2.173
    2V3OU   H16  882   3.541   3.785   2.235
    2V3OU   H17  883   3.562   3.949   2.161
    2V3OU   C23  884   3.749   3.873   2.232
    2V3OU   H15  885   3.794   3.771   2.258
    2V3OU    N1  886   3.736   3.954   2.351
    2V3OU   H19  887   3.807   3.931   2.418
    2V3OU   H20  888   3.650   3.938   2.399
    2V3OU   C21  889   3.842   3.948   2.132
    2V3OU   H11  890   3.944   3.921   2.172
    2V3OU    O5  891   3.831   4.089   2.137
    2V3OU   H18  892   3.785   4.110   2.220
    2V3OU   C22  893   3.910   3.955   1.884
    2V3OU   H12  894   3.855   4.051   1.869
    2V3OU   H13  895   3.909   3.894   1.790
    2V3OU   H14  896   4.020   3.964   1.906
    2V3OU   C11  897   3.158   3.467   1.938
    2V3OU    O1  898   3.136   3.580   1.888
    2V3OU    C9  899   3.294   3.429   1.982
    2V3OU    C7  900   3.403   3.504   1.940
    2V3OU    O9  901   3.386   3.623   1.872
    2V3OU   H25  902   3.289   3.622   1.871
    2V3OU   C17  903   2.820   3.314   1.967
    2V3OU    H7  904   2.718   3.337   1.936
    2V3OU   C18  905   2.841   3.213   2.059
    2V3OU    H8  906   2.757   3.153   2.097
    3SOL     OW  907   2.469   4.353   0.902
    3SOL    HW1  908   2.427   4.425   0.846
    3SOL    HW2  909   2.397   4.300   0.947
    4SOL     OW  910   6.449   5.420   2.159
    4SOL    HW1  911   6.480   5.461   2.074
    4SOL    HW2  912   6.357   5.452   2.180
    5SOL     OW  913   3.765   1.508   2.316
    5SOL    HW1  914   3.793   1.544   2.405
    5SOL    HW2  915   3.839   1.453   2.278
    6SOL     OW  916   4.046   1.618   2.122
    6SOL    HW1  917   3.950   1.639   2.108
    6SOL    HW2  918   4.078   1.660   2.207
    7SOL     OW  919   6.522   2.733   1.596
    7SOL    HW1  920   6.557   2.736   1.689
    7SOL    HW2  921   6.589   2.688   1.536
    8SOL     OW  922   2.541   0.029   5.088
    8SOL    HW1  923   2.621   0.002   5.140
    8SOL    HW2  924   2.461   0.032   5.148
    9SOL     OW  925   1.150   5.536   5.836
    9SOL    HW1  926   1.142   5.606   5.907
    9SOL    HW2  927   1.181   5.578   5.751
   10SOL     OW  928   1.032   4.389   5.351
   10SOL    HW1  929   1.059   4.449   5.275
   10SOL    HW2  930   0.933   4.378   5.351
   11SOL     OW  931   2.648   0.367   0.474
   11SOL    HW1  932   2.703   0.411   0.403
   11SOL    HW2  933   2.616   0.437   0.538
   12SOL     OW  934   4.097   6.128   3.916
   12SOL    HW1  935   4.065   6.202   3.856
   12SOL    HW2  936   4.018   6.083   3.958
   13SOL     OW  937   3.895   5.883   4.389
   13SOL    HW1  938   3.899   5.838   4.300
   13SOL    HW2  939   3.960   5.841   4.451
   14SOL     OW  940   4.607   5.687   6.505
   14SOL    HW1  941   4.707   5.677   6.511
   14SOL    HW2  942   4.566   5.599   6.482
   15SOL     OW  943   1.464   5.606   0.237
   15SOL    HW1  944   1.416   5.567   0.315
   15SOL    HW2  945   1.443   5.704   0.230
   16SOL     OW  946   6.025   1.959   5.615
   16SOL    HW1  947   5.929   1.931   5.622
   16SOL    HW2  948   6.050   1.967   5.518
   17SOL     OW  949   5.621   6.151   4.821
   17SOL    HW1  950   5.662   6.090   4.889
   17SOL    HW2  951   5.647   6.246   4.841
   18SOL     OW  952   3.158   1.719   6.999
   18SOL    HW1  953   3.155   1.805   0.028
   18SOL    HW2  954   3.162   1.643   0.043
   19SOL     OW  955   6.842   6.574   3.138
   19SOL    HW1  956   6.862   6.666   3.172
   19SOL    HW2  957   6.779   6.529   3.202
   20SOL     OW  958   3.378   1.380   4.072
   20SOL    HW1  959   3.392   1.341   3.980
   20SOL    HW2  960   3.378   1.306   4.139
   21SOL     OW  961   3.100   2.047   3.003
   21SOL    HW1  962   3.135   2.076   3.093
   21SOL    HW2  963   3.175   2.012   2.948
   22SOL     OW  964   2.060   6.842   6.699
   22SOL    HW1  965   2.099   6.929   6.729
   22SOL    HW2  966   1.990   6.812   6.763
   23SOL     OW  967   4.644   6.517   3.383
   23SOL    HW1  968   4.678   6.552   3.471
   23SOL    HW2  969   4.558   6.561   3.360
   24SOL     OW  970   5.190   1.259   4.361
   24SOL    HW1  971   5.238   1.342   4.334
   24SOL    HW2  972   5.113   1.244   4.298
   25SOL     OW  973   3.027   6.026   6.130
   25SOL    HW1  974   3.091   6.089   6.086
   25SOL    HW2  975   2.938   6.072   6.140
   26SOL     OW  976   6.104   1.070   1.083
   26SOL    HW1  977   6.100   0.971   1.071
   26SOL    HW2  978   6.011   1.107   1.086
   27SOL     OW  979   0.330   0.996   2.338
   27SOL    HW1  980   0.265   0.930   2.377
   27SOL    HW2  981   0.348   1.068   2.405
   28SOL     OW  982   4.077   0.999   0.464
   28SOL    HW1  983   4.095   1.096   0.450
   28SOL    HW2  984   4.148   0.960   0.523
   29SOL     OW  985   5.412   2.672   1.907
   29SOL    HW1  986   5.462   2.715   1.982
   29SOL    HW2  987   5.326   2.633   1.942
   30SOL     OW  988   3.145   6.818   5.670
   30SOL    HW1  989   3.162   6.745   5.605
   30SOL    HW2  990   3.066   6.872   5.641
   31SOL     OW  991   0.717   1.343   5.798
   31SOL    HW1  992   0.798   1.388   5.837
   31SOL    HW2  993   0.740   1.306   5.708
   32SOL     OW  994   0.757   2.109   2.869
   32SOL    HW1  995   0.690   2.173   2.833
   32SOL    HW2  996   0.719   2.062   2.949
   33SOL     OW  997   1.847   2.879   6.708
   33SOL    HW1  998   1.820   2.882   6.804
   33SOL    HW2  999   1.917   2.949   6.691
   34SOL     OW 1000   2.284   0.740   4.039
   34SOL    HW1 1001   2.261   0.814   3.977
   34SOL    HW2 1002   2.224   0.744   4.119
   35SOL     OW 1003   4.189   2.289   6.671
   35SOL    HW1 1004   4.250   2.242   6.735
   35SOL    HW2 1005   4.133   2.221   6.623
   36SOL     OW 1006   0.980   0.798   6.507
   36SOL    HW1 1007   1.006   0.750   6.423
   36SOL    HW2 1008   1.049   0.779   6.577
   37SOL     OW 1009   2.256   0.515   0.646
   37SOL    HW1 1010   2.217   0.508   0.738
   37SOL    HW2 1011   2.233   0.604   0.606
   38SOL     OW 1012   0.356   5.715   3.079
   38SOL    HW1 1013   0.342   5.791   3.015
   38SOL    HW2 1014   0.359   5.629   3.027
   39SOL     OW 1015   6.719   4.251   6.667
   39SOL    HW1 1016   6.798   4.290   6.714
   39SOL    HW2 1017   6.747   4.214   6.578
   40SOL     OW 1018   6.040   2.494   1.731
   40SOL    HW1 1019   6.132   2.469   1.699
   40SOL    HW2 1020   6.040   2.498   1.831
   41SOL     OW 1021   1.734   6.386   4.200
   41SOL    HW1 1022   1.810   6.408   4.139
   41SOL    HW2 1023   1.709   6.290   4.189
   42SOL     OW 1024   3.318   6.726   6.329
   42SOL    HW1 1025   3.255   6.652   6.305
   42SOL    HW2 1026   3.352   6.713   6.422
   43SOL     OW 1027   5.633   6.095   5.711
   43SOL    HW1 1028   5.564   6.161   5.680
   43SOL    HW2 1029   5.653   6.111   5.808
   44SOL     OW 1030   6.356   2.802   6.461
   44SOL    HW1 1031   6.309   2.860   6.527
   44SOL    HW2 1032   6.431   2.754   6.506
   45SOL     OW 1033   3.052   0.822   3.844
   45SOL    HW1 1034   3.026   0.764   3.768
   45SOL    HW2 1035   3.106   0.769   3.910
   46SOL     OW 1036   1.101   3.761   4.503
   46SOL    HW1 1037   1.012   3.743   4.462
   46SOL    HW2 1038   1.156   3.678   4.504
   47SOL     OW 1039   5.221   3.831   3.290
   47SOL    HW1 1040   5.204   3.752   3.231
   47SOL    HW2 1041   5.319   3.844   3.302
   48SOL     OW 1042   0.868   2.899   5.066
   48SOL    HW1 1043   0.839   2.878   4.973
   48SOL    HW2 1044   0.842   2.993   5.088
   49SOL     OW 1045   4.657   4.172   1.716
   49SOL    HW1 1046   4.590   4.225   1.767
   49SOL    HW2 1047   4.748   4.187   1.754
   50SOL     OW 1048   6.207   2.441   5.574
   50SOL    HW1 1049   6.235   2.356   5.529
   50SOL    HW2 1050   6.132   2.421   5.637
   51SOL     OW 1051   3.236   5.898   2.604
   51SOL    HW1 1052   3.262   5.822   2.544
   51SOL    HW2 1053   3.297   5.975   2.589
   52SOL     OW 1054   4.503   1.816   3.655
   52SOL    HW1 1055   4.551   1.889   3.605
   52SOL    HW2 1056   4.418   1.794   3.607
   53SOL     OW 1057   4.678   0.439   4.051
   53SOL    HW1 1058   4.722   0.520   4.013
   53SOL    HW2 1059   4.736   0.399   4.122
   54SOL     OW 1060   3.318   5.133   0.049
   54SOL    HW1 1061   3.360   5.044   0.034
   54SOL    HW2 1062   3.332   5.191   6.988
   55SOL     OW 1063   3.530   1.026   6.255
   55SOL    HW1 1064   3.439   1.016   6.296
   55SOL    HW2 1065   3.594   1.059   6.324
   56SOL     OW 1066   1.359   0.458   1.342
   56SOL    HW1 1067   1.338   0.388   1.411
   56SOL    HW2 1068   1.425   0.522   1.380
   57SOL     OW 1069   4.667   0.308   0.698
   57SOL    HW1 1070   4.681   0.345   0.790
   57SOL    HW2 1071   4.756   0.293   0.654
   58SOL     OW 1072   0.367   6.353   6.053
   58SOL    HW1 1073   0.366   6.449   6.027
   58SOL    HW2 1074   0.293   6.304   6.006
   59SOL     OW 1075   1.629   1.160   6.316
   59SOL    HW1 1076   1.662   1.107   6.238
   59SOL    HW2 1077   1.582   1.242   6.284
   60SOL     OW 1078   5.651   0.628   5.811
   60SOL    HW1 1079   5.591   0.671   5.879
   60SOL    HW2 1080   5.733   0.594   5.856
   61SOL     OW 1081   5.027   1.516   4.719
   61SOL    HW1 1082   4.941   1.565   4.740
   61SOL    HW2 1083   5.063   1.475   4.803
   62SOL     OW 1084   0.612   1.112   3.549
   62SOL    HW1 1085   0.654   1.146   3.633
   62SOL    HW2 1086   0.668   1.138   3.470
   63SOL     OW 1087   6.119   1.816   3.875
   63SOL    HW1 1088   6.122   1.749   3.949
   63SOL    HW2 1089   6.101   1.769   3.788
   64SOL     OW 1090   0.496   4.144   6.684
   64SOL    HW1 1091   0.488   4.158   6.585
   64SOL    HW2 1092   0.507   4.047   6.704
   65SOL     OW 1093   6.661   4.420   5.200
   65SOL    HW1 1094   6.640   4.515   5.220
   65SOL    HW2 1095   6.602   4.387   5.126
   66SOL     OW 1096   3.363   0.450   6.887
   66SOL    HW1 1097   3.276   0.475   6.844
   66SOL    HW2 1098   3.419   0.399   6.821
   67SOL     OW 1099   5.487   5.498   5.162
   67SOL    HW1 1100   5.521   5.451   5.081
   67SOL    HW2 1101   5.561   5.548   5.205
   68SOL     OW 1102   6.768   0.877   6.948
   68SOL    HW1 1103   6.749   0.781   6.926
   68SOL    HW2 1104   6.829   0.881   0.007
   69SOL     OW 1105   1.787   4.106   6.813
   69SOL    HW1 1106   1.779   4.055   6.726
   69SOL    HW2 1107   1.697   4.108   6.858
   70SOL     OW 1108   6.358   5.333   3.250
   70SOL    HW1 1109   6.361   5.310   3.347
   70SOL    HW2 1110   6.264   5.324   3.217
   71SOL     OW 1111   2.865   1.976   3.147
   71SOL    HW1 1112   2.943   2.010   3.093
   71SOL    HW2 1113   2.891   1.890   3.191
   72SOL     OW 1114   2.756   6.077   4.825
   72SOL    HW1 1115   2.851   6.045   4.829
   72SOL    HW2 1116   2.694   5.999   4.821
   73SOL     OW 1117   3.444   1.848   0.554
   73SOL    HW1 1118   3.383   1.869   0.631
   73SOL    HW2 1119   3.496   1.766   0.573
   74SOL     OW 1120   5.209   6.816   6.767
   74SOL    HW1 1121   5.125   6.761   6.771
   74SOL    HW2 1122   5.244   6.817   6.673
   75SOL     OW 1123   3.845   5.970   5.718
   75SOL    HW1 1124   3.924   6.010   5.672
   75SOL    HW2 1125   3.875   5.929   5.804
   76SOL     OW 1126   1.828   2.751   1.398
   76SOL    HW1 1127   1.902   2.806   1.436
   76SOL    HW2 1128   1.828   2.760   1.298
   77SOL     OW 1129   4.840   5.946   4.168
   77SOL    HW1 1130   4.907   5.911   4.234
   77SOL    HW2 1131   4.885   5.960   4.080
   78SOL     OW 1132   5.969   6.726   6.033
   78SOL    HW1 1133   5.871   6.741   6.039
   78SOL    HW2 1134   5.998   6.736   5.938
   79SOL     OW 1135   2.590   6.885   0.440
   79SOL    HW1 1136   2.666   6.826   0.413
   79SOL    HW2 1137   2.626   6.968   0.483
   80SOL     OW 1138   5.679   1.184   4.326
   80SOL    HW1 1139   5.580   1.195   4.334
   80SOL    HW2 1140   5.725   1.258   4.375
   81SOL     OW 1141   2.253   0.083   2.549
   81SOL    HW1 1142   2.240   0.079   2.648
   81SOL    HW2 1143   2.306   0.165   2.526
   82SOL     OW 1144   6.711   5.524   0.370
   82SOL    HW1 1145   6.646   5.502   0.443
   82SOL    HW2 1146   6.754   5.440   0.336
   83SOL     OW 1147   6.397   6.949   0.661
   83SOL    HW1 1148   6.487   6.981   0.689
   83SOL    HW2 1149   6.328   7.019   0.681
   84SOL     OW 1150   4.996   3.605   3.438
   84SOL    HW1 1151   4.999   3.510   3.468
   84SOL    HW2 1152   5.074   3.622   3.377
   85SOL     OW 1153   1.112   1.683   5.173
   85SOL    HW1 1154   1.148   1.723   5.089
   85SOL    HW2 1155   1.028   1.730   5.199
   86SOL     OW 1156   0.752   0.413   5.588
   86SOL    HW1 1157   0.809   0.392   5.668
   86SOL    HW2 1158   0.688   0.486   5.611
   87SOL     OW 1159   4.816   2.955   0.760
   87SOL    HW1 1160   4.790   2.883   0.824
   87SOL    HW2 1161   4.829   2.915   0.669
   88SOL     OW 1162   4.256   1.619   6.681
   88SOL    HW1 1163   4.252   1.717   6.661
   88SOL    HW2 1164   4.344   1.598   6.725
   89SOL     OW 1165   1.439   3.064   6.620
   89SOL    HW1 1166   1.537   3.060   6.601
   89SOL    HW2 1167   1.398   3.140   6.568
   90SOL     OW 1168   4.748   6.908   3.806
   90SOL    HW1 1169   4.742   6.984   3.870
   90SOL    HW2 1170   4.822   6.847   3.833
   91SOL     OW 1171   4.462   4.505   3.786
   91SOL    HW1 1172   4.489   4.463   3.873
   91SOL    HW2 1173   4.386   4.567   3.801
   92SOL     OW 1174   3.074   4.524   0.520
   92SOL    HW1 1175   3.029   4.446   0.479
   92SOL    HW2 1176   3.023   4.554   0.601
   93SOL     OW 1177   2.560   4.477   6.371
   93SOL    HW1 1178   2.537   4.522   6.285
   93SOL    HW2 1179   2.652   4.439   6.366
   94SOL     OW 1180   2.456   6.184   6.071
   94SOL    HW1 1181   2.402   6.100   6.080
   94SOL    HW2 1182   2.422   6.253   6.135
   95SOL     OW 1183   0.904   1.667   3.197
   95SOL    HW1 1184   0.963   1.599   3.155
   95SOL    HW2 1185   0.815   1.626   3.219
   96SOL     OW 1186   2.946   6.930   5.939
   96SOL    HW1 1187   2.860   6.931   5.991
   96SOL    HW2 1188   2.967   6.836   5.910
   97SOL     OW 1189   0.473   4.011   5.676
   97SOL    HW1 1190   0.427   4.066   5.606
   97SOL    HW2 1191   0.438   3.918   5.674
   98SOL     OW 1192   6.390   3.682   0.028
   98SOL    HW1 1193   6.458   3.620   7.011
   98SOL    HW2 1194   6.336   3.634   0.098
   99SOL     OW 1195   4.378   4.065   1.109
   99SOL    HW1 1196   4.467   4.039   1.147
   99SOL    HW2 1197   4.361   4.161   1.130
  100SOL     OW 1198   0.620   6.529   6.147
  100SOL    HW1 1199   0.668   6.599   6.199
  100SOL    HW2 1200   0.571   6.468   6.209
  101SOL     OW 1201   1.328   5.528   2.748
  101SOL    HW1 1202   1.257   5.507   2.815
  101SOL    HW2 1203   1.417   5.531   2.793
  102SOL     OW 1204   5.297   1.052   2.446
  102SOL    HW1 1205   5.308   1.104   2.361
  102SOL    HW2 1206   5.274   1.114   2.521
  103SOL     OW 1207   3.882   1.094   1.923
  103SOL    HW1 1208   3.974   1.131   1.932
  103SOL    HW2 1209   3.815   1.168   1.936
  104SOL     OW 1210   0.279   5.151   2.903
  104SOL    HW1 1211   0.212   5.220   2.929
  104SOL    HW2 1212   0.339   5.187   2.832
  105SOL     OW 1213   6.569   1.829   6.773
  105SOL    HW1 1214   6.510   1.908   6.757
  105SOL    HW2 1215   6.634   1.850   6.847
  106SOL     OW 1216   3.189   6.680   5.429
  106SOL    HW1 1217   3.228   6.728   5.351
  106SOL    HW2 1218   3.259   6.623   5.471
  107SOL     OW 1219   2.272   2.078   1.735
  107SOL    HW1 1220   2.237   1.985   1.734
  107SOL    HW2 1221   2.271   2.114   1.829
  108SOL     OW 1222   4.379   5.011   6.528
  108SOL    HW1 1223   4.280   5.007   6.518
  108SOL    HW2 1224   4.405   5.096   6.574
  109SOL     OW 1225   0.440   0.832   1.402
  109SOL    HW1 1226   0.376   0.845   1.477
  109SOL    HW2 1227   0.458   0.920   1.358
  110SOL     OW 1228   3.744   6.678   5.910
  110SOL    HW1 1229   3.759   6.590   5.864
  110SOL    HW2 1230   3.828   6.733   5.905
  111SOL     OW 1231   3.594   0.700   5.356
  111SOL    HW1 1232   3.580   0.602   5.360
  111SOL    HW2 1233   3.553   0.738   5.273
  112SOL     OW 1234   6.294   6.362   5.947
  112SOL    HW1 1235   6.360   6.420   5.995
  112SOL    HW2 1236   6.235   6.316   6.014
  113SOL     OW 1237   6.731   5.074   2.827
  113SOL    HW1 1238   6.733   5.019   2.910
  113SOL    HW2 1239   6.636   5.097   2.805
  114SOL     OW 1240   1.028   0.019   1.014
  114SOL    HW1 1241   0.938   7.014   0.979
  114SOL    HW2 1242   1.076   6.958   1.046
  115SOL     OW 1243   4.205   1.248   4.425
  115SOL    HW1 1244   4.277   1.292   4.373
  115SOL    HW2 1245   4.200   1.151   4.399
  116SOL     OW 1246   6.296   5.319   2.467
  116SOL    HW1 1247   6.336   5.387   2.406
  116SOL    HW2 1248   6.221   5.272   2.420
  117SOL     OW 1249   0.752   1.805   6.366
  117SOL    HW1 1250   0.795   1.843   6.448
  117SOL    HW2 1251   0.741   1.706   6.377
  118SOL     OW 1252   0.620   1.717   2.246
  118SOL    HW1 1253   0.675   1.633   2.239
  118SOL    HW2 1254   0.535   1.697   2.294
  119SOL     OW 1255   1.207   1.973   6.269
  119SOL    HW1 1256   1.287   2.011   6.222
  119SOL    HW2 1257   1.127   1.979   6.209
  120SOL     OW 1258   6.535   6.907   0.134
  120SOL    HW1 1259   6.474   6.874   0.206
  120SOL    HW2 1260   6.622   6.858   0.138
  121SOL     OW 1261   2.599   3.615   6.773
  121SOL    HW1 1262   2.546   3.533   6.752
  121SOL    HW2 1263   2.538   3.694   6.778
  122SOL     OW 1264   1.872   4.770   6.244
  122SOL    HW1 1265   1.823   4.701   6.190
  122SOL    HW2 1266   1.854   4.755   6.341
  123SOL     OW 1267   0.578   1.992   1.582
  123SOL    HW1 1268   0.559   1.932   1.505
  123SOL    HW2 1269   0.607   2.081   1.548
  124SOL     OW 1270   5.215   2.630   0.235
  124SOL    HW1 1271   5.251   2.679   0.155
  124SOL    HW2 1272   5.291   2.590   0.286
  125SOL     OW 1273   2.438   1.839   2.351
  125SOL    HW1 1274   2.536   1.819   2.350
  125SOL    HW2 1275   2.421   1.917   2.411
  126SOL     OW 1276   2.755   4.709   0.971
  126SOL    HW1 1277   2.734   4.614   0.948
  126SOL    HW2 1278   2.788   4.714   1.065
  127SOL     OW 1279   0.043   5.105   6.379
  127SOL    HW1 1280   0.071   5.031   6.317
  127SOL    HW2 1281   0.102   5.104   6.460
  128SOL     OW 1282   4.017   2.775   1.251
  128SOL    HW1 1283   3.996   2.757   1.155
  128SOL    HW2 1284   4.065   2.697   1.290
  129SOL     OW 1285   4.687   3.947   6.081
  129SOL    HW1 1286   4.750   3.869   6.074
  129SOL    HW2 1287   4.655   3.971   5.989
  130SOL     OW 1288   0.530   1.305   4.176
  130SOL    HW1 1289   0.539   1.396   4.216
  130SOL    HW2 1290   0.556   1.309   4.079
  131SOL     OW 1291   5.491   1.346   1.984
  131SOL    HW1 1292   5.536   1.410   2.047
  131SOL    HW2 1293   5.476   1.391   1.896
  132SOL     OW 1294   2.257   3.019   0.692
  132SOL    HW1 1295   2.262   2.999   0.789
  132SOL    HW2 1296   2.190   3.092   0.676
  133SOL     OW 1297   5.374   6.825   3.741
  133SOL    HW1 1298   5.362   6.726   3.738
  133SOL    HW2 1299   5.450   6.848   3.802
  134SOL     OW 1300   5.934   2.045   2.687
  134SOL    HW1 1301   5.959   1.971   2.750
  134SOL    HW2 1302   5.950   2.133   2.730
  135SOL     OW 1303   5.909   2.815   2.456
  135SOL    HW1 1304   5.902   2.752   2.378
  135SOL    HW2 1305   5.841   2.790   2.525
  136SOL     OW 1306   4.013   3.631   6.225
  136SOL    HW1 1307   3.981   3.612   6.318
  136SOL    HW2 1308   3.952   3.586   6.159
  137SOL     OW 1309   5.262   0.669   5.172
  137SOL    HW1 1310   5.344   0.665   5.114
  137SOL    HW2 1311   5.257   0.587   5.228
  138SOL     OW 1312   0.365   4.480   3.718
  138SOL    HW1 1313   0.412   4.402   3.675
  138SOL    HW2 1314   0.403   4.495   3.809
  139SOL     OW 1315   2.222   6.340   5.393
  139SOL    HW1 1316   2.322   6.340   5.389
  139SOL    HW2 1317   2.186   6.277   5.324
  140SOL     OW 1318   0.119   6.089   3.426
  140SOL    HW1 1319   0.161   6.051   3.509
  140SOL    HW2 1320   0.175   6.065   3.347
  141SOL     OW 1321   6.140   3.071   5.420
  141SOL    HW1 1322   6.195   3.041   5.499
  141SOL    HW2 1323   6.101   3.161   5.439
  142SOL     OW 1324   1.521   5.673   0.623
  142SOL    HW1 1325   1.566   5.592   0.659
  142SOL    HW2 1326   1.547   5.685   0.527
  143SOL     OW 1327   5.698   4.054   2.048
  143SOL    HW1 1328   5.629   4.105   2.101
  143SOL    HW2 1329   5.755   4.119   1.997
  144SOL     OW 1330   1.252   0.007   6.628
  144SOL    HW1 1331   1.184   6.972   6.579
  144SOL    HW2 1332   1.293   0.073   6.565
  145SOL     OW 1333   0.579   4.690   0.353
  145SOL    HW1 1334   0.595   4.700   0.451
  145SOL    HW2 1335   0.490   4.648   0.338
  146SOL     OW 1336   5.008   0.199   5.613
  146SOL    HW1 1337   5.088   0.152   5.573
  146SOL    HW2 1338   4.995   0.287   5.566
  147SOL     OW 1339   6.003   2.900   6.770
  147SOL    HW1 1340   5.987   2.870   6.864
  147SOL    HW2 1341   5.926   2.873   6.712
  148SOL     OW 1342   0.662   4.775   6.328
  148SOL    HW1 1343   0.712   4.859   6.348
  148SOL    HW2 1344   0.715   4.696   6.357
  149SOL     OW 1345   2.419   1.561   4.459
  149SOL    HW1 1346   2.456   1.588   4.548
  149SOL    HW2 1347   2.379   1.641   4.415
  150SOL     OW 1348   5.812   4.906   6.366
  150SOL    HW1 1349   5.843   4.920   6.461
  150SOL    HW2 1350   5.766   4.818   6.359
  151SOL     OW 1351   3.386   1.800   1.099
  151SOL    HW1 1352   3.465   1.742   1.121
  151SOL    HW2 1353   3.349   1.773   1.011
  152SOL     OW 1354   1.751   1.366   4.312
  152SOL    HW1 1355   1.797   1.285   4.348
  152SOL    HW2 1356   1.700   1.341   4.229
  153SOL     OW 1357   2.811   0.219   1.821
  153SOL    HW1 1358   2.865   0.303   1.821
  153SOL    HW2 1359   2.857   0.149   1.875
  154SOL     OW 1360   0.461   2.894   2.832
  154SOL    HW1 1361   0.409   2.903   2.917
  154SOL    HW2 1362   0.522   2.972   2.822
  155SOL     OW 1363   0.446   1.590   3.311
  155SOL    HW1 1364   0.396   1.666   3.354
  155SOL    HW2 1365   0.497   1.539   3.380
  156SOL     OW 1366   6.997   1.916   1.390
  156SOL    HW1 1367   6.970   1.936   1.485
  156SOL    HW2 1368   6.968   1.991   1.331
  157SOL     OW 1369   6.167   3.822   1.989
  157SOL    HW1 1370   6.073   3.850   2.009
  157SOL    HW2 1371   6.217   3.900   1.951
  158SOL     OW 1372   2.789   0.103   2.425
  158SOL    HW1 1373   2.833   0.128   2.512
  158SOL    HW2 1374   2.744   0.015   2.435
  159SOL     OW 1375   4.593   4.366   1.543
  159SOL    HW1 1376   4.590   4.281   1.596
  159SOL    HW2 1377   4.548   4.439   1.594
  160SOL     OW 1378   0.120   4.755   6.801
  160SOL    HW1 1379   0.027   4.788   6.811
  160SOL    HW2 1380   0.169   4.811   6.734
  161SOL     OW 1381   1.386   4.950   4.416
  161SOL    HW1 1382   1.372   4.988   4.325
  161SOL    HW2 1383   1.454   4.877   4.411
  162SOL     OW 1384   3.735   6.410   0.547
  162SOL    HW1 1385   3.798   6.395   0.471
  162SOL    HW2 1386   3.642   6.384   0.519
  163SOL     OW 1387   5.129   5.647   1.044
  163SOL    HW1 1388   5.065   5.583   1.087
  163SOL    HW2 1389   5.088   5.738   1.041
  164SOL     OW 1390   6.840   3.844   1.173
  164SOL    HW1 1391   6.796   3.929   1.142
  164SOL    HW2 1392   6.831   3.774   1.102
  165SOL     OW 1393   5.638   3.251   1.230
  165SOL    HW1 1394   5.635   3.195   1.313
  165SOL    HW2 1395   5.571   3.217   1.164
  166SOL     OW 1396   0.503   4.937   3.939
  166SOL    HW1 1397   0.597   4.952   3.969
  166SOL    HW2 1398   0.488   4.839   3.922
  167SOL     OW 1399   5.844   2.005   0.745
  167SOL    HW1 1400   5.849   2.024   0.647
  167SOL    HW2 1401   5.765   1.946   0.764
  168SOL     OW 1402   2.807   3.427   1.081
  168SOL    HW1 1403   2.885   3.365   1.092
  168SOL    HW2 1404   2.824   3.488   1.004
  169SOL     OW 1405   3.670   0.321   2.635
  169SOL    HW1 1406   3.760   0.357   2.610
  169SOL    HW2 1407   3.605   0.340   2.561
  170SOL     OW 1408   0.306   1.825   3.390
  170SOL    HW1 1409   0.231   1.784   3.442
  170SOL    HW2 1410   0.270   1.881   3.316
  171SOL     OW 1411   4.003   4.478   0.312
  171SOL    HW1 1412   4.060   4.535   0.252
  171SOL    HW2 1413   3.907   4.486   0.283
  172SOL     OW 1414   6.141   1.687   4.566
  172SOL    HW1 1415   6.207   1.613   4.552
  172SOL    HW2 1416   6.152   1.724   4.659
  173SOL     OW 1417   6.440   1.201   4.539
  173SOL    HW1 1418   6.376   1.187   4.615
  173SOL    HW2 1419   6.393   1.249   4.465
  174SOL     OW 1420   2.952   5.479   4.553
  174SOL    HW1 1421   2.925   5.477   4.650
  174SOL    HW2 1422   2.932   5.569   4.514
  175SOL     OW 1423   1.901   6.658   1.878
  175SOL    HW1 1424   1.964   6.598   1.928
  175SOL    HW2 1425   1.918   6.650   1.780
  176SOL     OW 1426   1.327   4.065   0.643
  176SOL    HW1 1427   1.339   4.152   0.692
  176SOL    HW2 1428   1.405   4.006   0.661
  177SOL     OW 1429   5.978   3.071   2.550
  177SOL    HW1 1430   5.884   3.091   2.519
  177SOL    HW2 1431   6.014   2.994   2.497
  178SOL     OW 1432   4.785   3.478   5.953
  178SOL    HW1 1433   4.853   3.497   5.882
  178SOL    HW2 1434   4.798   3.385   5.988
  179SOL     OW 1435   2.887   1.929   5.990
  179SOL    HW1 1436   2.942   1.992   5.935
  179SOL    HW2 1437   2.932   1.912   6.077
  180SOL     OW 1438   1.235   0.257   6.169
  180SOL    HW1 1439   1.188   0.169   6.182
  180SOL    HW2 1440   1.305   0.268   6.240
  181SOL     OW 1441   3.731   1.319   6.562
  181SOL    HW1 1442   3.825   1.354   6.562
  181SOL    HW2 1443   3.732   1.222   6.538
  182SOL     OW 1444   3.978   2.155   4.630
  182SOL    HW1 1445   3.889   2.119   4.657
  182SOL    HW2 1446   4.005   2.229   4.692
  183SOL     OW 1447   3.634   1.715   3.862
  183SOL    HW1 1448   3.691   1.656   3.919
  183SOL    HW2 1449   3.546   1.729   3.906
  184SOL     OW 1450   1.235   5.709   4.017
  184SOL    HW1 1451   1.298   5.648   4.067
  184SOL    HW2 1452   1.202   5.780   4.080
  185SOL     OW 1453   1.138   2.312   6.670
  185SOL    HW1 1454   1.124   2.407   6.644
  185SOL    HW2 1455   1.147   2.256   6.587
  186SOL     OW 1456   6.743   1.278   3.437
  186SOL    HW1 1457   6.782   1.192   3.470
  186SOL    HW2 1458   6.742   1.277   3.337
  187SOL     OW 1459   4.726   0.804   3.388
  187SOL    HW1 1460   4.789   0.848   3.323
  187SOL    HW2 1461   4.712   0.865   3.466
  188SOL     OW 1462   6.182   2.050   3.270
  188SOL    HW1 1463   6.148   2.122   3.209
  188SOL    HW2 1464   6.168   2.079   3.365
  189SOL     OW 1465   1.776   5.594   2.874
  189SOL    HW1 1466   1.775   5.634   2.782
  189SOL    HW2 1467   1.829   5.653   2.935
  190SOL     OW 1468   3.871   1.289   4.561
  190SOL    HW1 1469   3.935   1.317   4.490
  190SOL    HW2 1470   3.781   1.273   4.520
  191SOL     OW 1471   5.434   5.540   6.111
  191SOL    HW1 1472   5.454   5.576   6.020
  191SOL    HW2 1473   5.472   5.447   6.119
  192SOL     OW 1474   0.016   5.651   1.804
  192SOL    HW1 1475   6.994   5.561   1.820
  192SOL    HW2 1476   0.070   5.648   1.720
  193SOL     OW 1477   4.716   2.674   5.423
  193SOL    HW1 1478   4.715   2.758   5.477
  193SOL    HW2 1479   4.690   2.694   5.329
  194SOL     OW 1480   3.763   1.095   2.923
  194SOL    HW1 1481   3.826   1.048   2.862
  194SOL    HW2 1482   3.672   1.056   2.915
  195SOL     OW 1483   1.870   6.257   3.859
  195SOL    HW1 1484   1.895   6.169   3.898
  195SOL    HW2 1485   1.926   6.275   3.778
  196SOL     OW 1486   2.649   1.704   6.737
  196SOL    HW1 1487   2.615   1.693   6.831
  196SOL    HW2 1488   2.603   1.781   6.694
  197SOL     OW 1489   2.429   1.099   0.307
  197SOL    HW1 1490   2.336   1.101   0.273
  197SOL    HW2 1491   2.440   1.024   0.373
  198SOL     OW 1492   4.788   1.651   3.311
  198SOL    HW1 1493   4.690   1.671   3.305
  198SOL    HW2 1494   4.837   1.706   3.244
  199SOL     OW 1495   0.982   2.355   4.170
  199SOL    HW1 1496   0.928   2.396   4.243
  199SOL    HW2 1497   1.075   2.391   4.173
  200SOL     OW 1498   1.635   3.174   1.101
  200SOL    HW1 1499   1.689   3.225   1.168
  200SOL    HW2 1500   1.538   3.176   1.127
  201SOL     OW 1501   0.366   6.866   5.228
  201SOL    HW1 1502   0.315   6.785   5.258
  201SOL    HW2 1503   0.323   6.904   5.145
  202SOL     OW 1504   3.873   1.588   6.595
  202SOL    HW1 1505   3.946   1.612   6.531
  202SOL    HW2 1506   3.912   1.574   6.686
  203SOL     OW 1507   5.969   2.307   5.257
  203SOL    HW1 1508   5.915   2.311   5.173
  203SOL    HW2 1509   5.931   2.369   5.325
  204SOL     OW 1510   0.582   0.281   4.724
  204SOL    HW1 1511   0.655   0.222   4.761
  204SOL    HW2 1512   0.536   0.234   4.649
  205SOL     OW 1513   1.730   2.396   2.800
  205SOL    HW1 1514   1.709   2.326   2.732
  205SOL    HW2 1515   1.655   2.404   2.865
  206SOL     OW 1516   1.169   2.976   1.210
  206SOL    HW1 1517   1.258   2.937   1.235
  206SOL    HW2 1518   1.108   2.974   1.289
  207SOL     OW 1519   5.086   0.977   3.415
  207SOL    HW1 1520   5.183   0.989   3.395
  207SOL    HW2 1521   5.067   1.002   3.510
  208SOL     OW 1522   0.053   3.882   5.616
  208SOL    HW1 1523   0.039   3.863   5.518
  208SOL    HW2 1524   0.118   3.816   5.654
  209SOL     OW 1525   6.446   4.564   3.020
  209SOL    HW1 1526   6.352   4.533   3.003
  209SOL    HW2 1527   6.509   4.487   3.009
  210SOL     OW 1528   4.204   1.895   0.549
  210SOL    HW1 1529   4.232   1.799   0.545
  210SOL    HW2 1530   4.197   1.924   0.644
  211SOL     OW 1531   0.921   6.775   2.415
  211SOL    HW1 1532   0.922   6.681   2.447
  211SOL    HW2 1533   0.848   6.825   2.462
  212SOL     OW 1534   1.262   3.911   2.235
  212SOL    HW1 1535   1.282   3.995   2.284
  212SOL    HW2 1536   1.332   3.843   2.255
  213SOL     OW 1537   1.590   5.659   0.938
  213SOL    HW1 1538   1.690   5.662   0.940
  213SOL    HW2 1539   1.556   5.735   0.883
  214SOL     OW 1540   3.548   5.048   2.587
  214SOL    HW1 1541   3.502   5.029   2.674
  214SOL    HW2 1542   3.494   5.114   2.535
  215SOL     OW 1543   2.537   4.109   1.246
  215SOL    HW1 1544   2.481   4.027   1.258
  215SOL    HW2 1545   2.614   4.089   1.186
  216SOL     OW 1546   0.505   6.447   3.050
  216SOL    HW1 1547   0.570   6.454   3.126
  216SOL    HW2 1548   0.432   6.515   3.061
  217SOL     OW 1549   1.274   2.297   5.341
  217SOL    HW1 1550   1.175   2.306   5.347
  217SOL    HW2 1551   1.298   2.243   5.261
  218SOL     OW 1552   0.757   2.824   4.834
  218SOL    HW1 1553   0.772   2.878   4.751
  218SOL    HW2 1554   0.686   2.756   4.817
  219SOL     OW 1555   4.253   0.354   0.316
  219SOL    HW1 1556   4.224   0.432   0.261
  219SOL    HW2 1557   4.200   0.351   0.400
  220SOL     OW 1558   2.328   7.004   0.737
  220SOL    HW1 1559   2.416   7.014   0.784
  220SOL    HW2 1560   2.290   0.074   0.717
  221SOL     OW 1561   6.410   4.248   1.256
  221SOL    HW1 1562   6.451   4.156   1.253
  221SOL    HW2 1563   6.311   4.240   1.265
  222SOL     OW 1564   1.664   4.585   6.117
  222SOL    HW1 1565   1.656   4.543   6.207
  222SOL    HW2 1566   1.613   4.531   6.050
  223SOL     OW 1567   6.887   2.724   5.110
  223SOL    HW1 1568   6.979   2.752   5.084
  223SOL    HW2 1569   6.850   2.663   5.039
  224SOL     OW 1570   3.630   1.295   6.845
  224SOL    HW1 1571   3.659   1.343   6.763
  224SOL    HW2 1572   3.575   1.215   6.820
  225SOL     OW 1573   4.357   4.165   6.447
  225SOL    HW1 1574   4.258   4.149   6.447
  225SOL    HW2 1575   4.380   4.231   6.518
  226SOL     OW 1576   0.494   1.620   6.306
  226SOL    HW1 1577   0.397   1.607   6.287
  226SOL    HW2 1578   0.506   1.697   6.369
  227SOL     OW 1579   2.157   4.197   2.608
  227SOL    HW1 1580   2.169   4.287   2.566
  227SOL    HW2 1581   2.146   4.129   2.536
  228SOL     OW 1582   1.838   0.706   2.834
  228SOL    HW1 1583   1.828   0.609   2.812
  228SOL    HW2 1584   1.841   0.716   2.934
  229SOL     OW 1585   5.244   5.233   6.161
  229SOL    HW1 1586   5.221   5.329   6.144
  229SOL    HW2 1587   5.167   5.188   6.206
  230SOL     OW 1588   4.530   5.792   4.430
  230SOL    HW1 1589   4.498   5.803   4.525
  230SOL    HW2 1590   4.619   5.747   4.430
  231SOL     OW 1591   6.046   1.469   6.476
  231SOL    HW1 1592   6.056   1.376   6.513
  231SOL    HW2 1593   5.960   1.508   6.509
  232SOL     OW 1594   0.484   3.055   6.217
  232SOL    HW1 1595   0.521   3.142   6.182
  232SOL    HW2 1596   0.551   3.013   6.278
  233SOL     OW 1597   4.066   1.698   3.374
  233SOL    HW1 1598   4.055   1.737   3.283
  233SOL    HW2 1599   3.977   1.678   3.413
  234SOL     OW 1600   6.285   1.075   6.328
  234SOL    HW1 1601   6.197   1.034   6.305
  234SOL    HW2 1602   6.354   1.003   6.335
  235SOL     OW 1603   4.862   3.431   2.285
  235SOL    HW1 1604   4.878   3.371   2.362
  235SOL    HW2 1605   4.878   3.381   2.200
  236SOL     OW 1606   5.063   2.547   6.903
  236SOL    HW1 1607   5.112   2.524   6.819
  236SOL    HW2 1608   5.118   2.611   6.957
  237SOL     OW 1609   0.278   4.176   2.027
  237SOL    HW1 1610   0.328   4.089   2.036
  237SOL    HW2 1611   0.300   4.234   2.105
  238SOL     OW 1612   6.208   1.715   0.633
  238SOL    HW1 1613   6.308   1.718   0.641
  238SOL    HW2 1614   6.172   1.648   0.697
  239SOL     OW 1615   1.078   3.893   7.015
  239SOL    HW1 1616   1.140   3.814   7.010
  239SOL    HW2 1617   1.072   3.925   0.089
  240SOL     OW 1618   0.752   2.923   3.475
  240SOL    HW1 1619   0.749   2.839   3.421
  240SOL    HW2 1620   0.839   2.969   3.461
  241SOL     OW 1621   2.919   2.173   4.599
  241SOL    HW1 1622   2.885   2.198   4.690
  241SOL    HW2 1623   3.019   2.171   4.601
  242SOL     OW 1624   3.511   3.353   3.680
  242SOL    HW1 1625   3.594   3.312   3.718
  242SOL    HW2 1626   3.527   3.375   3.584
  243SOL     OW 1627   4.418   1.885   0.188
  243SOL    HW1 1628   4.475   1.808   0.218
  243SOL    HW2 1629   4.469   1.940   0.122
  244SOL     OW 1630   5.835   3.837   5.411
  244SOL    HW1 1631   5.919   3.881   5.441
  244SOL    HW2 1632   5.772   3.828   5.488
  245SOL     OW 1633   4.525   2.175   3.650
  245SOL    HW1 1634   4.477   2.262   3.656
  245SOL    HW2 1635   4.539   2.138   3.742
  246SOL     OW 1636   4.981   1.587   3.512
  246SOL    HW1 1637   4.933   1.629   3.435
  246SOL    HW2 1638   4.914   1.548   3.575
  247SOL     OW 1639   2.407   1.461   0.484
  247SOL    HW1 1640   2.496   1.460   0.530
  247SOL    HW2 1641   2.363   1.550   0.500
  248SOL     OW 1642   2.397   0.884   2.835
  248SOL    HW1 1643   2.447   0.803   2.865
  248SOL    HW2 1644   2.327   0.858   2.769
  249SOL     OW 1645   5.136   6.667   5.447
  249SOL    HW1 1646   5.233   6.666   5.421
  249SOL    HW2 1647   5.080   6.683   5.367
  250SOL     OW 1648   4.261   3.791   0.644
  250SOL    HW1 1649   4.298   3.757   0.558
  250SOL    HW2 1650   4.333   3.794   0.713
  251SOL     OW 1651   4.588   3.431   5.456
  251SOL    HW1 1652   4.564   3.468   5.546
  251SOL    HW2 1653   4.591   3.506   5.390
  252SOL     OW 1654   6.603   6.881   5.419
  252SOL    HW1 1655   6.592   6.870   5.320
  252SOL    HW2 1656   6.520   6.922   5.458
  253SOL     OW 1657   3.702   5.154   6.316
  253SOL    HW1 1658   3.780   5.135   6.256
  253SOL    HW2 1659   3.631   5.200   6.263
  254SOL     OW 1660   6.719   2.378   3.631
  254SOL    HW1 1661   6.705   2.286   3.668
  254SOL    HW2 1662   6.686   2.381   3.536
  255SOL     OW 1663   2.482   4.472   5.504
  255SOL    HW1 1664   2.557   4.409   5.483
  255SOL    HW2 1665   2.396   4.432   5.473
  256SOL     OW 1666   5.631   3.121   6.105
  256SOL    HW1 1667   5.636   3.058   6.183
  256SOL    HW2 1668   5.656   3.072   6.021
  257SOL     OW 1669   5.233   0.101   3.312
  257SOL    HW1 1670   5.239   0.074   3.217
  257SOL    HW2 1671   5.179   0.185   3.320
  258SOL     OW 1672   2.446   4.191   5.296
  258SOL    HW1 1673   2.374   4.189   5.365
  258SOL    HW2 1674   2.456   4.101   5.255
  259SOL     OW 1675   5.841   0.811   2.135
  259SOL    HW1 1676   5.796   0.798   2.047
  259SOL    HW2 1677   5.940   0.817   2.122
  260SOL     OW 1678   4.272   5.686   3.075
  260SOL    HW1 1679   4.302   5.619   3.008
  260SOL    HW2 1680   4.214   5.754   3.031
  261SOL     OW 1681   5.676   3.740   1.607
  261SOL    HW1 1682   5.649   3.684   1.528
  261SOL    HW2 1683   5.685   3.681   1.688
  262SOL     OW 1684   1.022   4.108   0.182
  262SOL    HW1 1685   0.939   4.163   0.166
  262SOL    HW2 1686   1.088   4.161   0.235
  263SOL     OW 1687   1.680   0.732   4.485
  263SOL    HW1 1688   1.750   0.783   4.437
  263SOL    HW2 1689   1.607   0.794   4.514
  264SOL     OW 1690   6.597   2.327   0.127
  264SOL    HW1 1691   6.621   2.277   0.211
  264SOL    HW2 1692   6.501   2.354   0.131
  265SOL     OW 1693   5.952   6.315   2.423
  265SOL    HW1 1694   5.977   6.387   2.488
  265SOL    HW2 1695   5.888   6.252   2.467
  266SOL     OW 1696   4.534   3.158   5.831
  266SOL    HW1 1697   4.479   3.079   5.803
  266SOL    HW2 1698   4.473   3.233   5.856
  267SOL     OW 1699   0.505   2.023   6.013
  267SOL    HW1 1700   0.512   2.081   6.094
  267SOL    HW2 1701   0.529   1.929   6.037
  268SOL     OW 1702   2.679   0.987   6.196
  268SOL    HW1 1703   2.658   1.058   6.263
  268SOL    HW2 1704   2.664   1.023   6.104
  269SOL     OW 1705   2.186   4.120   0.916
  269SOL    HW1 1706   2.258   4.051   0.918
  269SOL    HW2 1707   2.143   4.121   0.826
  270SOL     OW 1708   0.710   6.150   1.165
  270SOL    HW1 1709   0.770   6.198   1.101
  270SOL    HW2 1710   0.674   6.068   1.122
  271SOL     OW 1711   0.005   1.687   6.226
  271SOL    HW1 1712   0.012   1.631   6.144
  271SOL    HW2 1713   6.960   1.761   6.211
  272SOL     OW 1714   3.474   6.619   4.130
  272SOL    HW1 1715   3.483   6.573   4.042
  272SOL    HW2 1716   3.478   6.718   4.116
  273SOL     OW 1717   2.208   4.574   4.650
  273SOL    HW1 1718   2.292   4.616   4.616
  273SOL    HW2 1719   2.133   4.640   4.645
  274SOL     OW 1720   3.801   1.729   3.212
  274SOL    HW1 1721   3.830   1.733   3.308
  274SOL    HW2 1722   3.811   1.636   3.179
  275SOL     OW 1723   6.150   6.000   2.676
  275SOL    HW1 1724   6.185   5.944   2.751
  275SOL    HW2 1725   6.176   6.096   2.692
  276SOL     OW 1726   6.902   6.894   4.052
  276SOL    HW1 1727   6.881   6.978   4.003
  276SOL    HW2 1728   6.850   6.890   4.137
  277SOL     OW 1729   1.921   3.925   0.404
  277SOL    HW1 1730   1.913   4.021   0.379
  277SOL    HW2 1731   2.006   3.888   0.369
  278SOL     OW 1732   0.153   3.654   1.881
  278SOL    HW1 1733   0.230   3.633   1.821
  278SOL    HW2 1734   0.121   3.569   1.925
  279SOL     OW 1735   5.523   2.902   4.658
  279SOL    HW1 1736   5.439   2.910   4.712
  279SOL    HW2 1737   5.597   2.868   4.717
  280SOL     OW 1738   2.922   5.336   2.009
  280SOL    HW1 1739   2.918   5.281   1.926
  280SOL    HW2 1740   2.916   5.277   2.089
  281SOL     OW 1741   2.553   4.829   1.927
  281SOL    HW1 1742   2.648   4.858   1.913
  281SOL    HW2 1743   2.553   4.736   1.966
  282SOL     OW 1744   2.833   1.666   5.317
  282SOL    HW1 1745   2.811   1.571   5.293
  282SOL    HW2 1746   2.773   1.697   5.391
  283SOL     OW 1747   6.164   2.417   6.555
  283SOL    HW1 1748   6.091   2.380   6.612
  283SOL    HW2 1749   6.252   2.402   6.600
  284SOL     OW 1750   1.269   3.137   3.863
  284SOL    HW1 1751   1.311   3.061   3.912
  284SOL    HW2 1752   1.184   3.163   3.908
  285SOL     OW 1753   5.026   4.873   4.121
  285SOL    HW1 1754   5.112   4.864   4.172
  285SOL    HW2 1755   4.949   4.853   4.181
  286SOL     OW 1756   3.286   4.700   0.136
  286SOL    HW1 1757   3.325   4.736   0.051
  286SOL    HW2 1758   3.333   4.615   0.161
  287SOL     OW 1759   1.144   3.027   0.949
  287SOL    HW1 1760   1.162   3.026   1.047
  287SOL    HW2 1761   1.195   2.954   0.904
  288SOL     OW 1762   3.512   1.684   6.747
  288SOL    HW1 1763   3.508   1.596   6.793
  288SOL    HW2 1764   3.527   1.669   6.649
  289SOL     OW 1765   1.988   4.216   5.388
  289SOL    HW1 1766   1.923   4.285   5.354
  289SOL    HW2 1767   2.011   4.154   5.314
  290SOL     OW 1768   6.184   1.791   4.807
  290SOL    HW1 1769   6.088   1.761   4.809
  290SOL    HW2 1770   6.220   1.791   4.900
  291SOL     OW 1771   0.428   1.865   4.389
  291SOL    HW1 1772   0.388   1.931   4.453
  291SOL    HW2 1773   0.462   1.913   4.309
  292SOL     OW 1774   1.903   1.150   2.965
  292SOL    HW1 1775   1.827   1.125   2.905
  292SOL    HW2 1776   1.867   1.198   3.045
  293SOL     OW 1777   4.439   5.908   3.131
  293SOL    HW1 1778   4.416   5.817   3.096
  293SOL    HW2 1779   4.369   5.937   3.196
  294SOL     OW 1780   6.321   5.886   6.653
  294SOL    HW1 1781   6.409   5.840   6.644
  294SOL    HW2 1782   6.278   5.894   6.564
  295SOL     OW 1783   3.495   1.057   2.891
  295SOL    HW1 1784   3.427   0.988   2.914
  295SOL    HW2 1785   3.482   1.086   2.796
  296SOL     OW 1786   3.399   1.444   2.406
  296SOL    HW1 1787   3.441   1.535   2.407
  296SOL    HW2 1788   3.314   1.448   2.352
  297SOL     OW 1789   2.210   4.396   3.618
  297SOL    HW1 1790   2.194   4.468   3.551
  297SOL    HW2 1791   2.301   4.407   3.658
  298SOL     OW 1792   4.596   6.093   1.462
  298SOL    HW1 1793   4.664   6.038   1.413
  298SOL    HW2 1794   4.521   6.117   1.400
  299SOL     OW 1795   5.690   3.520   5.297
  299SOL    HW1 1796   5.667   3.594   5.233
  299SOL    HW2 1797   5.704   3.559   5.388
  300SOL     OW 1798   6.642   0.394   2.744
  300SOL    HW1 1799   6.561   0.385   2.686
  300SOL    HW2 1800   6.632   0.473   2.805
  301SOL     OW 1801   5.499   3.846   0.362
  301SOL    HW1 1802   5.575   3.795   0.403
  301SOL    HW2 1803   5.497   3.938   0.401
  302SOL     OW 1804   1.280   0.149   3.234
  302SOL    HW1 1805   1.298   0.164   3.331
  302SOL    HW2 1806   1.326   0.220   3.181
  303SOL     OW 1807   5.321   0.763   1.883
  303SOL    HW1 1808   5.344   0.815   1.965
  303SOL    HW2 1809   5.232   0.718   1.897
  304SOL     OW 1810   1.897   6.949   3.262
  304SOL    HW1 1811   1.827   7.018   3.240
  304SOL    HW2 1812   1.944   6.922   3.178
  305SOL     OW 1813   0.524   3.532   7.020
  305SOL    HW1 1814   0.435   3.515   6.978
  305SOL    HW2 1815   0.563   3.616   6.983
  306SOL     OW 1816   1.577   1.489   4.114
  306SOL    HW1 1817   1.659   1.543   4.130
  306SOL    HW2 1818   1.596   1.418   4.047
  307SOL     OW 1819   4.829   7.010   1.169
  307SOL    HW1 1820   4.739   0.027   1.148
  307SOL    HW2 1821   4.827   6.910   1.161
  308SOL     OW 1822   0.043   5.299   4.012
  308SOL    HW1 1823   6.985   5.345   4.053
  308SOL    HW2 1824   0.029   5.291   3.913
  309SOL     OW 1825   3.750   4.376   5.279
  309SOL    HW1 1826   3.834   4.395   5.329
  309SOL    HW2 1827   3.763   4.397   5.182
  310SOL     OW 1828   6.060   6.778   5.794
  310SOL    HW1 1829   6.069   6.878   5.789
  310SOL    HW2 1830   6.045   6.741   5.703
  311SOL     OW 1831   6.734   5.077   1.851
  311SOL    HW1 1832   6.655   5.040   1.900
  311SOL    HW2 1833   6.735   5.177   1.860
  312SOL     OW 1834   4.669   1.478   4.675
  312SOL    HW1 1835   4.682   1.555   4.612
  312SOL    HW2 1836   4.738   1.483   4.748
  313SOL     OW 1837   2.664   4.267   1.679
  313SOL    HW1 1838   2.678   4.353   1.629
  313SOL    HW2 1839   2.739   4.204   1.659
  314SOL     OW 1840   3.541   5.682   0.641
  314SOL    HW1 1841   3.468   5.646   0.583
  314SOL    HW2 1842   3.624   5.693   0.587
  315SOL     OW 1843   0.947   2.146   3.217
  315SOL    HW1 1844   0.856   2.188   3.221
  315SOL    HW2 1845   0.952   2.073   3.285
  316SOL     OW 1846   2.269   2.885   4.368
  316SOL    HW1 1847   2.232   2.938   4.445
  316SOL    HW2 1848   2.327   2.811   4.403
  317SOL     OW 1849   0.740   1.455   0.101
  317SOL    HW1 1850   0.666   1.439   0.167
  317SOL    HW2 1851   0.815   1.392   0.119
  318SOL     OW 1852   1.542   4.991   1.049
  318SOL    HW1 1853   1.470   5.015   1.114
  318SOL    HW2 1854   1.629   4.982   1.097
  319SOL     OW 1855   1.175   6.859   2.157
  319SOL    HW1 1856   1.198   6.955   2.138
  319SOL    HW2 1857   1.087   6.854   2.203
  320SOL     OW 1858   6.025   2.392   6.999
  320SOL    HW1 1859   6.093   2.456   6.963
  320SOL    HW2 1860   6.047   2.299   6.969
  321SOL     OW 1861   2.163   1.941   2.087
  321SOL    HW1 1862   2.080   1.927   2.033
  321SOL    HW2 1863   2.210   1.854   2.098
  322SOL     OW 1864   3.412   2.989   4.235
  322SOL    HW1 1865   3.323   3.017   4.199
  322SOL    HW2 1866   3.409   2.987   4.335
  323SOL     OW 1867   0.708   4.083   0.738
  323SOL    HW1 1868   0.641   4.036   0.796
  323SOL    HW2 1869   0.757   4.151   0.792
  324SOL     OW 1870   0.833   2.904   4.573
  324SOL    HW1 1871   0.836   2.990   4.624
  324SOL    HW2 1872   0.857   2.921   4.478
  325SOL     OW 1873   2.233   3.456   1.103
  325SOL    HW1 1874   2.235   3.554   1.084
  325SOL    HW2 1875   2.280   3.438   1.190
  326SOL     OW 1876   1.525   6.378   6.742
  326SOL    HW1 1877   1.428   6.354   6.734
  326SOL    HW2 1878   1.539   6.431   6.826
  327SOL     OW 1879   0.308   4.957   4.462
  327SOL    HW1 1880   0.247   4.922   4.533
  327SOL    HW2 1881   0.273   4.933   4.372
  328SOL     OW 1882   3.614   5.408   2.795
  328SOL    HW1 1883   3.525   5.413   2.839
  328SOL    HW2 1884   3.658   5.321   2.819
  329SOL     OW 1885   3.153   3.943   3.570
  329SOL    HW1 1886   3.185   3.856   3.532
  329SOL    HW2 1887   3.183   4.019   3.513
  330SOL     OW 1888   3.120   6.547   2.093
  330SOL    HW1 1889   3.063   6.614   2.140
  330SOL    HW2 1890   3.122   6.462   2.146
  331SOL     OW 1891   4.759   5.663   6.197
  331SOL    HW1 1892   4.812   5.734   6.152
  331SOL    HW2 1893   4.685   5.705   6.250
  332SOL     OW 1894   3.412   1.702   3.405
  332SOL    HW1 1895   3.330   1.655   3.438
  332SOL    HW2 1896   3.489   1.681   3.465
  333SOL     OW 1897   4.218   0.101   5.902
  333SOL    HW1 1898   4.229   0.181   5.961
  333SOL    HW2 1899   4.306   0.074   5.864
  334SOL     OW 1900   3.075   0.109   2.351
  334SOL    HW1 1901   2.977   0.121   2.337
  334SOL    HW2 1902   3.097   0.012   2.357
  335SOL     OW 1903   3.884   5.900   3.935
  335SOL    HW1 1904   3.912   5.804   3.936
  335SOL    HW2 1905   3.811   5.912   3.867
  336SOL     OW 1906   2.081   1.158   3.230
  336SOL    HW1 1907   2.068   1.069   3.185
  336SOL    HW2 1908   2.081   1.230   3.162
  337SOL     OW 1909   6.987   3.298   1.552
  337SOL    HW1 1910   6.936   3.346   1.624
  337SOL    HW2 1911   0.006   3.366   1.489
  338SOL     OW 1912   2.857   3.118   1.724
  338SOL    HW1 1913   2.761   3.138   1.740
  338SOL    HW2 1914   2.896   3.186   1.663
  339SOL     OW 1915   3.836   0.280   3.090
  339SOL    HW1 1916   3.753   0.252   3.042
  339SOL    HW2 1917   3.822   0.370   3.131
  340SOL     OW 1918   5.661   4.342   4.908
  340SOL    HW1 1919   5.752   4.373   4.932
  340SOL    HW2 1920   5.664   4.246   4.880
  341SOL     OW 1921   5.270   6.174   4.283
  341SOL    HW1 1922   5.360   6.132   4.272
  341SOL    HW2 1923   5.219   6.166   4.197
  342SOL     OW 1924   5.541   4.429   0.048
  342SOL    HW1 1925   5.589   4.490   7.005
  342SOL    HW2 1926   5.602   4.405   0.123
  343SOL     OW 1927   3.112   6.333   1.890
  343SOL    HW1 1928   3.017   6.303   1.884
  343SOL    HW2 1929   3.119   6.413   1.950
  344SOL     OW 1930   1.989   5.179   0.420
  344SOL    HW1 1931   2.021   5.171   0.515
  344SOL    HW2 1932   2.029   5.106   0.366
  345SOL     OW 1933   0.530   0.588   5.661
  345SOL    HW1 1934   0.457   0.634   5.711
  345SOL    HW2 1935   0.491   0.515   5.604
  346SOL     OW 1936   1.468   0.542   3.185
  346SOL    HW1 1937   1.505   0.466   3.239
  346SOL    HW2 1938   1.416   0.506   3.108
  347SOL     OW 1939   5.375   6.867   6.509
  347SOL    HW1 1940   5.461   6.873   6.558
  347SOL    HW2 1941   5.385   6.906   6.417
  348SOL     OW 1942   3.879   5.105   1.541
  348SOL    HW1 1943   3.795   5.050   1.535
  348SOL    HW2 1944   3.951   5.063   1.486
  349SOL     OW 1945   0.710   4.237   2.301
  349SOL    HW1 1946   0.726   4.199   2.210
  349SOL    HW2 1947   0.615   4.222   2.327
  350SOL     OW 1948   3.935   3.620   1.641
  350SOL    HW1 1949   3.948   3.681   1.719
  350SOL    HW2 1950   4.020   3.569   1.624
  351SOL     OW 1951   2.801   2.140   0.472
  351SOL    HW1 1952   2.844   2.112   0.558
  351SOL    HW2 1953   2.816   2.070   0.402
  352SOL     OW 1954   3.566   0.754   5.075
  352SOL    HW1 1955   3.515   0.740   4.990
  352SOL    HW2 1956   3.599   0.848   5.079
  353SOL     OW 1957   1.983   6.385   0.479
  353SOL    HW1 1958   1.944   6.456   0.421
  353SOL    HW2 1959   1.910   6.336   0.526
  354SOL     OW 1960   3.914   2.187   0.649
  354SOL    HW1 1961   3.922   2.178   0.550
  354SOL    HW2 1962   3.953   2.274   0.678
  355SOL     OW 1963   6.880   3.213   2.637
  355SOL    HW1 1964   6.883   3.290   2.574
  355SOL    HW2 1965   6.963   3.158   2.626
  356SOL     OW 1966   4.701   4.931   4.931
  356SOL    HW1 1967   4.743   4.841   4.927
  356SOL    HW2 1968   4.751   4.988   4.996
  357SOL     OW 1969   0.683   6.182   5.286
  357SOL    HW1 1970   0.681   6.131   5.371
  357SOL    HW2 1971   0.736   6.266   5.298
  358SOL     OW 1972   6.626   0.421   1.703
  358SOL    HW1 1973   6.663   0.463   1.786
  358SOL    HW2 1974   6.697   0.367   1.658
  359SOL     OW 1975   1.270   2.472   2.407
  359SOL    HW1 1976   1.189   2.497   2.354
  359SOL    HW2 1977   1.352   2.505   2.361
  360SOL     OW 1978   3.968   6.609   6.358
  360SOL    HW1 1979   3.869   6.599   6.360
  360SOL    HW2 1980   3.999   6.615   6.263
  361SOL     OW 1981   5.237   5.473   3.197
  361SOL    HW1 1982   5.259   5.558   3.244
  361SOL    HW2 1983   5.182   5.492   3.117
  362SOL     OW 1984   2.585   4.376   0.245
  362SOL    HW1 1985   2.622   4.359   0.337
  362SOL    HW2 1986   2.638   4.449   0.201
  363SOL     OW 1987   3.894   4.918   4.182
  363SOL    HW1 1988   3.946   4.989   4.231
  363SOL    HW2 1989   3.804   4.909   4.222
  364SOL     OW 1990   0.725   5.474   5.929
  364SOL    HW1 1991   0.689   5.546   5.870
  364SOL    HW2 1992   0.790   5.417   5.877
  365SOL     OW 1993   5.258   5.870   2.480
  365SOL    HW1 1994   5.226   5.843   2.389
  365SOL    HW2 1995   5.349   5.832   2.496
  366SOL     OW 1996   6.203   1.317   0.062
  366SOL    HW1 1997   6.294   1.358   0.066
  366SOL    HW2 1998   6.134   1.388   0.049
  367SOL     OW 1999   5.221   3.191   1.038
  367SOL    HW1 2000   5.144   3.143   0.998
  367SOL    HW2 2001   5.202   3.211   1.134
  368SOL     OW 2002   1.876   4.729   5.072
  368SOL    HW1 2003   1.778   4.746   5.083
  368SOL    HW2 2004   1.915   4.697   5.158
  369SOL     OW 2005   6.607   4.271   1.691
  369SOL    HW1 2006   6.665   4.346   1.659
  369SOL    HW2 2007   6.646   4.183   1.663
  370SOL     OW 2008   2.397   0.465   5.854
  370SOL    HW1 2009   2.482   0.478   5.905
  370SOL    HW2 2010   2.419   0.444   5.758
  371SOL     OW 2011   2.803   3.483   0.292
  371SOL    HW1 2012   2.728   3.431   0.252
  371SOL    HW2 2013   2.795   3.481   0.392
  372SOL     OW 2014   6.834   0.601   5.089
  372SOL    HW1 2015   6.884   0.597   5.176
  372SOL    HW2 2016   6.846   0.691   5.048
  373SOL     OW 2017   0.082   6.187   6.560
  373SOL    HW1 2018   0.068   6.208   6.464
  373SOL    HW2 2019   0.091   6.088   6.572
  374SOL     OW 2020   3.364   0.238   2.933
  374SOL    HW1 2021   3.291   0.279   2.878
  374SOL    HW2 2022   3.335   0.149   2.967
  375SOL     OW 2023   6.244   4.722   3.612
  375SOL    HW1 2024   6.326   4.665   3.621
  375SOL    HW2 2025   6.261   4.794   3.545
  376SOL     OW 2026   1.627   2.746   3.711
  376SOL    HW1 2027   1.556   2.783   3.650
  376SOL    HW2 2028   1.584   2.685   3.778
  377SOL     OW 2029   5.303   2.183   2.588
  377SOL    HW1 2030   5.364   2.260   2.567
  377SOL    HW2 2031   5.213   2.217   2.612
  378SOL     OW 2032   3.862   3.657   5.820
  378SOL    HW1 2033   3.851   3.573   5.767
  378SOL    HW2 2034   3.956   3.691   5.809
  379SOL     OW 2035   6.170   3.368   1.484
  379SOL    HW1 2036   6.109   3.410   1.551
  379SOL    HW2 2037   6.142   3.396   1.392
  380SOL     OW 2038   1.118   1.349   1.259
  380SOL    HW1 2039   1.217   1.364   1.249
  380SOL    HW2 2040   1.088   1.386   1.347
  381SOL     OW 2041   3.099   5.000   1.389
  381SOL    HW1 2042   3.067   4.984   1.482
  381SOL    HW2 2043   3.145   5.089   1.385
  382SOL     OW 2044   3.432   5.927   0.264
  382SOL    HW1 2045   3.507   5.988   0.291
  382SOL    HW2 2046   3.370   5.976   0.203
  383SOL     OW 2047   6.941   2.764   6.671
  383SOL    HW1 2048   6.972   2.701   6.600
  383SOL    HW2 2049   6.982   2.854   6.656
  384SOL     OW 2050   0.614   5.689   5.770
  384SOL    HW1 2051   0.577   5.695   5.678
  384SOL    HW2 2052   0.540   5.677   5.836
  385SOL     OW 2053   4.806   6.191   0.694
  385SOL    HW1 2054   4.816   6.256   0.619
  385SOL    HW2 2055   4.876   6.120   0.686
  386SOL     OW 2056   3.826   6.344   5.225
  386SOL    HW1 2057   3.739   6.363   5.181
  386SOL    HW2 2058   3.900   6.383   5.171
  387SOL     OW 2059   0.157   0.557   4.267
  387SOL    HW1 2060   0.179   0.620   4.191
  387SOL    HW2 2061   0.241   0.515   4.300
  388SOL     OW 2062   6.906   2.817   5.384
  388SOL    HW1 2063   6.854   2.793   5.466
  388SOL    HW2 2064   6.868   2.768   5.306
  389SOL     OW 2065   4.313   4.485   1.748
  389SOL    HW1 2066   4.236   4.467   1.686
  389SOL    HW2 2067   4.347   4.398   1.784
  390SOL     OW 2068   3.841   1.203   0.382
  390SOL    HW1 2069   3.775   1.279   0.382
  390SOL    HW2 2070   3.795   1.119   0.412
  391SOL     OW 2071   3.210   3.685   6.232
  391SOL    HW1 2072   3.186   3.780   6.212
  391SOL    HW2 2073   3.161   3.624   6.170
  392SOL     OW 2074   1.678   4.038   2.010
  392SOL    HW1 2075   1.642   3.945   2.005
  392SOL    HW2 2076   1.756   4.040   2.072
  393SOL     OW 2077   0.672   4.525   0.784
  393SOL    HW1 2078   0.654   4.563   0.875
  393SOL    HW2 2079   0.592   4.474   0.752
  394SOL     OW 2080   6.413   2.324   6.684
  394SOL    HW1 2081   6.446   2.233   6.658
  394SOL    HW2 2082   6.483   2.371   6.738
  395SOL     OW 2083   4.686   4.451   1.846
  395SOL    HW1 2084   4.743   4.408   1.776
  395SOL    HW2 2085   4.632   4.381   1.892
  396SOL     OW 2086   2.931   1.684   2.914
  396SOL    HW1 2087   3.027   1.657   2.906
  396SOL    HW2 2088   2.919   1.740   2.997
  397SOL     OW 2089   4.751   1.325   5.121
  397SOL    HW1 2090   4.752   1.241   5.175
  397SOL    HW2 2091   4.669   1.326   5.063
  398SOL     OW 2092   1.639   0.052   4.562
  398SOL    HW1 2093   1.644   0.148   4.590
  398SOL    HW2 2094   1.620   0.046   4.465
  399SOL     OW 2095   5.065   5.352   3.955
  399SOL    HW1 2096   5.024   5.270   3.994
  399SOL    HW2 2097   5.001   5.393   3.890
  400SOL     OW 2098   6.258   0.804   4.682
  400SOL    HW1 2099   6.221   0.827   4.592
  400SOL    HW2 2100   6.313   0.721   4.675
  401SOL     OW 2101   6.531   6.422   5.732
  401SOL    HW1 2102   6.494   6.487   5.798
  401SOL    HW2 2103   6.531   6.464   5.641
  402SOL     OW 2104   6.595   0.112   2.618
  402SOL    HW1 2105   6.613   0.061   2.702
  402SOL    HW2 2106   6.669   0.095   2.552
  403SOL     OW 2107   2.781   0.551   6.512
  403SOL    HW1 2108   2.841   0.527   6.436
  403SOL    HW2 2109   2.699   0.493   6.510
  404SOL     OW 2110   3.440   5.406   5.269
  404SOL    HW1 2111   3.508   5.334   5.283
  404SOL    HW2 2112   3.480   5.495   5.291
  405SOL     OW 2113   2.293   4.160   3.545
  405SOL    HW1 2114   2.242   4.242   3.573
  405SOL    HW2 2115   2.308   4.162   3.446
  406SOL     OW 2116   0.291   5.025   5.956
  406SOL    HW1 2117   0.236   5.037   5.874
  406SOL    HW2 2118   0.325   5.115   5.986
  407SOL     OW 2119   1.271   3.132   4.257
  407SOL    HW1 2120   1.238   3.202   4.321
  407SOL    HW2 2121   1.367   3.113   4.274
  408SOL     OW 2122   2.812   1.354   3.339
  408SOL    HW1 2123   2.718   1.364   3.306
  408SOL    HW2 2124   2.871   1.419   3.291
  409SOL     OW 2125   1.348   3.976   2.608
  409SOL    HW1 2126   1.339   4.037   2.687
  409SOL    HW2 2127   1.333   3.882   2.638
  410SOL     OW 2128   1.541   2.404   1.320
  410SOL    HW1 2129   1.462   2.457   1.288
  410SOL    HW2 2130   1.543   2.403   1.420
  411SOL     OW 2131   0.645   2.263   1.493
  411SOL    HW1 2132   0.744   2.246   1.494
  411SOL    HW2 2133   0.627   2.356   1.525
  412SOL     OW 2134   2.082   5.098   2.722
  412SOL    HW1 2135   2.011   5.048   2.771
  412SOL    HW2 2136   2.124   5.039   2.653
  413SOL     OW 2137   4.182   5.125   2.756
  413SOL    HW1 2138   4.170   5.174   2.669
  413SOL    HW2 2139   4.146   5.181   2.830
  414SOL     OW 2140   2.821   6.627   3.681
  414SOL    HW1 2141   2.777   6.715   3.666
  414SOL    HW2 2142   2.774   6.557   3.627
  415SOL     OW 2143   6.645   0.666   0.580
  415SOL    HW1 2144   6.585   0.597   0.539
  415SOL    HW2 2145   6.592   0.720   0.647
  416SOL     OW 2146   4.991   3.588   4.809
  416SOL    HW1 2147   4.916   3.592   4.875
  416SOL    HW2 2148   5.066   3.535   4.848
  417SOL     OW 2149   3.663   2.281   6.827
  417SOL    HW1 2150   3.685   2.359   6.769
  417SOL    HW2 2151   3.565   2.281   6.848
  418SOL     OW 2152   3.670   6.287   4.360
  418SOL    HW1 2153   3.662   6.380   4.396
  418SOL    HW2 2154   3.666   6.290   4.260
  419SOL     OW 2155   0.915   0.119   1.681
  419SOL    HW1 2156   0.891   0.175   1.761
  419SOL    HW2 2157   0.930   0.024   1.710
  420SOL     OW 2158   6.319   0.506   6.144
  420SOL    HW1 2159   6.306   0.409   6.122
  420SOL    HW2 2160   6.347   0.515   6.239
  421SOL     OW 2161   5.248   4.035   3.516
  421SOL    HW1 2162   5.206   4.007   3.430
  421SOL    HW2 2163   5.181   4.084   3.572
  422SOL     OW 2164   5.538   2.768   2.124
  422SOL    HW1 2165   5.561   2.865   2.119
  422SOL    HW2 2166   5.510   2.745   2.218
  423SOL     OW 2167   3.230   1.231   6.439
  423SOL    HW1 2168   3.267   1.187   6.521
  423SOL    HW2 2169   3.196   1.321   6.463
  424SOL     OW 2170   1.387   4.189   2.815
  424SOL    HW1 2171   1.480   4.155   2.804
  424SOL    HW2 2172   1.374   4.219   2.910
  425SOL     OW 2173   3.535   0.253   5.633
  425SOL    HW1 2174   3.573   0.341   5.662
  425SOL    HW2 2175   3.509   0.200   5.714
  426SOL     OW 2176   2.390   2.640   4.414
  426SOL    HW1 2177   2.315   2.599   4.361
  426SOL    HW2 2178   2.387   2.606   4.508
  427SOL     OW 2179   3.843   2.172   3.227
  427SOL    HW1 2180   3.877   2.139   3.140
  427SOL    HW2 2181   3.816   2.268   3.218
  428SOL     OW 2182   2.465   1.249   5.132
  428SOL    HW1 2183   2.421   1.324   5.082
  428SOL    HW2 2184   2.535   1.207   5.075
  429SOL     OW 2185   1.055   6.094   3.591
  429SOL    HW1 2186   1.019   6.024   3.529
  429SOL    HW2 2187   1.149   6.071   3.616
  430SOL     OW 2188   1.766   6.841   3.509
  430SOL    HW1 2189   1.792   6.815   3.602
  430SOL    HW2 2190   1.814   6.925   3.484
  431SOL     OW 2191   2.545   2.087   2.167
  431SOL    HW1 2192   2.597   2.014   2.210
  431SOL    HW2 2193   2.464   2.049   2.122
  432SOL     OW 2194   4.189   2.523   1.319
  432SOL    HW1 2195   4.109   2.496   1.266
  432SOL    HW2 2196   4.212   2.451   1.384
  433SOL     OW 2197   1.963   6.644   6.972
  433SOL    HW1 2198   1.966   6.676   0.046
  433SOL    HW2 2199   2.056   6.624   6.941
  434SOL     OW 2200   4.067   6.530   3.820
  434SOL    HW1 2201   4.139   6.521   3.888
  434SOL    HW2 2202   4.022   6.442   3.806
  435SOL     OW 2203   2.824   1.565   6.040
  435SOL    HW1 2204   2.752   1.499   6.018
  435SOL    HW2 2205   2.884   1.577   5.961
  436SOL     OW 2206   4.645   0.199   3.015
  436SOL    HW1 2207   4.733   0.161   3.044
  436SOL    HW2 2208   4.571   0.156   3.067
  437SOL     OW 2209   6.473   0.085   4.460
  437SOL    HW1 2210   6.386   0.086   4.508
  437SOL    HW2 2211   6.534   0.154   4.500
  438SOL     OW 2212   0.788   4.426   2.824
  438SOL    HW1 2213   0.781   4.384   2.733
  438SOL    HW2 2214   0.714   4.493   2.835
  439SOL     OW 2215   5.723   0.570   3.030
  439SOL    HW1 2216   5.646   0.569   3.093
  439SOL    HW2 2217   5.725   0.657   2.981
  440SOL     OW 2218   4.286   0.913   0.611
  440SOL    HW1 2219   4.292   0.967   0.695
  440SOL    HW2 2220   4.258   0.820   0.633
  441SOL     OW 2221   0.389   4.368   2.908
  441SOL    HW1 2222   0.428   4.359   2.816
  441SOL    HW2 2223   0.389   4.465   2.935
  442SOL     OW 2224   5.812   3.527   5.611
  442SOL    HW1 2225   5.800   3.432   5.582
  442SOL    HW2 2226   5.727   3.561   5.650
  443SOL     OW 2227   5.008   3.358   2.913
  443SOL    HW1 2228   4.963   3.379   3.000
  443SOL    HW2 2229   4.973   3.420   2.843
  444SOL     OW 2230   4.243   1.278   1.525
  444SOL    HW1 2231   4.282   1.363   1.560
  444SOL    HW2 2232   4.316   1.216   1.499
  445SOL     OW 2233   1.393   5.238   2.457
  445SOL    HW1 2234   1.338   5.257   2.375
  445SOL    HW2 2235   1.437   5.149   2.448
  446SOL     OW 2236   5.674   6.797   1.950
  446SOL    HW1 2237   5.687   6.799   1.851
  446SOL    HW2 2238   5.762   6.812   1.996
  447SOL     OW 2239   5.900   3.875   6.885
  447SOL    HW1 2240   5.977   3.936   6.866
  447SOL    HW2 2241   5.933   3.792   6.929
  448SOL     OW 2242   2.596   0.389   3.322
  448SOL    HW1 2243   2.692   0.401   3.300
  448SOL    HW2 2244   2.570   0.451   3.397
  449SOL     OW 2245   2.166   2.954   4.650
  449SOL    HW1 2246   2.083   2.902   4.669
  449SOL    HW2 2247   2.240   2.920   4.708
  450SOL     OW 2248   0.519   4.120   3.346
  450SOL    HW1 2249   0.540   4.058   3.422
  450SOL    HW2 2250   0.559   4.083   3.262
  451SOL     OW 2251   1.021   2.081   2.774
  451SOL    HW1 2252   0.932   2.090   2.819
  451SOL    HW2 2253   1.027   2.146   2.699
  452SOL     OW 2254   4.614   6.316   2.996
  452SOL    HW1 2255   4.558   6.360   2.926
  452SOL    HW2 2256   4.711   6.336   2.979
  453SOL     OW 2257   3.860   0.624   0.160
  453SOL    HW1 2258   3.838   0.528   0.176
  453SOL    HW2 2259   3.856   0.644   0.062
  454SOL     OW 2260   0.458   4.466   6.596
  454SOL    HW1 2261   0.459   4.565   6.577
  454SOL    HW2 2262   0.397   4.421   6.531
  455SOL     OW 2263   6.425   4.449   6.199
  455SOL    HW1 2264   6.457   4.544   6.205
  455SOL    HW2 2265   6.334   4.448   6.156
  456SOL     OW 2266   2.562   0.939   2.326
  456SOL    HW1 2267   2.508   0.961   2.244
  456SOL    HW2 2268   2.512   0.873   2.381
  457SOL     OW 2269   2.376   0.096   6.296
  457SOL    HW1 2270   2.281   0.125   6.285
  457SOL    HW2 2271   2.400   0.097   6.393
  458SOL     OW 2272   1.953   1.326   3.503
  458SOL    HW1 2273   1.990   1.400   3.447
  458SOL    HW2 2274   1.917   1.254   3.443
  459SOL     OW 2275   2.479   0.332   4.628
  459SOL    HW1 2276   2.534   0.370   4.554
  459SOL    HW2 2277   2.540   0.300   4.701
  460SOL     OW 2278   1.272   1.789   4.895
  460SOL    HW1 2279   1.261   1.690   4.905
  460SOL    HW2 2280   1.329   1.808   4.815
  461SOL     OW 2281   0.909   5.360   5.793
  461SOL    HW1 2282   0.986   5.423   5.784
  461SOL    HW2 2283   0.943   5.266   5.794
  462SOL     OW 2284   3.121   4.057   4.413
  462SOL    HW1 2285   3.083   3.993   4.479
  462SOL    HW2 2286   3.187   4.118   4.459
  463SOL     OW 2287   5.853   6.914   2.303
  463SOL    HW1 2288   5.766   6.889   2.344
  463SOL    HW2 2289   5.919   6.936   2.375
  464SOL     OW 2290   3.915   6.253   6.614
  464SOL    HW1 2291   3.819   6.225   6.611
  464SOL    HW2 2292   3.924   6.345   6.575
  465SOL     OW 2293   1.604   3.026   0.013
  465SOL    HW1 2294   1.547   3.005   0.092
  465SOL    HW2 2295   1.649   3.114   0.026
  466SOL     OW 2296   3.941   5.725   4.684
  466SOL    HW1 2297   4.029   5.738   4.638
  466SOL    HW2 2298   3.918   5.628   4.686
  467SOL     OW 2299   6.224   0.529   1.841
  467SOL    HW1 2300   6.179   0.462   1.901
  467SOL    HW2 2301   6.260   0.483   1.761
  468SOL     OW 2302   4.026   6.948   0.100
  468SOL    HW1 2303   4.101   6.977   0.039
  468SOL    HW2 2304   4.041   6.854   0.129
  469SOL     OW 2305   2.533   5.125   5.508
  469SOL    HW1 2306   2.544   5.088   5.600
  469SOL    HW2 2307   2.573   5.062   5.441
  470SOL     OW 2308   2.430   4.897   3.125
  470SOL    HW1 2309   2.369   4.904   3.203
  470SOL    HW2 2310   2.520   4.865   3.155
  471SOL     OW 2311   2.619   2.515   4.321
  471SOL    HW1 2312   2.663   2.465   4.396
  471SOL    HW2 2313   2.554   2.581   4.358
  472SOL     OW 2314   6.525   4.195   6.266
  472SOL    HW1 2315   6.464   4.272   6.253
  472SOL    HW2 2316   6.475   4.119   6.307
  473SOL     OW 2317   6.745   2.869   2.761
  473SOL    HW1 2318   6.821   2.922   2.725
  473SOL    HW2 2319   6.780   2.796   2.820
  474SOL     OW 2320   5.036   5.850   4.313
  474SOL    HW1 2321   5.077   5.925   4.364
  474SOL    HW2 2322   5.063   5.763   4.355
  475SOL     OW 2323   5.898   1.277   1.298
  475SOL    HW1 2324   5.837   1.300   1.374
  475SOL    HW2 2325   5.992   1.267   1.332
  476SOL     OW 2326   0.557   4.932   1.116
  476SOL    HW1 2327   0.467   4.895   1.094
  476SOL    HW2 2328   0.553   4.977   1.205
  477SOL     OW 2329   1.105   4.370   3.645
  477SOL    HW1 2330   1.140   4.461   3.624
  477SOL    HW2 2331   1.011   4.362   3.612
  478SOL     OW 2332   4.694   5.686   1.678
  478SOL    HW1 2333   4.793   5.695   1.683
  478SOL    HW2 2334   4.651   5.772   1.706
  479SOL     OW 2335   3.883   3.821   4.273
  479SOL    HW1 2336   3.810   3.888   4.262
  479SOL    HW2 2337   3.848   3.730   4.248
  480SOL     OW 2338   2.246   0.105   2.815
  480SOL    HW1 2339   2.236   0.049   2.897
  480SOL    HW2 2340   2.188   0.186   2.823
  481SOL     OW 2341   0.417   6.887   0.704
  481SOL    HW1 2342   0.375   6.833   0.632
  481SOL    HW2 2343   0.480   6.953   0.663
  482SOL     OW 2344   4.657   5.232   1.510
  482SOL    HW1 2345   4.644   5.139   1.544
  482SOL    HW2 2346   4.736   5.234   1.448
  483SOL     OW 2347   5.354   2.244   3.146
  483SOL    HW1 2348   5.373   2.146   3.133
  483SOL    HW2 2349   5.428   2.286   3.197
  484SOL     OW 2350   2.263   4.158   4.466
  484SOL    HW1 2351   2.261   4.058   4.457
  484SOL    HW2 2352   2.279   4.199   4.377
  485SOL     OW 2353   5.124   3.158   1.836
  485SOL    HW1 2354   5.053   3.088   1.840
  485SOL    HW2 2355   5.192   3.140   1.907
  486SOL     OW 2356   5.705   6.165   5.963
  486SOL    HW1 2357   5.785   6.184   5.906
  486SOL    HW2 2358   5.734   6.121   6.048
  487SOL     OW 2359   0.095   6.822   5.018
  487SOL    HW1 2360   0.185   6.847   4.982
  487SOL    HW2 2361   0.100   6.731   5.058
  488SOL     OW 2362   1.318   6.033   3.613
  488SOL    HW1 2363   1.360   6.012   3.524
  488SOL    HW2 2364   1.374   5.994   3.686
  489SOL     OW 2365   0.929   5.729   5.786
  489SOL    HW1 2366   0.860   5.720   5.715
  489SOL    HW2 2367   1.003   5.663   5.770
  490SOL     OW 2368   1.377   4.796   5.643
  490SOL    HW1 2369   1.329   4.883   5.657
  490SOL    HW2 2370   1.345   4.729   5.711
  491SOL     OW 2371   0.123   2.819   0.799
  491SOL    HW1 2372   0.119   2.735   0.853
  491SOL    HW2 2373   0.218   2.845   0.783
  492SOL     OW 2374   1.462   1.889   5.927
  492SOL    HW1 2375   1.544   1.838   5.955
  492SOL    HW2 2376   1.447   1.876   5.829
  493SOL     OW 2377   2.146   5.987   4.647
  493SOL    HW1 2378   2.207   6.025   4.717
  493SOL    HW2 2379   2.130   5.890   4.666
  494SOL     OW 2380   2.397   6.656   5.253
  494SOL    HW1 2381   2.406   6.753   5.230
  494SOL    HW2 2382   2.376   6.603   5.171
  495SOL     OW 2383   3.813   5.289   5.776
  495SOL    HW1 2384   3.880   5.342   5.725
  495SOL    HW2 2385   3.857   5.208   5.816
  496SOL     OW 2386   5.124   1.612   2.652
  496SOL    HW1 2387   5.167   1.652   2.733
  496SOL    HW2 2388   5.051   1.673   2.620
  497SOL     OW 2389   3.180   0.993   6.994
  497SOL    HW1 2390   3.235   0.997   0.057
  497SOL    HW2 2391   3.190   1.078   6.943
  498SOL     OW 2392   0.386   5.930   1.652
  498SOL    HW1 2393   0.484   5.913   1.642
  498SOL    HW2 2394   0.342   5.929   1.562
  499SOL     OW 2395   3.416   5.932   6.848
  499SOL    HW1 2396   3.384   5.967   6.937
  499SOL    HW2 2397   3.363   5.974   6.775
  500SOL     OW 2398   5.533   1.940   6.985
  500SOL    HW1 2399   5.520   1.848   6.947
  500SOL    HW2 2400   5.505   1.940   0.060
  501SOL     OW 2401   1.111   0.238   2.933
  501SOL    HW1 2402   1.056   0.312   2.895
  501SOL    HW2 2403   1.053   0.177   2.986
  502SOL     OW 2404   1.917   5.254   6.585
  502SOL    HW1 2405   1.876   5.208   6.506
  502SOL    HW2 2406   1.878   5.216   6.669
  503SOL     OW 2407   3.746   4.783   6.609
  503SOL    HW1 2408   3.808   4.777   6.531
  503SOL    HW2 2409   3.797   4.812   6.690
  504SOL     OW 2410   6.205   6.648   2.108
  504SOL    HW1 2411   6.191   6.572   2.171
  504SOL    HW2 2412   6.200   6.615   2.014
  505SOL     OW 2413   4.969   6.651   4.810
  505SOL    HW1 2414   4.971   6.652   4.910
  505SOL    HW2 2415   4.963   6.556   4.778
  506SOL     OW 2416   3.796   5.166   3.267
  506SOL    HW1 2417   3.853   5.140   3.189
  506SOL    HW2 2418   3.700   5.142   3.248
  507SOL     OW 2419   3.440   0.496   0.632
  507SOL    HW1 2420   3.352   0.449   0.630
  507SOL    HW2 2421   3.513   0.428   0.627
  508SOL     OW 2422   6.747   5.085   4.064
  508SOL    HW1 2423   6.789   5.089   4.155
  508SOL    HW2 2424   6.716   4.991   4.046
  509SOL     OW 2425   4.545   6.598   5.584
  509SOL    HW1 2426   4.571   6.575   5.678
  509SOL    HW2 2427   4.622   6.642   5.538
  510SOL     OW 2428   6.944   3.815   6.841
  510SOL    HW1 2429   0.015   3.775   6.831
  510SOL    HW2 2430   6.897   3.813   6.752
  511SOL     OW 2431   1.052   1.574   0.722
  511SOL    HW1 2432   1.020   1.668   0.710
  511SOL    HW2 2433   1.062   1.554   0.820
  512SOL     OW 2434   6.743   2.602   6.395
  512SOL    HW1 2435   6.687   2.520   6.403
  512SOL    HW2 2436   6.721   2.649   6.310
  513SOL     OW 2437   5.377   0.556   2.519
  513SOL    HW1 2438   5.396   0.654   2.510
  513SOL    HW2 2439   5.462   0.505   2.514
  514SOL     OW 2440   6.179   6.729   4.057
  514SOL    HW1 2441   6.105   6.773   4.006
  514SOL    HW2 2442   6.144   6.647   4.103
  515SOL     OW 2443   3.834   6.959   6.870
  515SOL    HW1 2444   3.864   0.015   6.926
  515SOL    HW2 2445   3.861   6.975   6.775
  516SOL     OW 2446   2.010   5.498   1.561
  516SOL    HW1 2447   1.924   5.524   1.605
  516SOL    HW2 2448   2.073   5.462   1.629
  517SOL     OW 2449   3.190   5.408   2.201
  517SOL    HW1 2450   3.160   5.313   2.185
  517SOL    HW2 2451   3.217   5.418   2.297
  518SOL     OW 2452   2.088   3.545   3.502
  518SOL    HW1 2453   2.167   3.504   3.457
  518SOL    HW2 2454   2.091   3.525   3.600
  519SOL     OW 2455   0.364   6.921   3.696
  519SOL    HW1 2456   0.375   6.847   3.630
  519SOL    HW2 2457   0.453   6.944   3.736
  520SOL     OW 2458   1.442   3.015   0.230
  520SOL    HW1 2459   1.451   3.082   0.303
  520SOL    HW2 2460   1.346   2.987   0.221
  521SOL     OW 2461   5.223   5.225   5.387
  521SOL    HW1 2462   5.171   5.275   5.318
  521SOL    HW2 2463   5.313   5.267   5.397
  522SOL     OW 2464   4.057   3.971   1.488
  522SOL    HW1 2465   3.996   3.895   1.467
  522SOL    HW2 2466   4.076   3.972   1.586
  523SOL     OW 2467   0.280   6.396   1.936
  523SOL    HW1 2468   0.264   6.304   1.900
  523SOL    HW2 2469   0.371   6.401   1.976
  524SOL     OW 2470   7.004   1.906   1.669
  524SOL    HW1 2471   0.057   1.847   1.635
  524SOL    HW2 2472   7.017   1.923   1.767
  525SOL     OW 2473   1.683   3.979   6.544
  525SOL    HW1 2474   1.777   4.012   6.540
  525SOL    HW2 2475   1.682   3.888   6.586
  526SOL     OW 2476   2.998   6.835   4.724
  526SOL    HW1 2477   3.020   6.920   4.676
  526SOL    HW2 2478   3.066   6.818   4.795
  527SOL     OW 2479   1.087   1.643   0.318
  527SOL    HW1 2480   1.023   1.581   0.363
  527SOL    HW2 2481   1.165   1.661   0.378
  528SOL     OW 2482   6.545   3.176   4.149
  528SOL    HW1 2483   6.603   3.122   4.088
  528SOL    HW2 2484   6.481   3.115   4.196
  529SOL     OW 2485   1.901   0.302   6.071
  529SOL    HW1 2486   1.990   0.326   6.110
  529SOL    HW2 2487   1.832   0.367   6.102
  530SOL     OW 2488   3.472   3.756   0.943
  530SOL    HW1 2489   3.507   3.664   0.928
  530SOL    HW2 2490   3.388   3.752   0.998
  531SOL     OW 2491   2.037   0.492   1.648
  531SOL    HW1 2492   1.967   0.562   1.662
  531SOL    HW2 2493   2.124   0.535   1.625
  532SOL     OW 2494   3.095   2.505   0.546
  532SOL    HW1 2495   3.049   2.531   0.631
  532SOL    HW2 2496   3.032   2.516   0.470
  533SOL     OW 2497   3.736   0.395   4.142
  533SOL    HW1 2498   3.775   0.427   4.056
  533SOL    HW2 2499   3.650   0.347   4.124
  534SOL     OW 2500   1.266   5.085   1.554
  534SOL    HW1 2501   1.186   5.122   1.602
  534SOL    HW2 2502   1.335   5.057   1.621
  535SOL     OW 2503   5.418   3.572   3.739
  535SOL    HW1 2504   5.432   3.518   3.656
  535SOL    HW2 2505   5.326   3.610   3.740
  536SOL     OW 2506   6.308   6.256   2.999
  536SOL    HW1 2507   6.274   6.210   2.917
  536SOL    HW2 2508   6.252   6.336   3.018
  537SOL     OW 2509   3.591   0.958   4.712
  537SOL    HW1 2510   3.586   0.988   4.617
  537SOL    HW2 2511   3.546   1.025   4.771
  538SOL     OW 2512   2.595   4.687   5.615
  538SOL    HW1 2513   2.644   4.730   5.539
  538SOL    HW2 2514   2.564   4.596   5.587
  539SOL     OW 2515   0.937   6.250   0.377
  539SOL    HW1 2516   0.866   6.297   0.431
  539SOL    HW2 2517   0.962   6.307   0.299
  540SOL     OW 2518   0.968   0.464   3.976
  540SOL    HW1 2519   1.054   0.428   4.011
  540SOL    HW2 2520   0.967   0.564   3.987
  541SOL     OW 2521   4.151   6.318   4.442
  541SOL    HW1 2522   4.213   6.306   4.520
  541SOL    HW2 2523   4.116   6.412   4.442
  542SOL     OW 2524   2.894   6.417   6.768
  542SOL    HW1 2525   2.857   6.379   6.853
  542SOL    HW2 2526   2.905   6.344   6.700
  543SOL     OW 2527   5.265   2.246   4.385
  543SOL    HW1 2528   5.337   2.213   4.447
  543SOL    HW2 2529   5.272   2.345   4.375
  544SOL     OW 2530   0.835   4.319   0.910
  544SOL    HW1 2531   0.894   4.340   0.987
  544SOL    HW2 2532   0.775   4.396   0.890
  545SOL     OW 2533   5.524   1.157   1.713
  545SOL    HW1 2534   5.533   1.253   1.686
  545SOL    HW2 2535   5.427   1.135   1.728
  546SOL     OW 2536   0.771   3.868   2.426
  546SOL    HW1 2537   0.793   3.955   2.469
  546SOL    HW2 2538   0.771   3.796   2.495
  547SOL     OW 2539   4.794   1.542   6.871
  547SOL    HW1 2540   4.854   1.462   6.873
  547SOL    HW2 2541   4.704   1.517   6.908
  548SOL     OW 2542   3.439   2.859   6.975
  548SOL    HW1 2543   3.488   2.805   0.023
  548SOL    HW2 2544   3.405   2.797   6.903
  549SOL     OW 2545   6.035   2.124   1.124
  549SOL    HW1 2546   6.065   2.193   1.190
  549SOL    HW2 2547   6.030   2.035   1.169
  550SOL     OW 2548   0.336   4.812   3.379
  550SOL    HW1 2549   0.338   4.765   3.291
  550SOL    HW2 2550   0.294   4.752   3.448
  551SOL     OW 2551   6.912   0.856   0.510
  551SOL    HW1 2552   6.853   0.902   0.444
  551SOL    HW2 2553   6.946   0.771   0.470
  552SOL     OW 2554   5.774   5.676   6.024
  552SOL    HW1 2555   5.731   5.766   6.031
  552SOL    HW2 2556   5.825   5.670   5.938
  553SOL     OW 2557   3.329   1.353   5.591
  553SOL    HW1 2558   3.268   1.328   5.515
  553SOL    HW2 2559   3.410   1.295   5.589
  554SOL     OW 2560   6.002   5.616   0.530
  554SOL    HW1 2561   6.082   5.637   0.586
  554SOL    HW2 2562   5.932   5.686   0.543
  555SOL     OW 2563   2.266   5.231   5.388
  555SOL    HW1 2564   2.343   5.213   5.449
  555SOL    HW2 2565   2.205   5.297   5.431
  556SOL     OW 2566   4.749   1.511   3.657
  556SOL    HW1 2567   4.707   1.430   3.698
  556SOL    HW2 2568   4.713   1.525   3.565
  557SOL     OW 2569   6.342   4.474   5.914
  557SOL    HW1 2570   6.409   4.526   5.861
  557SOL    HW2 2571   6.338   4.380   5.882
  558SOL     OW 2572   3.477   3.762   2.546
  558SOL    HW1 2573   3.546   3.821   2.588
  558SOL    HW2 2574   3.474   3.675   2.594
  559SOL     OW 2575   6.413   6.205   5.586
  559SOL    HW1 2576   6.451   6.232   5.674
  559SOL    HW2 2577   6.313   6.211   5.590
  560SOL     OW 2578   6.561   3.250   3.071
  560SOL    HW1 2579   6.487   3.286   3.014
  560SOL    HW2 2580   6.540   3.267   3.167
  561SOL     OW 2581   0.675   2.957   6.366
  561SOL    HW1 2582   0.683   2.896   6.445
  561SOL    HW2 2583   0.734   3.037   6.379
  562SOL     OW 2584   4.154   0.660   5.745
  562SOL    HW1 2585   4.120   0.669   5.652
  562SOL    HW2 2586   4.217   0.582   5.751
  563SOL     OW 2587   1.287   2.111   4.377
  563SOL    HW1 2588   1.361   2.118   4.444
  563SOL    HW2 2589   1.201   2.142   4.419
  564SOL     OW 2590   0.185   2.064   4.807
  564SOL    HW1 2591   0.172   2.043   4.904
  564SOL    HW2 2592   0.264   2.015   4.772
  565SOL     OW 2593   3.379   3.168   3.370
  565SOL    HW1 2594   3.421   3.202   3.286
  565SOL    HW2 2595   3.323   3.240   3.411
  566SOL     OW 2596   3.331   5.750   3.055
  566SOL    HW1 2597   3.363   5.812   3.127
  566SOL    HW2 2598   3.349   5.790   2.966
  567SOL     OW 2599   2.109   2.437   6.483
  567SOL    HW1 2600   2.198   2.440   6.438
  567SOL    HW2 2601   2.118   2.470   6.577
  568SOL     OW 2602   6.563   0.329   0.845
  568SOL    HW1 2603   6.522   0.418   0.827
  568SOL    HW2 2604   6.648   0.341   0.896
  569SOL     OW 2605   0.135   1.827   0.549
  569SOL    HW1 2606   0.183   1.780   0.475
  569SOL    HW2 2607   0.166   1.791   0.637
  570SOL     OW 2608   2.824   0.207   5.993
  570SOL    HW1 2609   2.918   0.179   5.977
  570SOL    HW2 2610   2.807   0.295   5.949
  571SOL     OW 2611   2.951   4.924   3.208
  571SOL    HW1 2612   2.963   4.920   3.109
  571SOL    HW2 2613   2.891   5.001   3.231
  572SOL     OW 2614   2.318   6.611   4.004
  572SOL    HW1 2615   2.257   6.691   4.010
  572SOL    HW2 2616   2.385   6.615   4.079
  573SOL     OW 2617   5.960   2.221   5.627
  573SOL    HW1 2618   5.957   2.247   5.724
  573SOL    HW2 2619   5.996   2.128   5.618
  574SOL     OW 2620   2.648   1.893   5.235
  574SOL    HW1 2621   2.701   1.808   5.231
  574SOL    HW2 2622   2.556   1.873   5.269
  575SOL     OW 2623   3.335   3.626   6.818
  575SOL    HW1 2624   3.298   3.601   6.908
  575SOL    HW2 2625   3.261   3.631   6.752
  576SOL     OW 2626   1.789   3.255   2.804
  576SOL    HW1 2627   1.716   3.201   2.846
  576SOL    HW2 2628   1.874   3.243   2.856
  577SOL     OW 2629   1.094   1.465   2.196
  577SOL    HW1 2630   1.140   1.531   2.136
  577SOL    HW2 2631   1.154   1.444   2.273
  578SOL     OW 2632   1.960   5.616   6.895
  578SOL    HW1 2633   1.926   5.697   6.847
  578SOL    HW2 2634   1.992   5.642   6.986
  579SOL     OW 2635   2.569   4.547   2.524
  579SOL    HW1 2636   2.546   4.537   2.427
  579SOL    HW2 2637   2.629   4.626   2.536
  580SOL     OW 2638   4.365   5.521   5.141
  580SOL    HW1 2639   4.464   5.513   5.134
  580SOL    HW2 2640   4.341   5.591   5.208
  581SOL     OW 2641   0.928   2.891   3.776
  581SOL    HW1 2642   0.916   2.801   3.734
  581SOL    HW2 2643   0.854   2.908   3.840
  582SOL     OW 2644   5.679   5.189   3.405
  582SOL    HW1 2645   5.708   5.213   3.497
  582SOL    HW2 2646   5.659   5.091   3.400
  583SOL     OW 2647   3.414   5.022   6.156
  583SOL    HW1 2648   3.396   4.970   6.239
  583SOL    HW2 2649   3.361   4.983   6.080
  584SOL     OW 2650   3.805   0.639   6.913
  584SOL    HW1 2651   3.773   0.555   6.868
  584SOL    HW2 2652   3.795   0.716   6.850
  585SOL     OW 2653   2.548   6.330   2.088
  585SOL    HW1 2654   2.509   6.267   2.154
  585SOL    HW2 2655   2.475   6.372   2.034
  586SOL     OW 2656   3.978   0.475   1.180
  586SOL    HW1 2657   3.940   0.559   1.219
  586SOL    HW2 2658   3.950   0.397   1.236
  587SOL     OW 2659   5.095   1.926   1.671
  587SOL    HW1 2660   4.998   1.902   1.675
  587SOL    HW2 2661   5.133   1.931   1.763
  588SOL     OW 2662   0.938   5.376   1.913
  588SOL    HW1 2663   1.013   5.333   1.964
  588SOL    HW2 2664   0.944   5.350   1.817
  589SOL     OW 2665   3.533   5.754   1.544
  589SOL    HW1 2666   3.463   5.685   1.528
  589SOL    HW2 2667   3.609   5.713   1.594
  590SOL     OW 2668   5.311   1.341   0.874
  590SOL    HW1 2669   5.220   1.358   0.912
  590SOL    HW2 2670   5.308   1.260   0.816
  591SOL     OW 2671   4.440   5.532   4.336
  591SOL    HW1 2672   4.384   5.614   4.338
  591SOL    HW2 2673   4.473   5.517   4.243
  592SOL     OW 2674   4.481   1.937   4.706
  592SOL    HW1 2675   4.457   1.867   4.639
  592SOL    HW2 2676   4.413   2.010   4.704
  593SOL     OW 2677   3.548   1.802   5.412
  593SOL    HW1 2678   3.562   1.723   5.472
  593SOL    HW2 2679   3.460   1.845   5.432
  594SOL     OW 2680   5.868   1.387   1.796
  594SOL    HW1 2681   5.860   1.479   1.759
  594SOL    HW2 2682   5.949   1.382   1.855
  595SOL     OW 2683   5.131   6.092   2.675
  595SOL    HW1 2684   5.039   6.054   2.681
  595SOL    HW2 2685   5.197   6.017   2.662
  596SOL     OW 2686   6.724   3.969   3.665
  596SOL    HW1 2687   6.797   3.938   3.605
  596SOL    HW2 2688   6.757   3.971   3.760
  597SOL     OW 2689   3.086   6.946   6.329
  597SOL    HW1 2690   3.165   6.886   6.339
  597SOL    HW2 2691   3.014   6.898   6.278
  598SOL     OW 2692   2.834   3.632   5.314
  598SOL    HW1 2693   2.825   3.566   5.239
  598SOL    HW2 2694   2.929   3.662   5.321
  599SOL     OW 2695   0.934   5.672   1.973
  599SOL    HW1 2696   0.949   5.583   1.929
  599SOL    HW2 2697   0.971   5.670   2.066
  600SOL     OW 2698   6.980   4.144   4.623
  600SOL    HW1 2699   6.885   4.171   4.605
  600SOL    HW2 2700   7.002   4.161   4.719
  601SOL     OW 2701   1.234   0.957   5.018
  601SOL    HW1 2702   1.145   0.915   4.998
  601SOL    HW2 2703   1.276   0.910   5.096
  602SOL     OW 2704   2.582   6.385   4.748
  602SOL    HW1 2705   2.636   6.425   4.822
  602SOL    HW2 2706   2.506   6.447   4.726
  603SOL     OW 2707   1.549   1.204   5.210
  603SOL    HW1 2708   1.549   1.135   5.137
  603SOL    HW2 2709   1.641   1.240   5.222
  604SOL     OW 2710   6.874   2.255   1.838
  604SOL    HW1 2711   6.974   2.253   1.840
  604SOL    HW2 2712   6.838   2.217   1.924
  605SOL     OW 2713   0.438   4.216   2.323
  605SOL    HW1 2714   0.367   4.285   2.333
  605SOL    HW2 2715   0.397   4.131   2.289
  606SOL     OW 2716   3.483   7.018   4.974
  606SOL    HW1 2717   3.516   6.966   4.896
  606SOL    HW2 2718   3.551   7.015   5.048
  607SOL     OW 2719   1.202   4.592   5.761
  607SOL    HW1 2720   1.200   4.500   5.720
  607SOL    HW2 2721   1.230   4.585   5.857
  608SOL     OW 2722   3.980   0.226   5.848
  608SOL    HW1 2723   4.051   0.164   5.882
  608SOL    HW2 2724   4.012   0.320   5.855
  609SOL     OW 2725   3.876   2.470   1.416
  609SOL    HW1 2726   3.800   2.535   1.428
  609SOL    HW2 2727   3.898   2.429   1.504
  610SOL     OW 2728   4.390   2.940   0.637
  610SOL    HW1 2729   4.361   2.921   0.543
  610SOL    HW2 2730   4.317   2.916   0.700
  611SOL     OW 2731   3.874   0.469   2.540
  611SOL    HW1 2732   3.960   0.519   2.530
  611SOL    HW2 2733   3.829   0.461   2.451
  612SOL     OW 2734   3.722   4.852   5.982
  612SOL    HW1 2735   3.671   4.774   6.020
  612SOL    HW2 2736   3.668   4.894   5.909
  613SOL     OW 2737   5.026   5.922   5.562
  613SOL    HW1 2738   4.999   5.868   5.642
  613SOL    HW2 2739   5.113   5.969   5.582
  614SOL     OW 2740   4.984   5.807   5.789
  614SOL    HW1 2741   5.008   5.861   5.870
  614SOL    HW2 2742   4.929   5.728   5.817
  615SOL     OW 2743   0.314   4.480   1.013
  615SOL    HW1 2744   0.261   4.495   0.930
  615SOL    HW2 2745   0.399   4.532   1.009
  616SOL     OW 2746   6.161   2.817   3.534
  616SOL    HW1 2747   6.232   2.761   3.578
  616SOL    HW2 2748   6.197   2.857   3.450
  617SOL     OW 2749   2.672   5.155   6.084
  617SOL    HW1 2750   2.660   5.056   6.096
  617SOL    HW2 2751   2.764   5.181   6.114
  618SOL     OW 2752   1.098   1.380   1.647
  618SOL    HW1 2753   1.061   1.304   1.700
  618SOL    HW2 2754   1.193   1.361   1.622
  619SOL     OW 2755   1.844   1.869   6.319
  619SOL    HW1 2756   1.810   1.944   6.263
  619SOL    HW2 2757   1.776   1.846   6.389
  620SOL     OW 2758   4.784   2.657   0.454
  620SOL    HW1 2759   4.851   2.627   0.387
  620SOL    HW2 2760   4.692   2.634   0.422
  621SOL     OW 2761   6.770   4.743   0.229
  621SOL    HW1 2762   6.769   4.759   0.130
  621SOL    HW2 2763   6.850   4.688   0.253
  622SOL     OW 2764   1.790   1.503   0.302
  622SOL    HW1 2765   1.729   1.572   0.341
  622SOL    HW2 2766   1.764   1.485   0.207
  623SOL     OW 2767   0.996   4.902   6.313
  623SOL    HW1 2768   0.986   4.868   6.219
  623SOL    HW2 2769   1.093   4.919   6.331
  624SOL     OW 2770   0.648   2.800   2.508
  624SOL    HW1 2771   0.614   2.754   2.590
  624SOL    HW2 2772   0.570   2.836   2.455
  625SOL     OW 2773   2.629   1.257   2.782
  625SOL    HW1 2774   2.580   1.256   2.695
  625SOL    HW2 2775   2.663   1.349   2.801
  626SOL     OW 2776   2.104   6.672   3.613
  626SOL    HW1 2777   2.192   6.668   3.661
  626SOL    HW2 2778   2.121   6.682   3.515
  627SOL     OW 2779   5.289   0.948   0.240
  627SOL    HW1 2780   5.192   0.942   0.263
  627SOL    HW2 2781   5.310   0.885   0.165
  628SOL     OW 2782   4.895   4.490   4.087
  628SOL    HW1 2783   4.959   4.540   4.145
  628SOL    HW2 2784   4.931   4.398   4.070
  629SOL     OW 2785   0.409   6.907   1.444
  629SOL    HW1 2786   0.385   6.954   1.529
  629SOL    HW2 2787   0.493   6.946   1.406
  630SOL     OW 2788   4.683   1.306   1.769
  630SOL    HW1 2789   4.591   1.334   1.796
  630SOL    HW2 2790   4.738   1.386   1.749
  631SOL     OW 2791   2.317   0.202   5.629
  631SOL    HW1 2792   2.227   0.161   5.641
  631SOL    HW2 2793   2.384   0.131   5.607
  632SOL     OW 2794   2.304   0.990   0.559
  632SOL    HW1 2795   2.354   1.063   0.605
  632SOL    HW2 2796   2.208   1.017   0.548
  633SOL     OW 2797   3.322   6.269   0.218
  633SOL    HW1 2798   3.402   6.301   0.269
  633SOL    HW2 2799   3.240   6.282   0.273
  634SOL     OW 2800   4.291   5.597   1.218
  634SOL    HW1 2801   4.311   5.538   1.297
  634SOL    HW2 2802   4.330   5.688   1.235
  635SOL     OW 2803   2.976   0.193   2.935
  635SOL    HW1 2804   2.928   0.265   2.986
  635SOL    HW2 2805   3.030   0.137   2.998
  636SOL     OW 2806   5.270   5.079   6.652
  636SOL    HW1 2807   5.351   5.061   6.709
  636SOL    HW2 2808   5.297   5.079   6.556
  637SOL     OW 2809   4.809   4.789   1.132
  637SOL    HW1 2810   4.711   4.795   1.150
  637SOL    HW2 2811   4.827   4.716   1.066
  638SOL     OW 2812   5.299   1.364   1.527
  638SOL    HW1 2813   5.270   1.437   1.465
  638SOL    HW2 2814   5.283   1.275   1.483
  639SOL     OW 2815   4.274   4.713   1.874
  639SOL    HW1 2816   4.320   4.688   1.959
  639SOL    HW2 2817   4.270   4.634   1.813
  640SOL     OW 2818   2.743   3.873   5.646
  640SOL    HW1 2819   2.666   3.903   5.703
  640SOL    HW2 2820   2.714   3.869   5.550
  641SOL     OW 2821   0.271   5.580   5.109
  641SOL    HW1 2822   0.339   5.545   5.174
  641SOL    HW2 2823   0.291   5.544   5.018
  642SOL     OW 2824   0.456   5.079   4.869
  642SOL    HW1 2825   0.434   5.062   4.773
  642SOL    HW2 2826   0.554   5.064   4.884
  643SOL     OW 2827   6.319   5.395   5.868
  643SOL    HW1 2828   6.352   5.462   5.934
  643SOL    HW2 2829   6.247   5.340   5.911
  644SOL     OW 2830   1.176   6.519   2.815
  644SOL    HW1 2831   1.126   6.432   2.823
  644SOL    HW2 2832   1.211   6.545   2.905
  645SOL     OW 2833   4.945   2.600   4.160
  645SOL    HW1 2834   4.994   2.682   4.189
  645SOL    HW2 2835   4.848   2.623   4.145
  646SOL     OW 2836   0.978   0.946   4.249
  646SOL    HW1 2837   1.041   1.023   4.236
  646SOL    HW2 2838   0.964   0.931   4.347
  647SOL     OW 2839   6.201   2.573   6.901
  647SOL    HW1 2840   6.201   2.656   6.956
  647SOL    HW2 2841   6.267   2.582   6.827
  648SOL     OW 2842   5.920   3.875   2.076
  648SOL    HW1 2843   5.914   3.844   2.170
  648SOL    HW2 2844   5.846   3.939   2.057
  649SOL     OW 2845   3.767   4.899   1.140
  649SOL    HW1 2846   3.749   4.994   1.113
  649SOL    HW2 2847   3.803   4.849   1.061
  650SOL     OW 2848   4.854   4.112   0.721
  650SOL    HW1 2849   4.819   4.165   0.645
  650SOL    HW2 2850   4.818   4.149   0.807
  651SOL     OW 2851   0.693   6.429   1.311
  651SOL    HW1 2852   0.729   6.422   1.404
  651SOL    HW2 2853   0.599   6.462   1.313
  652SOL     OW 2854   4.676   0.666   2.717
  652SOL    HW1 2855   4.741   0.713   2.776
  652SOL    HW2 2856   4.592   0.718   2.711
  653SOL     OW 2857   3.417   5.223   4.152
  653SOL    HW1 2858   3.413   5.123   4.159
  653SOL    HW2 2859   3.512   5.252   4.147
  654SOL     OW 2860   6.974   5.096   7.000
  654SOL    HW1 2861   0.041   5.062   0.015
  654SOL    HW2 2862   6.989   5.185   6.955
  655SOL     OW 2863   0.440   0.319   1.202
  655SOL    HW1 2864   0.534   0.288   1.184
  655SOL    HW2 2865   0.432   0.348   1.297
  656SOL     OW 2866   2.386   6.069   1.929
  656SOL    HW1 2867   2.351   6.137   1.994
  656SOL    HW2 2868   2.382   5.978   1.970
  657SOL     OW 2869   2.868   1.306   0.538
  657SOL    HW1 2870   2.930   1.267   0.606
  657SOL    HW2 2871   2.921   1.353   0.467
  658SOL     OW 2872   3.458   4.024   6.818
  658SOL    HW1 2873   3.513   3.997   6.897
  658SOL    HW2 2874   3.500   4.103   6.774
  659SOL     OW 2875   3.071   6.502   0.205
  659SOL    HW1 2876   3.083   6.413   0.161
  659SOL    HW2 2877   2.991   6.548   0.166
  660SOL     OW 2878   3.789   5.900   2.494
  660SOL    HW1 2879   3.841   5.978   2.532
  660SOL    HW2 2880   3.750   5.926   2.406
  661SOL     OW 2881   4.459   5.978   2.862
  661SOL    HW1 2882   4.447   5.955   2.958
  661SOL    HW2 2883   4.541   6.035   2.852
  662SOL     OW 2884   3.358   1.432   5.866
  662SOL    HW1 2885   3.278   1.378   5.838
  662SOL    HW2 2886   3.351   1.524   5.827
  663SOL     OW 2887   2.211   5.203   4.855
  663SOL    HW1 2888   2.271   5.152   4.917
  663SOL    HW2 2889   2.193   5.149   4.773
  664SOL     OW 2890   0.225   0.229   6.675
  664SOL    HW1 2891   0.197   0.133   6.675
  664SOL    HW2 2892   0.324   0.235   6.693
  665SOL     OW 2893   2.914   5.677   3.700
  665SOL    HW1 2894   2.873   5.586   3.707
  665SOL    HW2 2895   2.846   5.743   3.668
  666SOL     OW 2896   3.918   0.676   2.279
  666SOL    HW1 2897   3.900   0.774   2.283
  666SOL    HW2 2898   3.989   0.652   2.346
  667SOL     OW 2899   0.611   5.658   1.934
  667SOL    HW1 2900   0.706   5.628   1.942
  667SOL    HW2 2901   0.550   5.578   1.934
  668SOL     OW 2902   5.706   4.445   6.152
  668SOL    HW1 2903   5.753   4.363   6.118
  668SOL    HW2 2904   5.608   4.437   6.133
  669SOL     OW 2905   6.139   1.441   2.981
  669SOL    HW1 2906   6.059   1.387   3.006
  669SOL    HW2 2907   6.204   1.384   2.931
  670SOL     OW 2908   1.743   1.693   3.643
  670SOL    HW1 2909   1.739   1.751   3.725
  670SOL    HW2 2910   1.832   1.703   3.599
  671SOL     OW 2911   2.321   6.509   1.755
  671SOL    HW1 2912   2.265   6.477   1.679
  671SOL    HW2 2913   2.294   6.601   1.781
  672SOL     OW 2914   0.285   6.136   1.825
  672SOL    HW1 2915   0.300   6.051   1.775
  672SOL    HW2 2916   0.194   6.172   1.804
  673SOL     OW 2917   5.574   6.659   0.971
  673SOL    HW1 2918   5.643   6.719   1.009
  673SOL    HW2 2919   5.618   6.580   0.928
  674SOL     OW 2920   6.949   1.524   5.060
  674SOL    HW1 2921   6.973   1.555   4.969
  674SOL    HW2 2922   7.005   1.444   5.084
  675SOL     OW 2923   5.687   2.108   1.833
  675SOL    HW1 2924   5.769   2.052   1.848
  675SOL    HW2 2925   5.643   2.080   1.747
  676SOL     OW 2926   2.428   4.826   4.914
  676SOL    HW1 2927   2.358   4.814   4.984
  676SOL    HW2 2928   2.465   4.737   4.888
  677SOL     OW 2929   4.352   0.885   1.216
  677SOL    HW1 2930   4.362   0.822   1.139
  677SOL    HW2 2931   4.378   0.977   1.187
  678SOL     OW 2932   2.771   4.304   5.781
  678SOL    HW1 2933   2.864   4.334   5.805
  678SOL    HW2 2934   2.770   4.274   5.686
  679SOL     OW 2935   5.343   1.488   5.305
  679SOL    HW1 2936   5.406   1.417   5.335
  679SOL    HW2 2937   5.304   1.463   5.216
  680SOL     OW 2938   5.528   0.058   4.529
  680SOL    HW1 2939   5.570   0.145   4.505
  680SOL    HW2 2940   5.501   0.058   4.625
  681SOL     OW 2941   5.341   6.230   1.952
  681SOL    HW1 2942   5.299   6.293   2.018
  681SOL    HW2 2943   5.269   6.176   1.908
  682SOL     OW 2944   0.942   0.699   2.368
  682SOL    HW1 2945   0.883   0.776   2.342
  682SOL    HW2 2946   0.889   0.635   2.425
  683SOL     OW 2947   4.346   3.526   0.786
  683SOL    HW1 2948   4.364   3.573   0.872
  683SOL    HW2 2949   4.432   3.513   0.737
  684SOL     OW 2950   6.441   0.563   6.384
  684SOL    HW1 2951   6.507   0.638   6.390
  684SOL    HW2 2952   6.453   0.502   6.462
  685SOL     OW 2953   3.566   1.610   3.617
  685SOL    HW1 2954   3.635   1.602   3.689
  685SOL    HW2 2955   3.475   1.609   3.659
  686SOL     OW 2956   4.233   0.998   4.313
  686SOL    HW1 2957   4.187   0.916   4.280
  686SOL    HW2 2958   4.325   0.975   4.345
  687SOL     OW 2959   0.657   1.967   4.487
  687SOL    HW1 2960   0.563   1.933   4.483
  687SOL    HW2 2961   0.718   1.900   4.445
  688SOL     OW 2962   0.011   1.838   6.712
  688SOL    HW1 2963   6.942   1.807   6.679
  688SOL    HW2 2964   0.079   1.768   6.693
  689SOL     OW 2965   1.049   4.807   5.263
  689SOL    HW1 2966   1.122   4.756   5.310
  689SOL    HW2 2967   1.020   4.884   5.320
  690SOL     OW 2968   6.346   3.389   2.925
  690SOL    HW1 2969   6.326   3.440   2.841
  690SOL    HW2 2970   6.279   3.317   2.937
  691SOL     OW 2971   3.932   1.725   6.909
  691SOL    HW1 2972   4.002   1.771   6.855
  691SOL    HW2 2973   3.845   1.772   6.899
  692SOL     OW 2974   3.183   1.255   5.302
  692SOL    HW1 2975   3.149   1.178   5.356
  692SOL    HW2 2976   3.111   1.324   5.293
  693SOL     OW 2977   4.963   5.768   3.062
  693SOL    HW1 2978   4.979   5.756   3.160
  693SOL    HW2 2979   4.865   5.758   3.042
  694SOL     OW 2980   4.010   6.165   4.626
  694SOL    HW1 2981   3.996   6.244   4.685
  694SOL    HW2 2982   4.003   6.194   4.530
  695SOL     OW 2983   3.163   5.954   4.443
  695SOL    HW1 2984   3.118   5.990   4.362
  695SOL    HW2 2985   3.208   5.867   4.420
  696SOL     OW 2986   4.957   3.662   2.997
  696SOL    HW1 2987   5.052   3.674   3.025
  696SOL    HW2 2988   4.949   3.676   2.899
  697SOL     OW 2989   0.943   4.880   1.616
  697SOL    HW1 2990   0.903   4.919   1.699
  697SOL    HW2 2991   1.036   4.848   1.636
  698SOL     OW 2992   4.483   6.701   1.389
  698SOL    HW1 2993   4.444   6.793   1.379
  698SOL    HW2 2994   4.580   6.708   1.410
  699SOL     OW 2995   2.957   2.561   0.290
  699SOL    HW1 2996   3.002   2.650   0.275
  699SOL    HW2 2997   2.957   2.509   0.205
  700SOL     OW 2998   3.133   6.755   2.690
  700SOL    HW1 2999   3.153   6.690   2.763
  700SOL    HW2 3000   3.219   6.788   2.650
  701SOL     OW 3001   6.312   4.317   0.844
  701SOL    HW1 3002   6.322   4.393   0.907
  701SOL    HW2 3003   6.402   4.282   0.819
  702SOL     OW 3004   3.038   0.913   4.503
  702SOL    HW1 3005   3.082   0.831   4.542
  702SOL    HW2 3006   2.955   0.886   4.455
  703SOL     OW 3007   2.507   3.297   5.719
  703SOL    HW1 3008   2.582   3.310   5.653
  703SOL    HW2 3009   2.501   3.200   5.744
  704SOL     OW 3010   1.255   2.513   6.341
  704SOL    HW1 3011   1.243   2.576   6.264
  704SOL    HW2 3012   1.166   2.489   6.379
  705SOL     OW 3013   6.461   6.524   4.178
  705SOL    HW1 3014   6.559   6.547   4.184
  705SOL    HW2 3015   6.411   6.571   4.251
  706SOL     OW 3016   4.306   1.128   5.726
  706SOL    HW1 3017   4.360   1.211   5.712
  706SOL    HW2 3018   4.277   1.092   5.637
  707SOL     OW 3019   3.599   5.282   3.557
  707SOL    HW1 3020   3.630   5.321   3.644
  707SOL    HW2 3021   3.663   5.309   3.484
  708SOL     OW 3022   3.014   1.009   3.179
  708SOL    HW1 3023   3.076   1.079   3.144
  708SOL    HW2 3024   3.023   0.927   3.122
  709SOL     OW 3025   2.087   0.003   1.648
  709SOL    HW1 3026   2.061   6.967   1.727
  709SOL    HW2 3027   2.006   0.026   1.595
  710SOL     OW 3028   4.948   2.953   1.469
  710SOL    HW1 3029   4.878   3.002   1.521
  710SOL    HW2 3030   5.025   3.015   1.450
  711SOL     OW 3031   0.143   2.764   5.310
  711SOL    HW1 3032   0.057   2.801   5.345
  711SOL    HW2 3033   0.146   2.776   5.210
  712SOL     OW 3034   4.207   2.921   0.862
  712SOL    HW1 3035   4.295   2.925   0.909
  712SOL    HW2 3036   4.145   2.987   0.903
  713SOL     OW 3037   4.386   2.744   5.282
  713SOL    HW1 3038   4.364   2.735   5.379
  713SOL    HW2 3039   4.337   2.674   5.230
  714SOL     OW 3040   6.169   4.395   3.196
  714SOL    HW1 3041   6.085   4.408   3.143
  714SOL    HW2 3042   6.213   4.309   3.169
  715SOL     OW 3043   6.277   5.267   5.344
  715SOL    HW1 3044   6.237   5.270   5.436
  715SOL    HW2 3045   6.221   5.323   5.282
  716SOL     OW 3046   2.185   0.911   2.648
  716SOL    HW1 3047   2.086   0.902   2.662
  716SOL    HW2 3048   2.207   1.005   2.623
  717SOL     OW 3049   5.727   4.875   3.817
  717SOL    HW1 3050   5.719   4.957   3.875
  717SOL    HW2 3051   5.796   4.891   3.747
  718SOL     OW 3052   5.064   2.209   4.177
  718SOL    HW1 3053   5.032   2.286   4.122
  718SOL    HW2 3054   5.117   2.244   4.255
  719SOL     OW 3055   6.823   0.634   2.668
  719SOL    HW1 3056   6.792   0.568   2.599
  719SOL    HW2 3057   6.750   0.649   2.735
  720SOL     OW 3058   1.853   0.840   6.267
  720SOL    HW1 3059   1.915   0.790   6.328
  720SOL    HW2 3060   1.763   0.846   6.309
  721SOL     OW 3061   0.352   2.444   2.284
  721SOL    HW1 3062   0.385   2.350   2.269
  721SOL    HW2 3063   0.253   2.443   2.294
  722SOL     OW 3064   4.410   0.075   6.547
  722SOL    HW1 3065   4.384   0.089   6.451
  722SOL    HW2 3066   4.488   0.134   6.569
  723SOL     OW 3067   2.175   6.278   3.438
  723SOL    HW1 3068   2.143   6.308   3.527
  723SOL    HW2 3069   2.186   6.357   3.378
  724SOL     OW 3070   0.946   0.871   3.260
  724SOL    HW1 3071   0.873   0.887   3.193
  724SOL    HW2 3072   0.913   0.809   3.332
  725SOL     OW 3073   2.297   4.275   2.302
  725SOL    HW1 3074   2.295   4.351   2.367
  725SOL    HW2 3075   2.248   4.197   2.341
  726SOL     OW 3076   2.366   4.955   0.571
  726SOL    HW1 3077   2.430   5.023   0.606
  726SOL    HW2 3078   2.298   4.934   0.641
  727SOL     OW 3079   4.750   5.412   6.100
  727SOL    HW1 3080   4.755   5.511   6.114
  727SOL    HW2 3081   4.671   5.376   6.150
  728SOL     OW 3082   0.084   3.442   4.577
  728SOL    HW1 3083   0.161   3.380   4.595
  728SOL    HW2 3084   7.019   3.389   4.575
  729SOL     OW 3085   0.447   3.283   0.997
  729SOL    HW1 3086   0.356   3.309   1.029
  729SOL    HW2 3087   0.438   3.212   0.927
  730SOL     OW 3088   4.863   0.742   2.898
  730SOL    HW1 3089   4.858   0.664   2.960
  730SOL    HW2 3090   4.959   0.764   2.881
  731SOL     OW 3091   4.901   4.460   6.785
  731SOL    HW1 3092   4.934   4.376   6.829
  731SOL    HW2 3093   4.960   4.483   6.708
  732SOL     OW 3094   5.132   1.723   2.896
  732SOL    HW1 3095   5.093   1.659   2.963
  732SOL    HW2 3096   5.227   1.743   2.922
  733SOL     OW 3097   5.489   6.395   3.491
  733SOL    HW1 3098   5.557   6.363   3.426
  733SOL    HW2 3099   5.527   6.394   3.583
  734SOL     OW 3100   6.633   4.969   2.413
  734SOL    HW1 3101   6.684   5.038   2.465
  734SOL    HW2 3102   6.537   4.998   2.406
  735SOL     OW 3103   5.827   0.539   1.853
  735SOL    HW1 3104   5.886   0.607   1.810
  735SOL    HW2 3105   5.747   0.584   1.892
  736SOL     OW 3106   1.271   1.354   4.166
  736SOL    HW1 3107   1.370   1.340   4.165
  736SOL    HW2 3108   1.236   1.334   4.257
  737SOL     OW 3109   5.786   1.372   6.188
  737SOL    HW1 3110   5.862   1.434   6.171
  737SOL    HW2 3111   5.816   1.297   6.247
  738SOL     OW 3112   2.881   4.094   1.262
  738SOL    HW1 3113   2.892   4.183   1.219
  738SOL    HW2 3114   2.855   4.026   1.194
  739SOL     OW 3115   3.035   0.100   5.437
  739SOL    HW1 3116   3.118   0.155   5.450
  739SOL    HW2 3117   3.010   0.100   5.340
  740SOL     OW 3118   5.661   2.157   2.895
  740SOL    HW1 3119   5.658   2.150   2.795
  740SOL    HW2 3120   5.682   2.067   2.934
  741SOL     OW 3121   2.631   0.419   4.347
  741SOL    HW1 3122   2.617   0.486   4.419
  741SOL    HW2 3123   2.542   0.392   4.309
  742SOL     OW 3124   1.221   6.432   0.835
  742SOL    HW1 3125   1.231   6.354   0.773
  742SOL    HW2 3126   1.224   6.400   0.930
  743SOL     OW 3127   0.879   6.661   3.766
  743SOL    HW1 3128   0.896   6.581   3.709
  743SOL    HW2 3129   0.783   6.662   3.794
  744SOL     OW 3130   5.931   1.141   0.731
  744SOL    HW1 3131   6.025   1.143   0.765
  744SOL    HW2 3132   5.875   1.086   0.793
  745SOL     OW 3133   2.087   5.703   4.766
  745SOL    HW1 3134   2.102   5.628   4.831
  745SOL    HW2 3135   2.127   5.678   4.677
  746SOL     OW 3136   5.527   4.066   5.210
  746SOL    HW1 3137   5.468   4.081   5.290
  746SOL    HW2 3138   5.485   4.109   5.130
  747SOL     OW 3139   5.537   5.457   3.325
  747SOL    HW1 3140   5.529   5.398   3.245
  747SOL    HW2 3141   5.603   5.418   3.389
  748SOL     OW 3142   5.290   5.614   2.757
  748SOL    HW1 3143   5.367   5.588   2.699
  748SOL    HW2 3144   5.227   5.537   2.766
  749SOL     OW 3145   4.770   3.994   3.598
  749SOL    HW1 3146   4.695   4.050   3.564
  749SOL    HW2 3147   4.798   3.929   3.527
  750SOL     OW 3148   2.465   1.476   1.648
  750SOL    HW1 3149   2.386   1.470   1.587
  750SOL    HW2 3150   2.465   1.566   1.693
  751SOL     OW 3151   5.040   1.838   0.266
  751SOL    HW1 3152   4.981   1.798   0.196
  751SOL    HW2 3153   4.991   1.914   0.310
  752SOL     OW 3154   3.163   2.598   5.322
  752SOL    HW1 3155   3.209   2.676   5.279
  752SOL    HW2 3156   3.168   2.518   5.261
  753SOL     OW 3157   3.814   3.447   5.417
  753SOL    HW1 3158   3.777   3.536   5.442
  753SOL    HW2 3159   3.818   3.440   5.317
  754SOL     OW 3160   5.680   0.900   6.461
  754SOL    HW1 3161   5.762   0.912   6.518
  754SOL    HW2 3162   5.651   0.804   6.464
  755SOL     OW 3163   3.014   4.297   5.266
  755SOL    HW1 3164   3.070   4.316   5.347
  755SOL    HW2 3165   3.001   4.382   5.214
  756SOL     OW 3166   2.525   5.501   0.047
  756SOL    HW1 3167   2.615   5.483   0.006
  756SOL    HW2 3168   2.479   5.573   7.016
  757SOL     OW 3169   1.915   6.445   2.238
  757SOL    HW1 3170   1.894   6.511   2.310
  757SOL    HW2 3171   1.831   6.421   2.189
  758SOL     OW 3172   4.367   1.245   3.811
  758SOL    HW1 3173   4.328   1.212   3.897
  758SOL    HW2 3174   4.337   1.186   3.736
  759SOL     OW 3175   0.201   3.232   3.785
  759SOL    HW1 3176   0.138   3.251   3.709
  759SOL    HW2 3177   0.286   3.282   3.770
  760SOL     OW 3178   6.848   6.740   3.822
  760SOL    HW1 3179   6.875   6.769   3.913
  760SOL    HW2 3180   6.749   6.753   3.810
  761SOL     OW 3181   5.280   3.845   5.326
  761SOL    HW1 3182   5.305   3.777   5.395
  761SOL    HW2 3183   5.308   3.936   5.357
  762SOL     OW 3184   2.963   6.316   5.813
  762SOL    HW1 3185   2.886   6.368   5.849
  762SOL    HW2 3186   2.951   6.219   5.835
  763SOL     OW 3187   5.860   0.571   6.958
  763SOL    HW1 3188   5.845   0.594   6.862
  763SOL    HW2 3189   5.785   0.608   7.013
  764SOL     OW 3190   5.777   0.983   5.764
  764SOL    HW1 3191   5.686   1.022   5.770
  764SOL    HW2 3192   5.786   0.908   5.829
  765SOL     OW 3193   0.659   6.618   1.005
  765SOL    HW1 3194   0.720   6.565   1.064
  765SOL    HW2 3195   0.703   6.704   0.979
  766SOL     OW 3196   1.899   1.960   4.820
  766SOL    HW1 3197   1.799   1.957   4.825
  766SOL    HW2 3198   1.929   1.930   4.730
  767SOL     OW 3199   0.154   6.884   4.062
  767SOL    HW1 3200   0.172   6.833   3.978
  767SOL    HW2 3201   0.055   6.894   4.074
  768SOL     OW 3202   1.946   6.150   2.417
  768SOL    HW1 3203   1.982   6.230   2.369
  768SOL    HW2 3204   1.847   6.157   2.425
  769SOL     OW 3205   3.232   1.413   4.899
  769SOL    HW1 3206   3.305   1.402   4.967
  769SOL    HW2 3207   3.185   1.325   4.887
  770SOL     OW 3208   2.096   4.932   4.403
  770SOL    HW1 3209   2.137   4.841   4.409
  770SOL    HW2 3210   2.098   4.964   4.308
  771SOL     OW 3211   1.517   5.233   2.761
  771SOL    HW1 3212   1.600   5.247   2.814
  771SOL    HW2 3213   1.530   5.265   2.668
  772SOL     OW 3214   5.510   4.990   0.071
  772SOL    HW1 3215   5.586   4.929   0.093
  772SOL    HW2 3216   5.425   4.937   0.069
  773SOL     OW 3217   1.322   3.225   3.617
  773SOL    HW1 3218   1.415   3.259   3.605
  773SOL    HW2 3219   1.305   3.207   3.714
  774SOL     OW 3220   2.019   1.764   3.946
  774SOL    HW1 3221   1.924   1.777   3.920
  774SOL    HW2 3222   2.049   1.841   4.003
  775SOL     OW 3223   2.082   3.876   3.982
  775SOL    HW1 3224   2.086   3.815   4.061
  775SOL    HW2 3225   2.063   3.823   3.900
  776SOL     OW 3226   1.231   6.705   6.359
  776SOL    HW1 3227   1.237   6.766   6.279
  776SOL    HW2 3228   1.181   6.750   6.432
  777SOL     OW 3229   1.800   3.755   0.190
  777SOL    HW1 3230   1.894   3.727   0.212
  777SOL    HW2 3231   1.782   3.845   0.228
  778SOL     OW 3232   3.649   6.679   1.964
  778SOL    HW1 3233   3.568   6.641   1.919
  778SOL    HW2 3234   3.678   6.762   1.916
  779SOL     OW 3235   0.327   2.696   1.795
  779SOL    HW1 3236   0.289   2.765   1.733
  779SOL    HW2 3237   0.254   2.642   1.835
  780SOL     OW 3238   1.633   1.754   4.749
  780SOL    HW1 3239   1.547   1.787   4.710
  780SOL    HW2 3240   1.708   1.774   4.687
  781SOL     OW 3241   0.430   4.403   0.664
  781SOL    HW1 3242   0.456   4.327   0.723
  781SOL    HW2 3243   0.450   4.380   0.569
  782SOL     OW 3244   1.946   4.024   5.794
  782SOL    HW1 3245   1.933   3.934   5.753
  782SOL    HW2 3246   1.885   4.090   5.750
  783SOL     OW 3247   5.148   4.278   6.417
  783SOL    HW1 3248   5.173   4.295   6.512
  783SOL    HW2 3249   5.188   4.349   6.359
  784SOL     OW 3250   3.167   6.036   1.506
  784SOL    HW1 3251   3.185   6.128   1.540
  784SOL    HW2 3252   3.074   6.009   1.532
  785SOL     OW 3253   0.492   0.021   4.078
  785SOL    HW1 3254   0.521   6.991   3.997
  785SOL    HW2 3255   0.423   6.989   4.127
  786SOL     OW 3256   6.325   1.256   3.600
  786SOL    HW1 3257   6.265   1.336   3.593
  786SOL    HW2 3258   6.271   1.175   3.623
  787SOL     OW 3259   2.445   6.929   7.009
  787SOL    HW1 3260   2.362   6.919   6.955
  787SOL    HW2 3261   2.462   0.006   0.004
  788SOL     OW 3262   3.740   2.995   0.893
  788SOL    HW1 3263   3.699   3.027   0.979
  788SOL    HW2 3264   3.813   3.058   0.866
  789SOL     OW 3265   4.606   5.626   1.238
  789SOL    HW1 3266   4.661   5.579   1.168
  789SOL    HW2 3267   4.558   5.558   1.293
  790SOL     OW 3268   0.628   2.896   1.571
  790SOL    HW1 3269   0.674   2.832   1.633
  790SOL    HW2 3270   0.649   2.990   1.599
  791SOL     OW 3271   2.621   4.934   5.350
  791SOL    HW1 3272   2.542   4.882   5.315
  791SOL    HW2 3273   2.700   4.917   5.292
  792SOL     OW 3274   0.519   1.052   1.043
  792SOL    HW1 3275   0.606   1.026   1.086
  792SOL    HW2 3276   0.537   1.099   0.957
  793SOL     OW 3277   3.982   5.603   3.648
  793SOL    HW1 3278   4.040   5.643   3.576
  793SOL    HW2 3279   3.892   5.647   3.646
  794SOL     OW 3280   2.966   3.346   3.739
  794SOL    HW1 3281   2.984   3.269   3.678
  794SOL    HW2 3282   3.031   3.420   3.720
  795SOL     OW 3283   3.890   0.953   6.283
  795SOL    HW1 3284   3.823   0.899   6.232
  795SOL    HW2 3285   3.973   0.899   6.297
  796SOL     OW 3286   1.704   3.091   6.561
  796SOL    HW1 3287   1.757   3.011   6.591
  796SOL    HW2 3288   1.752   3.135   6.485
  797SOL     OW 3289   4.582   6.867   0.734
  797SOL    HW1 3290   4.487   6.847   0.709
  797SOL    HW2 3291   4.583   6.927   0.814
  798SOL     OW 3292   3.509   6.356   1.306
  798SOL    HW1 3293   3.443   6.376   1.234
  798SOL    HW2 3294   3.543   6.262   1.294
  799SOL     OW 3295   1.479   1.699   6.323
  799SOL    HW1 3296   1.385   1.706   6.355
  799SOL    HW2 3297   1.533   1.773   6.364
  800SOL     OW 3298   6.414   1.734   1.874
  800SOL    HW1 3299   6.494   1.684   1.841
  800SOL    HW2 3300   6.366   1.775   1.796
  801SOL     OW 3301   2.057   5.382   5.462
  801SOL    HW1 3302   2.021   5.447   5.395
  801SOL    HW2 3303   1.987   5.364   5.532
  802SOL     OW 3304   5.390   2.314   0.286
  802SOL    HW1 3305   5.449   2.394   0.296
  802SOL    HW2 3306   5.345   2.317   0.197
  803SOL     OW 3307   2.841   1.367   5.373
  803SOL    HW1 3308   2.855   1.387   5.470
  803SOL    HW2 3309   2.769   1.298   5.363
  804SOL     OW 3310   6.357   0.348   1.663
  804SOL    HW1 3311   6.343   0.274   1.729
  804SOL    HW2 3312   6.453   0.375   1.662
  805SOL     OW 3313   3.099   1.419   4.227
  805SOL    HW1 3314   3.173   1.474   4.188
  805SOL    HW2 3315   3.126   1.323   4.230
  806SOL     OW 3316   1.153   6.550   5.112
  806SOL    HW1 3317   1.185   6.457   5.133
  806SOL    HW2 3318   1.232   6.608   5.090
  807SOL     OW 3319   0.419   6.214   4.944
  807SOL    HW1 3320   0.513   6.199   4.911
  807SOL    HW2 3321   0.418   6.208   5.044
  808SOL     OW 3322   5.742   3.028   0.497
  808SOL    HW1 3323   5.742   3.116   0.449
  808SOL    HW2 3324   5.648   3.001   0.516
  809SOL     OW 3325   0.639   4.985   0.208
  809SOL    HW1 3326   0.712   4.918   0.221
  809SOL    HW2 3327   0.674   5.063   0.156
  810SOL     OW 3328   3.008   3.727   0.256
  810SOL    HW1 3329   2.979   3.806   0.311
  810SOL    HW2 3330   2.986   3.643   0.304
  811SOL     OW 3331   5.500   5.005   4.803
  811SOL    HW1 3332   5.419   4.949   4.818
  811SOL    HW2 3333   5.491   5.053   4.715
  812SOL     OW 3334   0.540   2.005   2.078
  812SOL    HW1 3335   0.614   1.938   2.077
  812SOL    HW2 3336   0.529   2.043   1.986
  813SOL     OW 3337   1.471   1.594   4.389
  813SOL    HW1 3338   1.381   1.634   4.373
  813SOL    HW2 3339   1.523   1.594   4.303
  814SOL     OW 3340   0.177   5.777   3.270
  814SOL    HW1 3341   0.226   5.737   3.193
  814SOL    HW2 3342   0.152   5.705   3.335
  815SOL     OW 3343   5.115   2.174   3.651
  815SOL    HW1 3344   5.057   2.124   3.715
  815SOL    HW2 3345   5.203   2.195   3.695
  816SOL     OW 3346   5.288   3.234   0.434
  816SOL    HW1 3347   5.314   3.330   0.429
  816SOL    HW2 3348   5.287   3.204   0.530
  817SOL     OW 3349   1.331   5.569   0.936
  817SOL    HW1 3350   1.318   5.470   0.945
  817SOL    HW2 3351   1.428   5.591   0.943
  818SOL     OW 3352   5.538   2.831   3.507
  818SOL    HW1 3353   5.479   2.778   3.447
  818SOL    HW2 3354   5.519   2.807   3.602
  819SOL     OW 3355   5.653   2.359   1.607
  819SOL    HW1 3356   5.750   2.339   1.599
  819SOL    HW2 3357   5.638   2.428   1.678
  820SOL     OW 3358   1.932   1.958   4.187
  820SOL    HW1 3359   1.923   1.985   4.282
  820SOL    HW2 3360   2.026   1.931   4.168
  821SOL     OW 3361   5.788   4.082   5.242
  821SOL    HW1 3362   5.810   4.005   5.302
  821SOL    HW2 3363   5.690   4.085   5.225
  822SOL     OW 3364   0.870   4.205   3.905
  822SOL    HW1 3365   0.850   4.141   3.979
  822SOL    HW2 3366   0.850   4.298   3.935
  823SOL     OW 3367   1.074   3.743   5.952
  823SOL    HW1 3368   1.172   3.724   5.959
  823SOL    HW2 3369   1.047   3.747   5.855
  824SOL     OW 3370   5.709   0.984   5.066
  824SOL    HW1 3371   5.756   1.054   5.119
  824SOL    HW2 3372   5.773   0.911   5.043
  825SOL     OW 3373   6.320   5.814   0.904
  825SOL    HW1 3374   6.354   5.901   0.938
  825SOL    HW2 3375   6.385   5.741   0.927
  826SOL     OW 3376   3.941   1.234   5.534
  826SOL    HW1 3377   3.955   1.264   5.628
  826SOL    HW2 3378   3.953   1.135   5.529
  827SOL     OW 3379   3.360   4.021   4.612
  827SOL    HW1 3380   3.344   3.924   4.592
  827SOL    HW2 3381   3.306   4.048   4.692
  828SOL     OW 3382   6.099   5.706   4.644
  828SOL    HW1 3383   6.035   5.630   4.649
  828SOL    HW2 3384   6.178   5.679   4.589
  829SOL     OW 3385   3.465   2.859   2.832
  829SOL    HW1 3386   3.416   2.869   2.918
  829SOL    HW2 3387   3.562   2.876   2.847
  830SOL     OW 3388   6.600   4.571   6.873
  830SOL    HW1 3389   6.637   4.653   6.829
  830SOL    HW2 3390   6.525   4.597   6.935
  831SOL     OW 3391   5.591   6.111   1.005
  831SOL    HW1 3392   5.656   6.104   1.080
  831SOL    HW2 3393   5.628   6.170   0.933
  832SOL     OW 3394   3.422   1.624   4.873
  832SOL    HW1 3395   3.390   1.664   4.959
  832SOL    HW2 3396   3.351   1.565   4.835
  833SOL     OW 3397   1.303   3.673   6.400
  833SOL    HW1 3398   1.351   3.685   6.487
  833SOL    HW2 3399   1.292   3.762   6.356
  834SOL     OW 3400   4.719   3.480   6.726
  834SOL    HW1 3401   4.746   3.503   6.633
  834SOL    HW2 3402   4.649   3.409   6.724
  835SOL     OW 3403   1.338   0.331   4.026
  835SOL    HW1 3404   1.388   0.396   4.083
  835SOL    HW2 3405   1.254   0.303   4.073
  836SOL     OW 3406   3.225   1.657   5.533
  836SOL    HW1 3407   3.189   1.711   5.609
  836SOL    HW2 3408   3.235   1.562   5.561
  837SOL     OW 3409   1.219   0.503   1.057
  837SOL    HW1 3410   1.265   0.489   1.145
  837SOL    HW2 3411   1.163   0.423   1.036
  838SOL     OW 3412   1.910   5.754   4.006
  838SOL    HW1 3413   1.986   5.724   3.949
  838SOL    HW2 3414   1.894   5.687   4.078
  839SOL     OW 3415   1.559   1.464   1.061
  839SOL    HW1 3416   1.641   1.417   1.030
  839SOL    HW2 3417   1.485   1.449   0.994
  840SOL     OW 3418   6.166   5.377   0.256
  840SOL    HW1 3419   6.108   5.307   0.213
  840SOL    HW2 3420   6.115   5.463   0.261
  841SOL     OW 3421   4.052   4.937   5.561
  841SOL    HW1 3422   4.135   4.958   5.611
  841SOL    HW2 3423   4.056   4.977   5.469
  842SOL     OW 3424   3.102   7.006   6.813
  842SOL    HW1 3425   3.040   6.931   6.834
  842SOL    HW2 3426   3.145   0.018   6.898
  843SOL     OW 3427   1.823   1.711   1.447
  843SOL    HW1 3428   1.810   1.809   1.432
  843SOL    HW2 3429   1.898   1.697   1.512
  844SOL     OW 3430   0.427   6.873   0.969
  844SOL    HW1 3431   0.415   6.878   0.870
  844SOL    HW2 3432   0.419   6.964   1.009
  845SOL     OW 3433   3.690   1.517   2.828
  845SOL    HW1 3434   3.776   1.504   2.878
  845SOL    HW2 3435   3.675   1.615   2.813
  846SOL     OW 3436   2.966   1.691   6.756
  846SOL    HW1 3437   2.947   1.789   6.762
  846SOL    HW2 3438   2.904   1.649   6.689
  847SOL     OW 3439   2.552   3.653   1.547
  847SOL    HW1 3440   2.503   3.728   1.592
  847SOL    HW2 3441   2.536   3.568   1.598
  848SOL     OW 3442   6.113   6.549   6.232
  848SOL    HW1 3443   6.201   6.545   6.279
  848SOL    HW2 3444   6.123   6.600   6.147
  849SOL     OW 3445   5.829   3.601   0.173
  849SOL    HW1 3446   5.886   3.650   0.239
  849SOL    HW2 3447   5.755   3.661   0.142
  850SOL     OW 3448   6.579   0.814   5.274
  850SOL    HW1 3449   6.605   0.795   5.179
  850SOL    HW2 3450   6.519   0.893   5.277
  851SOL     OW 3451   6.537   3.070   6.459
  851SOL    HW1 3452   6.617   3.122   6.430
  851SOL    HW2 3453   6.484   3.042   6.379
  852SOL     OW 3454   6.896   3.867   1.456
  852SOL    HW1 3455   6.851   3.859   1.367
  852SOL    HW2 3456   6.986   3.823   1.452
  853SOL     OW 3457   1.787   4.190   0.621
  853SOL    HW1 3458   1.703   4.182   0.568
  853SOL    HW2 3459   1.766   4.194   0.719
  854SOL     OW 3460   6.117   6.296   6.842
  854SOL    HW1 3461   6.054   6.329   6.772
  854SOL    HW2 3462   6.085   6.209   6.878
  855SOL     OW 3463   0.231   0.928   6.916
  855SOL    HW1 3464   0.170   0.897   6.843
  855SOL    HW2 3465   0.323   0.894   6.899
  856SOL     OW 3466   1.903   6.404   6.432
  856SOL    HW1 3467   1.845   6.345   6.489
  856SOL    HW2 3468   1.862   6.495   6.426
  857SOL     OW 3469   0.251   5.004   4.025
  857SOL    HW1 3470   0.198   4.983   3.943
  857SOL    HW2 3471   0.349   4.996   4.005
  858SOL     OW 3472   3.693   4.041   0.663
  858SOL    HW1 3473   3.782   4.006   0.633
  858SOL    HW2 3474   3.636   4.059   0.583
  859SOL     OW 3475   3.918   6.850   5.241
  859SOL    HW1 3476   3.903   6.941   5.281
  859SOL    HW2 3477   4.015   6.826   5.251
  860SOL     OW 3478   5.052   2.545   5.351
  860SOL    HW1 3479   5.048   2.451   5.316
  860SOL    HW2 3480   5.049   2.543   5.451
  861SOL     OW 3481   2.083   5.651   3.203
  861SOL    HW1 3482   2.082   5.734   3.147
  861SOL    HW2 3483   2.159   5.656   3.268
  862SOL     OW 3484   1.514   4.521   3.497
  862SOL    HW1 3485   1.530   4.538   3.594
  862SOL    HW2 3486   1.558   4.593   3.442
  863SOL     OW 3487   6.870   0.119   6.062
  863SOL    HW1 3488   6.822   0.141   5.977
  863SOL    HW2 3489   6.909   0.203   6.101
  864SOL     OW 3490   4.735   0.372   5.368
  864SOL    HW1 3491   4.830   0.386   5.394
  864SOL    HW2 3492   4.695   0.458   5.336
  865SOL     OW 3493   1.987   6.139   4.495
  865SOL    HW1 3494   2.043   6.069   4.539
  865SOL    HW2 3495   1.997   6.225   4.545
  866SOL     OW 3496   2.396   6.830   1.348
  866SOL    HW1 3497   2.480   6.828   1.403
  866SOL    HW2 3498   2.384   6.921   1.309
  867SOL     OW 3499   5.597   1.872   0.761
  867SOL    HW1 3500   5.548   1.786   0.781
  867SOL    HW2 3501   5.592   1.932   0.841
  868SOL     OW 3502   0.123   2.516   1.856
  868SOL    HW1 3503   0.150   2.420   1.849
  868SOL    HW2 3504   0.085   2.533   1.947
  869SOL     OW 3505   0.094   3.810   3.924
  869SOL    HW1 3506   0.132   3.877   3.861
  869SOL    HW2 3507   0.165   3.781   3.989
  870SOL     OW 3508   3.400   4.987   1.652
  870SOL    HW1 3509   3.377   4.893   1.675
  870SOL    HW2 3510   3.316   5.035   1.624
  871SOL     OW 3511   4.834   1.708   3.820
  871SOL    HW1 3512   4.752   1.766   3.826
  871SOL    HW2 3513   4.814   1.629   3.762
  872SOL     OW 3514   0.091   2.384   4.555
  872SOL    HW1 3515   0.014   2.445   4.575
  872SOL    HW2 3516   0.058   2.306   4.503
  873SOL     OW 3517   4.389   6.389   5.541
  873SOL    HW1 3518   4.351   6.405   5.632
  873SOL    HW2 3519   4.460   6.457   5.522
  874SOL     OW 3520   5.746   4.224   6.950
  874SOL    HW1 3521   5.667   4.265   6.995
  874SOL    HW2 3522   5.824   4.286   6.956
  875SOL     OW 3523   5.200   5.429   1.265
  875SOL    HW1 3524   5.104   5.453   1.276
  875SOL    HW2 3525   5.246   5.499   1.210
  876SOL     OW 3526   0.100   5.205   2.050
  876SOL    HW1 3527   0.059   5.143   2.116
  876SOL    HW2 3528   0.185   5.242   2.086
  877SOL     OW 3529   2.750   4.567   0.147
  877SOL    HW1 3530   2.749   4.636   0.219
  877SOL    HW2 3531   2.788   4.608   0.063
  878SOL     OW 3532   4.256   6.637   4.252
  878SOL    HW1 3533   4.281   6.553   4.202
  878SOL    HW2 3534   4.157   6.638   4.267
  879SOL     OW 3535   4.074   0.775   1.348
  879SOL    HW1 3536   4.158   0.817   1.316
  879SOL    HW2 3537   4.096   0.694   1.402
  880SOL     OW 3538   3.035   3.856   3.796
  880SOL    HW1 3539   3.058   3.906   3.712
  880SOL    HW2 3540   3.103   3.878   3.867
  881SOL     OW 3541   4.511   2.491   5.160
  881SOL    HW1 3542   4.538   2.525   5.070
  881SOL    HW2 3543   4.414   2.512   5.176
  882SOL     OW 3544   0.588   3.360   4.728
  882SOL    HW1 3545   0.581   3.380   4.826
  882SOL    HW2 3546   0.511   3.402   4.680
  883SOL     OW 3547   2.852   0.405   3.072
  883SOL    HW1 3548   2.914   0.454   3.134
  883SOL    HW2 3549   2.790   0.470   3.028
  884SOL     OW 3550   4.660   3.087   5.246
  884SOL    HW1 3551   4.712   3.172   5.238
  884SOL    HW2 3552   4.587   3.098   5.313
  885SOL     OW 3553   2.860   1.452   5.643
  885SOL    HW1 3554   2.771   1.435   5.684
  885SOL    HW2 3555   2.905   1.527   5.691
  886SOL     OW 3556   3.559   0.521   0.358
  886SOL    HW1 3557   3.640   0.479   0.316
  886SOL    HW2 3558   3.581   0.552   0.450
  887SOL     OW 3559   3.681   6.836   3.680
  887SOL    HW1 3560   3.731   6.752   3.700
  887SOL    HW2 3561   3.626   6.862   3.759
  888SOL     OW 3562   0.772   0.118   2.874
  888SOL    HW1 3563   0.678   0.084   2.881
  888SOL    HW2 3564   0.799   0.123   2.778
  889SOL     OW 3565   0.559   3.849   0.293
  889SOL    HW1 3566   0.515   3.761   0.276
  889SOL    HW2 3567   0.654   3.845   0.264
  890SOL     OW 3568   1.431   5.433   3.804
  890SOL    HW1 3569   1.341   5.456   3.842
  890SOL    HW2 3570   1.501   5.490   3.847
  891SOL     OW 3571   5.370   5.782   1.169
  891SOL    HW1 3572   5.446   5.718   1.161
  891SOL    HW2 3573   5.289   5.746   1.122
  892SOL     OW 3574   2.578   3.900   5.886
  892SOL    HW1 3575   2.635   3.817   5.884
  892SOL    HW2 3576   2.552   3.919   5.981
  893SOL     OW 3577   2.450   6.230   2.745
  893SOL    HW1 3578   2.380   6.186   2.688
  893SOL    HW2 3579   2.405   6.285   2.815
  894SOL     OW 3580   1.109   3.508   1.569
  894SOL    HW1 3581   1.113   3.422   1.517
  894SOL    HW2 3582   1.191   3.517   1.625
  895SOL     OW 3583   0.652   4.797   3.258
  895SOL    HW1 3584   0.686   4.863   3.191
  895SOL    HW2 3585   0.688   4.819   3.349
  896SOL     OW 3586   5.805   5.149   0.441
  896SOL    HW1 3587   5.829   5.164   0.537
  896SOL    HW2 3588   5.854   5.068   0.407
  897SOL     OW 3589   4.605   1.215   0.740
  897SOL    HW1 3590   4.516   1.259   0.727
  897SOL    HW2 3591   4.591   1.117   0.755
  898SOL     OW 3592   3.607   6.148   2.925
  898SOL    HW1 3593   3.637   6.188   2.838
  898SOL    HW2 3594   3.648   6.057   2.936
  899SOL     OW 3595   0.317   5.563   6.183
  899SOL    HW1 3596   0.340   5.613   6.267
  899SOL    HW2 3597   0.338   5.466   6.195
  900SOL     OW 3598   6.181   0.005   0.275
  900SOL    HW1 3599   6.201   0.027   0.179
  900SOL    HW2 3600   6.255   6.969   0.313
  901SOL     OW 3601   2.336   0.410   2.765
  901SOL    HW1 3602   2.388   0.377   2.686
  901SOL    HW2 3603   2.250   0.451   2.733
  902SOL     OW 3604   6.870   3.221   0.433
  902SOL    HW1 3605   6.871   3.316   0.401
  902SOL    HW2 3606   6.910   3.217   0.525
  903SOL     OW 3607   6.787   2.309   6.620
  903SOL    HW1 3608   6.813   2.396   6.661
  903SOL    HW2 3609   6.696   2.316   6.579
  904SOL     OW 3610   2.689   2.124   3.594
  904SOL    HW1 3611   2.732   2.176   3.668
  904SOL    HW2 3612   2.599   2.163   3.574
  905SOL     OW 3613   5.191   1.807   0.041
  905SOL    HW1 3614   5.289   1.803   0.060
  905SOL    HW2 3615   5.140   1.812   0.127
  906SOL     OW 3616   0.290   2.429   5.778
  906SOL    HW1 3617   0.284   2.509   5.718
  906SOL    HW2 3618   0.336   2.355   5.730
  907SOL     OW 3619   5.031   3.100   0.505
  907SOL    HW1 3620   4.972   3.138   0.433
  907SOL    HW2 3621   5.125   3.129   0.489
  908SOL     OW 3622   2.557   5.093   2.946
  908SOL    HW1 3623   2.474   5.044   2.971
  908SOL    HW2 3624   2.637   5.038   2.969
  909SOL     OW 3625   4.071   5.467   6.757
  909SOL    HW1 3626   4.097   5.419   6.673
  909SOL    HW2 3627   4.145   5.528   6.786
  910SOL     OW 3628   2.802   2.814   1.174
  910SOL    HW1 3629   2.762   2.834   1.084
  910SOL    HW2 3630   2.814   2.899   1.225
  911SOL     OW 3631   1.566   5.913   6.248
  911SOL    HW1 3632   1.646   5.965   6.277
  911SOL    HW2 3633   1.496   5.975   6.214
  912SOL     OW 3634   5.455   2.590   3.377
  912SOL    HW1 3635   5.471   2.498   3.343
  912SOL    HW2 3636   5.405   2.643   3.308
  913SOL     OW 3637   5.021   6.104   3.260
  913SOL    HW1 3638   5.109   6.075   3.220
  913SOL    HW2 3639   4.977   6.168   3.198
  914SOL     OW 3640   2.374   0.117   6.596
  914SOL    HW1 3641   2.384   0.214   6.619
  914SOL    HW2 3642   2.460   0.069   6.615
  915SOL     OW 3643   5.946   4.435   6.967
  915SOL    HW1 3644   6.011   4.380   7.019
  915SOL    HW2 3645   5.988   4.463   6.881
  916SOL     OW 3646   1.464   2.444   2.166
  916SOL    HW1 3647   1.493   2.506   2.093
  916SOL    HW2 3648   1.542   2.391   2.198
  917SOL     OW 3649   6.952   6.494   0.610
  917SOL    HW1 3650   6.883   6.465   0.544
  917SOL    HW2 3651   6.910   6.508   0.700
  918SOL     OW 3652   2.183   6.760   0.843
  918SOL    HW1 3653   2.250   6.821   0.801
  918SOL    HW2 3654   2.159   6.687   0.779
  919SOL     OW 3655   5.544   1.214   3.629
  919SOL    HW1 3656   5.545   1.273   3.549
  919SOL    HW2 3657   5.573   1.265   3.710
  920SOL     OW 3658   2.281   4.677   1.552
  920SOL    HW1 3659   2.272   4.612   1.628
  920SOL    HW2 3660   2.359   4.738   1.570
  921SOL     OW 3661   4.919   5.332   4.216
  921SOL    HW1 3662   4.943   5.237   4.236
  921SOL    HW2 3663   4.998   5.378   4.175
  922SOL     OW 3664   3.851   3.488   4.318
  922SOL    HW1 3665   3.828   3.532   4.232
  922SOL    HW2 3666   3.950   3.470   4.321
  923SOL     OW 3667   2.243   2.841   5.794
  923SOL    HW1 3668   2.193   2.808   5.875
  923SOL    HW2 3669   2.307   2.912   5.822
  924SOL     OW 3670   6.662   3.687   2.461
  924SOL    HW1 3671   6.628   3.771   2.505
  924SOL    HW2 3672   6.684   3.706   2.365
  925SOL     OW 3673   6.956   2.202   0.311
  925SOL    HW1 3674   6.997   2.220   0.401
  925SOL    HW2 3675   6.857   2.195   0.320
  926SOL     OW 3676   6.876   1.681   1.365
  926SOL    HW1 3677   6.923   1.768   1.355
  926SOL    HW2 3678   6.913   1.632   1.444
  927SOL     OW 3679   5.791   3.880   3.970
  927SOL    HW1 3680   5.727   3.804   3.983
  927SOL    HW2 3681   5.866   3.852   3.911
  928SOL     OW 3682   2.877   6.196   0.265
  928SOL    HW1 3683   2.869   6.275   0.326
  928SOL    HW2 3684   2.862   6.112   0.317
  929SOL     OW 3685   6.611   1.361   6.867
  929SOL    HW1 3686   6.697   1.393   6.826
  929SOL    HW2 3687   6.614   1.261   6.876
  930SOL     OW 3688   4.173   5.130   5.929
  930SOL    HW1 3689   4.085   5.095   5.898
  930SOL    HW2 3690   4.203   5.205   5.870
  931SOL     OW 3691   6.591   2.077   3.721
  931SOL    HW1 3692   6.640   2.117   3.799
  931SOL    HW2 3693   6.504   2.039   3.752
  932SOL     OW 3694   3.741   1.176   3.849
  932SOL    HW1 3695   3.746   1.270   3.882
  932SOL    HW2 3696   3.697   1.118   3.918
  933SOL     OW 3697   1.327   5.018   2.660
  933SOL    HW1 3698   1.368   5.103   2.693
  933SOL    HW2 3699   1.394   4.944   2.664
  934SOL     OW 3700   2.358   5.874   6.087
  934SOL    HW1 3701   2.367   5.843   5.992
  934SOL    HW2 3702   2.275   5.929   6.096
  935SOL     OW 3703   5.023   4.139   3.612
  935SOL    HW1 3704   5.001   4.162   3.517
  935SOL    HW2 3705   4.939   4.127   3.664
  936SOL     OW 3706   1.388   0.384   5.722
  936SOL    HW1 3707   1.303   0.385   5.774
  936SOL    HW2 3708   1.466   0.390   5.784
  937SOL     OW 3709   4.341   1.383   5.613
  937SOL    HW1 3710   4.274   1.449   5.579
  937SOL    HW2 3711   4.422   1.385   5.554
  938SOL     OW 3712   6.781   5.837   4.301
  938SOL    HW1 3713   6.794   5.848   4.203
  938SOL    HW2 3714   6.683   5.838   4.322
  939SOL     OW 3715   6.903   6.811   4.841
  939SOL    HW1 3716   6.984   6.834   4.894
  939SOL    HW2 3717   6.845   6.750   4.893
  940SOL     OW 3718   1.204   4.798   1.123
  940SOL    HW1 3719   1.235   4.842   1.207
  940SOL    HW2 3720   1.282   4.757   1.076
  941SOL     OW 3721   4.341   0.559   6.685
  941SOL    HW1 3722   4.368   0.497   6.612
  941SOL    HW2 3723   4.248   0.536   6.714
  942SOL     OW 3724   6.566   6.062   0.805
  942SOL    HW1 3725   6.613   6.146   0.778
  942SOL    HW2 3726   6.491   6.084   0.866
  943SOL     OW 3727   2.774   4.709   2.839
  943SOL    HW1 3728   2.696   4.652   2.862
  943SOL    HW2 3729   2.759   4.753   2.751
  944SOL     OW 3730   0.228   6.361   4.253
  944SOL    HW1 3731   0.139   6.336   4.215
  944SOL    HW2 3732   0.258   6.290   4.316
  945SOL     OW 3733   0.241   5.741   5.644
  945SOL    HW1 3734   0.307   5.765   5.574
  945SOL    HW2 3735   0.274   5.664   5.697
  946SOL     OW 3736   4.939   4.578   4.409
  946SOL    HW1 3737   4.979   4.655   4.458
  946SOL    HW2 3738   5.005   4.503   4.405
  947SOL     OW 3739   3.993   3.588   3.937
  947SOL    HW1 3740   3.963   3.552   3.849
  947SOL    HW2 3741   3.981   3.688   3.938
  948SOL     OW 3742   4.831   1.243   2.649
  948SOL    HW1 3743   4.863   1.315   2.710
  948SOL    HW2 3744   4.886   1.243   2.566
  949SOL     OW 3745   2.700   6.507   0.655
  949SOL    HW1 3746   2.624   6.455   0.616
  949SOL    HW2 3747   2.717   6.477   0.749
  950SOL     OW 3748   6.689   5.684   1.825
  950SOL    HW1 3749   6.737   5.772   1.826
  950SOL    HW2 3750   6.600   5.694   1.869
  951SOL     OW 3751   1.712   0.126   3.547
  951SOL    HW1 3752   1.777   0.195   3.578
  951SOL    HW2 3753   1.686   0.067   3.624
  952SOL     OW 3754   3.888   2.161   2.438
  952SOL    HW1 3755   3.861   2.103   2.361
  952SOL    HW2 3756   3.843   2.250   2.431
  953SOL     OW 3757   6.937   5.579   4.803
  953SOL    HW1 3758   6.863   5.631   4.846
  953SOL    HW2 3759   6.946   5.491   4.849
  954SOL     OW 3760   4.852   5.574   2.062
  954SOL    HW1 3761   4.833   5.625   2.146
  954SOL    HW2 3762   4.929   5.616   2.014
  955SOL     OW 3763   1.539   4.668   6.842
  955SOL    HW1 3764   1.591   4.718   6.911
  955SOL    HW2 3765   1.510   4.731   6.770
  956SOL     OW 3766   0.032   0.554   0.912
  956SOL    HW1 3767   0.053   0.479   0.974
  956SOL    HW2 3768   0.108   0.620   0.913
  957SOL     OW 3769   6.017   1.889   2.875
  957SOL    HW1 3770   6.077   1.817   2.841
  957SOL    HW2 3771   6.025   1.895   2.974
  958SOL     OW 3772   5.073   6.892   2.363
  958SOL    HW1 3773   5.026   6.908   2.450
  958SOL    HW2 3774   5.042   6.959   2.295
  959SOL     OW 3775   3.458   6.897   4.116
  959SOL    HW1 3776   3.358   6.893   4.106
  959SOL    HW2 3777   3.483   6.984   4.160
  960SOL     OW 3778   0.580   0.389   0.155
  960SOL    HW1 3779   0.540   0.436   0.234
  960SOL    HW2 3780   0.564   0.291   0.163
  961SOL     OW 3781   3.067   6.423   2.858
  961SOL    HW1 3782   3.012   6.340   2.846
  961SOL    HW2 3783   3.148   6.418   2.799
  962SOL     OW 3784   6.260   0.201   4.944
  962SOL    HW1 3785   6.322   0.276   4.919
  962SOL    HW2 3786   6.167   0.237   4.953
  963SOL     OW 3787   4.570   2.229   1.339
  963SOL    HW1 3788   4.607   2.304   1.284
  963SOL    HW2 3789   4.477   2.207   1.307
  964SOL     OW 3790   5.260   4.709   5.061
  964SOL    HW1 3791   5.204   4.630   5.089
  964SOL    HW2 3792   5.344   4.710   5.114
  965SOL     OW 3793   5.438   2.407   2.493
  965SOL    HW1 3794   5.421   2.472   2.567
  965SOL    HW2 3795   5.536   2.400   2.476
  966SOL     OW 3796   4.883   1.909   3.515
  966SOL    HW1 3797   4.895   1.823   3.564
  966SOL    HW2 3798   4.959   1.970   3.534
  967SOL     OW 3799   4.847   4.264   6.423
  967SOL    HW1 3800   4.940   4.296   6.407
  967SOL    HW2 3801   4.800   4.327   6.485
  968SOL     OW 3802   3.987   0.380   1.975
  968SOL    HW1 3803   3.986   0.388   2.075
  968SOL    HW2 3804   4.005   0.285   1.950
  969SOL     OW 3805   3.368   4.854   5.542
  969SOL    HW1 3806   3.443   4.896   5.594
  969SOL    HW2 3807   3.281   4.888   5.577
  970SOL     OW 3808   6.300   0.348   5.232
  970SOL    HW1 3809   6.256   0.399   5.305
  970SOL    HW2 3810   6.296   0.251   5.252
  971SOL     OW 3811   6.826   4.700   3.087
  971SOL    HW1 3812   6.887   4.621   3.090
  971SOL    HW2 3813   6.776   4.707   3.173
  972SOL     OW 3814   0.059   2.556   0.920
  972SOL    HW1 3815   0.041   2.569   1.017
  972SOL    HW2 3816   7.005   2.505   0.877
  973SOL     OW 3817   0.298   4.431   5.964
  973SOL    HW1 3818   0.249   4.351   5.929
  973SOL    HW2 3819   0.266   4.513   5.916
  974SOL     OW 3820   0.310   4.689   4.280
  974SOL    HW1 3821   0.326   4.669   4.184
  974SOL    HW2 3822   0.240   4.761   4.288
  975SOL     OW 3823   2.085   6.502   1.997
  975SOL    HW1 3824   2.069   6.470   2.090
  975SOL    HW2 3825   2.075   6.426   1.933
  976SOL     OW 3826   6.523   4.234   2.193
  976SOL    HW1 3827   6.505   4.202   2.100
  976SOL    HW2 3828   6.622   4.235   2.210
  977SOL     OW 3829   0.904   1.259   2.087
  977SOL    HW1 3830   0.989   1.292   2.129
  977SOL    HW2 3831   0.826   1.289   2.143
  978SOL     OW 3832   5.720   2.364   1.966
  978SOL    HW1 3833   5.718   2.286   1.903
  978SOL    HW2 3834   5.677   2.337   2.053
  979SOL     OW 3835   0.112   3.585   6.290
  979SOL    HW1 3836   0.172   3.535   6.353
  979SOL    HW2 3837   0.017   3.569   6.315
  980SOL     OW 3838   3.839   1.253   4.826
  980SOL    HW1 3839   3.855   1.250   4.727
  980SOL    HW2 3840   3.775   1.327   4.847
  981SOL     OW 3841   6.938   0.330   4.951
  981SOL    HW1 3842   6.926   0.425   4.979
  981SOL    HW2 3843   6.918   0.270   5.028
  982SOL     OW 3844   0.592   1.819   5.306
  982SOL    HW1 3845   0.666   1.848   5.366
  982SOL    HW2 3846   0.509   1.801   5.359
  983SOL     OW 3847   0.469   3.696   3.554
  983SOL    HW1 3848   0.434   3.635   3.626
  983SOL    HW2 3849   0.466   3.648   3.466
  984SOL     OW 3850   1.580   2.116   3.447
  984SOL    HW1 3851   1.552   2.150   3.537
  984SOL    HW2 3852   1.645   2.180   3.406
  985SOL     OW 3853   6.133   3.501   3.827
  985SOL    HW1 3854   6.155   3.443   3.906
  985SOL    HW2 3855   6.102   3.443   3.752
  986SOL     OW 3856   4.834   4.366   1.407
  986SOL    HW1 3857   4.849   4.267   1.415
  986SOL    HW2 3858   4.755   4.392   1.462
  987SOL     OW 3859   5.959   5.491   3.366
  987SOL    HW1 3860   5.906   5.572   3.391
  987SOL    HW2 3861   6.013   5.460   3.444
  988SOL     OW 3862   3.574   3.990   1.686
  988SOL    HW1 3863   3.641   3.950   1.749
  988SOL    HW2 3864   3.608   4.079   1.654
  989SOL     OW 3865   0.303   2.283   0.589
  989SOL    HW1 3866   0.306   2.321   0.682
  989SOL    HW2 3867   0.371   2.330   0.532
  990SOL     OW 3868   3.612   0.962   3.171
  990SOL    HW1 3869   3.553   0.958   3.090
  990SOL    HW2 3870   3.686   0.896   3.161
  991SOL     OW 3871   6.808   3.934   3.925
  991SOL    HW1 3872   6.764   3.915   4.013
  991SOL    HW2 3873   6.896   3.978   3.941
  992SOL     OW 3874   1.148   2.654   1.388
  992SOL    HW1 3875   1.107   2.743   1.405
  992SOL    HW2 3876   1.100   2.584   1.441
  993SOL     OW 3877   1.405   4.602   1.035
  993SOL    HW1 3878   1.430   4.596   1.132
  993SOL    HW2 3879   1.482   4.639   0.984
  994SOL     OW 3880   3.424   6.618   1.809
  994SOL    HW1 3881   3.444   6.574   1.721
  994SOL    HW2 3882   3.427   6.550   1.882
  995SOL     OW 3883   5.039   3.465   5.804
  995SOL    HW1 3884   5.085   3.421   5.881
  995SOL    HW2 3885   5.064   3.562   5.801
  996SOL     OW 3886   4.248   5.934   5.428
  996SOL    HW1 3887   4.303   5.858   5.394
  996SOL    HW2 3888   4.235   6.002   5.356
  997SOL     OW 3889   1.302   6.631   3.647
  997SOL    HW1 3890   1.271   6.536   3.648
  997SOL    HW2 3891   1.228   6.689   3.612
  998SOL     OW 3892   5.945   0.049   6.166
  998SOL    HW1 3893   5.903   0.017   6.081
  998SOL    HW2 3894   6.036   0.009   6.176
  999SOL     OW 3895   4.884   3.377   1.485
  999SOL    HW1 3896   4.870   3.297   1.544
  999SOL    HW2 3897   4.800   3.431   1.481
 1000SOL     OW 3898   3.957   1.837   1.306
 1000SOL    HW1 3899   3.886   1.860   1.371
 1000SOL    HW2 3900   3.916   1.816   1.217
 1001SOL     OW 3901   2.872   7.008   1.977
 1001SOL    HW1 3902   2.830   6.920   2.001
 1001SOL    HW2 3903   2.841   0.058   2.041
 1002SOL     OW 3904   5.248   2.671   1.472
 1002SOL    HW1 3905   5.245   2.751   1.413
 1002SOL    HW2 3906   5.327   2.614   1.447
 1003SOL     OW 3907   1.225   6.050   2.426
 1003SOL    HW1 3908   1.246   6.078   2.332
 1003SOL    HW2 3909   1.138   6.000   2.427
 1004SOL     OW 3910   6.324   1.552   3.464
 1004SOL    HW1 3911   6.308   1.644   3.428
 1004SOL    HW2 3912   6.399   1.509   3.414
 1005SOL     OW 3913   1.271   4.298   3.847
 1005SOL    HW1 3914   1.200   4.340   3.790
 1005SOL    HW2 3915   1.270   4.199   3.834
 1006SOL     OW 3916   2.155   4.224   0.397
 1006SOL    HW1 3917   2.147   4.222   0.497
 1006SOL    HW2 3918   2.185   4.135   0.364
 1007SOL     OW 3919   4.583   1.444   6.992
 1007SOL    HW1 3920   4.575   1.346   6.971
 1007SOL    HW2 3921   4.608   1.455   0.068
 1008SOL     OW 3922   0.616   4.829   5.045
 1008SOL    HW1 3923   0.662   4.894   4.985
 1008SOL    HW2 3924   0.543   4.874   5.094
 1009SOL     OW 3925   6.048   5.061   5.212
 1009SOL    HW1 3926   5.992   5.062   5.294
 1009SOL    HW2 3927   6.065   4.966   5.184
 1010SOL     OW 3928   2.283   3.157   1.501
 1010SOL    HW1 3929   2.311   3.210   1.581
 1010SOL    HW2 3930   2.300   3.060   1.519
 1011SOL     OW 3931   0.615   5.168   2.457
 1011SOL    HW1 3932   0.656   5.117   2.532
 1011SOL    HW2 3933   0.649   5.134   2.370
 1012SOL     OW 3934   6.040   0.327   2.447
 1012SOL    HW1 3935   6.006   0.354   2.357
 1012SOL    HW2 3936   6.105   0.252   2.436
 1013SOL     OW 3937   6.982   0.883   5.735
 1013SOL    HW1 3938   6.895   0.933   5.735
 1013SOL    HW2 3939   7.013   0.872   5.641
 1014SOL     OW 3940   1.576   4.647   3.731
 1014SOL    HW1 3941   1.553   4.593   3.812
 1014SOL    HW2 3942   1.672   4.675   3.735
 1015SOL     OW 3943   3.301   0.223   6.419
 1015SOL    HW1 3944   3.327   0.319   6.414
 1015SOL    HW2 3945   3.281   0.198   6.514
 1016SOL     OW 3946   5.279   3.818   1.276
 1016SOL    HW1 3947   5.180   3.829   1.277
 1016SOL    HW2 3948   5.320   3.873   1.350
 1017SOL     OW 3949   2.033   1.511   1.783
 1017SOL    HW1 3950   1.997   1.432   1.733
 1017SOL    HW2 3951   2.045   1.587   1.720
 1018SOL     OW 3952   0.140   5.096   3.508
 1018SOL    HW1 3953   0.238   5.115   3.494
 1018SOL    HW2 3954   0.124   4.998   3.502
 1019SOL     OW 3955   6.822   4.908   0.777
 1019SOL    HW1 3956   6.732   4.951   0.767
 1019SOL    HW2 3957   6.834   4.840   0.705
 1020SOL     OW 3958   0.246   0.228   1.767
 1020SOL    HW1 3959   0.323   0.265   1.820
 1020SOL    HW2 3960   0.217   0.295   1.699
 1021SOL     OW 3961   6.400   6.058   1.896
 1021SOL    HW1 3962   6.443   6.053   1.987
 1021SOL    HW2 3963   6.409   5.969   1.850
 1022SOL     OW 3964   2.389   6.340   6.317
 1022SOL    HW1 3965   2.393   6.436   6.345
 1022SOL    HW2 3966   2.312   6.295   6.362
 1023SOL     OW 3967   0.259   1.632   2.764
 1023SOL    HW1 3968   0.334   1.698   2.764
 1023SOL    HW2 3969   0.180   1.671   2.715
 1024SOL     OW 3970   0.838   1.506   5.014
 1024SOL    HW1 3971   0.838   1.474   4.919
 1024SOL    HW2 3972   0.824   1.605   5.016
 1025SOL     OW 3973   5.279   3.555   6.403
 1025SOL    HW1 3974   5.269   3.558   6.304
 1025SOL    HW2 3975   5.337   3.631   6.433
 1026SOL     OW 3976   3.074   2.566   1.438
 1026SOL    HW1 3977   3.071   2.611   1.527
 1026SOL    HW2 3978   3.091   2.468   1.451
 1027SOL     OW 3979   1.148   6.267   1.565
 1027SOL    HW1 3980   1.177   6.345   1.620
 1027SOL    HW2 3981   1.102   6.200   1.624
 1028SOL     OW 3982   0.960   6.388   3.163
 1028SOL    HW1 3983   1.013   6.356   3.242
 1028SOL    HW2 3984   0.967   6.321   3.089
 1029SOL     OW 3985   1.046   2.267   5.706
 1029SOL    HW1 3986   0.956   2.291   5.744
 1029SOL    HW2 3987   1.107   2.240   5.781
 1030SOL     OW 3988   3.250   3.404   1.586
 1030SOL    HW1 3989   3.212   3.496   1.581
 1030SOL    HW2 3990   3.349   3.408   1.574
 1031SOL     OW 3991   3.671   3.295   1.509
 1031SOL    HW1 3992   3.635   3.253   1.592
 1031SOL    HW2 3993   3.763   3.259   1.491
 1032SOL     OW 3994   2.121   1.152   5.997
 1032SOL    HW1 3995   2.105   1.216   6.071
 1032SOL    HW2 3996   2.040   1.147   5.939
 1033SOL     OW 3997   0.863   5.910   2.168
 1033SOL    HW1 3998   0.904   5.828   2.129
 1033SOL    HW2 3999   0.763   5.901   2.166
 1034SOL     OW 4000   3.451   6.740   4.376
 1034SOL    HW1 4001   3.479   6.696   4.291
 1034SOL    HW2 4002   3.437   6.670   4.447
 1035SOL     OW 4003   0.678   1.685   5.639
 1035SOL    HW1 4004   0.598   1.737   5.611
 1035SOL    HW2 4005   0.650   1.594   5.670
 1036SOL     OW 4006   4.832   0.986   1.379
 1036SOL    HW1 4007   4.845   0.959   1.474
 1036SOL    HW2 4008   4.770   1.064   1.374
 1037SOL     OW 4009   2.189   2.483   2.865
 1037SOL    HW1 4010   2.114   2.433   2.907
 1037SOL    HW2 4011   2.181   2.479   2.765
 1038SOL     OW 4012   2.288   0.323   6.885
 1038SOL    HW1 4013   2.294   0.393   6.815
 1038SOL    HW2 4014   2.217   0.256   6.860
 1039SOL     OW 4015   3.149   3.347   3.398
 1039SOL    HW1 4016   3.063   3.395   3.377
 1039SOL    HW2 4017   3.225   3.411   3.393
 1040SOL     OW 4018   4.725   0.980   2.643
 1040SOL    HW1 4019   4.714   0.935   2.554
 1040SOL    HW2 4020   4.762   1.072   2.629
 1041SOL     OW 4021   0.001   6.394   4.863
 1041SOL    HW1 4022   0.026   6.318   4.803
 1041SOL    HW2 4023   6.958   6.455   4.816
 1042SOL     OW 4024   4.845   4.826   2.280
 1042SOL    HW1 4025   4.775   4.815   2.351
 1042SOL    HW2 4026   4.914   4.755   2.290
 1043SOL     OW 4027   3.414   1.328   3.591
 1043SOL    HW1 4028   3.457   1.382   3.519
 1043SOL    HW2 4029   3.320   1.306   3.564
 1044SOL     OW 4030   6.080   4.637   1.127
 1044SOL    HW1 4031   6.072   4.715   1.188
 1044SOL    HW2 4032   6.043   4.555   1.170
 1045SOL     OW 4033   2.317   0.558   3.604
 1045SOL    HW1 4034   2.285   0.466   3.582
 1045SOL    HW2 4035   2.238   0.617   3.620
 1046SOL     OW 4036   3.088   1.313   1.187
 1046SOL    HW1 4037   3.160   1.287   1.251
 1046SOL    HW2 4038   3.100   1.408   1.158
 1047SOL     OW 4039   3.197   6.742   3.747
 1047SOL    HW1 4040   3.139   6.716   3.824
 1047SOL    HW2 4041   3.167   6.693   3.665
 1048SOL     OW 4042   1.996   5.780   2.211
 1048SOL    HW1 4043   1.922   5.847   2.201
 1048SOL    HW2 4044   1.998   5.720   2.131
 1049SOL     OW 4045   3.783   6.963   4.245
 1049SOL    HW1 4046   3.854   0.013   4.255
 1049SOL    HW2 4047   3.764   6.949   4.148
 1050SOL     OW 4048   4.015   5.303   3.779
 1050SOL    HW1 4049   3.992   5.388   3.733
 1050SOL    HW2 4050   4.102   5.315   3.829
 1051SOL     OW 4051   0.029   6.717   0.134
 1051SOL    HW1 4052   0.108   6.714   0.073
 1051SOL    HW2 4053   6.977   6.658   0.098
 1052SOL     OW 4054   4.046   0.370   6.295
 1052SOL    HW1 4055   3.949   0.353   6.311
 1052SOL    HW2 4056   4.097   0.349   6.378
 1053SOL     OW 4057   5.884   3.423   2.178
 1053SOL    HW1 4058   5.936   3.458   2.255
 1053SOL    HW2 4059   5.814   3.489   2.152
 1054SOL     OW 4060   3.308   4.121   0.839
 1054SOL    HW1 4061   3.272   4.052   0.776
 1054SOL    HW2 4062   3.380   4.174   0.793
 1055SOL     OW 4063   4.895   5.865   7.014
 1055SOL    HW1 4064   4.978   5.910   6.982
 1055SOL    HW2 4065   4.905   5.841   0.090
 1056SOL     OW 4066   1.915   4.466   0.474
 1056SOL    HW1 4067   2.005   4.466   0.518
 1056SOL    HW2 4068   1.848   4.424   0.535
 1057SOL     OW 4069   3.478   1.916   1.632
 1057SOL    HW1 4070   3.543   1.860   1.580
 1057SOL    HW2 4071   3.522   2.001   1.658
 1058SOL     OW 4072   3.845   2.116   2.922
 1058SOL    HW1 4073   3.866   2.063   2.840
 1058SOL    HW2 4074   3.752   2.097   2.951
 1059SOL     OW 4075   2.125   5.906   1.669
 1059SOL    HW1 4076   2.178   5.990   1.654
 1059SOL    HW2 4077   2.046   5.906   1.608
 1060SOL     OW 4078   0.475   5.639   4.507
 1060SOL    HW1 4079   0.432   5.663   4.420
 1060SOL    HW2 4080   0.539   5.711   4.534
 1061SOL     OW 4081   6.386   3.946   0.053
 1061SOL    HW1 4082   6.476   3.988   0.038
 1061SOL    HW2 4083   6.391   3.848   0.033
 1062SOL     OW 4084   3.956   6.437   4.967
 1062SOL    HW1 4085   3.975   6.534   4.956
 1062SOL    HW2 4086   4.029   6.384   4.924
 1063SOL     OW 4087   0.927   0.006   5.958
 1063SOL    HW1 4088   0.845   0.026   5.903
 1063SOL    HW2 4089   1.007   0.003   5.898
 1064SOL     OW 4090   1.062   4.579   1.244
 1064SOL    HW1 4091   1.109   4.643   1.184
 1064SOL    HW2 4092   1.056   4.490   1.199
 1065SOL     OW 4093   3.915   0.892   3.977
 1065SOL    HW1 4094   3.951   0.955   4.046
 1065SOL    HW2 4095   3.988   0.866   3.914
 1066SOL     OW 4096   4.883   0.464   2.224
 1066SOL    HW1 4097   4.789   0.474   2.193
 1066SOL    HW2 4098   4.887   0.397   2.299
 1067SOL     OW 4099   2.909   0.833   0.326
 1067SOL    HW1 4100   2.878   0.898   0.257
 1067SOL    HW2 4101   2.995   0.791   0.296
 1068SOL     OW 4102   6.089   3.603   1.015
 1068SOL    HW1 4103   5.999   3.567   0.993
 1068SOL    HW2 4104   6.145   3.531   1.056
 1069SOL     OW 4105   5.907   4.256   0.800
 1069SOL    HW1 4106   5.942   4.270   0.892
 1069SOL    HW2 4107   5.873   4.162   0.791
 1070SOL     OW 4108   2.212   0.591   2.393
 1070SOL    HW1 4109   2.174   0.581   2.485
 1070SOL    HW2 4110   2.153   0.546   2.327
 1071SOL     OW 4111   6.893   2.476   4.949
 1071SOL    HW1 4112   6.844   2.433   4.873
 1071SOL    HW2 4113   6.969   2.418   4.977
 1072SOL     OW 4114   2.750   0.648   1.898
 1072SOL    HW1 4115   2.782   0.705   1.973
 1072SOL    HW2 4116   2.650   0.655   1.892
 1073SOL     OW 4117   5.490   1.615   3.238
 1073SOL    HW1 4118   5.478   1.698   3.292
 1073SOL    HW2 4119   5.401   1.587   3.200
 1074SOL     OW 4120   3.155   4.833   2.133
 1074SOL    HW1 4121   3.153   4.754   2.194
 1074SOL    HW2 4122   3.250   4.856   2.111
 1075SOL     OW 4123   5.811   1.867   5.043
 1075SOL    HW1 4124   5.807   1.865   5.143
 1075SOL    HW2 4125   5.847   1.955   5.012
 1076SOL     OW 4126   2.078   4.006   5.212
 1076SOL    HW1 4127   2.064   3.922   5.265
 1076SOL    HW2 4128   2.171   4.008   5.177
 1077SOL     OW 4129   6.912   0.479   0.186
 1077SOL    HW1 4130   6.912   0.500   0.284
 1077SOL    HW2 4131   6.936   0.561   0.135
 1078SOL     OW 4132   6.387   6.896   4.128
 1078SOL    HW1 4133   6.309   6.836   4.114
 1078SOL    HW2 4134   6.469   6.842   4.143
 1079SOL     OW 4135   1.432   5.748   2.581
 1079SOL    HW1 4136   1.344   5.720   2.619
 1079SOL    HW2 4137   1.468   5.826   2.633
 1080SOL     OW 4138   2.202   5.754   5.272
 1080SOL    HW1 4139   2.130   5.823   5.276
 1080SOL    HW2 4140   2.200   5.709   5.183
 1081SOL     OW 4141   6.710   5.515   4.634
 1081SOL    HW1 4142   6.799   5.510   4.680
 1081SOL    HW2 4143   6.660   5.595   4.668
 1082SOL     OW 4144   5.609   0.134   5.810
 1082SOL    HW1 4145   5.585   0.219   5.762
 1082SOL    HW2 4146   5.570   0.136   5.902
 1083SOL     OW 4147   5.217   4.043   0.599
 1083SOL    HW1 4148   5.215   4.047   0.699
 1083SOL    HW2 4149   5.189   4.131   0.561
 1084SOL     OW 4150   6.713   6.805   6.624
 1084SOL    HW1 4151   6.771   6.740   6.576
 1084SOL    HW2 4152   6.619   6.798   6.590
 1085SOL     OW 4153   1.722   3.765   4.195
 1085SOL    HW1 4154   1.686   3.835   4.257
 1085SOL    HW2 4155   1.776   3.699   4.247
 1086SOL     OW 4156   6.569   4.696   6.178
 1086SOL    HW1 4157   6.627   4.620   6.205
 1086SOL    HW2 4158   6.606   4.738   6.095
 1087SOL     OW 4159   1.281   0.811   5.263
 1087SOL    HW1 4160   1.262   0.879   5.334
 1087SOL    HW2 4161   1.209   0.742   5.263
 1088SOL     OW 4162   6.776   5.124   3.801
 1088SOL    HW1 4163   6.788   5.123   3.901
 1088SOL    HW2 4164   6.855   5.167   3.758
 1089SOL     OW 4165   0.043   5.078   4.626
 1089SOL    HW1 4166   0.026   4.991   4.672
 1089SOL    HW2 4167   0.050   5.151   4.695
 1090SOL     OW 4168   5.887   1.710   4.512
 1090SOL    HW1 4169   5.975   1.692   4.557
 1090SOL    HW2 4170   5.831   1.768   4.571
 1091SOL     OW 4171   2.134   3.442   3.748
 1091SOL    HW1 4172   2.182   3.469   3.831
 1091SOL    HW2 4173   2.155   3.346   3.727
 1092SOL     OW 4174   1.070   5.204   1.089
 1092SOL    HW1 4175   1.044   5.122   1.141
 1092SOL    HW2 4176   0.989   5.258   1.069
 1093SOL     OW 4177   2.437   6.556   1.440
 1093SOL    HW1 4178   2.475   6.537   1.530
 1093SOL    HW2 4179   2.398   6.649   1.439
 1094SOL     OW 4180   1.273   6.986   2.671
 1094SOL    HW1 4181   1.211   6.992   2.592
 1094SOL    HW2 4182   1.321   0.052   2.681
 1095SOL     OW 4183   0.151   2.937   6.681
 1095SOL    HW1 4184   0.173   3.032   6.705
 1095SOL    HW2 4185   0.158   2.926   6.582
 1096SOL     OW 4186   2.869   5.827   0.913
 1096SOL    HW1 4187   2.944   5.761   0.919
 1096SOL    HW2 4188   2.893   5.909   0.966
 1097SOL     OW 4189   1.670   5.196   3.745
 1097SOL    HW1 4190   1.663   5.164   3.839
 1097SOL    HW2 4191   1.734   5.138   3.695
 1098SOL     OW 4192   6.125   4.056   6.866
 1098SOL    HW1 4193   6.134   4.070   6.768
 1098SOL    HW2 4194   6.204   4.004   6.900
 1099SOL     OW 4195   4.403   1.539   6.201
 1099SOL    HW1 4196   4.488   1.523   6.150
 1099SOL    HW2 4197   4.378   1.455   6.250
 1100SOL     OW 4198   4.154   0.806   3.898
 1100SOL    HW1 4199   4.170   0.773   3.805
 1100SOL    HW2 4200   4.190   0.739   3.963
 1101SOL     OW 4201   5.582   2.886   5.377
 1101SOL    HW1 4202   5.550   2.959   5.316
 1101SOL    HW2 4203   5.672   2.909   5.412
 1102SOL     OW 4204   2.367   0.608   4.520
 1102SOL    HW1 4205   2.315   0.594   4.435
 1102SOL    HW2 4206   2.349   0.700   4.554
 1103SOL     OW 4207   2.918   1.201   6.635
 1103SOL    HW1 4208   2.819   1.217   6.639
 1103SOL    HW2 4209   2.949   1.214   6.541
 1104SOL     OW 4210   0.857   4.581   3.231
 1104SOL    HW1 4211   0.859   4.482   3.240
 1104SOL    HW2 4212   0.772   4.616   3.270
 1105SOL     OW 4213   5.526   1.795   5.028
 1105SOL    HW1 4214   5.493   1.782   5.121
 1105SOL    HW2 4215   5.622   1.822   5.030
 1106SOL     OW 4216   0.982   1.255   0.178
 1106SOL    HW1 4217   0.949   1.169   0.140
 1106SOL    HW2 4218   0.975   1.252   0.278
 1107SOL     OW 4219   1.340   0.548   6.382
 1107SOL    HW1 4220   1.264   0.510   6.331
 1107SOL    HW2 4221   1.322   0.644   6.404
 1108SOL     OW 4222   3.067   6.151   4.619
 1108SOL    HW1 4223   3.107   6.222   4.561
 1108SOL    HW2 4224   3.070   6.063   4.570
 1109SOL     OW 4225   5.643   1.396   3.806
 1109SOL    HW1 4226   5.555   1.437   3.783
 1109SOL    HW2 4227   5.717   1.453   3.771
 1110SOL     OW 4228   3.370   1.098   2.632
 1110SOL    HW1 4229   3.334   1.103   2.539
 1110SOL    HW2 4230   3.298   1.067   2.694
 1111SOL     OW 4231   4.792   4.008   6.348
 1111SOL    HW1 4232   4.826   4.099   6.371
 1111SOL    HW2 4233   4.753   4.009   6.255
 1112SOL     OW 4234   6.323   0.193   2.961
 1112SOL    HW1 4235   6.277   0.149   2.883
 1112SOL    HW2 4236   6.314   0.292   2.953
 1113SOL     OW 4237   6.230   4.007   2.865
 1113SOL    HW1 4238   6.143   3.970   2.897
 1113SOL    HW2 4239   6.293   3.932   2.845
 1114SOL     OW 4240   3.897   2.632   6.016
 1114SOL    HW1 4241   3.955   2.699   6.061
 1114SOL    HW2 4242   3.944   2.543   6.013
 1115SOL     OW 4243   3.202   3.962   5.628
 1115SOL    HW1 4244   3.117   4.013   5.640
 1115SOL    HW2 4245   3.210   3.932   5.532
 1116SOL     OW 4246   4.874   1.434   0.418
 1116SOL    HW1 4247   4.837   1.341   0.422
 1116SOL    HW2 4248   4.878   1.464   0.323
 1117SOL     OW 4249   1.270   2.660   1.638
 1117SOL    HW1 4250   1.247   2.663   1.541
 1117SOL    HW2 4251   1.290   2.566   1.665
 1118SOL     OW 4252   2.763   5.453   6.921
 1118SOL    HW1 4253   2.854   5.470   6.959
 1118SOL    HW2 4254   2.771   5.431   6.824
 1119SOL     OW 4255   3.913   4.852   3.295
 1119SOL    HW1 4256   3.985   4.790   3.327
 1119SOL    HW2 4257   3.869   4.895   3.374
 1120SOL     OW 4258   6.599   5.470   1.121
 1120SOL    HW1 4259   6.631   5.563   1.100
 1120SOL    HW2 4260   6.638   5.440   1.207
 1121SOL     OW 4261   1.075   5.182   4.451
 1121SOL    HW1 4262   1.020   5.155   4.530
 1121SOL    HW2 4263   1.023   5.168   4.367
 1122SOL     OW 4264   5.593   3.049   2.092
 1122SOL    HW1 4265   5.659   3.057   2.016
 1122SOL    HW2 4266   5.631   3.092   2.174
 1123SOL     OW 4267   4.348   2.007   3.062
 1123SOL    HW1 4268   4.301   2.092   3.038
 1123SOL    HW2 4269   4.411   1.982   2.989
 1124SOL     OW 4270   1.903   2.577   5.190
 1124SOL    HW1 4271   1.985   2.623   5.156
 1124SOL    HW2 4272   1.822   2.622   5.152
 1125SOL     OW 4273   2.004   3.669   4.602
 1125SOL    HW1 4274   1.980   3.629   4.514
 1125SOL    HW2 4275   1.932   3.732   4.630
 1126SOL     OW 4276   4.183   5.813   5.673
 1126SOL    HW1 4277   4.214   5.864   5.592
 1126SOL    HW2 4278   4.255   5.815   5.742
 1127SOL     OW 4279   5.168   6.184   3.712
 1127SOL    HW1 4280   5.154   6.275   3.750
 1127SOL    HW2 4281   5.081   6.135   3.712
 1128SOL     OW 4282   6.125   1.000   3.627
 1128SOL    HW1 4283   6.029   0.978   3.646
 1128SOL    HW2 4284   6.167   0.925   3.576
 1129SOL     OW 4285   1.766   6.527   1.086
 1129SOL    HW1 4286   1.757   6.616   1.040
 1129SOL    HW2 4287   1.863   6.503   1.090
 1130SOL     OW 4288   1.825   5.328   2.809
 1130SOL    HW1 4289   1.803   5.425   2.820
 1130SOL    HW2 4290   1.925   5.317   2.813
 1131SOL     OW 4291   1.105   6.916   4.236
 1131SOL    HW1 4292   1.121   6.909   4.138
 1131SOL    HW2 4293   1.077   6.827   4.272
 1132SOL     OW 4294   4.489   0.849   2.736
 1132SOL    HW1 4295   4.493   0.843   2.836
 1132SOL    HW2 4296   4.553   0.919   2.705
 1133SOL     OW 4297   1.421   0.047   4.906
 1133SOL    HW1 4298   1.386   7.007   4.978
 1133SOL    HW2 4299   1.360   0.043   4.827
 1134SOL     OW 4300   4.775   6.707   1.650
 1134SOL    HW1 4301   4.796   6.802   1.674
 1134SOL    HW2 4302   4.748   6.657   1.732
 1135SOL     OW 4303   2.650   6.486   3.507
 1135SOL    HW1 4304   2.689   6.424   3.439
 1135SOL    HW2 4305   2.602   6.433   3.577
 1136SOL     OW 4306   2.566   5.982   2.798
 1136SOL    HW1 4307   2.499   6.055   2.782
 1136SOL    HW2 4308   2.555   5.911   2.727
 1137SOL     OW 4309   0.531   6.255   6.525
 1137SOL    HW1 4310   0.629   6.237   6.520
 1137SOL    HW2 4311   0.504   6.269   6.620
 1138SOL     OW 4312   1.882   3.422   5.407
 1138SOL    HW1 4313   1.890   3.376   5.496
 1138SOL    HW2 4314   1.958   3.486   5.396
 1139SOL     OW 4315   2.537   4.610   4.125
 1139SOL    HW1 4316   2.541   4.685   4.060
 1139SOL    HW2 4317   2.471   4.542   4.093
 1140SOL     OW 4318   2.052   1.228   1.438
 1140SOL    HW1 4319   1.988   1.293   1.396
 1140SOL    HW2 4320   2.125   1.278   1.483
 1141SOL     OW 4321   5.719   5.100   6.227
 1141SOL    HW1 4322   5.751   5.025   6.284
 1141SOL    HW2 4323   5.757   5.187   6.261
 1142SOL     OW 4324   2.479   6.921   3.792
 1142SOL    HW1 4325   2.556   6.861   3.768
 1142SOL    HW2 4326   2.476   6.931   3.892
 1143SOL     OW 4327   1.343   3.612   1.681
 1143SOL    HW1 4328   1.389   3.607   1.592
 1143SOL    HW2 4329   1.385   3.683   1.737
 1144SOL     OW 4330   5.435   4.363   2.633
 1144SOL    HW1 4331   5.489   4.353   2.550
 1144SOL    HW2 4332   5.492   4.403   2.705
 1145SOL     OW 4333   1.159   2.281   0.723
 1145SOL    HW1 4334   1.118   2.222   0.654
 1145SOL    HW2 4335   1.119   2.262   0.812
 1146SOL     OW 4336   0.566   1.382   1.687
 1146SOL    HW1 4337   0.568   1.482   1.675
 1146SOL    HW2 4338   0.607   1.359   1.776
 1147SOL     OW 4339   3.234   5.630   1.284
 1147SOL    HW1 4340   3.237   5.730   1.281
 1147SOL    HW2 4341   3.278   5.598   1.368
 1148SOL     OW 4342   4.174   6.075   1.940
 1148SOL    HW1 4343   4.210   6.121   1.859
 1148SOL    HW2 4344   4.074   6.074   1.935
 1149SOL     OW 4345   6.326   2.961   1.787
 1149SOL    HW1 4346   6.314   3.032   1.717
 1149SOL    HW2 4347   6.247   2.899   1.784
 1150SOL     OW 4348   1.685   4.428   6.978
 1150SOL    HW1 4349   1.767   4.407   6.924
 1150SOL    HW2 4350   1.604   4.422   6.919
 1151SOL     OW 4351   6.590   5.415   3.718
 1151SOL    HW1 4352   6.664   5.454   3.663
 1151SOL    HW2 4353   6.623   5.396   3.810
 1152SOL     OW 4354   4.509   0.979   0.082
 1152SOL    HW1 4355   4.499   0.933   7.015
 1152SOL    HW2 4356   4.426   0.966   0.137
 1153SOL     OW 4357   0.065   0.050   1.449
 1153SOL    HW1 4358   0.133   0.123   1.448
 1153SOL    HW2 4359   0.094   6.996   1.389
 1154SOL     OW 4360   1.217   3.220   2.760
 1154SOL    HW1 4361   1.202   3.158   2.683
 1154SOL    HW2 4362   1.299   3.274   2.744
 1155SOL     OW 4363   2.404   6.888   4.907
 1155SOL    HW1 4364   2.313   6.902   4.947
 1155SOL    HW2 4365   2.473   6.933   4.964
 1156SOL     OW 4366   3.811   1.669   4.309
 1156SOL    HW1 4367   3.830   1.764   4.334
 1156SOL    HW2 4368   3.896   1.625   4.281
 1157SOL     OW 4369   4.085   0.672   5.470
 1157SOL    HW1 4370   4.148   0.720   5.408
 1157SOL    HW2 4371   4.110   0.576   5.477
 1158SOL     OW 4372   4.964   5.988   3.889
 1158SOL    HW1 4373   4.941   5.933   3.808
 1158SOL    HW2 4374   5.046   5.951   3.932
 1159SOL     OW 4375   6.653   6.455   3.330
 1159SOL    HW1 4376   6.652   6.371   3.276
 1159SOL    HW2 4377   6.568   6.464   3.381
 1160SOL     OW 4378   4.230   6.789   1.079
 1160SOL    HW1 4379   4.327   6.767   1.067
 1160SOL    HW2 4380   4.210   6.799   1.176
 1161SOL     OW 4381   6.659   5.256   6.515
 1161SOL    HW1 4382   6.637   5.284   6.422
 1161SOL    HW2 4383   6.745   5.206   6.515
 1162SOL     OW 4384   1.929   2.889   5.532
 1162SOL    HW1 4385   1.878   2.807   5.556
 1162SOL    HW2 4386   2.023   2.864   5.507
 1163SOL     OW 4387   5.950   4.200   2.073
 1163SOL    HW1 4388   5.925   4.185   1.978
 1163SOL    HW2 4389   6.048   4.222   2.079
 1164SOL     OW 4390   5.525   2.146   4.508
 1164SOL    HW1 4391   5.495   2.051   4.495
 1164SOL    HW2 4392   5.539   2.163   4.606
 1165SOL     OW 4393   4.635   5.928   3.466
 1165SOL    HW1 4394   4.547   5.910   3.423
 1165SOL    HW2 4395   4.669   6.017   3.435
 1166SOL     OW 4396   2.135   6.508   6.546
 1166SOL    HW1 4397   2.115   6.598   6.507
 1166SOL    HW2 4398   2.065   6.443   6.517
 1167SOL     OW 4399   4.929   4.076   2.054
 1167SOL    HW1 4400   4.888   4.153   2.102
 1167SOL    HW2 4401   4.999   4.109   1.991
 1168SOL     OW 4402   6.213   2.617   2.584
 1168SOL    HW1 4403   6.249   2.696   2.634
 1168SOL    HW2 4404   6.254   2.614   2.492
 1169SOL     OW 4405   5.986   1.070   5.627
 1169SOL    HW1 4406   6.066   1.100   5.678
 1169SOL    HW2 4407   5.911   1.052   5.691
 1170SOL     OW 4408   4.962   0.101   3.082
 1170SOL    HW1 4409   5.056   0.105   3.047
 1170SOL    HW2 4410   4.943   0.007   3.112
 1171SOL     OW 4411   1.798   6.967   0.517
 1171SOL    HW1 4412   1.718   0.004   0.532
 1171SOL    HW2 4413   1.842   6.947   0.605
 1172SOL     OW 4414   5.869   3.426   0.568
 1172SOL    HW1 4415   5.831   3.362   0.635
 1172SOL    HW2 4416   5.884   3.514   0.612
 1173SOL     OW 4417   2.548   0.625   1.236
 1173SOL    HW1 4418   2.479   0.575   1.289
 1173SOL    HW2 4419   2.555   0.585   1.145
 1174SOL     OW 4420   3.510   3.722   1.632
 1174SOL    HW1 4421   3.538   3.812   1.663
 1174SOL    HW2 4422   3.469   3.671   1.708
 1175SOL     OW 4423   4.294   3.292   5.634
 1175SOL    HW1 4424   4.347   3.376   5.623
 1175SOL    HW2 4425   4.294   3.265   5.731
 1176SOL     OW 4426   4.758   3.207   5.975
 1176SOL    HW1 4427   4.815   3.128   5.993
 1176SOL    HW2 4428   4.669   3.177   5.941
 1177SOL     OW 4429   6.278   2.642   5.392
 1177SOL    HW1 4430   6.179   2.638   5.382
 1177SOL    HW2 4431   6.307   2.582   5.467
 1178SOL     OW 4432   2.853   4.038   0.819
 1178SOL    HW1 4433   2.881   3.970   0.751
 1178SOL    HW2 4434   2.912   4.118   0.812
 1179SOL     OW 4435   2.057   6.116   0.333
 1179SOL    HW1 4436   2.069   6.199   0.387
 1179SOL    HW2 4437   2.029   6.041   0.393
 1180SOL     OW 4438   3.245   5.597   2.035
 1180SOL    HW1 4439   3.232   5.522   2.099
 1180SOL    HW2 4440   3.256   5.683   2.085
 1181SOL     OW 4441   0.711   5.431   6.568
 1181SOL    HW1 4442   0.634   5.408   6.508
 1181SOL    HW2 4443   0.768   5.350   6.581
 1182SOL     OW 4444   3.591   5.667   3.266
 1182SOL    HW1 4445   3.573   5.766   3.266
 1182SOL    HW2 4446   3.541   5.624   3.341
 1183SOL     OW 4447   1.854   4.845   0.372
 1183SOL    HW1 4448   1.826   4.846   0.468
 1183SOL    HW2 4449   1.802   4.776   0.322
 1184SOL     OW 4450   0.689   0.668   4.363
 1184SOL    HW1 4451   0.696   0.721   4.279
 1184SOL    HW2 4452   0.754   0.592   4.361
 1185SOL     OW 4453   0.104   0.939   6.410
 1185SOL    HW1 4454   0.160   1.022   6.418
 1185SOL    HW2 4455   0.092   0.917   6.313
 1186SOL     OW 4456   4.996   5.310   4.579
 1186SOL    HW1 4457   4.898   5.303   4.560
 1186SOL    HW2 4458   5.041   5.223   4.557
 1187SOL     OW 4459   6.637   6.743   6.892
 1187SOL    HW1 4460   6.662   6.781   6.803
 1187SOL    HW2 4461   6.578   6.807   6.940
 1188SOL     OW 4462   3.001   6.214   5.216
 1188SOL    HW1 4463   3.019   6.261   5.302
 1188SOL    HW2 4464   2.974   6.281   5.146
 1189SOL     OW 4465   6.631   3.290   2.726
 1189SOL    HW1 4466   6.619   3.364   2.660
 1189SOL    HW2 4467   6.707   3.232   2.695
 1190SOL     OW 4468   2.369   6.061   3.469
 1190SOL    HW1 4469   2.414   6.128   3.528
 1190SOL    HW2 4470   2.273   6.086   3.456
 1191SOL     OW 4471   4.263   5.053   3.159
 1191SOL    HW1 4472   4.253   5.014   3.251
 1191SOL    HW2 4473   4.175   5.091   3.129
 1192SOL     OW 4474   3.277   5.538   3.188
 1192SOL    HW1 4475   3.329   5.456   3.164
 1192SOL    HW2 4476   3.305   5.614   3.129
 1193SOL     OW 4477   5.994   4.325   4.590
 1193SOL    HW1 4478   6.093   4.313   4.601
 1193SOL    HW2 4479   5.975   4.365   4.500
 1194SOL     OW 4480   5.400   6.889   1.873
 1194SOL    HW1 4481   5.307   6.877   1.907
 1194SOL    HW2 4482   5.465   6.869   1.947
 1195SOL     OW 4483   6.351   4.446   1.815
 1195SOL    HW1 4484   6.327   4.542   1.825
 1195SOL    HW2 4485   6.407   4.434   1.733
 1196SOL     OW 4486   6.934   5.962   2.946
 1196SOL    HW1 4487   6.943   6.052   2.904
 1196SOL    HW2 4488   6.952   5.891   2.878
 1197SOL     OW 4489   3.700   1.068   6.453
 1197SOL    HW1 4490   3.786   1.050   6.406
 1197SOL    HW2 4491   3.704   1.032   6.546
 1198SOL     OW 4492   1.086   3.063   1.629
 1198SOL    HW1 4493   1.051   3.142   1.680
 1198SOL    HW2 4494   1.186   3.062   1.633
 1199SOL     OW 4495   4.688   4.952   1.620
 1199SOL    HW1 4496   4.644   4.878   1.671
 1199SOL    HW2 4497   4.698   4.924   1.524
 1200SOL     OW 4498   3.304   3.527   2.882
 1200SOL    HW1 4499   3.252   3.451   2.844
 1200SOL    HW2 4500   3.255   3.613   2.864
 1201SOL     OW 4501   0.947   0.885   4.512
 1201SOL    HW1 4502   0.990   0.904   4.600
 1201SOL    HW2 4503   0.908   0.793   4.513
 1202SOL     OW 4504   0.617   5.809   6.377
 1202SOL    HW1 4505   0.612   5.829   6.279
 1202SOL    HW2 4506   0.696   5.751   6.395
 1203SOL     OW 4507   5.640   6.175   6.553
 1203SOL    HW1 4508   5.562   6.124   6.589
 1203SOL    HW2 4509   5.724   6.136   6.589
 1204SOL     OW 4510   2.623   0.272   1.308
 1204SOL    HW1 4511   2.657   0.317   1.391
 1204SOL    HW2 4512   2.526   0.294   1.297
 1205SOL     OW 4513   5.392   3.989   1.450
 1205SOL    HW1 4514   5.395   4.076   1.400
 1205SOL    HW2 4515   5.446   3.997   1.534
 1206SOL     OW 4516   3.279   2.858   4.973
 1206SOL    HW1 4517   3.266   2.917   4.893
 1206SOL    HW2 4518   3.198   2.866   5.033
 1207SOL     OW 4519   1.998   0.231   1.035
 1207SOL    HW1 4520   1.905   0.235   1.071
 1207SOL    HW2 4521   2.044   0.319   1.050
 1208SOL     OW 4522   3.252   4.194   0.430
 1208SOL    HW1 4523   3.157   4.215   0.408
 1208SOL    HW2 4524   3.307   4.277   0.424
 1209SOL     OW 4525   3.835   0.787   5.481
 1209SOL    HW1 4526   3.755   0.767   5.425
 1209SOL    HW2 4527   3.905   0.717   5.465
 1210SOL     OW 4528   2.517   7.013   2.770
 1210SOL    HW1 4529   2.586   0.057   2.804
 1210SOL    HW2 4530   2.426   0.025   2.795
 1211SOL     OW 4531   2.016   3.518   1.319
 1211SOL    HW1 4532   2.037   3.467   1.236
 1211SOL    HW2 4533   2.100   3.546   1.364
 1212SOL     OW 4534   0.181   0.840   6.108
 1212SOL    HW1 4535   0.162   0.748   6.143
 1212SOL    HW2 4536   0.101   0.876   6.061
 1213SOL     OW 4537   5.833   2.500   0.534
 1213SOL    HW1 4538   5.857   2.464   0.444
 1213SOL    HW2 4539   5.905   2.560   0.567
 1214SOL     OW 4540   0.026   2.272   0.570
 1214SOL    HW1 4541   0.125   2.278   0.574
 1214SOL    HW2 4542   7.008   2.365   0.568
 1215SOL     OW 4543   1.554   4.153   4.022
 1215SOL    HW1 4544   1.629   4.086   4.017
 1215SOL    HW2 4545   1.476   4.119   3.970
 1216SOL     OW 4546   3.964   0.754   0.374
 1216SOL    HW1 4547   3.910   0.724   0.295
 1216SOL    HW2 4548   3.995   0.848   0.359
 1217SOL     OW 4549   1.279   5.313   0.927
 1217SOL    HW1 4550   1.251   5.314   0.831
 1217SOL    HW2 4551   1.213   5.261   0.981
 1218SOL     OW 4552   1.688   4.745   4.451
 1218SOL    HW1 4553   1.676   4.652   4.486
 1218SOL    HW2 4554   1.697   4.808   4.528
 1219SOL     OW 4555   5.453   5.641   2.090
 1219SOL    HW1 4556   5.377   5.578   2.076
 1219SOL    HW2 4557   5.419   5.735   2.089
 1220SOL     OW 4558   0.833   5.313   3.122
 1220SOL    HW1 4559   0.775   5.336   3.200
 1220SOL    HW2 4560   0.776   5.290   3.043
 1221SOL     OW 4561   5.178   2.753   5.598
 1221SOL    HW1 4562   5.182   2.667   5.650
 1221SOL    HW2 4563   5.266   2.801   5.606
 1222SOL     OW 4564   6.170   0.119   0.019
 1222SOL    HW1 4565   6.185   0.065   6.957
 1222SOL    HW2 4566   6.140   0.211   7.016
 1223SOL     OW 4567   3.977   0.519   0.726
 1223SOL    HW1 4568   3.893   0.467   0.741
 1223SOL    HW2 4569   4.033   0.516   0.808
 1224SOL     OW 4570   2.386   6.665   1.114
 1224SOL    HW1 4571   2.385   6.691   1.211
 1224SOL    HW2 4572   2.292   6.657   1.081
 1225SOL     OW 4573   3.417   4.352   6.232
 1225SOL    HW1 4574   3.410   4.394   6.142
 1225SOL    HW2 4575   3.373   4.262   6.231
 1226SOL     OW 4576   2.567   4.532   1.183
 1226SOL    HW1 4577   2.631   4.506   1.110
 1226SOL    HW2 4578   2.594   4.485   1.268
 1227SOL     OW 4579   6.992   3.282   6.891
 1227SOL    HW1 4580   6.940   3.250   6.970
 1227SOL    HW2 4581   0.015   3.370   6.913
 1228SOL     OW 4582   3.730   3.468   6.379
 1228SOL    HW1 4583   3.693   3.447   6.470
 1228SOL    HW2 4584   3.654   3.489   6.317
 1229SOL     OW 4585   4.406   4.614   6.031
 1229SOL    HW1 4586   4.358   4.608   5.943
 1229SOL    HW2 4587   4.415   4.523   6.071
 1230SOL     OW 4588   4.494   0.515   4.675
 1230SOL    HW1 4589   4.454   0.531   4.585
 1230SOL    HW2 4590   4.506   0.602   4.722
 1231SOL     OW 4591   1.662   3.915   5.004
 1231SOL    HW1 4592   1.642   3.952   5.095
 1231SOL    HW2 4593   1.645   3.816   5.004
 1232SOL     OW 4594   0.985   2.014   5.162
 1232SOL    HW1 4595   1.083   1.998   5.149
 1232SOL    HW2 4596   0.945   2.050   5.079
 1233SOL     OW 4597   1.895   2.988   5.131
 1233SOL    HW1 4598   1.908   3.080   5.169
 1233SOL    HW2 4599   1.979   2.958   5.086
 1234SOL     OW 4600   6.929   4.203   3.848
 1234SOL    HW1 4601   6.909   4.202   3.750
 1234SOL    HW2 4602   6.846   4.179   3.898
 1235SOL     OW 4603   6.855   6.209   2.424
 1235SOL    HW1 4604   6.945   6.186   2.461
 1235SOL    HW2 4605   6.865   6.239   2.330
 1236SOL     OW 4606   5.163   1.013   6.461
 1236SOL    HW1 4607   5.070   0.976   6.455
 1236SOL    HW2 4608   5.222   0.947   6.507
 1237SOL     OW 4609   2.664   4.877   6.132
 1237SOL    HW1 4610   2.602   4.800   6.115
 1237SOL    HW2 4611   2.743   4.845   6.183
 1238SOL     OW 4612   2.046   1.249   0.975
 1238SOL    HW1 4613   2.097   1.164   0.989
 1238SOL    HW2 4614   2.063   1.283   0.882
 1239SOL     OW 4615   6.829   6.127   6.321
 1239SOL    HW1 4616   6.828   6.070   6.404
 1239SOL    HW2 4617   6.753   6.100   6.262
 1240SOL     OW 4618   5.822   6.483   1.676
 1240SOL    HW1 4619   5.820   6.394   1.721
 1240SOL    HW2 4620   5.908   6.529   1.698
 1241SOL     OW 4621   6.440   3.509   3.876
 1241SOL    HW1 4622   6.491   3.485   3.958
 1241SOL    HW2 4623   6.342   3.498   3.893
 1242SOL     OW 4624   1.698   3.577   7.012
 1242SOL    HW1 4625   1.720   3.657   0.047
 1242SOL    HW2 4626   1.782   3.527   6.990
 1243SOL     OW 4627   1.892   5.669   5.486
 1243SOL    HW1 4628   1.948   5.620   5.553
 1243SOL    HW2 4629   1.904   5.629   5.396
 1244SOL     OW 4630   6.962   6.973   2.858
 1244SOL    HW1 4631   6.868   6.942   2.845
 1244SOL    HW2 4632   7.014   6.957   2.774
 1245SOL     OW 4633   3.675   3.777   6.486
 1245SOL    HW1 4634   3.706   3.682   6.489
 1245SOL    HW2 4635   3.578   3.781   6.461
 1246SOL     OW 4636   2.141   6.345   2.342
 1246SOL    HW1 4637   2.177   6.401   2.416
 1246SOL    HW2 4638   2.068   6.396   2.295
 1247SOL     OW 4639   2.605   6.999   6.636
 1247SOL    HW1 4640   2.631   0.027   6.720
 1247SOL    HW2 4641   2.675   6.932   6.613
 1248SOL     OW 4642   1.404   6.741   3.909
 1248SOL    HW1 4643   1.344   6.704   3.838
 1248SOL    HW2 4644   1.460   6.814   3.870
 1249SOL     OW 4645   5.476   2.712   2.379
 1249SOL    HW1 4646   5.544   2.703   2.452
 1249SOL    HW2 4647   5.389   2.672   2.410
 1250SOL     OW 4648   1.089   4.526   4.491
 1250SOL    HW1 4649   1.160   4.469   4.533
 1250SOL    HW2 4650   1.113   4.623   4.500
 1251SOL     OW 4651   3.995   0.348   4.540
 1251SOL    HW1 4652   4.072   0.312   4.593
 1251SOL    HW2 4653   3.911   0.339   4.593
 1252SOL     OW 4654   3.476   3.887   5.816
 1252SOL    HW1 4655   3.565   3.904   5.773
 1252SOL    HW2 4656   3.406   3.935   5.764
 1253SOL     OW 4657   3.540   5.661   2.165
 1253SOL    HW1 4658   3.538   5.730   2.092
 1253SOL    HW2 4659   3.509   5.701   2.250
 1254SOL     OW 4660   6.006   2.703   2.943
 1254SOL    HW1 4661   5.971   2.710   3.036
 1254SOL    HW2 4662   6.012   2.794   2.903
 1255SOL     OW 4663   6.938   0.618   5.414
 1255SOL    HW1 4664   6.927   0.711   5.380
 1255SOL    HW2 4665   6.897   0.611   5.505
 1256SOL     OW 4666   6.933   0.057   3.094
 1256SOL    HW1 4667   7.009   0.071   3.158
 1256SOL    HW2 4668   6.968   0.025   3.006
 1257SOL     OW 4669   6.879   0.765   3.061
 1257SOL    HW1 4670   6.814   0.763   2.986
 1257SOL    HW2 4671   6.836   0.727   3.143
 1258SOL     OW 4672   0.945   5.561   3.195
 1258SOL    HW1 4673   0.930   5.462   3.185
 1258SOL    HW2 4674   1.043   5.578   3.204
 1259SOL     OW 4675   4.232   1.657   4.706
 1259SOL    HW1 4676   4.173   1.713   4.648
 1259SOL    HW2 4677   4.175   1.595   4.760
 1260SOL     OW 4678   1.108   1.102   6.354
 1260SOL    HW1 4679   1.076   1.007   6.346
 1260SOL    HW2 4680   1.100   1.147   6.265
 1261SOL     OW 4681   6.890   5.289   0.297
 1261SOL    HW1 4682   6.976   5.246   0.271
 1261SOL    HW2 4683   6.813   5.235   0.262
 1262SOL     OW 4684   5.762   5.538   1.764
 1262SOL    HW1 4685   5.717   5.449   1.752
 1262SOL    HW2 4686   5.764   5.562   1.861
 1263SOL     OW 4687   0.965   1.925   2.441
 1263SOL    HW1 4688   0.989   1.950   2.347
 1263SOL    HW2 4689   0.918   1.837   2.442
 1264SOL     OW 4690   1.299   3.905   5.087
 1264SOL    HW1 4691   1.330   3.969   5.017
 1264SOL    HW2 4692   1.222   3.945   5.136
 1265SOL     OW 4693   6.403   5.436   4.996
 1265SOL    HW1 4694   6.429   5.523   5.038
 1265SOL    HW2 4695   6.363   5.453   4.906
 1266SOL     OW 4696   1.147   1.210   4.886
 1266SOL    HW1 4697   1.176   1.126   4.930
 1266SOL    HW2 4698   1.070   1.191   4.824
 1267SOL     OW 4699   4.885   0.787   1.834
 1267SOL    HW1 4700   4.943   0.852   1.784
 1267SOL    HW2 4701   4.789   0.812   1.822
 1268SOL     OW 4702   4.095   2.442   5.393
 1268SOL    HW1 4703   4.099   2.500   5.474
 1268SOL    HW2 4704   4.139   2.490   5.316
 1269SOL     OW 4705   5.409   2.259   4.110
 1269SOL    HW1 4706   5.404   2.214   4.199
 1269SOL    HW2 4707   5.374   2.352   4.117
 1270SOL     OW 4708   1.941   4.849   2.560
 1270SOL    HW1 4709   2.030   4.883   2.529
 1270SOL    HW2 4710   1.878   4.925   2.574
 1271SOL     OW 4711   1.853   1.400   1.069
 1271SOL    HW1 4712   1.926   1.364   1.010
 1271SOL    HW2 4713   1.892   1.427   1.157
 1272SOL     OW 4714   6.456   3.827   6.526
 1272SOL    HW1 4715   6.420   3.746   6.480
 1272SOL    HW2 4716   6.523   3.872   6.467
 1273SOL     OW 4717   1.573   4.478   5.275
 1273SOL    HW1 4718   1.556   4.395   5.222
 1273SOL    HW2 4719   1.520   4.475   5.360
 1274SOL     OW 4720   0.244   4.422   2.327
 1274SOL    HW1 4721   0.218   4.473   2.245
 1274SOL    HW2 4722   0.162   4.398   2.379
 1275SOL     OW 4723   3.246   0.996   3.679
 1275SOL    HW1 4724   3.253   1.096   3.684
 1275SOL    HW2 4725   3.165   0.966   3.729
 1276SOL     OW 4726   5.473   4.966   4.180
 1276SOL    HW1 4727   5.444   5.017   4.100
 1276SOL    HW2 4728   5.558   5.005   4.215
 1277SOL     OW 4729   0.449   5.792   6.921
 1277SOL    HW1 4730   0.469   5.698   6.949
 1277SOL    HW2 4731   0.531   5.833   6.882
 1278SOL     OW 4732   1.595   6.797   3.275
 1278SOL    HW1 4733   1.506   6.820   3.314
 1278SOL    HW2 4734   1.667   6.823   3.339
 1279SOL     OW 4735   2.925   3.364   6.381
 1279SOL    HW1 4736   2.937   3.355   6.480
 1279SOL    HW2 4737   2.872   3.286   6.347
 1280SOL     OW 4738   3.115   1.300   3.574
 1280SOL    HW1 4739   3.060   1.231   3.527
 1280SOL    HW2 4740   3.061   1.344   3.645
 1281SOL     OW 4741   3.420   6.046   3.915
 1281SOL    HW1 4742   3.458   6.124   3.965
 1281SOL    HW2 4743   3.362   5.992   3.976
 1282SOL     OW 4744   6.924   2.969   0.779
 1282SOL    HW1 4745   6.837   2.920   0.781
 1282SOL    HW2 4746   6.999   2.903   0.774
 1283SOL     OW 4747   6.498   3.941   5.338
 1283SOL    HW1 4748   6.573   3.879   5.361
 1283SOL    HW2 4749   6.473   3.930   5.242
 1284SOL     OW 4750   3.554   1.315   1.112
 1284SOL    HW1 4751   3.651   1.309   1.134
 1284SOL    HW2 4752   3.535   1.262   1.029
 1285SOL     OW 4753   3.427   1.495   4.575
 1285SOL    HW1 4754   3.462   1.497   4.481
 1285SOL    HW2 4755   3.486   1.551   4.633
 1286SOL     OW 4756   5.020   2.707   1.608
 1286SOL    HW1 4757   5.111   2.674   1.581
 1286SOL    HW2 4758   4.997   2.788   1.554
 1287SOL     OW 4759   6.340   4.686   4.943
 1287SOL    HW1 4760   6.343   4.780   4.978
 1287SOL    HW2 4761   6.428   4.664   4.900
 1288SOL     OW 4762   4.614   4.509   6.377
 1288SOL    HW1 4763   4.636   4.445   6.450
 1288SOL    HW2 4764   4.577   4.593   6.416
 1289SOL     OW 4765   6.349   0.534   1.103
 1289SOL    HW1 4766   6.322   0.439   1.084
 1289SOL    HW2 4767   6.267   0.589   1.118
 1290SOL     OW 4768   1.455   0.593   0.268
 1290SOL    HW1 4769   1.489   0.680   0.232
 1290SOL    HW2 4770   1.362   0.605   0.302
 1291SOL     OW 4771   6.738   4.952   3.047
 1291SOL    HW1 4772   6.678   5.000   3.111
 1291SOL    HW2 4773   6.737   4.854   3.067
 1292SOL     OW 4774   6.977   5.660   2.333
 1292SOL    HW1 4775   6.947   5.676   2.239
 1292SOL    HW2 4776   6.946   5.735   2.391
 1293SOL     OW 4777   2.398   1.434   6.799
 1293SOL    HW1 4778   2.340   1.502   6.753
 1293SOL    HW2 4779   2.435   1.473   6.883
 1294SOL     OW 4780   2.033   4.198   6.297
 1294SOL    HW1 4781   2.054   4.291   6.328
 1294SOL    HW2 4782   2.051   4.191   6.199
 1295SOL     OW 4783   0.251   3.807   1.183
 1295SOL    HW1 4784   0.340   3.850   1.199
 1295SOL    HW2 4785   0.251   3.763   1.093
 1296SOL     OW 4786   4.840   6.783   5.760
 1296SOL    HW1 4787   4.937   6.761   5.759
 1296SOL    HW2 4788   4.787   6.699   5.768
 1297SOL     OW 4789   0.705   0.417   2.756
 1297SOL    HW1 4790   0.613   0.395   2.723
 1297SOL    HW2 4791   0.747   0.334   2.792
 1298SOL     OW 4792   5.526   5.810   2.510
 1298SOL    HW1 4793   5.562   5.724   2.476
 1298SOL    HW2 4794   5.570   5.886   2.462
 1299SOL     OW 4795   2.059   3.165   4.193
 1299SOL    HW1 4796   2.129   3.112   4.146
 1299SOL    HW2 4797   2.054   3.138   4.289
 1300SOL     OW 4798   2.631   4.154   0.695
 1300SOL    HW1 4799   2.693   4.099   0.751
 1300SOL    HW2 4800   2.537   4.139   0.726
 1301SOL     OW 4801   0.864   0.727   1.697
 1301SOL    HW1 4802   0.910   0.640   1.681
 1301SOL    HW2 4803   0.772   0.725   1.657
 1302SOL     OW 4804   5.441   6.941   6.260
 1302SOL    HW1 4805   5.453   7.007   6.185
 1302SOL    HW2 4806   5.529   6.897   6.280
 1303SOL     OW 4807   4.148   6.456   2.047
 1303SOL    HW1 4808   4.049   6.447   2.052
 1303SOL    HW2 4809   4.172   6.543   2.004
 1304SOL     OW 4810   1.377   1.392   1.251
 1304SOL    HW1 4811   1.431   1.425   1.174
 1304SOL    HW2 4812   1.436   1.378   1.330
 1305SOL     OW 4813   5.051   4.823   6.589
 1305SOL    HW1 4814   5.102   4.854   6.509
 1305SOL    HW2 4815   5.082   4.873   6.670
 1306SOL     OW 4816   1.426   5.853   5.003
 1306SOL    HW1 4817   1.467   5.902   5.080
 1306SOL    HW2 4818   1.496   5.834   4.934
 1307SOL     OW 4819   1.737   2.959   3.847
 1307SOL    HW1 4820   1.779   3.035   3.797
 1307SOL    HW2 4821   1.703   2.891   3.781
 1308SOL     OW 4822   6.557   5.753   6.745
 1308SOL    HW1 4823   6.603   5.729   6.830
 1308SOL    HW2 4824   6.611   5.719   6.668
 1309SOL     OW 4825   5.118   4.702   6.167
 1309SOL    HW1 4826   5.088   4.709   6.072
 1309SOL    HW2 4827   5.043   4.669   6.223
 1310SOL     OW 4828   1.112   3.663   3.988
 1310SOL    HW1 4829   1.153   3.634   3.902
 1310SOL    HW2 4830   1.184   3.693   4.051
 1311SOL     OW 4831   6.439   5.708   0.108
 1311SOL    HW1 4832   6.496   5.626   0.099
 1311SOL    HW2 4833   6.377   5.697   0.185
 1312SOL     OW 4834   0.705   1.030   5.655
 1312SOL    HW1 4835   0.790   0.989   5.689
 1312SOL    HW2 4836   0.727   1.110   5.599
 1313SOL     OW 4837   6.055   5.021   3.318
 1313SOL    HW1 4838   6.020   5.086   3.251
 1313SOL    HW2 4839   6.059   5.064   3.408
 1314SOL     OW 4840   2.346   1.710   5.096
 1314SOL    HW1 4841   2.392   1.774   5.035
 1314SOL    HW2 4842   2.341   1.749   5.188
 1315SOL     OW 4843   6.541   0.671   4.178
 1315SOL    HW1 4844   6.459   0.721   4.149
 1315SOL    HW2 4845   6.523   0.623   4.264
 1316SOL     OW 4846   3.973   0.418   5.187
 1316SOL    HW1 4847   3.940   0.505   5.222
 1316SOL    HW2 4848   3.898   0.370   5.141
 1317SOL     OW 4849   2.854   3.720   6.145
 1317SOL    HW1 4850   2.814   3.707   6.235
 1317SOL    HW2 4851   2.932   3.658   6.134
 1318SOL     OW 4852   2.194   2.368   6.964
 1318SOL    HW1 4853   2.221   2.417   6.882
 1318SOL    HW2 4854   2.102   2.332   6.952
 1319SOL     OW 4855   6.838   6.407   0.359
 1319SOL    HW1 4856   6.930   6.368   0.353
 1319SOL    HW2 4857   6.770   6.334   0.348
 1320SOL     OW 4858   3.483   3.116   6.513
 1320SOL    HW1 4859   3.420   3.188   6.487
 1320SOL    HW2 4860   3.494   3.052   6.437
 1321SOL     OW 4861   5.454   1.664   6.946
 1321SOL    HW1 4862   5.359   1.661   6.912
 1321SOL    HW2 4863   5.461   1.607   0.007
 1322SOL     OW 4864   3.359   1.064   5.951
 1322SOL    HW1 4865   3.359   1.113   6.038
 1322SOL    HW2 4866   3.453   1.056   5.918
 1323SOL     OW 4867   3.336   6.917   0.594
 1323SOL    HW1 4868   3.399   6.841   0.580
 1323SOL    HW2 4869   3.268   6.891   0.663
 1324SOL     OW 4870   1.324   3.901   0.201
 1324SOL    HW1 4871   1.249   3.854   0.248
 1324SOL    HW2 4872   1.343   3.855   0.115
 1325SOL     OW 4873   2.458   6.176   5.793
 1325SOL    HW1 4874   2.475   6.195   5.890
 1325SOL    HW2 4875   2.435   6.260   5.745
 1326SOL     OW 4876   4.700   4.158   4.901
 1326SOL    HW1 4877   4.765   4.083   4.892
 1326SOL    HW2 4878   4.618   4.125   4.949
 1327SOL     OW 4879   0.593   6.801   1.207
 1327SOL    HW1 4880   0.545   6.845   1.131
 1327SOL    HW2 4881   0.625   6.711   1.179
 1328SOL     OW 4882   0.938   3.425   5.806
 1328SOL    HW1 4883   0.991   3.351   5.765
 1328SOL    HW2 4884   0.904   3.396   5.896
 1329SOL     OW 4885   0.414   2.442   2.561
 1329SOL    HW1 4886   0.463   2.520   2.599
 1329SOL    HW2 4887   0.392   2.459   2.465
 1330SOL     OW 4888   6.798   2.223   0.970
 1330SOL    HW1 4889   6.774   2.309   0.926
 1330SOL    HW2 4890   6.840   2.162   0.903
 1331SOL     OW 4891   4.550   2.346   2.465
 1331SOL    HW1 4892   4.485   2.403   2.515
 1331SOL    HW2 4893   4.643   2.377   2.483
 1332SOL     OW 4894   1.903   0.577   0.891
 1332SOL    HW1 4895   1.827   0.541   0.945
 1332SOL    HW2 4896   1.891   0.675   0.877
 1333SOL     OW 4897   3.970   3.727   3.112
 1333SOL    HW1 4898   3.961   3.819   3.149
 1333SOL    HW2 4899   4.032   3.673   3.169
 1334SOL     OW 4900   6.818   1.731   2.863
 1334SOL    HW1 4901   6.799   1.655   2.926
 1334SOL    HW2 4902   6.878   1.699   2.790
 1335SOL     OW 4903   1.949   3.783   1.713
 1335SOL    HW1 4904   1.859   3.742   1.696
 1335SOL    HW2 4905   2.004   3.719   1.767
 1336SOL     OW 4906   3.648   0.910   5.695
 1336SOL    HW1 4907   3.548   0.902   5.691
 1336SOL    HW2 4908   3.690   0.851   5.627
 1337SOL     OW 4909   6.461   1.444   3.219
 1337SOL    HW1 4910   6.519   1.477   3.145
 1337SOL    HW2 4911   6.472   1.345   3.229
 1338SOL     OW 4912   6.404   3.844   4.016
 1338SOL    HW1 4913   6.331   3.778   4.036
 1338SOL    HW2 4914   6.435   3.886   4.102
 1339SOL     OW 4915   0.227   0.410   0.078
 1339SOL    HW1 4916   0.184   0.403   7.008
 1339SOL    HW2 4917   0.187   0.487   0.128
 1340SOL     OW 4918   5.335   1.701   1.800
 1340SOL    HW1 4919   5.312   1.794   1.769
 1340SOL    HW2 4920   5.261   1.667   1.859
 1341SOL     OW 4921   4.555   6.739   6.958
 1341SOL    HW1 4922   4.533   6.835   6.974
 1341SOL    HW2 4923   4.557   6.722   6.859
 1342SOL     OW 4924   3.217   5.426   0.680
 1342SOL    HW1 4925   3.314   5.409   0.697
 1342SOL    HW2 4926   3.166   5.341   0.692
 1343SOL     OW 4927   5.455   5.107   2.780
 1343SOL    HW1 4928   5.443   5.138   2.874
 1343SOL    HW2 4929   5.451   5.185   2.718
 1344SOL     OW 4930   0.086   6.852   4.385
 1344SOL    HW1 4931   0.147   6.903   4.325
 1344SOL    HW2 4932   0.126   6.763   4.406
 1345SOL     OW 4933   0.359   5.243   1.767
 1345SOL    HW1 4934   0.309   5.304   1.705
 1345SOL    HW2 4935   0.318   5.152   1.765
 1346SOL     OW 4936   2.413   5.581   5.466
 1346SOL    HW1 4937   2.440   5.675   5.484
 1346SOL    HW2 4938   2.361   5.576   5.380
 1347SOL     OW 4939   1.701   0.126   5.924
 1347SOL    HW1 4940   1.768   0.163   5.989
 1347SOL    HW2 4941   1.704   0.026   5.926
 1348SOL     OW 4942   6.953   5.700   5.423
 1348SOL    HW1 4943   6.882   5.762   5.389
 1348SOL    HW2 4944   6.987   5.732   5.511
 1349SOL     OW 4945   5.665   2.916   3.872
 1349SOL    HW1 4946   5.651   3.003   3.826
 1349SOL    HW2 4947   5.700   2.931   3.964
 1350SOL     OW 4948   3.508   4.070   0.469
 1350SOL    HW1 4949   3.433   4.133   0.450
 1350SOL    HW2 4950   3.472   3.977   0.478
 1351SOL     OW 4951   5.951   2.026   3.840
 1351SOL    HW1 4952   5.869   2.001   3.893
 1351SOL    HW2 4953   6.019   1.954   3.848
 1352SOL     OW 4954   6.851   0.401   2.277
 1352SOL    HW1 4955   6.804   0.447   2.352
 1352SOL    HW2 4956   6.799   0.320   2.250
 1353SOL     OW 4957   0.334   1.785   0.786
 1353SOL    HW1 4958   0.282   1.869   0.802
 1353SOL    HW2 4959   0.327   1.725   0.865
 1354SOL     OW 4960   6.754   4.336   2.305
 1354SOL    HW1 4961   6.777   4.302   2.396
 1354SOL    HW2 4962   6.817   4.409   2.280
 1355SOL     OW 4963   6.045   3.519   4.363
 1355SOL    HW1 4964   6.002   3.472   4.286
 1355SOL    HW2 4965   5.997   3.605   4.380
 1356SOL     OW 4966   3.692   3.049   2.417
 1356SOL    HW1 4967   3.631   2.981   2.376
 1356SOL    HW2 4968   3.663   3.141   2.390
 1357SOL     OW 4969   6.536   3.661   5.993
 1357SOL    HW1 4970   6.466   3.611   5.941
 1357SOL    HW2 4971   6.495   3.742   6.035
 1358SOL     OW 4972   0.565   6.927   6.821
 1358SOL    HW1 4973   0.647   6.912   6.765
 1358SOL    HW2 4974   0.592   6.930   6.917
 1359SOL     OW 4975   6.366   4.168   1.589
 1359SOL    HW1 4976   6.458   4.198   1.611
 1359SOL    HW2 4977   6.309   4.247   1.566
 1360SOL     OW 4978   3.553   3.094   6.860
 1360SOL    HW1 4979   3.509   3.010   6.889
 1360SOL    HW2 4980   3.491   3.146   6.801
 1361SOL     OW 4981   0.114   4.599   4.659
 1361SOL    HW1 4982   0.211   4.598   4.636
 1361SOL    HW2 4983   0.095   4.529   4.728
 1362SOL     OW 4984   3.915   2.999   2.535
 1362SOL    HW1 4985   3.836   3.019   2.478
 1362SOL    HW2 4986   3.987   2.959   2.478
 1363SOL     OW 4987   6.890   5.416   5.192
 1363SOL    HW1 4988   6.877   5.515   5.184
 1363SOL    HW2 4989   6.972   5.397   5.246
 1364SOL     OW 4990   4.666   4.416   0.013
 1364SOL    HW1 4991   4.683   4.480   6.958
 1364SOL    HW2 4992   4.626   4.332   6.997
 1365SOL     OW 4993   0.678   3.733   6.581
 1365SOL    HW1 4994   0.757   3.776   6.538
 1365SOL    HW2 4995   0.696   3.635   6.594
 1366SOL     OW 4996   1.186   0.573   4.816
 1366SOL    HW1 4997   1.261   0.550   4.753
 1366SOL    HW2 4998   1.181   0.505   4.889
 1367SOL     OW 4999   1.884   1.447   2.492
 1367SOL    HW1 5000   1.971   1.436   2.541
 1367SOL    HW2 5001   1.858   1.360   2.450
 1368SOL     OW 5002   5.652   0.156   4.139
 1368SOL    HW1 5003   5.616   0.213   4.213
 1368SOL    HW2 5004   5.585   0.152   4.064
 1369SOL     OW 5005   0.300   6.964   3.160
 1369SOL    HW1 5006   0.263   6.877   3.195
 1369SOL    HW2 5007   0.397   6.953   3.139
 1370SOL     OW 5008   3.178   1.012   1.484
 1370SOL    HW1 5009   3.237   1.080   1.527
 1370SOL    HW2 5010   3.230   0.960   1.417
 1371SOL     OW 5011   3.888   0.544   5.840
 1371SOL    HW1 5012   3.888   0.572   5.936
 1371SOL    HW2 5013   3.975   0.568   5.798
 1372SOL     OW 5014   2.687   2.142   1.701
 1372SOL    HW1 5015   2.757   2.079   1.734
 1372SOL    HW2 5016   2.704   2.233   1.739
 1373SOL     OW 5017   0.438   5.337   1.454
 1373SOL    HW1 5018   0.429   5.358   1.357
 1373SOL    HW2 5019   0.511   5.270   1.468
 1374SOL     OW 5020   4.210   2.486   1.019
 1374SOL    HW1 5021   4.261   2.528   1.094
 1374SOL    HW2 5022   4.192   2.554   0.948
 1375SOL     OW 5023   0.307   4.947   6.240
 1375SOL    HW1 5024   0.313   4.953   6.141
 1375SOL    HW2 5025   0.313   4.851   6.268
 1376SOL     OW 5026   4.842   3.151   3.591
 1376SOL    HW1 5027   4.841   3.099   3.676
 1376SOL    HW2 5028   4.809   3.094   3.516
 1377SOL     OW 5029   7.014   5.028   5.390
 1377SOL    HW1 5030   6.990   5.075   5.475
 1377SOL    HW2 5031   6.940   4.965   5.366
 1378SOL     OW 5032   1.461   2.241   0.048
 1378SOL    HW1 5033   1.535   2.215   0.110
 1378SOL    HW2 5034   1.414   2.158   0.018
 1379SOL     OW 5035   3.646   6.557   2.735
 1379SOL    HW1 5036   3.554   6.570   2.697
 1379SOL    HW2 5037   3.713   6.601   2.675
 1380SOL     OW 5038   6.544   6.863   2.455
 1380SOL    HW1 5039   6.495   6.937   2.408
 1380SOL    HW2 5040   6.632   6.848   2.411
 1381SOL     OW 5041   6.381   2.091   7.018
 1381SOL    HW1 5042   6.471   2.048   7.007
 1381SOL    HW2 5043   6.343   2.065   0.086
 1382SOL     OW 5044   5.368   4.703   6.512
 1382SOL    HW1 5045   5.446   4.761   6.537
 1382SOL    HW2 5046   5.306   4.695   6.590
 1383SOL     OW 5047   1.528   0.387   0.422
 1383SOL    HW1 5048   1.595   0.346   0.361
 1383SOL    HW2 5049   1.491   0.470   0.381
 1384SOL     OW 5050   3.627   1.794   2.770
 1384SOL    HW1 5051   3.552   1.817   2.708
 1384SOL    HW2 5052   3.645   1.872   2.830
 1385SOL     OW 5053   6.838   3.223   3.020
 1385SOL    HW1 5054   6.857   3.268   2.932
 1385SOL    HW2 5055   6.744   3.243   3.047
 1386SOL     OW 5056   1.998   3.098   4.447
 1386SOL    HW1 5057   1.940   3.173   4.480
 1386SOL    HW2 5058   2.052   3.062   4.524
 1387SOL     OW 5059   2.943   0.140   4.865
 1387SOL    HW1 5060   3.013   0.165   4.797
 1387SOL    HW2 5061   2.863   0.198   4.853
 1388SOL     OW 5062   6.386   1.251   3.958
 1388SOL    HW1 5063   6.426   1.316   4.023
 1388SOL    HW2 5064   6.303   1.291   3.919
 1389SOL     OW 5065   6.077   7.011   4.662
 1389SOL    HW1 5066   6.096   6.932   4.720
 1389SOL    HW2 5067   5.998   6.992   4.604
 1390SOL     OW 5068   4.500   2.052   1.824
 1390SOL    HW1 5069   4.468   1.973   1.772
 1390SOL    HW2 5070   4.544   2.117   1.761
 1391SOL     OW 5071   5.399   0.773   4.419
 1391SOL    HW1 5072   5.483   0.755   4.368
 1391SOL    HW2 5073   5.422   0.815   4.507
 1392SOL     OW 5074   5.274   5.679   6.293
 1392SOL    HW1 5075   5.332   5.657   6.214
 1392SOL    HW2 5076   5.238   5.594   6.333
 1393SOL     OW 5077   6.821   1.137   6.314
 1393SOL    HW1 5078   6.893   1.099   6.372
 1393SOL    HW2 5079   6.768   1.204   6.366
 1394SOL     OW 5080   4.559   6.849   3.625
 1394SOL    HW1 5081   4.503   6.773   3.659
 1394SOL    HW2 5082   4.605   6.893   3.702
 1395SOL     OW 5083   1.611   4.803   2.667
 1395SOL    HW1 5084   1.654   4.890   2.639
 1395SOL    HW2 5085   1.599   4.803   2.766
 1396SOL     OW 5086   2.228   1.035   4.334
 1396SOL    HW1 5087   2.310   1.090   4.351
 1396SOL    HW2 5088   2.150   1.095   4.317
 1397SOL     OW 5089   0.584   5.374   4.483
 1397SOL    HW1 5090   0.532   5.459   4.488
 1397SOL    HW2 5091   0.538   5.310   4.422
 1398SOL     OW 5092   0.773   0.993   1.165
 1398SOL    HW1 5093   0.779   1.058   1.241
 1398SOL    HW2 5094   0.826   0.911   1.187
 1399SOL     OW 5095   3.897   0.212   0.489
 1399SOL    HW1 5096   3.986   0.252   0.510
 1399SOL    HW2 5097   3.910   0.121   0.450
 1400SOL     OW 5098   6.182   0.509   4.521
 1400SOL    HW1 5099   6.231   0.590   4.488
 1400SOL    HW2 5100   6.155   0.453   4.442
 1401SOL     OW 5101   5.299   0.516   3.188
 1401SOL    HW1 5102   5.335   0.589   3.131
 1401SOL    HW2 5103   5.370   0.485   3.251
 1402SOL     OW 5104   6.254   4.280   2.019
 1402SOL    HW1 5105   6.270   4.315   2.112
 1402SOL    HW2 5106   6.302   4.338   1.953
 1403SOL     OW 5107   3.217   3.053   7.003
 1403SOL    HW1 5108   3.297   2.993   7.005
 1403SOL    HW2 5109   3.141   3.010   0.032
 1404SOL     OW 5110   4.211   6.733   0.719
 1404SOL    HW1 5111   4.255   6.822   0.716
 1404SOL    HW2 5112   4.149   6.728   0.797
 1405SOL     OW 5113   1.857   3.544   0.581
 1405SOL    HW1 5114   1.918   3.566   0.656
 1405SOL    HW2 5115   1.800   3.624   0.561
 1406SOL     OW 5116   2.554   3.276   1.117
 1406SOL    HW1 5117   2.647   3.308   1.103
 1406SOL    HW2 5118   2.522   3.229   1.035
 1407SOL     OW 5119   0.845   2.970   0.912
 1407SOL    HW1 5120   0.805   3.034   0.846
 1407SOL    HW2 5121   0.945   2.980   0.911
 1408SOL     OW 5122   5.747   6.236   6.853
 1408SOL    HW1 5123   5.761   6.158   6.792
 1408SOL    HW2 5124   5.803   6.313   6.822
 1409SOL     OW 5125   6.808   1.801   5.807
 1409SOL    HW1 5126   6.908   1.797   5.816
 1409SOL    HW2 5127   6.782   1.761   5.719
 1410SOL     OW 5128   3.670   2.119   6.110
 1410SOL    HW1 5129   3.716   2.183   6.049
 1410SOL    HW2 5130   3.674   2.027   6.071
 1411SOL     OW 5131   4.238   5.307   0.227
 1411SOL    HW1 5132   4.176   5.376   0.263
 1411SOL    HW2 5133   4.186   5.227   0.197
 1412SOL     OW 5134   2.070   2.811   0.701
 1412SOL    HW1 5135   1.996   2.813   0.635
 1412SOL    HW2 5136   2.139   2.879   0.676
 1413SOL     OW 5137   1.706   1.834   5.351
 1413SOL    HW1 5138   1.639   1.761   5.340
 1413SOL    HW2 5139   1.667   1.907   5.407
 1414SOL     OW 5140   1.445   4.170   2.103
 1414SOL    HW1 5141   1.527   4.134   2.059
 1414SOL    HW2 5142   1.422   4.113   2.182
 1415SOL     OW 5143   1.968   1.908   4.552
 1415SOL    HW1 5144   1.974   1.998   4.509
 1415SOL    HW2 5145   1.891   1.858   4.514
 1416SOL     OW 5146   4.102   0.408   5.423
 1416SOL    HW1 5147   4.052   0.355   5.492
 1416SOL    HW2 5148   4.062   0.390   5.333
 1417SOL     OW 5149   3.796   3.177   5.827
 1417SOL    HW1 5150   3.811   3.086   5.790
 1417SOL    HW2 5151   3.707   3.179   5.873
 1418SOL     OW 5152   3.534   4.279   6.738
 1418SOL    HW1 5153   3.525   4.296   6.640
 1418SOL    HW2 5154   3.626   4.245   6.758
 1419SOL     OW 5155   2.050   4.636   2.707
 1419SOL    HW1 5156   1.979   4.574   2.673
 1419SOL    HW2 5157   2.023   4.731   2.688
 1420SOL     OW 5158   2.897   6.043   3.376
 1420SOL    HW1 5159   2.864   5.971   3.315
 1420SOL    HW2 5160   2.966   6.098   3.330
 1421SOL     OW 5161   1.212   5.019   5.721
 1421SOL    HW1 5162   1.263   5.102   5.745
 1421SOL    HW2 5163   1.115   5.040   5.716
 1422SOL     OW 5164   2.386   3.980   5.725
 1422SOL    HW1 5165   2.471   3.963   5.775
 1422SOL    HW2 5166   2.384   3.924   5.642
 1423SOL     OW 5167   4.384   1.147   5.199
 1423SOL    HW1 5168   4.454   1.153   5.270
 1423SOL    HW2 5169   4.424   1.174   5.111
 1424SOL     OW 5170   5.793   2.805   6.623
 1424SOL    HW1 5171   5.702   2.805   6.665
 1424SOL    HW2 5172   5.805   2.720   6.570
 1425SOL     OW 5173   4.679   6.489   3.890
 1425SOL    HW1 5174   4.654   6.573   3.939
 1425SOL    HW2 5175   4.692   6.510   3.793
 1426SOL     OW 5176   3.384   2.346   6.883
 1426SOL    HW1 5177   3.363   2.351   6.981
 1426SOL    HW2 5178   3.351   2.259   6.846
 1427SOL     OW 5179   1.691   1.086   4.132
 1427SOL    HW1 5180   1.687   1.173   4.083
 1427SOL    HW2 5181   1.614   1.081   4.197
 1428SOL     OW 5182   0.343   3.547   3.731
 1428SOL    HW1 5183   0.245   3.562   3.735
 1428SOL    HW2 5184   0.374   3.504   3.816
 1429SOL     OW 5185   5.606   0.599   1.143
 1429SOL    HW1 5186   5.515   0.584   1.183
 1429SOL    HW2 5187   5.602   0.676   1.080
 1430SOL     OW 5188   1.569   3.735   3.584
 1430SOL    HW1 5189   1.507   3.804   3.549
 1430SOL    HW2 5190   1.523   3.646   3.584
 1431SOL     OW 5191   1.907   1.108   5.853
 1431SOL    HW1 5192   1.917   1.008   5.849
 1431SOL    HW2 5193   1.913   1.145   5.760
 1432SOL     OW 5194   2.525   1.615   2.786
 1432SOL    HW1 5195   2.522   1.585   2.691
 1432SOL    HW2 5196   2.613   1.587   2.826
 1433SOL     OW 5197   2.639   0.136   4.215
 1433SOL    HW1 5198   2.554   0.158   4.262
 1433SOL    HW2 5199   2.657   0.204   4.144
 1434SOL     OW 5200   0.366   3.032   0.292
 1434SOL    HW1 5201   0.277   3.042   0.248
 1434SOL    HW2 5202   0.429   3.100   0.254
 1435SOL     OW 5203   0.818   0.074   4.480
 1435SOL    HW1 5204   0.860   0.041   4.396
 1435SOL    HW2 5205   0.724   0.041   4.486
 1436SOL     OW 5206   5.234   1.505   0.350
 1436SOL    HW1 5207   5.184   1.485   0.266
 1436SOL    HW2 5208   5.171   1.506   0.428
 1437SOL     OW 5209   4.394   0.170   6.272
 1437SOL    HW1 5210   4.298   0.161   6.248
 1437SOL    HW2 5211   4.447   0.199   6.192
 1438SOL     OW 5212   2.575   0.307   1.994
 1438SOL    HW1 5213   2.666   0.302   1.953
 1438SOL    HW2 5214   2.570   0.244   2.072
 1439SOL     OW 5215   0.442   4.753   0.058
 1439SOL    HW1 5216   0.489   4.826   0.108
 1439SOL    HW2 5217   0.446   4.669   0.111
 1440SOL     OW 5218   3.180   3.011   3.786
 1440SOL    HW1 5219   3.178   2.911   3.793
 1440SOL    HW2 5220   3.128   3.039   3.706
 1441SOL     OW 5221   6.568   2.969   3.522
 1441SOL    HW1 5222   6.579   2.962   3.423
 1441SOL    HW2 5223   6.484   3.019   3.542
 1442SOL     OW 5224   5.076   4.469   0.803
 1442SOL    HW1 5225   5.123   4.554   0.777
 1442SOL    HW2 5226   5.143   4.400   0.829
 1443SOL     OW 5227   0.744   2.375   2.982
 1443SOL    HW1 5228   0.803   2.388   2.902
 1443SOL    HW2 5229   0.682   2.452   2.991
 1444SOL     OW 5230   4.504   0.968   3.801
 1444SOL    HW1 5231   4.406   0.988   3.807
 1444SOL    HW2 5232   4.532   0.917   3.882
 1445SOL     OW 5233   6.472   2.284   1.444
 1445SOL    HW1 5234   6.452   2.357   1.380
 1445SOL    HW2 5235   6.562   2.246   1.425
 1446SOL     OW 5236   3.779   0.655   1.323
 1446SOL    HW1 5237   3.818   0.741   1.355
 1446SOL    HW2 5238   3.706   0.627   1.384
 1447SOL     OW 5239   6.454   0.313   4.720
 1447SOL    HW1 5240   6.497   0.234   4.763
 1447SOL    HW2 5241   6.372   0.283   4.671
 1448SOL     OW 5242   5.405   0.918   6.586
 1448SOL    HW1 5243   5.383   0.963   6.672
 1448SOL    HW2 5244   5.503   0.929   6.567
 1449SOL     OW 5245   5.365   6.051   1.148
 1449SOL    HW1 5246   5.353   5.951   1.145
 1449SOL    HW2 5247   5.446   6.076   1.095
 1450SOL     OW 5248   5.993   2.835   3.243
 1450SOL    HW1 5249   5.963   2.803   3.333
 1450SOL    HW2 5250   6.071   2.898   3.255
 1451SOL     OW 5251   1.431   6.273   2.944
 1451SOL    HW1 5252   1.389   6.364   2.941
 1451SOL    HW2 5253   1.374   6.208   2.894
 1452SOL     OW 5254   4.572   1.330   5.470
 1452SOL    HW1 5255   4.653   1.297   5.518
 1452SOL    HW2 5256   4.593   1.418   5.427
 1453SOL     OW 5257   5.165   4.675   5.428
 1453SOL    HW1 5258   5.126   4.752   5.377
 1453SOL    HW2 5259   5.217   4.617   5.365
 1454SOL     OW 5260   4.268   3.849   1.263
 1454SOL    HW1 5261   4.260   3.924   1.196
 1454SOL    HW2 5262   4.347   3.866   1.322
 1455SOL     OW 5263   1.788   1.794   1.782
 1455SOL    HW1 5264   1.806   1.696   1.775
 1455SOL    HW2 5265   1.719   1.820   1.715
 1456SOL     OW 5266   5.882   6.311   3.620
 1456SOL    HW1 5267   5.937   6.391   3.642
 1456SOL    HW2 5268   5.932   6.228   3.644
 1457SOL     OW 5269   1.519   0.417   2.809
 1457SOL    HW1 5270   1.491   0.342   2.750
 1457SOL    HW2 5271   1.439   0.455   2.856
 1458SOL     OW 5272   5.355   5.533   6.759
 1458SOL    HW1 5273   5.282   5.559   6.823
 1458SOL    HW2 5274   5.417   5.469   6.805
 1459SOL     OW 5275   2.401   6.605   6.388
 1459SOL    HW1 5276   2.383   6.664   6.467
 1459SOL    HW2 5277   2.445   6.657   6.316
 1460SOL     OW 5278   1.413   0.045   6.867
 1460SOL    HW1 5279   1.375   0.054   6.774
 1460SOL    HW2 5280   1.434   0.136   6.903
 1461SOL     OW 5281   5.571   4.652   1.812
 1461SOL    HW1 5282   5.642   4.582   1.821
 1461SOL    HW2 5283   5.557   4.697   1.900
 1462SOL     OW 5284   5.862   1.046   6.655
 1462SOL    HW1 5285   5.950   1.085   6.680
 1462SOL    HW2 5286   5.831   0.984   6.727
 1463SOL     OW 5287   0.699   1.275   5.109
 1463SOL    HW1 5288   0.723   1.220   5.189
 1463SOL    HW2 5289   0.763   1.351   5.101
 1464SOL     OW 5290   0.254   6.734   1.087
 1464SOL    HW1 5291   0.316   6.686   1.149
 1464SOL    HW2 5292   0.306   6.797   1.030
 1465SOL     OW 5293   6.825   6.976   4.651
 1465SOL    HW1 5294   6.855   6.918   4.727
 1465SOL    HW2 5295   6.744   0.007   4.679
 1466SOL     OW 5296   5.534   4.789   3.629
 1466SOL    HW1 5297   5.605   4.791   3.699
 1466SOL    HW2 5298   5.531   4.699   3.586
 1467SOL     OW 5299   1.040   1.894   3.034
 1467SOL    HW1 5300   0.975   1.965   3.061
 1467SOL    HW2 5301   1.015   1.808   3.078
 1468SOL     OW 5302   5.482   5.823   3.646
 1468SOL    HW1 5303   5.400   5.766   3.645
 1468SOL    HW2 5304   5.546   5.791   3.577
 1469SOL     OW 5305   1.047   1.307   2.680
 1469SOL    HW1 5306   0.967   1.333   2.627
 1469SOL    HW2 5307   1.019   1.246   2.755
 1470SOL     OW 5308   0.702   0.928   3.140
 1470SOL    HW1 5309   0.635   0.903   3.209
 1470SOL    HW2 5310   0.655   0.958   3.057
 1471SOL     OW 5311   0.761   6.952   0.044
 1471SOL    HW1 5312   0.798   6.954   0.137
 1471SOL    HW2 5313   0.706   6.869   0.032
 1472SOL     OW 5314   4.270   1.237   6.057
 1472SOL    HW1 5315   4.305   1.313   6.003
 1472SOL    HW2 5316   4.319   1.153   6.031
 1473SOL     OW 5317   6.177   4.137   3.794
 1473SOL    HW1 5318   6.155   4.054   3.742
 1473SOL    HW2 5319   6.121   4.213   3.761
 1474SOL     OW 5320   4.726   5.619   3.845
 1474SOL    HW1 5321   4.626   5.629   3.849
 1474SOL    HW2 5322   4.768   5.709   3.839
 1475SOL     OW 5323   0.486   1.187   2.578
 1475SOL    HW1 5324   0.407   1.215   2.633
 1475SOL    HW2 5325   0.500   1.089   2.588
 1476SOL     OW 5326   6.761   1.775   1.820
 1476SOL    HW1 5327   6.779   1.851   1.882
 1476SOL    HW2 5328   6.843   1.717   1.814
 1477SOL     OW 5329   2.873   5.782   4.754
 1477SOL    HW1 5330   2.951   5.719   4.751
 1477SOL    HW2 5331   2.907   5.876   4.764
 1478SOL     OW 5332   6.394   4.311   0.460
 1478SOL    HW1 5333   6.351   4.401   0.449
 1478SOL    HW2 5334   6.424   4.278   0.371
 1479SOL     OW 5335   1.501   5.170   0.569
 1479SOL    HW1 5336   1.547   5.257   0.553
 1479SOL    HW2 5337   1.554   5.116   0.635
 1480SOL     OW 5338   2.601   0.487   0.132
 1480SOL    HW1 5339   2.672   0.496   0.202
 1480SOL    HW2 5340   2.607   0.564   0.068
 1481SOL     OW 5341   5.864   2.522   6.246
 1481SOL    HW1 5342   5.780   2.517   6.300
 1481SOL    HW2 5343   5.842   2.532   6.149
 1482SOL     OW 5344   6.564   0.528   6.686
 1482SOL    HW1 5345   6.531   0.472   6.762
 1482SOL    HW2 5346   6.625   0.474   6.629
 1483SOL     OW 5347   5.827   2.061   0.473
 1483SOL    HW1 5348   5.903   2.057   0.408
 1483SOL    HW2 5349   5.740   2.059   0.423
 1484SOL     OW 5350   6.454   5.119   2.808
 1484SOL    HW1 5351   6.401   5.204   2.800
 1484SOL    HW2 5352   6.404   5.055   2.868
 1485SOL     OW 5353   5.135   2.795   3.872
 1485SOL    HW1 5354   5.120   2.726   3.801
 1485SOL    HW2 5355   5.053   2.851   3.882
 1486SOL     OW 5356   4.857   1.929   2.288
 1486SOL    HW1 5357   4.772   1.926   2.236
 1486SOL    HW2 5358   4.858   2.010   2.346
 1487SOL     OW 5359   6.268   1.422   5.438
 1487SOL    HW1 5360   6.295   1.488   5.508
 1487SOL    HW2 5361   6.327   1.431   5.358
 1488SOL     OW 5362   4.527   1.716   3.219
 1488SOL    HW1 5363   4.495   1.801   3.260
 1488SOL    HW2 5364   4.540   1.729   3.121
 1489SOL     OW 5365   4.030   5.489   4.972
 1489SOL    HW1 5366   4.068   5.446   5.054
 1489SOL    HW2 5367   3.960   5.555   4.998
 1490SOL     OW 5368   2.020   2.694   0.107
 1490SOL    HW1 5369   1.981   2.603   0.122
 1490SOL    HW2 5370   1.960   2.746   0.046
 1491SOL     OW 5371   0.084   3.207   4.059
 1491SOL    HW1 5372   0.113   3.150   4.137
 1491SOL    HW2 5373   0.117   3.166   3.974
 1492SOL     OW 5374   5.207   1.987   1.431
 1492SOL    HW1 5375   5.168   1.958   1.518
 1492SOL    HW2 5376   5.137   2.032   1.376
 1493SOL     OW 5377   5.044   0.702   5.495
 1493SOL    HW1 5378   5.051   0.787   5.442
 1493SOL    HW2 5379   4.981   0.715   5.571
 1494SOL     OW 5380   4.212   2.650   5.982
 1494SOL    HW1 5381   4.170   2.586   5.918
 1494SOL    HW2 5382   4.154   2.731   5.992
 1495SOL     OW 5383   1.686   2.977   2.446
 1495SOL    HW1 5384   1.691   2.959   2.348
 1495SOL    HW2 5385   1.710   3.073   2.463
 1496SOL     OW 5386   0.652   0.155   2.294
 1496SOL    HW1 5387   0.609   0.168   2.383
 1496SOL    HW2 5388   0.629   0.064   2.258
 1497SOL     OW 5389   5.992   5.093   4.637
 1497SOL    HW1 5390   6.034   5.010   4.600
 1497SOL    HW2 5391   5.924   5.068   4.705
 1498SOL     OW 5392   1.957   6.114   0.049
 1498SOL    HW1 5393   1.863   6.098   0.020
 1498SOL    HW2 5394   1.958   6.142   0.145
 1499SOL     OW 5395   1.170   3.745   5.567
 1499SOL    HW1 5396   1.074   3.772   5.559
 1499SOL    HW2 5397   1.181   3.652   5.533
 1500SOL     OW 5398   4.768   6.886   6.513
 1500SOL    HW1 5399   4.856   6.934   6.516
 1500SOL    HW2 5400   4.725   6.903   6.424
 1501SOL     OW 5401   4.081   6.184   6.088
 1501SOL    HW1 5402   4.031   6.260   6.047
 1501SOL    HW2 5403   4.020   6.106   6.100
 1502SOL     OW 5404   6.222   6.381   0.368
 1502SOL    HW1 5405   6.159   6.384   0.290
 1502SOL    HW2 5406   6.172   6.353   0.450
 1503SOL     OW 5407   3.962   3.193   6.150
 1503SOL    HW1 5408   3.972   3.228   6.057
 1503SOL    HW2 5409   3.866   3.171   6.167
 1504SOL     OW 5410   3.027   6.452   4.955
 1504SOL    HW1 5411   2.942   6.418   4.995
 1504SOL    HW2 5412   3.095   6.465   5.027
 1505SOL     OW 5413   5.652   5.396   0.072
 1505SOL    HW1 5414   5.609   5.461   0.136
 1505SOL    HW2 5415   5.746   5.424   0.054
 1506SOL     OW 5416   0.917   6.340   4.503
 1506SOL    HW1 5417   0.919   6.434   4.535
 1506SOL    HW2 5418   0.918   6.338   4.403
 1507SOL     OW 5419   1.518   1.479   5.642
 1507SOL    HW1 5420   1.534   1.523   5.553
 1507SOL    HW2 5421   1.592   1.413   5.660
 1508SOL     OW 5422   5.079   0.083   0.128
 1508SOL    HW1 5423   5.062   0.000   0.074
 1508SOL    HW2 5424   5.001   0.101   0.188
 1509SOL     OW 5425   4.795   2.409   0.619
 1509SOL    HW1 5426   4.850   2.476   0.569
 1509SOL    HW2 5427   4.805   2.424   0.718
 1510SOL     OW 5428   6.692   1.941   4.036
 1510SOL    HW1 5429   6.695   1.960   4.134
 1510SOL    HW2 5430   6.700   2.026   3.985
 1511SOL     OW 5431   2.059   3.396   0.457
 1511SOL    HW1 5432   2.080   3.316   0.514
 1511SOL    HW2 5433   1.994   3.455   0.505
 1512SOL     OW 5434   0.373   1.106   2.099
 1512SOL    HW1 5435   0.293   1.070   2.051
 1512SOL    HW2 5436   0.371   1.074   2.194
 1513SOL     OW 5437   3.852   1.025   3.316
 1513SOL    HW1 5438   3.761   1.019   3.275
 1513SOL    HW2 5439   3.868   0.945   3.373
 1514SOL     OW 5440   5.546   1.296   5.395
 1514SOL    HW1 5441   5.594   1.235   5.332
 1514SOL    HW2 5442   5.603   1.313   5.476
 1515SOL     OW 5443   6.916   4.768   4.300
 1515SOL    HW1 5444   6.935   4.693   4.236
 1515SOL    HW2 5445   6.999   4.822   4.313
 1516SOL     OW 5446   0.563   0.945   0.750
 1516SOL    HW1 5447   0.528   1.036   0.771
 1516SOL    HW2 5448   0.661   0.951   0.728
 1517SOL     OW 5449   4.585   5.487   3.337
 1517SOL    HW1 5450   4.574   5.400   3.385
 1517SOL    HW2 5451   4.495   5.521   3.310
 1518SOL     OW 5452   0.548   4.169   1.134
 1518SOL    HW1 5453   0.616   4.095   1.141
 1518SOL    HW2 5454   0.557   4.230   1.214
 1519SOL     OW 5455   6.181   4.547   0.438
 1519SOL    HW1 5456   6.134   4.519   0.522
 1519SOL    HW2 5457   6.153   4.640   0.413
 1520SOL     OW 5458   1.477   3.617   2.915
 1520SOL    HW1 5459   1.539   3.622   2.993
 1520SOL    HW2 5460   1.494   3.694   2.853
 1521SOL     OW 5461   2.860   3.696   6.756
 1521SOL    HW1 5462   2.880   3.744   6.841
 1521SOL    HW2 5463   2.765   3.665   6.757
 1522SOL     OW 5464   5.802   1.990   6.961
 1522SOL    HW1 5465   5.706   1.968   6.977
 1522SOL    HW2 5466   5.859   1.914   6.993
 1523SOL     OW 5467   0.339   2.205   1.053
 1523SOL    HW1 5468   0.327   2.280   0.988
 1523SOL    HW2 5469   0.393   2.237   1.131
 1524SOL     OW 5470   0.104   0.808   2.336
 1524SOL    HW1 5471   0.141   0.857   2.257
 1524SOL    HW2 5472   0.069   0.719   2.307
 1525SOL     OW 5473   4.806   2.004   6.389
 1525SOL    HW1 5474   4.820   2.081   6.327
 1525SOL    HW2 5475   4.732   1.945   6.353
 1526SOL     OW 5476   6.791   2.524   1.758
 1526SOL    HW1 5477   6.858   2.459   1.793
 1526SOL    HW2 5478   6.705   2.516   1.810
 1527SOL     OW 5479   3.712   2.056   5.583
 1527SOL    HW1 5480   3.667   2.145   5.574
 1527SOL    HW2 5481   3.784   2.048   5.513
 1528SOL     OW 5482   4.931   6.105   3.509
 1528SOL    HW1 5483   4.834   6.121   3.494
 1528SOL    HW2 5484   4.982   6.123   3.425
 1529SOL     OW 5485   3.518   0.095   5.865
 1529SOL    HW1 5486   3.463   0.012   5.869
 1529SOL    HW2 5487   3.498   0.152   5.945
 1530SOL     OW 5488   3.544   6.724   2.226
 1530SOL    HW1 5489   3.491   6.640   2.233
 1530SOL    HW2 5490   3.595   6.724   2.140
 1531SOL     OW 5491   6.391   6.988   4.871
 1531SOL    HW1 5492   6.310   6.950   4.825
 1531SOL    HW2 5493   6.364   0.048   4.924
 1532SOL     OW 5494   3.259   2.006   5.013
 1532SOL    HW1 5495   3.225   1.952   4.936
 1532SOL    HW2 5496   3.233   2.102   5.001
 1533SOL     OW 5497   6.209   2.970   6.595
 1533SOL    HW1 5498   6.170   2.921   6.673
 1533SOL    HW2 5499   6.143   2.970   6.519
 1534SOL     OW 5500   6.800   5.971   1.049
 1534SOL    HW1 5501   6.895   5.990   1.072
 1534SOL    HW2 5502   6.765   6.043   0.990
 1535SOL     OW 5503   4.341   5.011   4.159
 1535SOL    HW1 5504   4.344   5.045   4.253
 1535SOL    HW2 5505   4.397   5.070   4.101
 1536SOL     OW 5506   2.768   6.057   5.667
 1536SOL    HW1 5507   2.859   6.037   5.704
 1536SOL    HW2 5508   2.718   6.116   5.730
 1537SOL     OW 5509   1.775   5.425   4.429
 1537SOL    HW1 5510   1.728   5.337   4.419
 1537SOL    HW2 5511   1.715   5.489   4.477
 1538SOL     OW 5512   2.527   5.432   6.395
 1538SOL    HW1 5513   2.545   5.372   6.473
 1538SOL    HW2 5514   2.439   5.408   6.354
 1539SOL     OW 5515   3.774   4.673   1.661
 1539SOL    HW1 5516   3.768   4.749   1.596
 1539SOL    HW2 5517   3.694   4.674   1.721
 1540SOL     OW 5518   0.938   0.040   4.732
 1540SOL    HW1 5519   0.894   0.021   4.644
 1540SOL    HW2 5520   0.979   6.977   4.767
 1541SOL     OW 5521   5.215   2.342   0.850
 1541SOL    HW1 5522   5.189   2.413   0.784
 1541SOL    HW2 5523   5.138   2.281   0.866
 1542SOL     OW 5524   0.801   0.035   1.237
 1542SOL    HW1 5525   0.788   6.967   1.192
 1542SOL    HW2 5526   0.749   0.036   1.323
 1543SOL     OW 5527   3.372   3.998   4.310
 1543SOL    HW1 5528   3.275   4.021   4.317
 1543SOL    HW2 5529   3.419   4.024   4.394
 1544SOL     OW 5530   3.315   4.136   2.836
 1544SOL    HW1 5531   3.293   4.091   2.749
 1544SOL    HW2 5532   3.410   4.119   2.860
 1545SOL     OW 5533   5.809   6.937   4.843
 1545SOL    HW1 5534   5.714   6.965   4.835
 1545SOL    HW2 5535   5.829   6.914   4.938
 1546SOL     OW 5536   0.489   6.782   5.978
 1546SOL    HW1 5537   0.587   6.773   5.997
 1546SOL    HW2 5538   0.466   6.727   5.897
 1547SOL     OW 5539   3.435   5.931   1.127
 1547SOL    HW1 5540   3.440   5.870   1.048
 1547SOL    HW2 5541   3.491   5.893   1.201
 1548SOL     OW 5542   5.242   4.351   4.787
 1548SOL    HW1 5543   5.217   4.257   4.765
 1548SOL    HW2 5544   5.160   4.408   4.787
 1549SOL     OW 5545   6.748   1.818   1.138
 1549SOL    HW1 5546   6.836   1.864   1.144
 1549SOL    HW2 5547   6.735   1.784   1.044
 1550SOL     OW 5548   2.269   5.971   4.318
 1550SOL    HW1 5549   2.278   6.045   4.252
 1550SOL    HW2 5550   2.189   5.915   4.296
 1551SOL     OW 5551   1.738   2.075   1.080
 1551SOL    HW1 5552   1.740   2.134   1.161
 1551SOL    HW2 5553   1.829   2.037   1.064
 1552SOL     OW 5554   0.848   0.559   0.857
 1552SOL    HW1 5555   0.839   0.597   0.765
 1552SOL    HW2 5556   0.791   0.611   0.920
 1553SOL     OW 5557   5.943   1.632   6.128
 1553SOL    HW1 5558   6.039   1.606   6.136
 1553SOL    HW2 5559   5.917   1.688   6.207
 1554SOL     OW 5560   3.999   1.813   1.698
 1554SOL    HW1 5561   3.922   1.751   1.712
 1554SOL    HW2 5562   4.075   1.786   1.757
 1555SOL     OW 5563   3.577   1.618   5.615
 1555SOL    HW1 5564   3.506   1.547   5.621
 1555SOL    HW2 5565   3.659   1.579   5.573
 1556SOL     OW 5566   3.343   1.710   0.837
 1556SOL    HW1 5567   3.386   1.665   0.759
 1556SOL    HW2 5568   3.327   1.806   0.816
 1557SOL     OW 5569   2.012   2.061   1.005
 1557SOL    HW1 5570   2.019   1.968   1.040
 1557SOL    HW2 5571   2.059   2.124   1.067
 1558SOL     OW 5572   6.440   3.297   6.057
 1558SOL    HW1 5573   6.492   3.215   6.034
 1558SOL    HW2 5574   6.477   3.375   6.005
 1559SOL     OW 5575   1.525   4.871   2.936
 1559SOL    HW1 5576   1.498   4.783   2.974
 1559SOL    HW2 5577   1.474   4.945   2.981
 1560SOL     OW 5578   3.952   1.378   1.538
 1560SOL    HW1 5579   3.960   1.444   1.613
 1560SOL    HW2 5580   4.043   1.345   1.513
 1561SOL     OW 5581   6.189   5.917   1.361
 1561SOL    HW1 5582   6.188   5.997   1.422
 1561SOL    HW2 5583   6.282   5.882   1.353
 1562SOL     OW 5584   3.452   6.462   2.286
 1562SOL    HW1 5585   3.538   6.416   2.306
 1562SOL    HW2 5586   3.394   6.461   2.368
 1563SOL     OW 5587   4.063   2.224   4.378
 1563SOL    HW1 5588   4.060   2.206   4.476
 1563SOL    HW2 5589   4.147   2.272   4.355
 1564SOL     OW 5590   1.526   2.064   2.469
 1564SOL    HW1 5591   1.586   2.096   2.542
 1564SOL    HW2 5592   1.433   2.100   2.484
 1565SOL     OW 5593   4.069   0.787   4.246
 1565SOL    HW1 5594   4.021   0.813   4.163
 1565SOL    HW2 5595   4.048   0.691   4.268
 1566SOL     OW 5596   4.543   4.785   2.968
 1566SOL    HW1 5597   4.555   4.795   3.067
 1566SOL    HW2 5598   4.559   4.690   2.942
 1567SOL     OW 5599   4.873   6.341   4.772
 1567SOL    HW1 5600   4.773   6.338   4.779
 1567SOL    HW2 5601   4.899   6.366   4.679
 1568SOL     OW 5602   2.298   5.908   2.831
 1568SOL    HW1 5603   2.353   5.832   2.868
 1568SOL    HW2 5604   2.226   5.871   2.772
 1569SOL     OW 5605   2.695   6.844   3.606
 1569SOL    HW1 5606   2.646   6.810   3.526
 1569SOL    HW2 5607   2.720   6.940   3.592
 1570SOL     OW 5608   3.237   6.746   0.223
 1570SOL    HW1 5609   3.203   6.658   0.190
 1570SOL    HW2 5610   3.332   6.736   0.253
 1571SOL     OW 5611   0.700   2.670   4.110
 1571SOL    HW1 5612   0.779   2.663   4.172
 1571SOL    HW2 5613   0.616   2.653   4.161
 1572SOL     OW 5614   2.049   4.832   1.888
 1572SOL    HW1 5615   1.960   4.876   1.877
 1572SOL    HW2 5616   2.067   4.818   1.986
 1573SOL     OW 5617   5.313   5.027   0.760
 1573SOL    HW1 5618   5.316   4.989   0.852
 1573SOL    HW2 5619   5.309   5.127   0.765
 1574SOL     OW 5620   6.959   3.471   2.848
 1574SOL    HW1 5621   6.930   3.457   2.754
 1574SOL    HW2 5622   0.019   3.531   2.849
 1575SOL     OW 5623   0.619   1.228   0.439
 1575SOL    HW1 5624   0.565   1.147   0.417
 1575SOL    HW2 5625   0.586   1.305   0.385
 1576SOL     OW 5626   0.398   6.905   2.632
 1576SOL    HW1 5627   0.358   6.906   2.723
 1576SOL    HW2 5628   0.344   6.846   2.572
 1577SOL     OW 5629   4.648   0.131   5.469
 1577SOL    HW1 5630   4.726   0.085   5.510
 1577SOL    HW2 5631   4.678   0.214   5.423
 1578SOL     OW 5632   5.012   0.843   0.227
 1578SOL    HW1 5633   5.086   0.801   0.176
 1578SOL    HW2 5634   5.009   0.806   0.320
 1579SOL     OW 5635   1.323   2.547   1.199
 1579SOL    HW1 5636   1.262   2.601   1.257
 1579SOL    HW2 5637   1.369   2.607   1.134
 1580SOL     OW 5638   3.522   3.559   3.024
 1580SOL    HW1 5639   3.600   3.556   2.962
 1580SOL    HW2 5640   3.438   3.550   2.972
 1581SOL     OW 5641   6.850   4.459   5.747
 1581SOL    HW1 5642   6.778   4.520   5.716
 1581SOL    HW2 5643   6.867   4.474   5.845
 1582SOL     OW 5644   4.781   6.410   5.405
 1582SOL    HW1 5645   4.764   6.312   5.417
 1582SOL    HW2 5646   4.702   6.452   5.360
 1583SOL     OW 5647   1.094   5.741   5.275
 1583SOL    HW1 5648   1.079   5.783   5.364
 1583SOL    HW2 5649   1.166   5.672   5.282
 1584SOL     OW 5650   0.826   5.200   6.635
 1584SOL    HW1 5651   0.854   5.116   6.589
 1584SOL    HW2 5652   0.773   5.177   6.716
 1585SOL     OW 5653   4.131   0.260   3.112
 1585SOL    HW1 5654   4.163   0.166   3.099
 1585SOL    HW2 5655   4.033   0.265   3.094
 1586SOL     OW 5656   2.710   5.193   4.014
 1586SOL    HW1 5657   2.621   5.227   3.984
 1586SOL    HW2 5658   2.770   5.184   3.934
 1587SOL     OW 5659   2.068   6.339   5.767
 1587SOL    HW1 5660   2.076   6.240   5.776
 1587SOL    HW2 5661   2.003   6.362   5.694
 1588SOL     OW 5662   5.857   0.589   2.508
 1588SOL    HW1 5663   5.791   0.592   2.433
 1588SOL    HW2 5664   5.936   0.535   2.481
 1589SOL     OW 5665   6.519   4.627   3.719
 1589SOL    HW1 5666   6.539   4.530   3.708
 1589SOL    HW2 5667   6.507   4.647   3.817
 1590SOL     OW 5668   6.839   1.939   3.687
 1590SOL    HW1 5669   6.750   1.982   3.698
 1590SOL    HW2 5670   6.899   2.000   3.635
 1591SOL     OW 5671   0.526   6.115   1.916
 1591SOL    HW1 5672   0.592   6.119   1.842
 1591SOL    HW2 5673   0.435   6.136   1.880
 1592SOL     OW 5674   0.552   3.794   6.930
 1592SOL    HW1 5675   0.492   3.766   6.855
 1592SOL    HW2 5676   0.498   3.846   6.998
 1593SOL     OW 5677   1.945   0.527   6.775
 1593SOL    HW1 5678   1.855   0.512   6.734
 1593SOL    HW2 5679   2.003   0.447   6.757
 1594SOL     OW 5680   6.651   0.610   2.143
 1594SOL    HW1 5681   6.574   0.568   2.097
 1594SOL    HW2 5682   6.645   0.593   2.242
 1595SOL     OW 5683   0.964   4.656   6.570
 1595SOL    HW1 5684   0.892   4.626   6.632
 1595SOL    HW2 5685   0.938   4.636   6.476
 1596SOL     OW 5686   5.499   4.569   2.311
 1596SOL    HW1 5687   5.447   4.624   2.377
 1596SOL    HW2 5688   5.556   4.503   2.360
 1597SOL     OW 5689   3.492   6.601   6.971
 1597SOL    HW1 5690   3.552   6.610   0.030
 1597SOL    HW2 5691   3.496   6.685   6.916
 1598SOL     OW 5692   1.474   5.847   6.894
 1598SOL    HW1 5693   1.471   5.771   6.959
 1598SOL    HW2 5694   1.460   5.812   6.801
 1599SOL     OW 5695   4.620   4.776   3.706
 1599SOL    HW1 5696   4.535   4.804   3.750
 1599SOL    HW2 5697   4.683   4.739   3.774
 1600SOL     OW 5698   3.621   0.268   2.931
 1600SOL    HW1 5699   3.523   0.250   2.925
 1600SOL    HW2 5700   3.651   0.318   2.850
 1601SOL     OW 5701   5.442   6.292   4.018
 1601SOL    HW1 5702   5.342   6.285   4.011
 1601SOL    HW2 5703   5.476   6.352   3.946
 1602SOL     OW 5704   4.486   5.255   3.613
 1602SOL    HW1 5705   4.502   5.209   3.526
 1602SOL    HW2 5706   4.435   5.195   3.674
 1603SOL     OW 5707   2.797   5.415   3.610
 1603SOL    HW1 5708   2.700   5.437   3.619
 1603SOL    HW2 5709   2.835   5.466   3.532
 1604SOL     OW 5710   4.034   5.027   2.350
 1604SOL    HW1 5711   4.003   4.943   2.393
 1604SOL    HW2 5712   4.058   5.008   2.254
 1605SOL     OW 5713   4.764   5.207   1.117
 1605SOL    HW1 5714   4.809   5.158   1.191
 1605SOL    HW2 5715   4.667   5.220   1.139
 1606SOL     OW 5716   4.162   6.308   4.852
 1606SOL    HW1 5717   4.169   6.209   4.867
 1606SOL    HW2 5718   4.236   6.338   4.792
 1607SOL     OW 5719   4.806   6.037   2.942
 1607SOL    HW1 5720   4.838   5.943   2.954
 1607SOL    HW2 5721   4.852   6.097   3.007
 1608SOL     OW 5722   6.648   0.703   2.862
 1608SOL    HW1 5723   6.611   0.788   2.824
 1608SOL    HW2 5724   6.618   0.693   2.957
 1609SOL     OW 5725   3.275   6.174   1.075
 1609SOL    HW1 5726   3.338   6.098   1.067
 1609SOL    HW2 5727   3.320   6.258   1.045
 1610SOL     OW 5728   4.686   0.376   0.167
 1610SOL    HW1 5729   4.778   0.412   0.184
 1610SOL    HW2 5730   4.634   0.375   0.252
 1611SOL     OW 5731   1.275   3.636   0.981
 1611SOL    HW1 5732   1.200   3.657   0.918
 1611SOL    HW2 5733   1.267   3.541   1.012
 1612SOL     OW 5734   3.475   6.987   1.975
 1612SOL    HW1 5735   3.413   6.911   1.992
 1612SOL    HW2 5736   3.459   0.039   2.042
 1613SOL     OW 5737   6.585   5.946   2.638
 1613SOL    HW1 5738   6.545   5.886   2.707
 1613SOL    HW2 5739   6.608   6.034   2.679
 1614SOL     OW 5740   6.065   2.352   6.128
 1614SOL    HW1 5741   6.149   2.407   6.119
 1614SOL    HW2 5742   6.004   2.396   6.193
 1615SOL     OW 5743   0.731   5.146   6.102
 1615SOL    HW1 5744   0.704   5.119   6.194
 1615SOL    HW2 5745   0.816   5.199   6.105
 1616SOL     OW 5746   2.331   1.451   4.966
 1616SOL    HW1 5747   2.235   1.422   4.965
 1616SOL    HW2 5748   2.336   1.548   4.989
 1617SOL     OW 5749   5.400   6.202   3.242
 1617SOL    HW1 5750   5.466   6.142   3.287
 1617SOL    HW2 5751   5.346   6.249   3.312
 1618SOL     OW 5752   2.710   5.627   3.046
 1618SOL    HW1 5753   2.769   5.678   2.982
 1618SOL    HW2 5754   2.741   5.532   3.051
 1619SOL     OW 5755   1.259   4.992   0.124
 1619SOL    HW1 5756   1.353   4.972   0.151
 1619SOL    HW2 5757   1.198   4.975   0.202
 1620SOL     OW 5758   3.486   5.554   6.816
 1620SOL    HW1 5759   3.486   5.632   6.878
 1620SOL    HW2 5760   3.578   5.541   6.779
 1621SOL     OW 5761   5.511   6.517   0.481
 1621SOL    HW1 5762   5.477   6.464   0.559
 1621SOL    HW2 5763   5.583   6.579   0.510
 1622SOL     OW 5764   0.445   4.274   4.689
 1622SOL    HW1 5765   0.476   4.210   4.619
 1622SOL    HW2 5766   0.525   4.317   4.731
 1623SOL     OW 5767   0.725   2.158   4.679
 1623SOL    HW1 5768   0.689   2.102   4.605
 1623SOL    HW2 5769   0.799   2.216   4.645
 1624SOL     OW 5770   3.814   1.072   1.020
 1624SOL    HW1 5771   3.828   0.977   0.993
 1624SOL    HW2 5772   3.826   1.079   1.120
 1625SOL     OW 5773   1.778   5.365   0.935
 1625SOL    HW1 5774   1.807   5.459   0.915
 1625SOL    HW2 5775   1.687   5.367   0.977
 1626SOL     OW 5776   3.016   1.612   1.441
 1626SOL    HW1 5777   3.063   1.574   1.521
 1626SOL    HW2 5778   2.929   1.566   1.428
 1627SOL     OW 5779   4.016   1.776   4.107
 1627SOL    HW1 5780   3.990   1.803   4.199
 1627SOL    HW2 5781   4.036   1.857   4.052
 1628SOL     OW 5782   5.637   6.478   6.566
 1628SOL    HW1 5783   5.666   6.383   6.578
 1628SOL    HW2 5784   5.673   6.533   6.641
 1629SOL     OW 5785   2.071   0.950   3.039
 1629SOL    HW1 5786   2.145   0.947   2.971
 1629SOL    HW2 5787   2.001   1.014   3.008
 1630SOL     OW 5788   0.840   3.797   6.894
 1630SOL    HW1 5789   0.744   3.820   6.907
 1630SOL    HW2 5790   0.897   3.862   6.944
 1631SOL     OW 5791   0.296   3.273   0.470
 1631SOL    HW1 5792   0.236   3.200   0.503
 1631SOL    HW2 5793   0.294   3.276   0.370
 1632SOL     OW 5794   6.593   4.707   2.498
 1632SOL    HW1 5795   6.607   4.799   2.462
 1632SOL    HW2 5796   6.516   4.707   2.561
 1633SOL     OW 5797   4.861   3.103   4.064
 1633SOL    HW1 5798   4.932   3.091   4.133
 1633SOL    HW2 5799   4.889   3.171   3.997
 1634SOL     OW 5800   5.308   0.313   4.687
 1634SOL    HW1 5801   5.221   0.354   4.714
 1634SOL    HW2 5802   5.318   0.317   4.587
 1635SOL     OW 5803   3.545   5.729   4.232
 1635SOL    HW1 5804   3.603   5.745   4.312
 1635SOL    HW2 5805   3.474   5.663   4.255
 1636SOL     OW 5806   5.801   6.063   1.215
 1636SOL    HW1 5807   5.766   6.133   1.278
 1636SOL    HW2 5808   5.841   5.988   1.268
 1637SOL     OW 5809   0.319   6.983   2.214
 1637SOL    HW1 5810   0.292   6.890   2.190
 1637SOL    HW2 5811   0.417   6.985   2.235
 1638SOL     OW 5812   0.178   2.978   1.805
 1638SOL    HW1 5813   0.274   2.964   1.827
 1638SOL    HW2 5814   0.139   3.047   1.867
 1639SOL     OW 5815   5.075   2.926   2.547
 1639SOL    HW1 5816   4.976   2.942   2.547
 1639SOL    HW2 5817   5.119   2.992   2.486
 1640SOL     OW 5818   6.669   0.272   0.340
 1640SOL    HW1 5819   6.608   0.226   0.275
 1640SOL    HW2 5820   6.764   0.246   0.320
 1641SOL     OW 5821   6.854   2.441   2.790
 1641SOL    HW1 5822   6.852   2.415   2.694
 1641SOL    HW2 5823   6.771   2.408   2.836
 1642SOL     OW 5824   5.536   2.206   5.559
 1642SOL    HW1 5825   5.535   2.153   5.474
 1642SOL    HW2 5826   5.452   2.189   5.610
 1643SOL     OW 5827   3.295   5.465   4.717
 1643SOL    HW1 5828   3.271   5.437   4.624
 1643SOL    HW2 5829   3.388   5.435   4.738
 1644SOL     OW 5830   6.000   2.993   1.023
 1644SOL    HW1 5831   5.936   3.000   0.946
 1644SOL    HW2 5832   5.949   2.989   1.108
 1645SOL     OW 5833   2.484   0.979   5.464
 1645SOL    HW1 5834   2.419   1.007   5.536
 1645SOL    HW2 5835   2.444   0.905   5.410
 1646SOL     OW 5836   0.788   5.603   0.776
 1646SOL    HW1 5837   0.848   5.556   0.711
 1646SOL    HW2 5838   0.731   5.535   0.822
 1647SOL     OW 5839   6.142   2.795   4.497
 1647SOL    HW1 5840   6.114   2.891   4.494
 1647SOL    HW2 5841   6.063   2.737   4.516
 1648SOL     OW 5842   5.493   6.333   0.713
 1648SOL    HW1 5843   5.525   6.367   0.801
 1648SOL    HW2 5844   5.542   6.248   0.690
 1649SOL     OW 5845   3.147   0.628   3.376
 1649SOL    HW1 5846   3.075   0.652   3.311
 1649SOL    HW2 5847   3.235   0.663   3.344
 1650SOL     OW 5848   3.122   5.208   6.788
 1650SOL    HW1 5849   3.221   5.208   6.796
 1650SOL    HW2 5850   3.095   5.266   6.710
 1651SOL     OW 5851   0.737   2.930   3.967
 1651SOL    HW1 5852   0.713   2.850   4.022
 1651SOL    HW2 5853   0.752   3.008   4.027
 1652SOL     OW 5854   0.762   2.617   1.306
 1652SOL    HW1 5855   0.688   2.671   1.264
 1652SOL    HW2 5856   0.830   2.596   1.236
 1653SOL     OW 5857   0.052   4.904   3.095
 1653SOL    HW1 5858   0.041   4.991   3.142
 1653SOL    HW2 5859   6.985   4.855   3.093
 1654SOL     OW 5860   0.660   3.093   1.859
 1654SOL    HW1 5861   0.727   3.021   1.877
 1654SOL    HW2 5862   0.676   3.132   1.769
 1655SOL     OW 5863   6.797   0.247   4.730
 1655SOL    HW1 5864   6.718   0.193   4.761
 1655SOL    HW2 5865   6.853   0.272   4.809
 1656SOL     OW 5866   2.584   4.891   4.024
 1656SOL    HW1 5867   2.545   4.910   3.934
 1656SOL    HW2 5868   2.633   4.972   4.057
 1657SOL     OW 5869   0.910   0.197   5.503
 1657SOL    HW1 5870   1.004   0.215   5.531
 1657SOL    HW2 5871   0.857   0.281   5.509
 1658SOL     OW 5872   6.926   6.980   6.726
 1658SOL    HW1 5873   7.010   6.932   6.752
 1658SOL    HW2 5874   6.868   6.919   6.673
 1659SOL     OW 5875   4.312   6.718   6.646
 1659SOL    HW1 5876   4.242   6.765   6.591
 1659SOL    HW2 5877   4.403   6.746   6.614
 1660SOL     OW 5878   1.566   6.881   1.805
 1660SOL    HW1 5879   1.590   6.977   1.794
 1660SOL    HW2 5880   1.637   6.824   1.763
 1661SOL     OW 5881   3.759   4.902   2.816
 1661SOL    HW1 5882   3.752   4.827   2.750
 1661SOL    HW2 5883   3.832   4.882   2.881
 1662SOL     OW 5884   0.203   1.061   4.809
 1662SOL    HW1 5885   0.294   1.049   4.770
 1662SOL    HW2 5886   0.135   1.059   4.736
 1663SOL     OW 5887   4.323   4.320   1.205
 1663SOL    HW1 5888   4.407   4.373   1.222
 1663SOL    HW2 5889   4.283   4.293   1.292
 1664SOL     OW 5890   0.673   0.279   5.060
 1664SOL    HW1 5891   0.675   0.197   5.118
 1664SOL    HW2 5892   0.578   0.310   5.049
 1665SOL     OW 5893   2.205   4.173   1.195
 1665SOL    HW1 5894   2.204   4.138   1.101
 1665SOL    HW2 5895   2.246   4.264   1.196
 1666SOL     OW 5896   5.820   0.071   6.397
 1666SOL    HW1 5897   5.819   7.020   6.467
 1666SOL    HW2 5898   5.866   0.038   6.315
 1667SOL     OW 5899   0.394   6.630   1.310
 1667SOL    HW1 5900   0.393   6.601   1.405
 1667SOL    HW2 5901   0.416   6.728   1.305
 1668SOL     OW 5902   4.707   4.241   4.101
 1668SOL    HW1 5903   4.737   4.192   4.019
 1668SOL    HW2 5904   4.724   4.339   4.089
 1669SOL     OW 5905   0.004   3.862   4.885
 1669SOL    HW1 5906   0.029   3.877   4.789
 1669SOL    HW2 5907   0.081   3.888   4.944
 1670SOL     OW 5908   2.357   4.417   5.805
 1670SOL    HW1 5909   2.379   4.436   5.710
 1670SOL    HW2 5910   2.259   4.395   5.812
 1671SOL     OW 5911   5.435   1.648   1.491
 1671SOL    HW1 5912   5.339   1.635   1.465
 1671SOL    HW2 5913   5.448   1.619   1.586
 1672SOL     OW 5914   0.794   2.988   0.072
 1672SOL    HW1 5915   0.861   2.915   0.058
 1672SOL    HW2 5916   0.731   2.962   0.146
 1673SOL     OW 5917   2.202   1.748   4.358
 1673SOL    HW1 5918   2.294   1.784   4.342
 1673SOL    HW2 5919   2.191   1.723   4.454
 1674SOL     OW 5920   4.690   2.469   2.938
 1674SOL    HW1 5921   4.596   2.473   2.905
 1674SOL    HW2 5922   4.712   2.376   2.966
 1675SOL     OW 5923   5.170   0.907   1.228
 1675SOL    HW1 5924   5.117   0.846   1.286
 1675SOL    HW2 5925   5.128   0.914   1.138
 1676SOL     OW 5926   1.626   1.642   2.915
 1676SOL    HW1 5927   1.682   1.716   2.953
 1676SOL    HW2 5928   1.529   1.665   2.926
 1677SOL     OW 5929   4.108   3.550   3.321
 1677SOL    HW1 5930   4.069   3.489   3.391
 1677SOL    HW2 5931   4.092   3.645   3.348
 1678SOL     OW 5932   0.586   6.643   0.730
 1678SOL    HW1 5933   0.599   6.639   0.829
 1678SOL    HW2 5934   0.505   6.698   0.709
 1679SOL     OW 5935   1.869   1.721   5.741
 1679SOL    HW1 5936   1.924   1.797   5.774
 1679SOL    HW2 5937   1.779   1.755   5.711
 1680SOL     OW 5938   4.687   2.678   4.138
 1680SOL    HW1 5939   4.644   2.694   4.227
 1680SOL    HW2 5940   4.658   2.589   4.102
 1681SOL     OW 5941   2.068   6.396   3.681
 1681SOL    HW1 5942   2.125   6.382   3.763
 1681SOL    HW2 5943   2.061   6.494   3.663
 1682SOL     OW 5944   2.516   0.042   5.533
 1682SOL    HW1 5945   2.580   7.002   5.487
 1682SOL    HW2 5946   2.521   0.134   5.492
 1683SOL     OW 5947   6.130   4.655   2.500
 1683SOL    HW1 5948   6.225   4.629   2.486
 1683SOL    HW2 5949   6.073   4.614   2.429
 1684SOL     OW 5950   2.068   4.656   1.392
 1684SOL    HW1 5951   2.157   4.659   1.438
 1684SOL    HW2 5952   1.997   4.687   1.455
 1685SOL     OW 5953   0.475   1.425   5.847
 1685SOL    HW1 5954   0.407   1.352   5.847
 1685SOL    HW2 5955   0.565   1.387   5.829
 1686SOL     OW 5956   4.736   5.404   3.128
 1686SOL    HW1 5957   4.692   5.445   3.208
 1686SOL    HW2 5958   4.801   5.334   3.158
 1687SOL     OW 5959   6.377   3.799   2.781
 1687SOL    HW1 5960   6.465   3.817   2.826
 1687SOL    HW2 5961   6.369   3.701   2.763
 1688SOL     OW 5962   2.285   1.999   3.772
 1688SOL    HW1 5963   2.257   1.931   3.705
 1688SOL    HW2 5964   2.362   1.964   3.825
 1689SOL     OW 5965   5.948   0.749   1.743
 1689SOL    HW1 5966   5.877   0.811   1.775
 1689SOL    HW2 5967   6.037   0.794   1.750
 1690SOL     OW 5968   0.708   4.139   4.537
 1690SOL    HW1 5969   0.801   4.134   4.499
 1690SOL    HW2 5970   0.650   4.191   4.475
 1691SOL     OW 5971   4.963   2.657   5.113
 1691SOL    HW1 5972   4.969   2.635   5.210
 1691SOL    HW2 5973   4.932   2.751   5.102
 1692SOL     OW 5974   6.160   5.147   1.359
 1692SOL    HW1 5975   6.074   5.171   1.315
 1692SOL    HW2 5976   6.214   5.089   1.298
 1693SOL     OW 5977   5.901   0.444   5.641
 1693SOL    HW1 5978   5.856   0.426   5.553
 1693SOL    HW2 5979   5.898   0.543   5.659
 1694SOL     OW 5980   5.800   0.642   5.380
 1694SOL    HW1 5981   5.800   0.725   5.325
 1694SOL    HW2 5982   5.826   0.665   5.474
 1695SOL     OW 5983   3.644   0.560   6.656
 1695SOL    HW1 5984   3.646   0.478   6.714
 1695SOL    HW2 5985   3.734   0.572   6.613
 1696SOL     OW 5986   4.650   5.902   0.135
 1696SOL    HW1 5987   4.716   5.891   0.061
 1696SOL    HW2 5988   4.623   5.811   0.169
 1697SOL     OW 5989   5.864   1.906   1.310
 1697SOL    HW1 5990   5.817   1.835   1.258
 1697SOL    HW2 5991   5.805   1.987   1.317
 1698SOL     OW 5992   3.163   0.696   1.879
 1698SOL    HW1 5993   3.171   0.686   1.779
 1698SOL    HW2 5994   3.224   0.630   1.924
 1699SOL     OW 5995   2.318   0.484   0.128
 1699SOL    HW1 5996   2.302   0.552   0.056
 1699SOL    HW2 5997   2.417   0.467   0.136
 1700SOL     OW 5998   5.833   3.528   3.060
 1700SOL    HW1 5999   5.918   3.554   3.015
 1700SOL    HW2 6000   5.849   3.513   3.157
 1701SOL     OW 6001   6.921   5.023   4.989
 1701SOL    HW1 6002   6.975   4.979   4.918
 1701SOL    HW2 6003   6.915   5.121   4.970
 1702SOL     OW 6004   1.935   2.533   5.815
 1702SOL    HW1 6005   1.949   2.541   5.717
 1702SOL    HW2 6006   1.891   2.446   5.836
 1703SOL     OW 6007   3.234   2.128   6.829
 1703SOL    HW1 6008   3.261   2.036   6.802
 1703SOL    HW2 6009   3.137   2.142   6.806
 1704SOL     OW 6010   2.628   1.811   0.984
 1704SOL    HW1 6011   2.642   1.744   1.057
 1704SOL    HW2 6012   2.711   1.820   0.930
 1705SOL     OW 6013   3.835   1.096   1.302
 1705SOL    HW1 6014   3.897   1.061   1.373
 1705SOL    HW2 6015   3.744   1.108   1.342
 1706SOL     OW 6016   3.715   2.025   0.748
 1706SOL    HW1 6017   3.790   2.090   0.759
 1706SOL    HW2 6018   3.647   2.042   0.819
 1707SOL     OW 6019   4.760   1.506   2.175
 1707SOL    HW1 6020   4.676   1.478   2.222
 1707SOL    HW2 6021   4.823   1.428   2.171
 1708SOL     OW 6022   3.229   5.227   1.562
 1708SOL    HW1 6023   3.324   5.234   1.591
 1708SOL    HW2 6024   3.221   5.256   1.466
 1709SOL     OW 6025   5.024   5.563   0.519
 1709SOL    HW1 6026   4.944   5.577   0.462
 1709SOL    HW2 6027   5.103   5.540   0.462
 1710SOL     OW 6028   4.375   5.486   2.934
 1710SOL    HW1 6029   4.424   5.421   2.992
 1710SOL    HW2 6030   4.362   5.446   2.843
 1711SOL     OW 6031   3.725   5.441   6.192
 1711SOL    HW1 6032   3.728   5.487   6.103
 1711SOL    HW2 6033   3.639   5.390   6.201
 1712SOL     OW 6034   0.021   1.966   4.209
 1712SOL    HW1 6035   6.965   1.999   4.153
 1712SOL    HW2 6036   0.104   2.016   4.186
 1713SOL     OW 6037   4.067   0.666   2.660
 1713SOL    HW1 6038   4.130   0.620   2.723
 1713SOL    HW2 6039   4.108   0.751   2.629
 1714SOL     OW 6040   3.642   2.665   6.787
 1714SOL    HW1 6041   3.699   2.732   6.834
 1714SOL    HW2 6042   3.688   2.634   6.704
 1715SOL     OW 6043   1.431   6.231   2.554
 1715SOL    HW1 6044   1.371   6.162   2.513
 1715SOL    HW2 6045   1.379   6.314   2.572
 1716SOL     OW 6046   4.416   0.431   3.980
 1716SOL    HW1 6047   4.395   0.378   3.897
 1716SOL    HW2 6048   4.514   0.431   3.995
 1717SOL     OW 6049   3.670   5.892   5.515
 1717SOL    HW1 6050   3.728   5.930   5.587
 1717SOL    HW2 6051   3.726   5.840   5.451
 1718SOL     OW 6052   1.926   2.767   2.052
 1718SOL    HW1 6053   2.007   2.713   2.076
 1718SOL    HW2 6054   1.870   2.717   1.987
 1719SOL     OW 6055   0.925   5.154   1.453
 1719SOL    HW1 6056   0.956   5.231   1.397
 1719SOL    HW2 6057   0.916   5.073   1.395
 1720SOL     OW 6058   6.431   3.079   5.531
 1720SOL    HW1 6059   6.363   3.014   5.565
 1720SOL    HW2 6060   6.399   3.172   5.549
 1721SOL     OW 6061   1.672   1.589   1.620
 1721SOL    HW1 6062   1.712   1.644   1.547
 1721SOL    HW2 6063   1.574   1.604   1.624
 1722SOL     OW 6064   2.940   2.172   3.374
 1722SOL    HW1 6065   2.887   2.109   3.317
 1722SOL    HW2 6066   3.037   2.163   3.352
 1723SOL     OW 6067   5.454   2.875   0.290
 1723SOL    HW1 6068   5.484   2.790   0.246
 1723SOL    HW2 6069   5.404   2.853   0.375
 1724SOL     OW 6070   6.992   2.518   1.184
 1724SOL    HW1 6071   6.911   2.461   1.178
 1724SOL    HW2 6072   6.972   2.598   1.241
 1725SOL     OW 6073   2.103   5.918   6.894
 1725SOL    HW1 6074   2.106   5.870   6.982
 1725SOL    HW2 6075   2.107   6.016   6.909
 1726SOL     OW 6076   5.725   4.107   4.139
 1726SOL    HW1 6077   5.635   4.131   4.101
 1726SOL    HW2 6078   5.760   4.026   4.093
 1727SOL     OW 6079   3.314   3.544   3.258
 1727SOL    HW1 6080   3.226   3.518   3.218
 1727SOL    HW2 6081   3.371   3.588   3.188
 1728SOL     OW 6082   5.056   2.332   4.770
 1728SOL    HW1 6083   4.990   2.363   4.839
 1728SOL    HW2 6084   5.073   2.234   4.782
 1729SOL     OW 6085   1.946   4.309   1.802
 1729SOL    HW1 6086   1.906   4.218   1.792
 1729SOL    HW2 6087   2.002   4.311   1.885
 1730SOL     OW 6088   2.674   4.894   5.807
 1730SOL    HW1 6089   2.577   4.912   5.792
 1730SOL    HW2 6090   2.701   4.928   5.897
 1731SOL     OW 6091   6.106   4.053   4.219
 1731SOL    HW1 6092   6.156   4.127   4.175
 1731SOL    HW2 6093   6.029   4.090   4.270
 1732SOL     OW 6094   2.081   4.675   6.502
 1732SOL    HW1 6095   2.107   4.595   6.448
 1732SOL    HW2 6096   2.157   4.702   6.560
 1733SOL     OW 6097   3.034   4.082   0.242
 1733SOL    HW1 6098   2.999   3.999   0.286
 1733SOL    HW2 6099   3.015   4.078   0.144
 1734SOL     OW 6100   0.164   3.031   1.220
 1734SOL    HW1 6101   0.164   2.972   1.301
 1734SOL    HW2 6102   0.258   3.056   1.198
 1735SOL     OW 6103   3.951   5.139   6.186
 1735SOL    HW1 6104   3.986   5.232   6.201
 1735SOL    HW2 6105   4.028   5.075   6.178
 1736SOL     OW 6106   4.643   3.313   0.945
 1736SOL    HW1 6107   4.742   3.332   0.947
 1736SOL    HW2 6108   4.620   3.266   0.859
 1737SOL     OW 6109   5.074   1.194   4.807
 1737SOL    HW1 6110   5.011   1.200   4.730
 1737SOL    HW2 6111   5.168   1.203   4.774
 1738SOL     OW 6112   1.158   3.315   4.435
 1738SOL    HW1 6113   1.193   3.399   4.477
 1738SOL    HW2 6114   1.119   3.257   4.506
 1739SOL     OW 6115   5.261   0.156   4.260
 1739SOL    HW1 6116   5.304   0.196   4.179
 1739SOL    HW2 6117   5.328   0.153   4.335
 1740SOL     OW 6118   6.589   2.845   4.396
 1740SOL    HW1 6119   6.682   2.807   4.393
 1740SOL    HW2 6120   6.594   2.944   4.380
 1741SOL     OW 6121   1.075   1.918   4.484
 1741SOL    HW1 6122   1.034   1.927   4.575
 1741SOL    HW2 6123   1.060   2.003   4.433
 1742SOL     OW 6124   6.222   5.765   6.139
 1742SOL    HW1 6125   6.217   5.856   6.100
 1742SOL    HW2 6126   6.274   5.705   6.079
 1743SOL     OW 6127   1.590   0.796   2.903
 1743SOL    HW1 6128   1.642   0.719   2.868
 1743SOL    HW2 6129   1.626   0.881   2.864
 1744SOL     OW 6130   4.364   2.045   4.047
 1744SOL    HW1 6131   4.327   2.136   4.069
 1744SOL    HW2 6132   4.457   2.038   4.082
 1745SOL     OW 6133   6.964   6.665   1.465
 1745SOL    HW1 6134   0.019   6.731   1.455
 1745SOL    HW2 6135   6.951   6.616   1.378
 1746SOL     OW 6136   1.665   4.138   3.561
 1746SOL    HW1 6137   1.634   4.158   3.468
 1746SOL    HW2 6138   1.759   4.169   3.572
 1747SOL     OW 6139   3.528   0.962   2.138
 1747SOL    HW1 6140   3.500   0.919   2.052
 1747SOL    HW2 6141   3.628   0.969   2.140
 1748SOL     OW 6142   6.718   2.089   4.982
 1748SOL    HW1 6143   6.671   2.001   4.988
 1748SOL    HW2 6144   6.784   2.097   5.057
 1749SOL     OW 6145   1.816   5.111   0.799
 1749SOL    HW1 6146   1.738   5.050   0.788
 1749SOL    HW2 6147   1.790   5.188   0.858
 1750SOL     OW 6148   4.428   0.192   5.289
 1750SOL    HW1 6149   4.483   0.117   5.325
 1750SOL    HW2 6150   4.457   0.212   5.195
 1751SOL     OW 6151   5.824   2.549   4.914
 1751SOL    HW1 6152   5.917   2.577   4.890
 1751SOL    HW2 6153   5.774   2.627   4.952
 1752SOL     OW 6154   6.606   0.608   1.196
 1752SOL    HW1 6155   6.618   0.704   1.173
 1752SOL    HW2 6156   6.517   0.576   1.162
 1753SOL     OW 6157   6.301   1.286   1.856
 1753SOL    HW1 6158   6.398   1.278   1.880
 1753SOL    HW2 6159   6.292   1.327   1.765
 1754SOL     OW 6160   3.297   5.169   5.663
 1754SOL    HW1 6161   3.326   5.249   5.716
 1754SOL    HW2 6162   3.259   5.198   5.575
 1755SOL     OW 6163   6.564   6.903   5.109
 1755SOL    HW1 6164   6.531   6.912   5.015
 1755SOL    HW2 6165   6.648   6.849   5.110
 1756SOL     OW 6166   5.644   0.601   6.137
 1756SOL    HW1 6167   5.593   0.687   6.141
 1756SOL    HW2 6168   5.591   0.533   6.086
 1757SOL     OW 6169   2.357   5.137   5.106
 1757SOL    HW1 6170   2.391   5.215   5.158
 1757SOL    HW2 6171   2.258   5.133   5.113
 1758SOL     OW 6172   2.160   6.452   4.893
 1758SOL    HW1 6173   2.113   6.535   4.925
 1758SOL    HW2 6174   2.157   6.449   4.793
 1759SOL     OW 6175   1.247   6.825   6.865
 1759SOL    HW1 6176   1.212   6.812   6.958
 1759SOL    HW2 6177   1.308   6.905   6.864
 1760SOL     OW 6178   6.135   1.048   5.172
 1760SOL    HW1 6179   6.142   1.095   5.261
 1760SOL    HW2 6180   6.088   0.961   5.184
 1761SOL     OW 6181   6.045   1.878   2.148
 1761SOL    HW1 6182   5.970   1.884   2.082
 1761SOL    HW2 6183   6.025   1.937   2.227
 1762SOL     OW 6184   0.276   1.469   4.872
 1762SOL    HW1 6185   0.372   1.496   4.873
 1762SOL    HW2 6186   0.219   1.550   4.862
 1763SOL     OW 6187   0.614   3.883   4.548
 1763SOL    HW1 6188   0.642   3.979   4.558
 1763SOL    HW2 6189   0.517   3.880   4.522
 1764SOL     OW 6190   0.900   5.327   2.531
 1764SOL    HW1 6191   0.982   5.285   2.568
 1764SOL    HW2 6192   0.828   5.257   2.521
 1765SOL     OW 6193   5.196   3.349   2.313
 1765SOL    HW1 6194   5.292   3.373   2.321
 1765SOL    HW2 6195   5.154   3.401   2.239
 1766SOL     OW 6196   4.291   4.821   4.569
 1766SOL    HW1 6197   4.375   4.774   4.541
 1766SOL    HW2 6198   4.289   4.913   4.530
 1767SOL     OW 6199   0.501   4.902   2.409
 1767SOL    HW1 6200   0.471   4.963   2.336
 1767SOL    HW2 6201   0.595   4.874   2.393
 1768SOL     OW 6202   5.077   6.610   2.242
 1768SOL    HW1 6203   4.983   6.608   2.207
 1768SOL    HW2 6204   5.097   6.701   2.279
 1769SOL     OW 6205   5.247   0.763   0.017
 1769SOL    HW1 6206   5.167   0.741   6.981
 1769SOL    HW2 6207   5.325   0.782   6.978
 1770SOL     OW 6208   2.427   4.957   6.382
 1770SOL    HW1 6209   2.342   4.996   6.417
 1770SOL    HW2 6210   2.448   4.873   6.432
 1771SOL     OW 6211   1.004   3.730   6.231
 1771SOL    HW1 6212   1.085   3.671   6.232
 1771SOL    HW2 6213   0.994   3.771   6.141
 1772SOL     OW 6214   2.365   4.419   4.002
 1772SOL    HW1 6215   2.280   4.469   3.982
 1772SOL    HW2 6216   2.394   4.370   3.920
 1773SOL     OW 6217   0.670   6.477   4.890
 1773SOL    HW1 6218   0.595   6.523   4.937
 1773SOL    HW2 6219   0.737   6.445   4.958
 1774SOL     OW 6220   5.696   4.963   1.318
 1774SOL    HW1 6221   5.705   5.059   1.290
 1774SOL    HW2 6222   5.693   4.904   1.238
 1775SOL     OW 6223   2.177   5.546   6.329
 1775SOL    HW1 6224   2.193   5.448   6.316
 1775SOL    HW2 6225   2.248   5.598   6.282
 1776SOL     OW 6226   4.624   1.228   6.271
 1776SOL    HW1 6227   4.535   1.263   6.301
 1776SOL    HW2 6228   4.689   1.304   6.264
 1777SOL     OW 6229   4.624   6.723   6.689
 1777SOL    HW1 6230   4.634   6.636   6.641
 1777SOL    HW2 6231   4.680   6.792   6.645
 1778SOL     OW 6232   5.962   0.162   4.145
 1778SOL    HW1 6233   6.006   0.237   4.194
 1778SOL    HW2 6234   5.865   0.181   4.135
 1779SOL     OW 6235   5.427   5.964   3.990
 1779SOL    HW1 6236   5.458   6.025   3.917
 1779SOL    HW2 6237   5.453   6.003   4.078
 1780SOL     OW 6238   2.247   5.626   5.054
 1780SOL    HW1 6239   2.330   5.617   5.109
 1780SOL    HW2 6240   2.255   5.568   4.973
 1781SOL     OW 6241   4.276   0.629   4.067
 1781SOL    HW1 6242   4.339   0.562   4.029
 1781SOL    HW2 6243   4.228   0.590   4.146
 1782SOL     OW 6244   1.660   1.668   2.488
 1782SOL    HW1 6245   1.741   1.612   2.473
 1782SOL    HW2 6246   1.680   1.763   2.464
 1783SOL     OW 6247   2.112   4.201   6.669
 1783SOL    HW1 6248   2.047   4.148   6.615
 1783SOL    HW2 6249   2.130   4.288   6.623
 1784SOL     OW 6250   2.455   0.297   0.819
 1784SOL    HW1 6251   2.366   0.292   0.774
 1784SOL    HW2 6252   2.488   0.204   0.839
 1785SOL     OW 6253   0.953   6.318   4.204
 1785SOL    HW1 6254   0.968   6.225   4.171
 1785SOL    HW2 6255   0.894   6.367   4.140
 1786SOL     OW 6256   0.786   6.047   0.487
 1786SOL    HW1 6257   0.858   6.099   0.442
 1786SOL    HW2 6258   0.782   6.072   0.584
 1787SOL     OW 6259   2.402   3.862   6.117
 1787SOL    HW1 6260   2.442   3.948   6.150
 1787SOL    HW2 6261   2.304   3.874   6.104
 1788SOL     OW 6262   4.655   3.660   0.769
 1788SOL    HW1 6263   4.621   3.593   0.702
 1788SOL    HW2 6264   4.724   3.718   0.726
 1789SOL     OW 6265   6.635   3.922   1.831
 1789SOL    HW1 6266   6.641   3.828   1.864
 1789SOL    HW2 6267   6.642   3.985   1.909
 1790SOL     OW 6268   2.693   2.332   4.539
 1790SOL    HW1 6269   2.656   2.344   4.631
 1790SOL    HW2 6270   2.785   2.292   4.545
 1791SOL     OW 6271   5.283   6.744   3.307
 1791SOL    HW1 6272   5.369   6.729   3.258
 1791SOL    HW2 6273   5.273   6.675   3.379
 1792SOL     OW 6274   0.144   1.425   5.540
 1792SOL    HW1 6275   0.071   1.368   5.500
 1792SOL    HW2 6276   0.200   1.369   5.601
 1793SOL     OW 6277   0.013   1.507   5.977
 1793SOL    HW1 6278   0.080   1.443   6.014
 1793SOL    HW2 6279   6.946   1.460   5.965
 1794SOL     OW 6280   0.838   6.778   6.056
 1794SOL    HW1 6281   0.857   6.875   6.074
 1794SOL    HW2 6282   0.914   6.723   6.088
 1795SOL     OW 6283   6.113   4.467   0.702
 1795SOL    HW1 6284   6.028   4.483   0.752
 1795SOL    HW2 6285   6.157   4.385   0.738
 1796SOL     OW 6286   1.074   0.038   6.205
 1796SOL    HW1 6287   1.016   0.017   6.284
 1796SOL    HW2 6288   1.021   0.030   6.121
 1797SOL     OW 6289   2.681   5.435   5.021
 1797SOL    HW1 6290   2.647   5.509   5.080
 1797SOL    HW2 6291   2.719   5.362   5.078
 1798SOL     OW 6292   2.921   3.685   4.384
 1798SOL    HW1 6293   2.852   3.706   4.314
 1798SOL    HW2 6294   3.012   3.692   4.343
 1799SOL     OW 6295   3.393   1.134   0.588
 1799SOL    HW1 6296   3.325   1.137   0.515
 1799SOL    HW2 6297   3.354   1.170   0.672
 1800SOL     OW 6298   5.684   3.641   4.621
 1800SOL    HW1 6299   5.608   3.663   4.559
 1800SOL    HW2 6300   5.719   3.550   4.599
 1801SOL     OW 6301   1.111   1.552   1.909
 1801SOL    HW1 6302   1.077   1.499   1.831
 1801SOL    HW2 6303   1.180   1.499   1.958
 1802SOL     OW 6304   6.824   5.000   3.405
 1802SOL    HW1 6305   6.754   4.967   3.468
 1802SOL    HW2 6306   6.790   5.079   3.355
 1803SOL     OW 6307   0.861   0.004   3.550
 1803SOL    HW1 6308   0.849   6.948   3.487
 1803SOL    HW2 6309   0.959   0.019   3.566
 1804SOL     OW 6310   2.187   3.176   5.825
 1804SOL    HW1 6311   2.259   3.239   5.855
 1804SOL    HW2 6312   2.175   3.105   5.895
 1805SOL     OW 6313   0.124   5.899   6.590
 1805SOL    HW1 6314   0.160   5.844   6.666
 1805SOL    HW2 6315   0.198   5.924   6.528
 1806SOL     OW 6316   0.011   1.743   2.121
 1806SOL    HW1 6317   6.956   1.749   2.186
 1806SOL    HW2 6318   0.066   1.662   2.142
 1807SOL     OW 6319   6.598   3.216   2.021
 1807SOL    HW1 6320   6.546   3.130   2.019
 1807SOL    HW2 6321   6.669   3.214   1.951
 1808SOL     OW 6322   4.941   1.983   5.998
 1808SOL    HW1 6323   4.946   2.064   6.056
 1808SOL    HW2 6324   4.936   1.901   6.055
 1809SOL     OW 6325   4.040   1.337   5.776
 1809SOL    HW1 6326   4.047   1.354   5.874
 1809SOL    HW2 6327   4.116   1.278   5.747
 1810SOL     OW 6328   0.317   0.297   4.375
 1810SOL    HW1 6329   0.246   0.247   4.326
 1810SOL    HW2 6330   0.383   0.333   4.309
 1811SOL     OW 6331   4.371   5.577   1.912
 1811SOL    HW1 6332   4.301   5.560   1.842
 1811SOL    HW2 6333   4.413   5.490   1.938
 1812SOL     OW 6334   4.462   6.517   5.064
 1812SOL    HW1 6335   4.420   6.602   5.032
 1812SOL    HW2 6336   4.507   6.533   5.152
 1813SOL     OW 6337   4.418   4.564   2.647
 1813SOL    HW1 6338   4.389   4.617   2.567
 1813SOL    HW2 6339   4.514   4.535   2.635
 1814SOL     OW 6340   0.118   6.305   0.553
 1814SOL    HW1 6341   0.206   6.341   0.523
 1814SOL    HW2 6342   0.066   6.377   0.598
 1815SOL     OW 6343   5.839   6.391   1.433
 1815SOL    HW1 6344   5.933   6.361   1.414
 1815SOL    HW2 6345   5.834   6.426   1.526
 1816SOL     OW 6346   4.572   5.136   5.865
 1816SOL    HW1 6347   4.652   5.152   5.923
 1816SOL    HW2 6348   4.510   5.072   5.910
 1817SOL     OW 6349   1.108   1.367   3.674
 1817SOL    HW1 6350   1.157   1.281   3.659
 1817SOL    HW2 6351   1.162   1.443   3.640
 1818SOL     OW 6352   1.763   6.806   1.063
 1818SOL    HW1 6353   1.731   6.887   1.113
 1818SOL    HW2 6354   1.828   6.835   0.993
 1819SOL     OW 6355   2.148   5.251   3.518
 1819SOL    HW1 6356   2.156   5.211   3.609
 1819SOL    HW2 6357   2.156   5.179   3.449
 1820SOL     OW 6358   3.965   0.491   4.300
 1820SOL    HW1 6359   3.904   0.435   4.245
 1820SOL    HW2 6360   3.977   0.449   4.390
 1821SOL     OW 6361   3.232   1.884   2.777
 1821SOL    HW1 6362   3.314   1.914   2.728
 1821SOL    HW2 6363   3.259   1.833   2.859
 1822SOL     OW 6364   6.841   2.688   2.256
 1822SOL    HW1 6365   6.746   2.684   2.285
 1822SOL    HW2 6366   6.885   2.768   2.296
 1823SOL     OW 6367   3.580   6.736   2.501
 1823SOL    HW1 6368   3.675   6.713   2.522
 1823SOL    HW2 6369   3.567   6.735   2.402
 1824SOL     OW 6370   3.850   2.895   1.432
 1824SOL    HW1 6371   3.755   2.867   1.439
 1824SOL    HW2 6372   3.894   2.844   1.358
 1825SOL     OW 6373   1.943   1.648   5.158
 1825SOL    HW1 6374   1.855   1.609   5.128
 1825SOL    HW2 6375   1.967   1.724   5.098
 1826SOL     OW 6376   3.637   2.138   1.669
 1826SOL    HW1 6377   3.656   2.209   1.736
 1826SOL    HW2 6378   3.630   2.179   1.578
 1827SOL     OW 6379   5.823   4.206   1.395
 1827SOL    HW1 6380   5.806   4.109   1.412
 1827SOL    HW2 6381   5.750   4.260   1.437
 1828SOL     OW 6382   1.695   3.416   5.196
 1828SOL    HW1 6383   1.703   3.466   5.110
 1828SOL    HW2 6384   1.782   3.417   5.245
 1829SOL     OW 6385   3.431   0.560   3.633
 1829SOL    HW1 6386   3.511   0.617   3.650
 1829SOL    HW2 6387   3.460   0.465   3.619
 1830SOL     OW 6388   4.766   6.724   5.016
 1830SOL    HW1 6389   4.746   6.697   4.921
 1830SOL    HW2 6390   4.744   6.820   5.029
 1831SOL     OW 6391   4.136   5.481   1.530
 1831SOL    HW1 6392   4.138   5.521   1.622
 1831SOL    HW2 6393   4.211   5.416   1.521
 1832SOL     OW 6394   2.586   3.398   0.157
 1832SOL    HW1 6395   2.632   3.329   0.101
 1832SOL    HW2 6396   2.539   3.352   0.233
 1833SOL     OW 6397   4.938   0.274   0.635
 1833SOL    HW1 6398   4.982   0.320   0.713
 1833SOL    HW2 6399   4.992   0.194   0.609
 1834SOL     OW 6400   2.187   2.350   6.157
 1834SOL    HW1 6401   2.099   2.356   6.205
 1834SOL    HW2 6402   2.250   2.294   6.212
 1835SOL     OW 6403   6.166   5.735   0.701
 1835SOL    HW1 6404   6.191   5.772   0.790
 1835SOL    HW2 6405   6.249   5.719   0.647
 1836SOL     OW 6406   5.335   2.170   1.604
 1836SOL    HW1 6407   5.285   2.095   1.560
 1836SOL    HW2 6408   5.287   2.256   1.585
 1837SOL     OW 6409   3.443   2.447   6.448
 1837SOL    HW1 6410   3.469   2.361   6.405
 1837SOL    HW2 6411   3.355   2.437   6.493
 1838SOL     OW 6412   6.309   0.932   0.313
 1838SOL    HW1 6413   6.259   1.019   0.308
 1838SOL    HW2 6414   6.349   0.912   0.223
 1839SOL     OW 6415   0.603   1.308   6.697
 1839SOL    HW1 6416   0.552   1.349   6.621
 1839SOL    HW2 6417   0.701   1.316   6.681
 1840SOL     OW 6418   4.832   6.495   3.194
 1840SOL    HW1 6419   4.750   6.487   3.251
 1840SOL    HW2 6420   4.813   6.557   3.118
 1841SOL     OW 6421   2.439   1.402   2.331
 1841SOL    HW1 6422   2.488   1.348   2.399
 1841SOL    HW2 6423   2.439   1.353   2.244
 1842SOL     OW 6424   1.491   5.206   0.150
 1842SOL    HW1 6425   1.517   5.302   0.153
 1842SOL    HW2 6426   1.565   5.150   0.188
 1843SOL     OW 6427   3.361   1.221   4.598
 1843SOL    HW1 6428   3.364   1.319   4.578
 1843SOL    HW2 6429   3.266   1.191   4.602
 1844SOL     OW 6430   5.550   2.174   6.843
 1844SOL    HW1 6431   5.548   2.081   6.881
 1844SOL    HW2 6432   5.615   2.230   6.896
 1845SOL     OW 6433   1.356   1.439   3.123
 1845SOL    HW1 6434   1.441   1.430   3.071
 1845SOL    HW2 6435   1.322   1.348   3.148
 1846SOL     OW 6436   4.368   1.472   2.070
 1846SOL    HW1 6437   4.391   1.569   2.071
 1846SOL    HW2 6438   4.428   1.423   2.134
 1847SOL     OW 6439   2.217   6.874   5.363
 1847SOL    HW1 6440   2.214   6.775   5.349
 1847SOL    HW2 6441   2.241   6.894   5.457
 1848SOL     OW 6442   2.907   5.728   4.430
 1848SOL    HW1 6443   2.995   5.758   4.393
 1848SOL    HW2 6444   2.843   5.805   4.432
 1849SOL     OW 6445   4.624   2.855   1.760
 1849SOL    HW1 6446   4.705   2.819   1.807
 1849SOL    HW2 6447   4.600   2.944   1.799
 1850SOL     OW 6448   4.885   1.417   1.289
 1850SOL    HW1 6449   4.922   1.363   1.364
 1850SOL    HW2 6450   4.874   1.512   1.319
 1851SOL     OW 6451   0.128   4.156   5.210
 1851SOL    HW1 6452   0.141   4.061   5.181
 1851SOL    HW2 6453   0.045   4.162   5.266
 1852SOL     OW 6454   0.902   6.512   2.478
 1852SOL    HW1 6455   0.930   6.485   2.386
 1852SOL    HW2 6456   0.931   6.442   2.544
 1853SOL     OW 6457   0.292   2.683   4.407
 1853SOL    HW1 6458   0.267   2.779   4.420
 1853SOL    HW2 6459   0.332   2.648   4.492
 1854SOL     OW 6460   0.175   0.172   3.542
 1854SOL    HW1 6461   0.121   0.090   3.563
 1854SOL    HW2 6462   0.114   0.247   3.520
 1855SOL     OW 6463   4.687   2.702   4.428
 1855SOL    HW1 6464   4.709   2.787   4.380
 1855SOL    HW2 6465   4.770   2.647   4.437
 1856SOL     OW 6466   3.817   2.522   6.590
 1856SOL    HW1 6467   3.882   2.493   6.660
 1856SOL    HW2 6468   3.838   2.476   6.504
 1857SOL     OW 6469   4.133   1.593   1.005
 1857SOL    HW1 6470   4.041   1.555   1.004
 1857SOL    HW2 6471   4.159   1.617   1.098
 1858SOL     OW 6472   4.312   2.293   4.288
 1858SOL    HW1 6473   4.368   2.368   4.322
 1858SOL    HW2 6474   4.294   2.306   4.190
 1859SOL     OW 6475   6.058   2.260   3.948
 1859SOL    HW1 6476   6.008   2.304   4.022
 1859SOL    HW2 6477   6.008   2.180   3.916
 1860SOL     OW 6478   1.261   1.497   4.857
 1860SOL    HW1 6479   1.304   1.454   4.937
 1860SOL    HW2 6480   1.286   1.446   4.774
 1861SOL     OW 6481   6.782   0.320   3.401
 1861SOL    HW1 6482   6.787   0.343   3.304
 1861SOL    HW2 6483   6.686   0.318   3.429
 1862SOL     OW 6484   2.625   5.692   6.499
 1862SOL    HW1 6485   2.688   5.723   6.429
 1862SOL    HW2 6486   2.605   5.595   6.486
 1863SOL     OW 6487   1.135   2.651   0.938
 1863SOL    HW1 6488   1.225   2.696   0.934
 1863SOL    HW2 6489   1.107   2.641   1.034
 1864SOL     OW 6490   3.893   5.622   2.935
 1864SOL    HW1 6491   3.795   5.643   2.943
 1864SOL    HW2 6492   3.916   5.549   2.999
 1865SOL     OW 6493   5.249   1.906   6.616
 1865SOL    HW1 6494   5.177   1.886   6.550
 1865SOL    HW2 6495   5.266   1.826   6.673
 1866SOL     OW 6496   0.440   5.147   3.785
 1866SOL    HW1 6497   0.453   5.087   3.865
 1866SOL    HW2 6498   0.436   5.091   3.702
 1867SOL     OW 6499   2.132   2.248   1.554
 1867SOL    HW1 6500   2.197   2.324   1.559
 1867SOL    HW2 6501   2.138   2.193   1.637
 1868SOL     OW 6502   5.768   4.220   5.749
 1868SOL    HW1 6503   5.789   4.317   5.761
 1868SOL    HW2 6504   5.777   4.173   5.837
 1869SOL     OW 6505   4.758   1.408   4.286
 1869SOL    HW1 6506   4.747   1.490   4.342
 1869SOL    HW2 6507   4.719   1.425   4.195
 1870SOL     OW 6508   0.142   5.865   4.367
 1870SOL    HW1 6509   0.223   5.865   4.426
 1870SOL    HW2 6510   0.061   5.887   4.423
 1871SOL     OW 6511   0.459   6.399   0.786
 1871SOL    HW1 6512   0.522   6.475   0.770
 1871SOL    HW2 6513   0.511   6.316   0.805
 1872SOL     OW 6514   2.562   2.682   1.154
 1872SOL    HW1 6515   2.649   2.719   1.184
 1872SOL    HW2 6516   2.577   2.612   1.084
 1873SOL     OW 6517   0.176   1.464   0.614
 1873SOL    HW1 6518   0.234   1.474   0.695
 1873SOL    HW2 6519   0.219   1.510   0.536
 1874SOL     OW 6520   0.709   6.216   0.019
 1874SOL    HW1 6521   0.621   6.219   0.066
 1874SOL    HW2 6522   0.766   6.144   0.059
 1875SOL     OW 6523   6.470   4.782   0.551
 1875SOL    HW1 6524   6.440   4.724   0.627
 1875SOL    HW2 6525   6.550   4.742   0.507
 1876SOL     OW 6526   6.831   6.183   6.998
 1876SOL    HW1 6527   6.820   6.208   6.902
 1876SOL    HW2 6528   6.745   6.200   0.026
 1877SOL     OW 6529   0.427   0.944   2.686
 1877SOL    HW1 6530   0.356   0.875   2.701
 1877SOL    HW2 6531   0.502   0.903   2.634
 1878SOL     OW 6532   6.570   4.106   3.201
 1878SOL    HW1 6533   6.551   4.077   3.295
 1878SOL    HW2 6534   6.662   4.146   3.196
 1879SOL     OW 6535   4.222   5.706   4.630
 1879SOL    HW1 6536   4.233   5.693   4.729
 1879SOL    HW2 6537   4.234   5.802   4.608
 1880SOL     OW 6538   0.670   1.819   3.967
 1880SOL    HW1 6539   0.738   1.881   3.927
 1880SOL    HW2 6540   0.621   1.866   4.040
 1881SOL     OW 6541   0.904   1.318   4.319
 1881SOL    HW1 6542   0.844   1.259   4.373
 1881SOL    HW2 6543   0.965   1.368   4.381
 1882SOL     OW 6544   1.664   5.436   6.621
 1882SOL    HW1 6545   1.747   5.488   6.601
 1882SOL    HW2 6546   1.653   5.428   6.720
 1883SOL     OW 6547   1.456   2.777   2.445
 1883SOL    HW1 6548   1.521   2.853   2.449
 1883SOL    HW2 6549   1.453   2.732   2.534
 1884SOL     OW 6550   3.123   0.752   0.178
 1884SOL    HW1 6551   3.090   0.666   0.140
 1884SOL    HW2 6552   3.117   0.823   0.108
 1885SOL     OW 6553   0.171   2.149   1.562
 1885SOL    HW1 6554   0.072   2.162   1.570
 1885SOL    HW2 6555   0.218   2.234   1.586
 1886SOL     OW 6556   2.973   3.048   6.471
 1886SOL    HW1 6557   2.999   2.983   6.399
 1886SOL    HW2 6558   2.918   3.001   6.540
 1887SOL     OW 6559   0.574   6.638   5.302
 1887SOL    HW1 6560   0.568   6.728   5.347
 1887SOL    HW2 6561   0.609   6.650   5.209
 1888SOL     OW 6562   2.446   2.204   6.050
 1888SOL    HW1 6563   2.391   2.162   5.978
 1888SOL    HW2 6564   2.425   2.301   6.056
 1889SOL     OW 6565   3.806   2.581   0.135
 1889SOL    HW1 6566   3.711   2.552   0.130
 1889SOL    HW2 6567   3.815   2.657   0.200
 1890SOL     OW 6568   6.385   5.322   6.528
 1890SOL    HW1 6569   6.376   5.380   6.609
 1890SOL    HW2 6570   6.476   5.282   6.525
 1891SOL     OW 6571   6.212   3.860   5.193
 1891SOL    HW1 6572   6.292   3.879   5.137
 1891SOL    HW2 6573   6.162   3.945   5.211
 1892SOL     OW 6574   3.947   5.918   1.522
 1892SOL    HW1 6575   3.895   5.909   1.438
 1892SOL    HW2 6576   3.985   6.010   1.529
 1893SOL     OW 6577   3.887   2.200   4.127
 1893SOL    HW1 6578   3.791   2.172   4.132
 1893SOL    HW2 6579   3.920   2.224   4.218
 1894SOL     OW 6580   4.100   4.027   1.028
 1894SOL    HW1 6581   4.199   4.023   1.021
 1894SOL    HW2 6582   4.059   3.952   0.976
 1895SOL     OW 6583   5.059   0.648   3.312
 1895SOL    HW1 6584   5.143   0.620   3.265
 1895SOL    HW2 6585   5.047   0.747   3.303
 1896SOL     OW 6586   6.701   1.049   5.849
 1896SOL    HW1 6587   6.627   1.114   5.833
 1896SOL    HW2 6588   6.715   1.039   5.948
 1897SOL     OW 6589   5.736   4.531   3.343
 1897SOL    HW1 6590   5.780   4.620   3.345
 1897SOL    HW2 6591   5.805   4.459   3.340
 1898SOL     OW 6592   5.817   4.967   6.953
 1898SOL    HW1 6593   5.917   4.969   6.944
 1898SOL    HW2 6594   5.791   4.899   0.000
 1899SOL     OW 6595   1.335   3.082   2.951
 1899SOL    HW1 6596   1.266   3.133   2.899
 1899SOL    HW2 6597   1.321   2.984   2.937
 1900SOL     OW 6598   2.438   5.714   6.836
 1900SOL    HW1 6599   2.371   5.736   6.766
 1900SOL    HW2 6600   2.529   5.740   6.805
 1901SOL     OW 6601   1.538   1.237   6.611
 1901SOL    HW1 6602   1.502   1.295   6.538
 1901SOL    HW2 6603   1.623   1.276   6.645
 1902SOL     OW 6604   0.956   3.104   4.733
 1902SOL    HW1 6605   0.916   3.109   4.825
 1902SOL    HW2 6606   1.050   3.071   4.738
 1903SOL     OW 6607   6.350   3.053   3.901
 1903SOL    HW1 6608   6.275   3.048   3.835
 1903SOL    HW2 6609   6.317   3.092   3.987
 1904SOL     OW 6610   6.538   6.878   3.805
 1904SOL    HW1 6611   6.567   6.973   3.794
 1904SOL    HW2 6612   6.452   6.876   3.856
 1905SOL     OW 6613   6.818   2.993   3.642
 1905SOL    HW1 6614   6.727   3.015   3.608
 1905SOL    HW2 6615   6.885   3.059   3.607
 1906SOL     OW 6616   2.197   6.981   0.182
 1906SOL    HW1 6617   2.277   7.020   0.228
 1906SOL    HW2 6618   2.152   0.032   0.129
 1907SOL     OW 6619   3.757   5.978   3.369
 1907SOL    HW1 6620   3.843   6.029   3.374
 1907SOL    HW2 6621   3.706   6.007   3.288
 1908SOL     OW 6622   4.513   1.524   6.565
 1908SOL    HW1 6623   4.457   1.484   6.493
 1908SOL    HW2 6624   4.570   1.453   6.606
 1909SOL     OW 6625   2.817   5.204   4.448
 1909SOL    HW1 6626   2.893   5.259   4.485
 1909SOL    HW2 6627   2.807   5.121   4.502
 1910SOL     OW 6628   5.180   1.809   5.664
 1910SOL    HW1 6629   5.190   1.849   5.755
 1910SOL    HW2 6630   5.173   1.709   5.672
 1911SOL     OW 6631   6.377   3.318   5.669
 1911SOL    HW1 6632   6.356   3.389   5.736
 1911SOL    HW2 6633   6.375   3.358   5.577
 1912SOL     OW 6634   3.801   0.251   3.400
 1912SOL    HW1 6635   3.727   0.189   3.374
 1912SOL    HW2 6636   3.884   0.227   3.349
 1913SOL     OW 6637   1.603   4.736   5.466
 1913SOL    HW1 6638   1.606   4.770   5.372
 1913SOL    HW2 6639   1.543   4.795   5.521
 1914SOL     OW 6640   4.022   2.027   5.719
 1914SOL    HW1 6641   3.976   2.115   5.727
 1914SOL    HW2 6642   3.988   1.965   5.789
 1915SOL     OW 6643   3.322   0.500   5.729
 1915SOL    HW1 6644   3.403   0.537   5.774
 1915SOL    HW2 6645   3.350   0.434   5.658
 1916SOL     OW 6646   3.490   6.210   1.710
 1916SOL    HW1 6647   3.432   6.144   1.758
 1916SOL    HW2 6648   3.569   6.162   1.672
 1917SOL     OW 6649   2.930   3.208   4.229
 1917SOL    HW1 6650   2.963   3.289   4.181
 1917SOL    HW2 6651   2.837   3.187   4.200
 1918SOL     OW 6652   5.507   6.856   4.367
 1918SOL    HW1 6653   5.516   6.940   4.419
 1918SOL    HW2 6654   5.429   6.862   4.306
 1919SOL     OW 6655   6.430   6.976   1.886
 1919SOL    HW1 6656   6.369   6.905   1.851
 1919SOL    HW2 6657   6.525   6.945   1.877
 1920SOL     OW 6658   6.525   5.940   4.355
 1920SOL    HW1 6659   6.542   6.019   4.413
 1920SOL    HW2 6660   6.474   5.968   4.274
 1921SOL     OW 6661   1.063   6.826   6.558
 1921SOL    HW1 6662   1.001   6.755   6.591
 1921SOL    HW2 6663   1.010   6.899   6.514
 1922SOL     OW 6664   3.788   4.298   0.677
 1922SOL    HW1 6665   3.863   4.306   0.743
 1922SOL    HW2 6666   3.756   4.204   0.675
 1923SOL     OW 6667   1.825   2.034   0.778
 1923SOL    HW1 6668   1.800   2.117   0.728
 1923SOL    HW2 6669   1.915   2.047   0.820
 1924SOL     OW 6670   0.303   4.595   1.368
 1924SOL    HW1 6671   0.280   4.683   1.326
 1924SOL    HW2 6672   0.341   4.534   1.299
 1925SOL     OW 6673   3.169   3.995   1.284
 1925SOL    HW1 6674   3.125   3.949   1.362
 1925SOL    HW2 6675   3.105   4.061   1.245
 1926SOL     OW 6676   1.146   6.808   3.995
 1926SOL    HW1 6677   1.123   6.804   3.898
 1926SOL    HW2 6678   1.235   6.764   4.010
 1927SOL     OW 6679   4.131   3.881   6.607
 1927SOL    HW1 6680   4.059   3.840   6.551
 1927SOL    HW2 6681   4.191   3.809   6.641
 1928SOL     OW 6682   6.477   4.409   5.614
 1928SOL    HW1 6683   6.544   4.373   5.549
 1928SOL    HW2 6684   6.424   4.332   5.652
 1929SOL     OW 6685   1.473   0.249   1.707
 1929SOL    HW1 6686   1.536   0.186   1.752
 1929SOL    HW2 6687   1.515   0.339   1.700
 1930SOL     OW 6688   5.954   3.850   6.132
 1930SOL    HW1 6689   5.936   3.752   6.142
 1930SOL    HW2 6690   5.953   3.874   6.035
 1931SOL     OW 6691   0.437   2.861   4.596
 1931SOL    HW1 6692   0.382   2.924   4.650
 1931SOL    HW2 6693   0.404   2.767   4.609
 1932SOL     OW 6694   5.966   3.785   1.388
 1932SOL    HW1 6695   5.900   3.858   1.407
 1932SOL    HW2 6696   6.058   3.816   1.415
 1933SOL     OW 6697   3.123   4.291   1.217
 1933SOL    HW1 6698   3.116   4.342   1.303
 1933SOL    HW2 6699   3.211   4.312   1.174
 1934SOL     OW 6700   0.993   6.127   5.568
 1934SOL    HW1 6701   1.005   6.066   5.647
 1934SOL    HW2 6702   0.942   6.208   5.596
 1935SOL     OW 6703   2.522   0.835   3.425
 1935SOL    HW1 6704   2.617   0.865   3.434
 1935SOL    HW2 6705   2.461   0.912   3.440
 1936SOL     OW 6706   5.980   5.526   5.491
 1936SOL    HW1 6707   6.058   5.522   5.553
 1936SOL    HW2 6708   5.897   5.499   5.540
 1937SOL     OW 6709   3.738   6.304   1.879
 1937SOL    HW1 6710   3.649   6.292   1.835
 1937SOL    HW2 6711   3.801   6.349   1.815
 1938SOL     OW 6712   4.455   0.853   4.042
 1938SOL    HW1 6713   4.552   0.830   4.053
 1938SOL    HW2 6714   4.400   0.769   4.048
 1939SOL     OW 6715   1.771   1.082   3.421
 1939SOL    HW1 6716   1.797   1.013   3.353
 1939SOL    HW2 6717   1.682   1.121   3.397
 1940SOL     OW 6718   0.109   5.236   0.242
 1940SOL    HW1 6719   0.148   5.145   0.233
 1940SOL    HW2 6720   0.182   5.305   0.230
 1941SOL     OW 6721   4.864   4.038   2.764
 1941SOL    HW1 6722   4.842   3.943   2.740
 1941SOL    HW2 6723   4.892   4.042   2.860
 1942SOL     OW 6724   6.063   4.832   2.680
 1942SOL    HW1 6725   6.106   4.756   2.632
 1942SOL    HW2 6726   6.118   4.914   2.670
 1943SOL     OW 6727   2.669   4.755   3.195
 1943SOL    HW1 6728   2.657   4.771   3.293
 1943SOL    HW2 6729   2.761   4.784   3.168
 1944SOL     OW 6730   6.707   1.310   1.071
 1944SOL    HW1 6731   6.781   1.318   1.005
 1944SOL    HW2 6732   6.693   1.398   1.117
 1945SOL     OW 6733   3.323   4.973   3.855
 1945SOL    HW1 6734   3.278   4.974   3.766
 1945SOL    HW2 6735   3.278   5.039   3.915
 1946SOL     OW 6736   1.322   0.506   6.699
 1946SOL    HW1 6737   1.230   0.511   6.658
 1946SOL    HW2 6738   1.365   0.596   6.695
 1947SOL     OW 6739   5.831   5.679   3.520
 1947SOL    HW1 6740   5.833   5.626   3.605
 1947SOL    HW2 6741   5.738   5.677   3.482
 1948SOL     OW 6742   6.576   5.290   4.525
 1948SOL    HW1 6743   6.563   5.213   4.587
 1948SOL    HW2 6744   6.603   5.371   4.576
 1949SOL     OW 6745   4.064   4.303   6.595
 1949SOL    HW1 6746   4.078   4.370   6.521
 1949SOL    HW2 6747   4.059   4.351   6.682
 1950SOL     OW 6748   3.409   4.056   6.390
 1950SOL    HW1 6749   3.332   4.047   6.326
 1950SOL    HW2 6750   3.373   4.072   6.482
 1951SOL     OW 6751   6.205   1.624   6.698
 1951SOL    HW1 6752   6.284   1.583   6.745
 1951SOL    HW2 6753   6.154   1.553   6.651
 1952SOL     OW 6754   3.720   2.215   0.089
 1952SOL    HW1 6755   3.728   2.253   7.017
 1952SOL    HW2 6756   3.746   2.118   0.087
 1953SOL     OW 6757   0.122   2.329   6.428
 1953SOL    HW1 6758   0.054   2.266   6.465
 1953SOL    HW2 6759   0.082   2.420   6.419
 1954SOL     OW 6760   3.357   1.987   4.201
 1954SOL    HW1 6761   3.281   2.018   4.144
 1954SOL    HW2 6762   3.324   1.976   4.295
 1955SOL     OW 6763   0.140   6.505   2.887
 1955SOL    HW1 6764   0.195   6.548   2.960
 1955SOL    HW2 6765   0.071   6.446   2.929
 1956SOL     OW 6766   6.269   5.733   2.334
 1956SOL    HW1 6767   6.347   5.685   2.374
 1956SOL    HW2 6768   6.223   5.672   2.269
 1957SOL     OW 6769   0.227   6.608   5.354
 1957SOL    HW1 6770   0.148   6.651   5.396
 1957SOL    HW2 6771   0.249   6.523   5.403
 1958SOL     OW 6772   5.475   3.326   5.756
 1958SOL    HW1 6773   5.407   3.271   5.707
 1958SOL    HW2 6774   5.468   3.307   5.854
 1959SOL     OW 6775   1.547   2.300   6.225
 1959SOL    HW1 6776   1.629   2.304   6.168
 1959SOL    HW2 6777   1.572   2.321   6.320
 1960SOL     OW 6778   5.479   5.527   0.745
 1960SOL    HW1 6779   5.534   5.463   0.798
 1960SOL    HW2 6780   5.384   5.523   0.777
 1961SOL     OW 6781   5.689   4.091   3.805
 1961SOL    HW1 6782   5.648   4.151   3.874
 1961SOL    HW2 6783   5.732   4.013   3.851
 1962SOL     OW 6784   1.296   6.302   3.613
 1962SOL    HW1 6785   1.385   6.344   3.629
 1962SOL    HW2 6786   1.308   6.207   3.585
 1963SOL     OW 6787   1.269   0.505   2.883
 1963SOL    HW1 6788   1.252   0.595   2.921
 1963SOL    HW2 6789   1.192   0.444   2.905
 1964SOL     OW 6790   4.877   3.108   2.907
 1964SOL    HW1 6791   4.905   3.201   2.884
 1964SOL    HW2 6792   4.923   3.079   2.990
 1965SOL     OW 6793   0.960   3.871   3.224
 1965SOL    HW1 6794   0.959   3.787   3.170
 1965SOL    HW2 6795   0.869   3.914   3.220
 1966SOL     OW 6796   6.619   5.459   5.233
 1966SOL    HW1 6797   6.571   5.377   5.263
 1966SOL    HW2 6798   6.713   5.436   5.210
 1967SOL     OW 6799   4.611   2.832   5.157
 1967SOL    HW1 6800   4.532   2.795   5.204
 1967SOL    HW2 6801   4.629   2.926   5.189
 1968SOL     OW 6802   3.253   6.075   0.062
 1968SOL    HW1 6803   3.201   5.996   0.095
 1968SOL    HW2 6804   3.264   6.141   0.137
 1969SOL     OW 6805   0.331   2.353   1.652
 1969SOL    HW1 6806   0.361   2.348   1.748
 1969SOL    HW2 6807   0.395   2.411   1.601
 1970SOL     OW 6808   1.680   0.345   4.595
 1970SOL    HW1 6809   1.617   0.409   4.637
 1970SOL    HW2 6810   1.774   0.368   4.621
 1971SOL     OW 6811   0.581   6.273   6.802
 1971SOL    HW1 6812   0.487   6.241   6.807
 1971SOL    HW2 6813   0.628   6.252   6.888
 1972SOL     OW 6814   0.809   4.458   3.984
 1972SOL    HW1 6815   0.799   4.494   4.077
 1972SOL    HW2 6816   0.790   4.531   3.918
 1973SOL     OW 6817   3.271   3.164   1.672
 1973SOL    HW1 6818   3.226   3.128   1.754
 1973SOL    HW2 6819   3.248   3.261   1.661
 1974SOL     OW 6820   5.407   0.696   4.028
 1974SOL    HW1 6821   5.466   0.722   3.952
 1974SOL    HW2 6822   5.311   0.707   4.002
 1975SOL     OW 6823   3.217   0.670   4.009
 1975SOL    HW1 6824   3.266   0.603   3.952
 1975SOL    HW2 6825   3.273   0.693   4.089
 1976SOL     OW 6826   0.056   6.156   0.318
 1976SOL    HW1 6827   6.980   6.134   0.329
 1976SOL    HW2 6828   0.085   6.220   0.389
 1977SOL     OW 6829   1.175   2.328   4.921
 1977SOL    HW1 6830   1.161   2.376   5.008
 1977SOL    HW2 6831   1.172   2.394   4.846
 1978SOL     OW 6832   6.302   2.042   4.790
 1978SOL    HW1 6833   6.262   1.951   4.794
 1978SOL    HW2 6834   6.293   2.087   4.879
 1979SOL     OW 6835   6.240   4.736   3.955
 1979SOL    HW1 6836   6.307   4.796   3.911
 1979SOL    HW2 6837   6.165   4.792   3.990
 1980SOL     OW 6838   3.588   0.402   1.472
 1980SOL    HW1 6839   3.578   0.327   1.407
 1980SOL    HW2 6840   3.549   0.376   1.560
 1981SOL     OW 6841   4.982   2.967   1.959
 1981SOL    HW1 6842   4.972   2.892   1.894
 1981SOL    HW2 6843   4.892   2.999   1.988
 1982SOL     OW 6844   5.616   5.356   4.851
 1982SOL    HW1 6845   5.634   5.294   4.928
 1982SOL    HW2 6846   5.609   5.302   4.767
 1983SOL     OW 6847   1.099   3.061   3.368
 1983SOL    HW1 6848   1.151   3.143   3.345
 1983SOL    HW2 6849   1.131   3.025   3.455
 1984SOL     OW 6850   3.962   1.867   5.943
 1984SOL    HW1 6851   3.883   1.899   5.995
 1984SOL    HW2 6852   3.981   1.772   5.966
 1985SOL     OW 6853   1.131   0.599   1.366
 1985SOL    HW1 6854   1.098   0.597   1.272
 1985SOL    HW2 6855   1.224   0.563   1.369
 1986SOL     OW 6856   1.729   2.151   7.019
 1986SOL    HW1 6857   1.755   2.059   6.991
 1986SOL    HW2 6858   1.675   2.194   6.946
 1987SOL     OW 6859   2.278   3.486   0.846
 1987SOL    HW1 6860   2.258   3.570   0.897
 1987SOL    HW2 6861   2.296   3.411   0.910
 1988SOL     OW 6862   4.849   3.685   0.061
 1988SOL    HW1 6863   4.823   3.732   6.997
 1988SOL    HW2 6864   4.905   3.605   0.039
 1989SOL     OW 6865   2.358   0.185   4.212
 1989SOL    HW1 6866   2.406   0.264   4.175
 1989SOL    HW2 6867   2.261   0.191   4.191
 1990SOL     OW 6868   2.922   1.083   0.941
 1990SOL    HW1 6869   2.905   1.101   1.038
 1990SOL    HW2 6870   2.930   0.984   0.926
 1991SOL     OW 6871   3.387   5.447   4.299
 1991SOL    HW1 6872   3.332   5.423   4.379
 1991SOL    HW2 6873   3.379   5.376   4.230
 1992SOL     OW 6874   2.404   6.609   5.524
 1992SOL    HW1 6875   2.409   6.635   5.428
 1992SOL    HW2 6876   2.345   6.674   5.573
 1993SOL     OW 6877   3.745   3.697   5.487
 1993SOL    HW1 6878   3.661   3.675   5.538
 1993SOL    HW2 6879   3.726   3.774   5.425
 1994SOL     OW 6880   6.608   2.001   2.146
 1994SOL    HW1 6881   6.611   2.050   2.058
 1994SOL    HW2 6882   6.562   2.058   2.214
 1995SOL     OW 6883   5.939   1.960   1.624
 1995SOL    HW1 6884   5.917   2.057   1.622
 1995SOL    HW2 6885   5.858   1.906   1.602
 1996SOL     OW 6886   3.537   4.190   0.183
 1996SOL    HW1 6887   3.439   4.198   0.163
 1996SOL    HW2 6888   3.577   4.118   0.126
 1997SOL     OW 6889   4.872   0.353   4.244
 1997SOL    HW1 6890   4.949   0.411   4.216
 1997SOL    HW2 6891   4.846   0.376   4.338
 1998SOL     OW 6892   2.570   4.143   6.424
 1998SOL    HW1 6893   2.523   4.146   6.336
 1998SOL    HW2 6894   2.655   4.091   6.416
 1999SOL     OW 6895   2.308   0.013   2.187
 1999SOL    HW1 6896   2.373   7.018   2.113
 1999SOL    HW2 6897   2.346   6.999   2.273
 2000SOL     OW 6898   4.083   1.194   4.992
 2000SOL    HW1 6899   4.071   1.131   5.069
 2000SOL    HW2 6900   3.993   1.226   4.961
 2001SOL     OW 6901   2.787   1.535   0.981
 2001SOL    HW1 6902   2.776   1.498   1.073
 2001SOL    HW2 6903   2.696   1.549   0.940
 2002SOL     OW 6904   2.117   5.580   5.673
 2002SOL    HW1 6905   2.115   5.662   5.730
 2002SOL    HW2 6906   2.207   5.571   5.631
 2003SOL     OW 6907   5.929   6.289   3.351
 2003SOL    HW1 6908   6.006   6.224   3.350
 2003SOL    HW2 6909   5.885   6.287   3.441
 2004SOL     OW 6910   3.159   1.069   5.699
 2004SOL    HW1 6911   3.147   1.159   5.741
 2004SOL    HW2 6912   3.246   1.029   5.730
 2005SOL     OW 6913   2.029   5.825   5.825
 2005SOL    HW1 6914   2.106   5.889   5.830
 2005SOL    HW2 6915   1.973   5.834   5.907
 2006SOL     OW 6916   4.326   5.064   4.434
 2006SOL    HW1 6917   4.423   5.086   4.442
 2006SOL    HW2 6918   4.274   5.148   4.419
 2007SOL     OW 6919   5.237   5.554   0.347
 2007SOL    HW1 6920   5.304   5.496   0.396
 2007SOL    HW2 6921   5.270   5.648   0.345
 2008SOL     OW 6922   6.964   6.258   3.329
 2008SOL    HW1 6923   6.875   6.265   3.375
 2008SOL    HW2 6924   0.001   6.192   3.377
 2009SOL     OW 6925   0.273   0.670   2.061
 2009SOL    HW1 6926   0.218   0.652   1.980
 2009SOL    HW2 6927   0.217   0.659   2.143
 2010SOL     OW 6928   0.635   0.359   0.840
 2010SOL    HW1 6929   0.708   0.423   0.865
 2010SOL    HW2 6930   0.632   0.348   0.741
 2011SOL     OW 6931   6.312   1.922   5.078
 2011SOL    HW1 6932   6.320   1.872   5.164
 2011SOL    HW2 6933   6.321   2.020   5.096
 2012SOL     OW 6934   1.497   4.353   0.986
 2012SOL    HW1 6935   1.514   4.449   1.007
 2012SOL    HW2 6936   1.581   4.310   0.953
 2013SOL     OW 6937   5.641   2.077   2.627
 2013SOL    HW1 6938   5.730   2.035   2.643
 2013SOL    HW2 6939   5.616   2.065   2.531
 2014SOL     OW 6940   1.644   5.559   3.929
 2014SOL    HW1 6941   1.640   5.655   3.957
 2014SOL    HW2 6942   1.702   5.551   3.847
 2015SOL     OW 6943   3.326   0.355   0.114
 2015SOL    HW1 6944   3.341   0.403   0.028
 2015SOL    HW2 6945   3.294   0.420   0.183
 2016SOL     OW 6946   0.854   5.466   4.439
 2016SOL    HW1 6947   0.866   5.484   4.537
 2016SOL    HW2 6948   0.763   5.426   4.423
 2017SOL     OW 6949   2.440   5.644   2.984
 2017SOL    HW1 6950   2.395   5.640   3.074
 2017SOL    HW2 6951   2.538   5.632   2.996
 2018SOL     OW 6952   0.374   5.659   5.888
 2018SOL    HW1 6953   0.394   5.647   5.985
 2018SOL    HW2 6954   0.290   5.611   5.865
 2019SOL     OW 6955   6.279   2.370   1.676
 2019SOL    HW1 6956   6.318   2.368   1.584
 2019SOL    HW2 6957   6.278   2.277   1.714
 2020SOL     OW 6958   2.126   4.806   3.604
 2020SOL    HW1 6959   2.108   4.718   3.561
 2020SOL    HW2 6960   2.174   4.792   3.690
 2021SOL     OW 6961   1.855   0.896   2.359
 2021SOL    HW1 6962   1.889   0.867   2.448
 2021SOL    HW2 6963   1.758   0.922   2.367
 2022SOL     OW 6964   2.333   3.694   1.731
 2022SOL    HW1 6965   2.299   3.781   1.767
 2022SOL    HW2 6966   2.312   3.621   1.795
 2023SOL     OW 6967   6.686   1.416   6.502
 2023SOL    HW1 6968   6.614   1.425   6.570
 2023SOL    HW2 6969   6.768   1.464   6.534
 2024SOL     OW 6970   5.936   0.540   3.719
 2024SOL    HW1 6971   5.924   0.481   3.639
 2024SOL    HW2 6972   5.981   0.489   3.792
 2025SOL     OW 6973   0.535   1.656   1.705
 2025SOL    HW1 6974   0.562   1.751   1.687
 2025SOL    HW2 6975   0.520   1.644   1.803
 2026SOL     OW 6976   2.504   1.832   5.574
 2026SOL    HW1 6977   2.481   1.841   5.671
 2026SOL    HW2 6978   2.603   1.836   5.563
 2027SOL     OW 6979   1.323   1.086   1.927
 2027SOL    HW1 6980   1.309   1.006   1.985
 2027SOL    HW2 6981   1.318   1.060   1.831
 2028SOL     OW 6982   3.474   2.272   0.253
 2028SOL    HW1 6983   3.454   2.186   0.301
 2028SOL    HW2 6984   3.551   2.258   0.191
 2029SOL     OW 6985   1.007   1.567   6.309
 2029SOL    HW1 6986   0.912   1.544   6.326
 2029SOL    HW2 6987   1.019   1.593   6.213
 2030SOL     OW 6988   1.912   1.978   3.328
 2030SOL    HW1 6989   1.827   1.928   3.316
 2030SOL    HW2 6990   1.980   1.919   3.373
 2031SOL     OW 6991   5.784   6.545   2.066
 2031SOL    HW1 6992   5.816   6.450   2.068
 2031SOL    HW2 6993   5.790   6.583   2.158
 2032SOL     OW 6994   5.026   6.144   0.293
 2032SOL    HW1 6995   4.932   6.152   0.260
 2032SOL    HW2 6996   5.072   6.232   0.285
 2033SOL     OW 6997   5.251   4.458   6.240
 2033SOL    HW1 6998   5.344   4.490   6.258
 2033SOL    HW2 6999   5.207   4.521   6.176
 2034SOL     OW 7000   2.351   6.423   2.870
 2034SOL    HW1 7001   2.407   6.490   2.821
 2034SOL    HW2 7002   2.260   6.460   2.885
 2035SOL     OW 7003   0.834   1.697   2.506
 2035SOL    HW1 7004   0.851   1.639   2.585
 2035SOL    HW2 7005   0.737   1.720   2.500
 2036SOL     OW 7006   0.238   5.428   0.956
 2036SOL    HW1 7007   0.158   5.395   1.008
 2036SOL    HW2 7008   0.220   5.418   0.858
 2037SOL     OW 7009   6.498   2.519   5.560
 2037SOL    HW1 7010   6.447   2.435   5.543
 2037SOL    HW2 7011   6.563   2.534   5.485
 2038SOL     OW 7012   0.546   1.479   4.545
 2038SOL    HW1 7013   0.537   1.506   4.450
 2038SOL    HW2 7014   0.517   1.554   4.604
 2039SOL     OW 7015   6.720   5.527   3.215
 2039SOL    HW1 7016   6.781   5.590   3.166
 2039SOL    HW2 7017   6.636   5.576   3.241
 2040SOL     OW 7018   3.900   3.019   4.660
 2040SOL    HW1 7019   3.973   3.085   4.676
 2040SOL    HW2 7020   3.899   2.994   4.563
 2041SOL     OW 7021   6.022   4.564   5.751
 2041SOL    HW1 7022   5.925   4.543   5.738
 2041SOL    HW2 7023   6.032   4.657   5.786
 2042SOL     OW 7024   4.967   4.864   0.443
 2042SOL    HW1 7025   4.969   4.768   0.416
 2042SOL    HW2 7026   5.058   4.892   0.475
 2043SOL     OW 7027   5.615   4.733   2.673
 2043SOL    HW1 7028   5.517   4.753   2.668
 2043SOL    HW2 7029   5.663   4.779   2.598
 2044SOL     OW 7030   5.876   0.089   1.634
 2044SOL    HW1 7031   5.788   0.117   1.673
 2044SOL    HW2 7032   5.912   0.162   1.576
 2045SOL     OW 7033   2.492   4.660   6.128
 2045SOL    HW1 7034   2.492   4.651   6.028
 2045SOL    HW2 7035   2.429   4.732   6.156
 2046SOL     OW 7036   6.295   0.709   4.375
 2046SOL    HW1 7037   6.267   0.696   4.280
 2046SOL    HW2 7038   6.362   0.783   4.380
 2047SOL     OW 7039   5.140   2.568   1.201
 2047SOL    HW1 7040   5.078   2.507   1.150
 2047SOL    HW2 7041   5.121   2.559   1.299
 2048SOL     OW 7042   4.144   0.365   6.971
 2048SOL    HW1 7043   4.146   0.421   0.033
 2048SOL    HW2 7044   4.236   0.358   6.934
 2049SOL     OW 7045   4.158   1.602   0.028
 2049SOL    HW1 7046   4.068   1.590   7.007
 2049SOL    HW2 7047   4.152   1.665   0.105
 2050SOL     OW 7048   6.276   2.619   4.064
 2050SOL    HW1 7049   6.347   2.680   4.029
 2050SOL    HW2 7050   6.268   2.630   4.163
 2051SOL     OW 7051   1.085   6.024   0.349
 2051SOL    HW1 7052   1.114   6.018   0.254
 2051SOL    HW2 7053   1.026   6.104   0.361
 2052SOL     OW 7054   1.002   2.946   6.536
 2052SOL    HW1 7055   1.035   3.032   6.575
 2052SOL    HW2 7056   0.910   2.927   6.569
 2053SOL     OW 7057   6.493   1.098   6.591
 2053SOL    HW1 7058   6.410   1.050   6.619
 2053SOL    HW2 7059   6.527   1.058   6.505
 2054SOL     OW 7060   5.992   2.661   0.705
 2054SOL    HW1 7061   6.081   2.706   0.702
 2054SOL    HW2 7062   5.997   2.579   0.761
 2055SOL     OW 7063   5.553   2.322   3.334
 2055SOL    HW1 7064   5.625   2.377   3.376
 2055SOL    HW2 7065   5.529   2.247   3.396
 2056SOL     OW 7066   2.074   0.757   3.199
 2056SOL    HW1 7067   2.169   0.741   3.228
 2056SOL    HW2 7068   2.070   0.839   3.143
 2057SOL     OW 7069   5.987   2.672   4.101
 2057SOL    HW1 7070   6.078   2.631   4.101
 2057SOL    HW2 7071   5.924   2.613   4.152
 2058SOL     OW 7072   0.378   1.984   2.884
 2058SOL    HW1 7073   0.342   2.075   2.905
 2058SOL    HW2 7074   0.454   1.963   2.946
 2059SOL     OW 7075   2.239   1.234   6.793
 2059SOL    HW1 7076   2.300   1.311   6.812
 2059SOL    HW2 7077   2.149   1.268   6.767
 2060SOL     OW 7078   0.080   4.618   1.844
 2060SOL    HW1 7079   0.143   4.559   1.793
 2060SOL    HW2 7080   7.013   4.621   1.796
 2061SOL     OW 7081   0.129   1.485   2.307
 2061SOL    HW1 7082   0.153   1.472   2.210
 2061SOL    HW2 7083   0.036   1.452   2.324
 2062SOL     OW 7084   4.397   0.024   2.007
 2062SOL    HW1 7085   4.383   7.014   2.102
 2062SOL    HW2 7086   4.374   0.121   2.000
 2063SOL     OW 7087   1.908   2.750   6.194
 2063SOL    HW1 7088   1.857   2.835   6.206
 2063SOL    HW2 7089   1.914   2.701   6.281
 2064SOL     OW 7090   0.730   2.179   5.599
 2064SOL    HW1 7091   0.685   2.240   5.535
 2064SOL    HW2 7092   0.774   2.232   5.672
 2065SOL     OW 7093   6.237   3.516   2.675
 2065SOL    HW1 7094   6.187   3.594   2.637
 2065SOL    HW2 7095   6.192   3.431   2.646
 2066SOL     OW 7096   0.346   6.876   4.923
 2066SOL    HW1 7097   0.291   6.858   4.841
 2066SOL    HW2 7098   0.439   6.898   4.896
 2067SOL     OW 7099   6.415   6.712   0.794
 2067SOL    HW1 7100   6.416   6.803   0.753
 2067SOL    HW2 7101   6.479   6.653   0.745
 2068SOL     OW 7102   2.205   1.532   5.223
 2068SOL    HW1 7103   2.273   1.577   5.165
 2068SOL    HW2 7104   2.113   1.562   5.198
 2069SOL     OW 7105   1.023   2.841   2.274
 2069SOL    HW1 7106   0.932   2.851   2.232
 2069SOL    HW2 7107   1.092   2.882   2.213
 2070SOL     OW 7108   1.618   0.483   2.409
 2070SOL    HW1 7109   1.542   0.526   2.458
 2070SOL    HW2 7110   1.704   0.521   2.441
 2071SOL     OW 7111   0.348   6.837   4.234
 2071SOL    HW1 7112   0.347   6.745   4.271
 2071SOL    HW2 7113   0.281   6.845   4.161
 2072SOL     OW 7114   4.841   6.222   1.796
 2072SOL    HW1 7115   4.850   6.128   1.828
 2072SOL    HW2 7116   4.890   6.283   1.858
 2073SOL     OW 7117   3.596   6.603   5.111
 2073SOL    HW1 7118   3.595   6.506   5.088
 2073SOL    HW2 7119   3.642   6.616   5.199
 2074SOL     OW 7120   6.736   1.645   0.750
 2074SOL    HW1 7121   6.802   1.600   0.690
 2074SOL    HW2 7122   6.765   1.637   0.845
 2075SOL     OW 7123   3.797   3.349   0.923
 2075SOL    HW1 7124   3.716   3.317   0.971
 2075SOL    HW2 7125   3.831   3.432   0.967
 2076SOL     OW 7126   5.245   5.822   0.399
 2076SOL    HW1 7127   5.201   5.812   0.488
 2076SOL    HW2 7128   5.314   5.894   0.404
 2077SOL     OW 7129   5.632   1.593   2.524
 2077SOL    HW1 7130   5.692   1.623   2.598
 2077SOL    HW2 7131   5.561   1.662   2.508
 2078SOL     OW 7132   2.870   5.387   6.646
 2078SOL    HW1 7133   2.939   5.458   6.635
 2078SOL    HW2 7134   2.902   5.302   6.604
 2079SOL     OW 7135   5.874   0.804   3.681
 2079SOL    HW1 7136   5.829   0.826   3.595
 2079SOL    HW2 7137   5.880   0.704   3.691
 2080SOL     OW 7138   2.533   2.143   4.928
 2080SOL    HW1 7139   2.544   2.228   4.877
 2080SOL    HW2 7140   2.621   2.115   4.967
 2081SOL     OW 7141   1.396   6.483   5.348
 2081SOL    HW1 7142   1.421   6.459   5.254
 2081SOL    HW2 7143   1.448   6.564   5.376
 2082SOL     OW 7144   5.402   0.825   0.776
 2082SOL    HW1 7145   5.335   0.752   0.760
 2082SOL    HW2 7146   5.424   0.868   0.689
 2083SOL     OW 7147   3.778   5.231   6.751
 2083SOL    HW1 7148   3.765   5.325   6.780
 2083SOL    HW2 7149   3.745   5.169   6.822
 2084SOL     OW 7150   0.101   2.290   3.379
 2084SOL    HW1 7151   0.193   2.292   3.341
 2084SOL    HW2 7152   0.043   2.357   3.332
 2085SOL     OW 7153   4.886   1.032   6.360
 2085SOL    HW1 7154   4.861   1.129   6.369
 2085SOL    HW2 7155   4.936   1.018   6.274
 2086SOL     OW 7156   3.406   4.872   0.711
 2086SOL    HW1 7157   3.401   4.940   0.638
 2086SOL    HW2 7158   3.397   4.917   0.800
 2087SOL     OW 7159   5.589   6.567   2.689
 2087SOL    HW1 7160   5.505   6.598   2.644
 2087SOL    HW2 7161   5.654   6.643   2.694
 2088SOL     OW 7162   3.332   6.717   1.154
 2088SOL    HW1 7163   3.343   6.778   1.076
 2088SOL    HW2 7164   3.280   6.763   1.226
 2089SOL     OW 7165   4.644   1.742   0.267
 2089SOL    HW1 7166   4.693   1.679   0.206
 2089SOL    HW2 7167   4.691   1.747   0.355
 2090SOL     OW 7168   3.746   3.788   4.664
 2090SOL    HW1 7169   3.772   3.736   4.745
 2090SOL    HW2 7170   3.818   3.781   4.595
 2091SOL     OW 7171   0.395   5.843   0.905
 2091SOL    HW1 7172   0.456   5.792   0.845
 2091SOL    HW2 7173   0.322   5.885   0.851
 2092SOL     OW 7174   6.020   6.339   0.987
 2092SOL    HW1 7175   6.099   6.336   1.048
 2092SOL    HW2 7176   5.936   6.335   1.042
 2093SOL     OW 7177   1.197   2.896   2.032
 2093SOL    HW1 7178   1.269   2.852   2.086
 2093SOL    HW2 7179   1.163   2.832   1.963
 2094SOL     OW 7180   6.017   0.369   1.946
 2094SOL    HW1 7181   5.979   0.278   1.962
 2094SOL    HW2 7182   5.951   0.424   1.895
 2095SOL     OW 7183   5.526   6.122   4.192
 2095SOL    HW1 7184   5.625   6.131   4.193
 2095SOL    HW2 7185   5.488   6.179   4.118
 2096SOL     OW 7186   4.639   4.278   2.479
 2096SOL    HW1 7187   4.629   4.182   2.451
 2096SOL    HW2 7188   4.632   4.284   2.578
 2097SOL     OW 7189   0.744   2.361   6.902
 2097SOL    HW1 7190   0.817   2.294   6.888
 2097SOL    HW2 7191   0.710   2.355   6.996
 2098SOL     OW 7192   4.405   6.400   3.770
 2098SOL    HW1 7193   4.403   6.497   3.744
 2098SOL    HW2 7194   4.480   6.354   3.722
 2099SOL     OW 7195   2.636   1.155   4.602
 2099SOL    HW1 7196   2.727   1.141   4.563
 2099SOL    HW2 7197   2.642   1.222   4.677
 2100SOL     OW 7198   4.211   4.108   6.730
 2100SOL    HW1 7199   4.177   4.184   6.674
 2100SOL    HW2 7200   4.182   4.022   6.689
 2101SOL     OW 7201   0.317   0.469   3.065
 2101SOL    HW1 7202   0.342   0.421   3.149
 2101SOL    HW2 7203   0.242   0.532   3.083
 2102SOL     OW 7204   0.066   5.735   2.878
 2102SOL    HW1 7205   0.043   5.667   2.808
 2102SOL    HW2 7206   0.154   5.776   2.857
 2103SOL     OW 7207   3.785   3.231   6.911
 2103SOL    HW1 7208   3.772   3.316   6.962
 2103SOL    HW2 7209   3.698   3.182   6.906
 2104SOL     OW 7210   1.456   3.361   5.800
 2104SOL    HW1 7211   1.525   3.427   5.828
 2104SOL    HW2 7212   1.500   3.276   5.773
 2105SOL     OW 7213   5.467   5.494   2.582
 2105SOL    HW1 7214   5.518   5.500   2.496
 2105SOL    HW2 7215   5.405   5.415   2.579
 2106SOL     OW 7216   4.539   5.420   6.503
 2106SOL    HW1 7217   4.546   5.383   6.411
 2106SOL    HW2 7218   4.478   5.363   6.558
 2107SOL     OW 7219   3.833   4.398   5.746
 2107SOL    HW1 7220   3.851   4.310   5.702
 2107SOL    HW2 7221   3.738   4.424   5.728
 2108SOL     OW 7222   6.203   5.567   5.679
 2108SOL    HW1 7223   6.272   5.615   5.624
 2108SOL    HW2 7224   6.246   5.527   5.759
 2109SOL     OW 7225   5.601   6.008   2.909
 2109SOL    HW1 7226   5.608   6.107   2.897
 2109SOL    HW2 7227   5.532   5.971   2.848
 2110SOL     OW 7228   2.909   4.641   6.441
 2110SOL    HW1 7229   2.969   4.587   6.500
 2110SOL    HW2 7230   2.878   4.585   6.364
 2111SOL     OW 7231   0.858   2.549   6.362
 2111SOL    HW1 7232   0.913   2.484   6.309
 2111SOL    HW2 7233   0.783   2.500   6.407
 2112SOL     OW 7234   3.987   2.816   1.703
 2112SOL    HW1 7235   4.014   2.909   1.726
 2112SOL    HW2 7236   3.939   2.815   1.616
 2113SOL     OW 7237   1.766   0.466   2.762
 2113SOL    HW1 7238   1.775   0.500   2.668
 2113SOL    HW2 7239   1.670   0.444   2.780
 2114SOL     OW 7240   1.349   4.393   0.360
 2114SOL    HW1 7241   1.368   4.311   0.305
 2114SOL    HW2 7242   1.313   4.465   0.301
 2115SOL     OW 7243   2.333   4.382   2.939
 2115SOL    HW1 7244   2.302   4.301   2.888
 2115SOL    HW2 7245   2.418   4.416   2.898
 2116SOL     OW 7246   6.872   3.859   3.132
 2116SOL    HW1 7247   6.862   3.940   3.074
 2116SOL    HW2 7248   6.849   3.777   3.080
 2117SOL     OW 7249   0.185   4.485   1.597
 2117SOL    HW1 7250   0.222   4.506   1.506
 2117SOL    HW2 7251   0.110   4.419   1.589
 2118SOL     OW 7252   6.993   3.649   2.375
 2118SOL    HW1 7253   6.959   3.739   2.348
 2118SOL    HW2 7254   0.041   3.619   2.309
 2119SOL     OW 7255   1.888   5.642   1.146
 2119SOL    HW1 7256   1.971   5.612   1.194
 2119SOL    HW2 7257   1.913   5.688   1.062
 2120SOL     OW 7258   6.103   4.606   2.128
 2120SOL    HW1 7259   6.153   4.623   2.043
 2120SOL    HW2 7260   6.144   4.529   2.176
 2121SOL     OW 7261   0.638   5.744   5.254
 2121SOL    HW1 7262   0.684   5.655   5.263
 2121SOL    HW2 7263   0.573   5.755   5.329
 2122SOL     OW 7264   5.600   4.184   5.547
 2122SOL    HW1 7265   5.649   4.180   5.634
 2122SOL    HW2 7266   5.616   4.273   5.504
 2123SOL     OW 7267   0.055   4.572   2.824
 2123SOL    HW1 7268   0.096   4.481   2.813
 2123SOL    HW2 7269   0.128   4.640   2.828
 2124SOL     OW 7270   1.980   1.525   1.324
 2124SOL    HW1 7271   1.904   1.581   1.357
 2124SOL    HW2 7272   2.050   1.583   1.283
 2125SOL     OW 7273   2.023   0.818   0.304
 2125SOL    HW1 7274   2.105   0.775   0.266
 2125SOL    HW2 7275   1.942   0.772   0.270
 2126SOL     OW 7276   2.798   0.768   6.650
 2126SOL    HW1 7277   2.789   0.696   6.581
 2126SOL    HW2 7278   2.895   0.788   6.665
 2127SOL     OW 7279   6.069   3.140   4.207
 2127SOL    HW1 7280   6.038   3.153   4.302
 2127SOL    HW2 7281   6.023   3.060   4.168
 2128SOL     OW 7282   0.699   4.390   4.777
 2128SOL    HW1 7283   0.703   4.295   4.808
 2128SOL    HW2 7284   0.730   4.450   4.850
 2129SOL     OW 7285   4.720   2.887   5.587
 2129SOL    HW1 7286   4.652   2.909   5.657
 2129SOL    HW2 7287   4.771   2.969   5.561
 2130SOL     OW 7288   5.312   6.896   2.631
 2130SOL    HW1 7289   5.299   6.848   2.718
 2130SOL    HW2 7290   5.289   6.992   2.642
 2131SOL     OW 7291   0.065   0.941   0.693
 2131SOL    HW1 7292   0.004   0.916   0.618
 2131SOL    HW2 7293   0.043   0.885   0.773
 2132SOL     OW 7294   2.778   3.057   1.026
 2132SOL    HW1 7295   2.710   3.124   1.056
 2132SOL    HW2 7296   2.733   2.988   0.969
 2133SOL     OW 7297   2.834   2.514   6.011
 2133SOL    HW1 7298   2.861   2.433   6.064
 2133SOL    HW2 7299   2.894   2.590   6.035
 2134SOL     OW 7300   6.893   1.588   0.963
 2134SOL    HW1 7301   6.970   1.649   0.982
 2134SOL    HW2 7302   6.848   1.564   1.049
 2135SOL     OW 7303   1.041   4.027   4.535
 2135SOL    HW1 7304   1.044   3.928   4.520
 2135SOL    HW2 7305   1.009   4.045   4.628
 2136SOL     OW 7306   2.553   5.355   1.762
 2136SOL    HW1 7307   2.580   5.450   1.743
 2136SOL    HW2 7308   2.455   5.344   1.747
 2137SOL     OW 7309   3.128   5.773   5.195
 2137SOL    HW1 7310   3.041   5.815   5.173
 2137SOL    HW2 7311   3.134   5.683   5.151
 2138SOL     OW 7312   6.300   0.968   2.576
 2138SOL    HW1 7313   6.267   0.976   2.670
 2138SOL    HW2 7314   6.231   0.922   2.520
 2139SOL     OW 7315   3.385   0.847   5.610
 2139SOL    HW1 7316   3.306   0.795   5.644
 2139SOL    HW2 7317   3.377   0.858   5.511
 2140SOL     OW 7318   2.969   0.800   4.843
 2140SOL    HW1 7319   2.976   0.899   4.829
 2140SOL    HW2 7320   3.019   0.752   4.770
 2141SOL     OW 7321   6.241   4.435   2.283
 2141SOL    HW1 7322   6.332   4.478   2.279
 2141SOL    HW2 7323   6.249   4.346   2.327
 2142SOL     OW 7324   1.841   2.936   4.095
 2142SOL    HW1 7325   1.911   3.003   4.122
 2142SOL    HW2 7326   1.806   2.959   4.004
 2143SOL     OW 7327   2.619   5.716   1.020
 2143SOL    HW1 7328   2.645   5.687   1.113
 2143SOL    HW2 7329   2.696   5.765   0.979
 2144SOL     OW 7330   0.102   5.870   5.005
 2144SOL    HW1 7331   0.069   5.797   5.065
 2144SOL    HW2 7332   0.096   5.840   4.909
 2145SOL     OW 7333   3.988   6.567   4.328
 2145SOL    HW1 7334   3.907   6.568   4.386
 2145SOL    HW2 7335   3.982   6.491   4.263
 2146SOL     OW 7336   2.317   2.927   0.981
 2146SOL    HW1 7337   2.353   2.843   0.942
 2146SOL    HW2 7338   2.217   2.922   0.985
 2147SOL     OW 7339   6.713   1.664   5.567
 2147SOL    HW1 7340   6.639   1.604   5.596
 2147SOL    HW2 7341   6.678   1.732   5.503
 2148SOL     OW 7342   0.118   3.203   6.665
 2148SOL    HW1 7343   0.121   3.278   6.599
 2148SOL    HW2 7344   0.045   3.220   6.732
 2149SOL     OW 7345   0.831   0.690   0.631
 2149SOL    HW1 7346   0.827   0.687   0.531
 2149SOL    HW2 7347   0.832   0.785   0.661
 2150SOL     OW 7348   2.567   2.839   1.651
 2150SOL    HW1 7349   2.595   2.774   1.580
 2150SOL    HW2 7350   2.494   2.798   1.706
 2151SOL     OW 7351   1.066   6.593   0.288
 2151SOL    HW1 7352   1.085   6.566   0.383
 2151SOL    HW2 7353   1.043   6.511   0.235
 2152SOL     OW 7354   4.184   5.762   2.539
 2152SOL    HW1 7355   4.254   5.816   2.490
 2152SOL    HW2 7356   4.172   5.674   2.494
 2153SOL     OW 7357   4.253   0.857   2.598
 2153SOL    HW1 7358   4.281   0.816   2.511
 2153SOL    HW2 7359   4.333   0.867   2.657
 2154SOL     OW 7360   3.611   6.540   3.566
 2154SOL    HW1 7361   3.686   6.577   3.511
 2154SOL    HW2 7362   3.547   6.492   3.507
 2155SOL     OW 7363   4.013   6.668   0.941
 2155SOL    HW1 7364   3.959   6.751   0.947
 2155SOL    HW2 7365   4.087   6.671   1.008
 2156SOL     OW 7366   5.809   1.582   3.678
 2156SOL    HW1 7367   5.760   1.586   3.591
 2156SOL    HW2 7368   5.907   1.573   3.661
 2157SOL     OW 7369   4.330   5.086   3.731
 2157SOL    HW1 7370   4.386   5.008   3.758
 2157SOL    HW2 7371   4.247   5.053   3.685
 2158SOL     OW 7372   3.647   0.290   0.646
 2158SOL    HW1 7373   3.709   0.285   0.568
 2158SOL    HW2 7374   3.564   0.238   0.626
 2159SOL     OW 7375   1.596   0.490   5.582
 2159SOL    HW1 7376   1.654   0.524   5.656
 2159SOL    HW2 7377   1.504   0.471   5.618
 2160SOL     OW 7378   5.245   6.063   0.149
 2160SOL    HW1 7379   5.162   6.072   0.205
 2160SOL    HW2 7380   5.314   6.011   0.199
 2161SOL     OW 7381   1.058   3.867   2.077
 2161SOL    HW1 7382   1.085   3.854   1.981
 2161SOL    HW2 7383   1.140   3.873   2.134
 2162SOL     OW 7384   2.466   0.145   3.261
 2162SOL    HW1 7385   2.516   0.229   3.283
 2162SOL    HW2 7386   2.527   0.079   3.219
 2163SOL     OW 7387   1.490   3.226   0.381
 2163SOL    HW1 7388   1.423   3.287   0.422
 2163SOL    HW2 7389   1.576   3.275   0.369
 2164SOL     OW 7390   2.266   2.649   1.182
 2164SOL    HW1 7391   2.357   2.668   1.218
 2164SOL    HW2 7392   2.269   2.650   1.082
 2165SOL     OW 7393   0.223   2.094   3.680
 2165SOL    HW1 7394   0.130   2.114   3.651
 2165SOL    HW2 7395   0.260   2.019   3.626
 2166SOL     OW 7396   0.796   4.004   4.117
 2166SOL    HW1 7397   0.709   3.997   4.167
 2166SOL    HW2 7398   0.812   3.919   4.068
 2167SOL     OW 7399   1.726   2.906   4.411
 2167SOL    HW1 7400   1.799   2.972   4.396
 2167SOL    HW2 7401   1.677   2.891   4.325
 2168SOL     OW 7402   1.269   2.025   3.076
 2168SOL    HW1 7403   1.176   1.989   3.064
 2168SOL    HW2 7404   1.285   2.044   3.172
 2169SOL     OW 7405   0.362   0.531   1.388
 2169SOL    HW1 7406   0.423   0.566   1.459
 2169SOL    HW2 7407   0.268   0.553   1.412
 2170SOL     OW 7408   1.041   4.098   5.850
 2170SOL    HW1 7409   0.954   4.050   5.836
 2170SOL    HW2 7410   1.030   4.194   5.825
 2171SOL     OW 7411   0.160   5.376   1.287
 2171SOL    HW1 7412   0.195   5.469   1.295
 2171SOL    HW2 7413   0.228   5.318   1.243
 2172SOL     OW 7414   0.114   2.018   5.067
 2172SOL    HW1 7415   0.050   1.947   5.040
 2172SOL    HW2 7416   0.199   1.976   5.098
 2173SOL     OW 7417   5.828   0.357   5.385
 2173SOL    HW1 7418   5.814   0.451   5.355
 2173SOL    HW2 7419   5.896   0.313   5.327
 2174SOL     OW 7420   0.126   6.113   5.115
 2174SOL    HW1 7421   0.106   6.021   5.080
 2174SOL    HW2 7422   0.224   6.129   5.113
 2175SOL     OW 7423   2.776   2.922   5.323
 2175SOL    HW1 7424   2.678   2.933   5.333
 2175SOL    HW2 7425   2.799   2.824   5.323
 2176SOL     OW 7426   5.598   2.913   1.307
 2176SOL    HW1 7427   5.606   2.826   1.355
 2176SOL    HW2 7428   5.587   2.987   1.373
 2177SOL     OW 7429   6.915   1.037   3.212
 2177SOL    HW1 7430   6.911   0.938   3.197
 2177SOL    HW2 7431   7.005   1.063   3.245
 2178SOL     OW 7432   0.846   1.558   2.240
 2178SOL    HW1 7433   0.938   1.520   2.230
 2178SOL    HW2 7434   0.840   1.606   2.327
 2179SOL     OW 7435   2.388   4.424   6.585
 2179SOL    HW1 7436   2.442   4.427   6.501
 2179SOL    HW2 7437   2.358   4.516   6.610
 2180SOL     OW 7438   1.413   4.608   2.042
 2180SOL    HW1 7439   1.374   4.615   2.134
 2180SOL    HW2 7440   1.347   4.564   1.981
 2181SOL     OW 7441   5.089   4.697   4.606
 2181SOL    HW1 7442   5.183   4.662   4.615
 2181SOL    HW2 7443   5.026   4.635   4.652
 2182SOL     OW 7444   0.800   4.862   3.472
 2182SOL    HW1 7445   0.879   4.802   3.486
 2182SOL    HW2 7446   0.831   4.950   3.436
 2183SOL     OW 7447   3.765   3.466   0.018
 2183SOL    HW1 7448   3.675   3.485   0.056
 2183SOL    HW2 7449   3.812   3.553   7.019
 2184SOL     OW 7450   6.355   0.638   0.277
 2184SOL    HW1 7451   6.322   0.570   0.211
 2184SOL    HW2 7452   6.277   0.691   0.311
 2185SOL     OW 7453   0.894   1.514   6.763
 2185SOL    HW1 7454   0.879   1.417   6.781
 2185SOL    HW2 7455   0.806   1.561   6.753
 2186SOL     OW 7456   6.414   4.940   5.085
 2186SOL    HW1 7457   6.508   4.913   5.063
 2186SOL    HW2 7458   6.375   4.992   5.010
 2187SOL     OW 7459   0.389   5.495   2.912
 2187SOL    HW1 7460   0.440   5.477   2.828
 2187SOL    HW2 7461   0.313   5.431   2.919
 2188SOL     OW 7462   1.777   6.404   0.160
 2188SOL    HW1 7463   1.803   6.444   0.072
 2188SOL    HW2 7464   1.690   6.357   0.151
 2189SOL     OW 7465   1.987   1.333   2.005
 2189SOL    HW1 7466   2.046   1.380   2.071
 2189SOL    HW2 7467   1.921   1.398   1.968
 2190SOL     OW 7468   6.638   4.017   2.493
 2190SOL    HW1 7469   6.692   4.101   2.489
 2190SOL    HW2 7470   6.541   4.039   2.503
 2191SOL     OW 7471   1.947   1.121   5.413
 2191SOL    HW1 7472   1.990   1.189   5.354
 2191SOL    HW2 7473   1.869   1.080   5.366
 2192SOL     OW 7474   5.084   0.638   1.941
 2192SOL    HW1 7475   5.023   0.703   1.896
 2192SOL    HW2 7476   5.078   0.650   2.040
 2193SOL     OW 7477   6.294   6.914   6.350
 2193SOL    HW1 7478   6.259   7.003   6.377
 2193SOL    HW2 7479   6.274   6.898   6.253
 2194SOL     OW 7480   0.665   4.346   5.127
 2194SOL    HW1 7481   0.697   4.344   5.221
 2194SOL    HW2 7482   0.637   4.254   5.098
 2195SOL     OW 7483   0.480   5.396   6.404
 2195SOL    HW1 7484   0.442   5.307   6.429
 2195SOL    HW2 7485   0.508   5.395   6.308
 2196SOL     OW 7486   2.662   6.534   5.608
 2196SOL    HW1 7487   2.722   6.472   5.559
 2196SOL    HW2 7488   2.570   6.530   5.568
 2197SOL     OW 7489   2.942   2.988   5.975
 2197SOL    HW1 7490   2.859   3.039   5.998
 2197SOL    HW2 7491   3.021   3.032   6.018
 2198SOL     OW 7492   0.294   6.947   6.652
 2198SOL    HW1 7493   0.388   6.913   6.646
 2198SOL    HW2 7494   0.251   6.940   6.562
 2199SOL     OW 7495   4.885   6.577   4.372
 2199SOL    HW1 7496   4.933   6.631   4.302
 2199SOL    HW2 7497   4.789   6.567   4.346
 2200SOL     OW 7498   3.523   0.986   3.848
 2200SOL    HW1 7499   3.513   0.955   3.942
 2200SOL    HW2 7500   3.484   0.918   3.785
 2201SOL     OW 7501   6.574   2.686   3.323
 2201SOL    HW1 7502   6.502   2.626   3.290
 2201SOL    HW2 7503   6.555   2.713   3.418
 2202SOL     OW 7504   3.376   5.443   2.917
 2202SOL    HW1 7505   3.308   5.490   2.862
 2202SOL    HW2 7506   3.337   5.360   2.957
 2203SOL     OW 7507   2.395   3.921   0.936
 2203SOL    HW1 7508   2.457   3.876   0.871
 2203SOL    HW2 7509   2.449   3.974   1.002
 2204SOL     OW 7510   4.126   3.042   1.201
 2204SOL    HW1 7511   4.103   2.945   1.206
 2204SOL    HW2 7512   4.072   3.086   1.129
 2205SOL     OW 7513   1.386   6.663   0.835
 2205SOL    HW1 7514   1.317   6.591   0.837
 2205SOL    HW2 7515   1.435   6.661   0.748
 2206SOL     OW 7516   2.740   3.669   6.408
 2206SOL    HW1 7517   2.695   3.752   6.439
 2206SOL    HW2 7518   2.835   3.668   6.438
 2207SOL     OW 7519   4.031   5.591   0.609
 2207SOL    HW1 7520   4.097   5.661   0.582
 2207SOL    HW2 7521   4.028   5.586   0.709
 2208SOL     OW 7522   1.043   5.897   3.375
 2208SOL    HW1 7523   0.955   5.855   3.353
 2208SOL    HW2 7524   1.110   5.826   3.395
 2209SOL     OW 7525   2.861   5.452   4.821
 2209SOL    HW1 7526   2.788   5.501   4.868
 2209SOL    HW2 7527   2.938   5.439   4.884
 2210SOL     OW 7528   6.161   6.145   1.761
 2210SOL    HW1 7529   6.242   6.106   1.804
 2210SOL    HW2 7530   6.091   6.074   1.751
 2211SOL     OW 7531   6.309   0.437   0.635
 2211SOL    HW1 7532   6.356   0.489   0.707
 2211SOL    HW2 7533   6.369   0.430   0.555
 2212SOL     OW 7534   1.879   6.134   6.752
 2212SOL    HW1 7535   1.952   6.151   6.817
 2212SOL    HW2 7536   1.803   6.087   6.797
 2213SOL     OW 7537   4.469   2.502   4.397
 2213SOL    HW1 7538   4.534   2.577   4.411
 2213SOL    HW2 7539   4.480   2.434   4.470
 2214SOL     OW 7540   4.120   2.932   5.740
 2214SOL    HW1 7541   4.181   2.853   5.731
 2214SOL    HW2 7542   4.067   2.944   5.656
 2215SOL     OW 7543   5.321   1.649   6.363
 2215SOL    HW1 7544   5.343   1.682   6.455
 2215SOL    HW2 7545   5.402   1.605   6.323
 2216SOL     OW 7546   0.356   5.938   5.838
 2216SOL    HW1 7547   0.290   5.987   5.780
 2216SOL    HW2 7548   0.348   5.839   5.820
 2217SOL     OW 7549   4.699   0.482   3.643
 2217SOL    HW1 7550   4.726   0.495   3.548
 2217SOL    HW2 7551   4.773   0.435   3.692
 2218SOL     OW 7552   0.497   5.521   6.961
 2218SOL    HW1 7553   0.580   5.545   6.912
 2218SOL    HW2 7554   0.496   5.423   6.979
 2219SOL     OW 7555   5.709   1.555   0.871
 2219SOL    HW1 7556   5.692   1.461   0.840
 2219SOL    HW2 7557   5.804   1.580   0.852
 2220SOL     OW 7558   1.908   6.382   5.567
 2220SOL    HW1 7559   1.878   6.289   5.548
 2220SOL    HW2 7560   1.928   6.429   5.481
 2221SOL     OW 7561   6.566   1.568   4.678
 2221SOL    HW1 7562   6.621   1.642   4.716
 2221SOL    HW2 7563   6.507   1.530   4.750
 2222SOL     OW 7564   6.415   7.004   0.992
 2222SOL    HW1 7565   6.401   0.037   0.909
 2222SOL    HW2 7566   6.512   6.978   0.999
 2223SOL     OW 7567   6.710   0.656   5.719
 2223SOL    HW1 7568   6.663   0.709   5.789
 2223SOL    HW2 7569   6.645   0.595   5.674
 2224SOL     OW 7570   5.851   3.638   1.933
 2224SOL    HW1 7571   5.913   3.669   1.861
 2224SOL    HW2 7572   5.868   3.689   2.017
 2225SOL     OW 7573   6.980   6.541   3.676
 2225SOL    HW1 7574   6.947   6.558   3.583
 2225SOL    HW2 7575   6.962   6.622   3.733
 2226SOL     OW 7576   3.460   5.286   0.620
 2226SOL    HW1 7577   3.434   5.199   0.578
 2226SOL    HW2 7578   3.472   5.355   0.548
 2227SOL     OW 7579   4.424   2.664   1.297
 2227SOL    HW1 7580   4.354   2.597   1.320
 2227SOL    HW2 7581   4.446   2.719   1.377
 2228SOL     OW 7582   4.489   5.361   0.178
 2228SOL    HW1 7583   4.548   5.340   0.256
 2228SOL    HW2 7584   4.394   5.344   0.203
 2229SOL     OW 7585   3.390   3.465   4.784
 2229SOL    HW1 7586   3.445   3.536   4.828
 2229SOL    HW2 7587   3.322   3.507   4.725
 2230SOL     OW 7588   5.241   6.342   1.163
 2230SOL    HW1 7589   5.279   6.249   1.165
 2230SOL    HW2 7590   5.223   6.372   1.257
 2231SOL     OW 7591   0.751   1.527   6.395
 2231SOL    HW1 7592   0.751   1.428   6.381
 2231SOL    HW2 7593   0.660   1.563   6.375
 2232SOL     OW 7594   0.730   0.648   4.810
 2232SOL    HW1 7595   0.778   0.630   4.896
 2232SOL    HW2 7596   0.797   0.667   4.738
 2233SOL     OW 7597   3.213   3.347   0.568
 2233SOL    HW1 7598   3.212   3.413   0.644
 2233SOL    HW2 7599   3.295   3.290   0.576
 2234SOL     OW 7600   3.573   1.416   0.710
 2234SOL    HW1 7601   3.598   1.321   0.693
 2234SOL    HW2 7602   3.494   1.440   0.653
 2235SOL     OW 7603   2.751   0.486   2.184
 2235SOL    HW1 7604   2.665   0.481   2.235
 2235SOL    HW2 7605   2.759   0.576   2.141
 2236SOL     OW 7606   2.194   3.998   5.927
 2236SOL    HW1 7607   2.285   3.993   5.884
 2236SOL    HW2 7608   2.125   4.011   5.856
 2237SOL     OW 7609   6.119   5.334   4.595
 2237SOL    HW1 7610   6.072   5.250   4.622
 2237SOL    HW2 7611   6.131   5.335   4.496
 2238SOL     OW 7612   4.944   5.027   2.647
 2238SOL    HW1 7613   4.848   5.008   2.667
 2238SOL    HW2 7614   4.953   5.122   2.615
 2239SOL     OW 7615   4.041   5.433   4.091
 2239SOL    HW1 7616   4.025   5.405   4.186
 2239SOL    HW2 7617   4.129   5.396   4.060
 2240SOL     OW 7618   3.616   5.654   2.630
 2240SOL    HW1 7619   3.644   5.571   2.679
 2240SOL    HW2 7620   3.692   5.719   2.628
 2241SOL     OW 7621   6.708   6.917   1.873
 2241SOL    HW1 7622   6.784   6.933   1.936
 2241SOL    HW2 7623   6.743   6.893   1.783
 2242SOL     OW 7624   5.365   3.008   2.593
 2242SOL    HW1 7625   5.456   2.985   2.558
 2242SOL    HW2 7626   5.301   3.016   2.517
 2243SOL     OW 7627   2.473   6.304   6.934
 2243SOL    HW1 7628   2.510   6.396   6.920
 2243SOL    HW2 7629   2.523   6.259   7.008
 2244SOL     OW 7630   2.861   0.015   1.428
 2244SOL    HW1 7631   2.773   0.059   1.441
 2244SOL    HW2 7632   2.849   6.948   1.381
 2245SOL     OW 7633   0.231   1.264   0.915
 2245SOL    HW1 7634   0.302   1.302   0.974
 2245SOL    HW2 7635   0.163   1.216   0.972
 2246SOL     OW 7636   1.849   0.347   3.924
 2246SOL    HW1 7637   1.928   0.375   3.979
 2246SOL    HW2 7638   1.790   0.426   3.908
 2247SOL     OW 7639   3.109   3.649   2.543
 2247SOL    HW1 7640   3.114   3.576   2.475
 2247SOL    HW2 7641   3.181   3.636   2.611
 2248SOL     OW 7642   6.628   4.183   4.003
 2248SOL    HW1 7643   6.534   4.197   4.036
 2248SOL    HW2 7644   6.672   4.111   4.055
 2249SOL     OW 7645   3.477   6.621   3.836
 2249SOL    HW1 7646   3.517   6.609   3.746
 2249SOL    HW2 7647   3.408   6.694   3.833
 2250SOL     OW 7648   3.278   3.789   5.429
 2250SOL    HW1 7649   3.337   3.756   5.502
 2250SOL    HW2 7650   3.335   3.821   5.353
 2251SOL     OW 7651   5.165   7.011   6.006
 2251SOL    HW1 7652   5.090   6.964   6.054
 2251SOL    HW2 7653   5.181   0.079   6.049
 2252SOL     OW 7654   5.240   1.562   3.107
 2252SOL    HW1 7655   5.159   1.503   3.102
 2252SOL    HW2 7656   5.302   1.540   3.033
 2253SOL     OW 7657   0.630   3.264   0.309
 2253SOL    HW1 7658   0.707   3.246   0.248
 2253SOL    HW2 7659   0.663   3.300   0.396
 2254SOL     OW 7660   3.695   3.677   3.189
 2254SOL    HW1 7661   3.632   3.649   3.117
 2254SOL    HW2 7662   3.789   3.677   3.154
 2255SOL     OW 7663   2.749   3.669   5.913
 2255SOL    HW1 7664   2.831   3.659   5.857
 2255SOL    HW2 7665   2.775   3.682   6.008
 2256SOL     OW 7666   4.418   6.431   2.087
 2256SOL    HW1 7667   4.325   6.430   2.051
 2256SOL    HW2 7668   4.483   6.424   2.012
 2257SOL     OW 7669   0.443   1.584   4.325
 2257SOL    HW1 7670   0.439   1.684   4.324
 2257SOL    HW2 7671   0.357   1.547   4.289
 2258SOL     OW 7672   2.177   6.364   3.934
 2258SOL    HW1 7673   2.145   6.288   3.991
 2258SOL    HW2 7674   2.259   6.404   3.974
 2259SOL     OW 7675   5.486   2.564   4.863
 2259SOL    HW1 7676   5.513   2.592   4.771
 2259SOL    HW2 7677   5.540   2.615   4.931
 2260SOL     OW 7678   1.243   3.362   1.074
 2260SOL    HW1 7679   1.316   3.314   1.026
 2260SOL    HW2 7680   1.241   3.333   1.169
 2261SOL     OW 7681   6.310   3.967   0.685
 2261SOL    HW1 7682   6.260   3.883   0.663
 2261SOL    HW2 7683   6.252   4.046   0.664
 2262SOL     OW 7684   6.294   0.825   3.205
 2262SOL    HW1 7685   6.197   0.846   3.190
 2262SOL    HW2 7686   6.323   0.864   3.293
 2263SOL     OW 7687   1.953   5.846   0.870
 2263SOL    HW1 7688   1.924   5.935   0.906
 2263SOL    HW2 7689   2.042   5.855   0.825
 2264SOL     OW 7690   2.507   6.599   6.778
 2264SOL    HW1 7691   2.604   6.588   6.757
 2264SOL    HW2 7692   2.458   6.622   6.694
 2265SOL     OW 7693   1.647   0.558   4.290
 2265SOL    HW1 7694   1.674   0.611   4.370
 2265SOL    HW2 7695   1.690   0.468   4.294
 2266SOL     OW 7696   4.760   1.449   6.103
 2266SOL    HW1 7697   4.795   1.542   6.119
 2266SOL    HW2 7698   4.721   1.443   6.011
 2267SOL     OW 7699   4.797   2.821   4.752
 2267SOL    HW1 7700   4.760   2.803   4.661
 2267SOL    HW2 7701   4.847   2.908   4.750
 2268SOL     OW 7702   6.022   3.648   6.398
 2268SOL    HW1 7703   5.963   3.727   6.414
 2268SOL    HW2 7704   6.053   3.612   6.486
 2269SOL     OW 7705   0.570   3.445   5.002
 2269SOL    HW1 7706   0.521   3.404   5.079
 2269SOL    HW2 7707   0.636   3.512   5.035
 2270SOL     OW 7708   4.296   3.568   6.141
 2270SOL    HW1 7709   4.208   3.521   6.133
 2270SOL    HW2 7710   4.282   3.660   6.178
 2271SOL     OW 7711   5.697   4.591   6.907
 2271SOL    HW1 7712   5.686   4.563   6.811
 2271SOL    HW2 7713   5.793   4.582   6.933
 2272SOL     OW 7714   6.796   1.782   6.611
 2272SOL    HW1 7715   6.734   1.808   6.685
 2272SOL    HW2 7716   6.748   1.788   6.524
 2273SOL     OW 7717   1.902   2.316   2.324
 2273SOL    HW1 7718   1.952   2.267   2.395
 2273SOL    HW2 7719   1.957   2.392   2.290
 2274SOL     OW 7720   0.707   1.803   6.824
 2274SOL    HW1 7721   0.780   1.813   6.757
 2274SOL    HW2 7722   0.630   1.861   6.799
 2275SOL     OW 7723   6.015   5.657   2.532
 2275SOL    HW1 7724   5.985   5.740   2.580
 2275SOL    HW2 7725   6.098   5.677   2.480
 2276SOL     OW 7726   1.322   6.168   1.376
 2276SOL    HW1 7727   1.255   6.186   1.448
 2276SOL    HW2 7728   1.319   6.241   1.308
 2277SOL     OW 7729   3.402   3.724   4.616
 2277SOL    HW1 7730   3.454   3.732   4.701
 2277SOL    HW2 7731   3.448   3.660   4.555
 2278SOL     OW 7732   6.549   2.871   3.929
 2278SOL    HW1 7733   6.634   2.923   3.924
 2278SOL    HW2 7734   6.471   2.934   3.924
 2279SOL     OW 7735   6.723   6.348   6.001
 2279SOL    HW1 7736   6.677   6.269   5.960
 2279SOL    HW2 7737   6.795   6.381   5.939
 2280SOL     OW 7738   6.568   0.641   4.998
 2280SOL    HW1 7739   6.608   0.670   4.911
 2280SOL    HW2 7740   6.637   0.591   5.051
 2281SOL     OW 7741   4.165   0.701   2.127
 2281SOL    HW1 7742   4.072   0.737   2.117
 2281SOL    HW2 7743   4.173   0.653   2.214
 2282SOL     OW 7744   5.098   6.410   5.593
 2282SOL    HW1 7745   5.054   6.350   5.527
 2282SOL    HW2 7746   5.110   6.501   5.553
 2283SOL     OW 7747   1.771   0.462   1.886
 2283SOL    HW1 7748   1.849   0.401   1.895
 2283SOL    HW2 7749   1.742   0.493   1.976
 2284SOL     OW 7750   0.812   3.632   5.677
 2284SOL    HW1 7751   0.872   3.680   5.614
 2284SOL    HW2 7752   0.850   3.542   5.699
 2285SOL     OW 7753   1.218   3.402   0.268
 2285SOL    HW1 7754   1.268   3.486   0.291
 2285SOL    HW2 7755   1.215   3.391   0.169
 2286SOL     OW 7756   5.403   6.951   3.518
 2286SOL    HW1 7757   5.321   6.973   3.465
 2286SOL    HW2 7758   5.377   6.924   3.610
 2287SOL     OW 7759   2.823   0.900   3.507
 2287SOL    HW1 7760   2.886   0.973   3.481
 2287SOL    HW2 7761   2.753   0.935   3.569
 2288SOL     OW 7762   0.449   5.619   3.943
 2288SOL    HW1 7763   0.425   5.522   3.945
 2288SOL    HW2 7764   0.503   5.642   4.024
 2289SOL     OW 7765   6.598   4.844   0.999
 2289SOL    HW1 7766   6.583   4.928   0.948
 2289SOL    HW2 7767   6.659   4.861   1.076
 2290SOL     OW 7768   1.031   4.337   1.111
 2290SOL    HW1 7769   1.003   4.259   1.166
 2290SOL    HW2 7770   1.126   4.327   1.083
 2291SOL     OW 7771   2.983   2.100   5.803
 2291SOL    HW1 7772   3.037   2.152   5.868
 2291SOL    HW2 7773   2.892   2.141   5.796
 2292SOL     OW 7774   1.551   1.292   4.799
 2292SOL    HW1 7775   1.534   1.363   4.730
 2292SOL    HW2 7776   1.624   1.322   4.860
 2293SOL     OW 7777   5.746   5.613   2.060
 2293SOL    HW1 7778   5.648   5.634   2.057
 2293SOL    HW2 7779   5.793   5.679   2.118
 2294SOL     OW 7780   3.464   6.642   0.561
 2294SOL    HW1 7781   3.395   6.585   0.606
 2294SOL    HW2 7782   3.552   6.628   0.606
 2295SOL     OW 7783   0.392   2.100   2.534
 2295SOL    HW1 7784   0.459   2.122   2.605
 2295SOL    HW2 7785   0.371   2.002   2.538
 2296SOL     OW 7786   3.152   6.784   0.762
 2296SOL    HW1 7787   3.061   6.814   0.791
 2296SOL    HW2 7788   3.219   6.807   0.833
 2297SOL     OW 7789   3.811   4.188   5.526
 2297SOL    HW1 7790   3.881   4.122   5.498
 2297SOL    HW2 7791   3.778   4.238   5.446
 2298SOL     OW 7792   3.344   2.480   1.198
 2298SOL    HW1 7793   3.325   2.419   1.275
 2298SOL    HW2 7794   3.408   2.551   1.227
 2299SOL     OW 7795   5.370   0.032   6.842
 2299SOL    HW1 7796   5.440   0.002   6.906
 2299SOL    HW2 7797   5.313   6.975   6.816
 2300SOL     OW 7798   1.639   5.199   1.637
 2300SOL    HW1 7799   1.592   5.284   1.659
 2300SOL    HW2 7800   1.737   5.217   1.624
 2301SOL     OW 7801   2.929   3.834   3.034
 2301SOL    HW1 7802   2.918   3.747   2.986
 2301SOL    HW2 7803   2.983   3.897   2.978
 2302SOL     OW 7804   3.849   6.686   2.544
 2302SOL    HW1 7805   3.884   6.630   2.470
 2302SOL    HW2 7806   3.921   6.702   2.612
 2303SOL     OW 7807   1.488   3.689   5.392
 2303SOL    HW1 7808   1.460   3.673   5.297
 2303SOL    HW2 7809   1.494   3.602   5.441
 2304SOL     OW 7810   2.721   0.335   3.668
 2304SOL    HW1 7811   2.671   0.400   3.612
 2304SOL    HW2 7812   2.791   0.383   3.721
 2305SOL     OW 7813   3.978   5.925   3.193
 2305SOL    HW1 7814   3.958   5.832   3.224
 2305SOL    HW2 7815   4.021   5.976   3.267
 2306SOL     OW 7816   2.238   5.476   1.720
 2306SOL    HW1 7817   2.296   5.449   1.644
 2306SOL    HW2 7818   2.261   5.570   1.747
 2307SOL     OW 7819   1.945   4.195   2.808
 2307SOL    HW1 7820   1.979   4.237   2.892
 2307SOL    HW2 7821   2.020   4.188   2.742
 2308SOL     OW 7822   1.075   0.303   6.459
 2308SOL    HW1 7823   1.168   0.291   6.426
 2308SOL    HW2 7824   1.076   0.320   6.558
 2309SOL     OW 7825   2.795   6.350   7.014
 2309SOL    HW1 7826   2.880   6.330   0.043
 2309SOL    HW2 7827   2.741   6.415   0.047
 2310SOL     OW 7828   6.281   6.769   1.037
 2310SOL    HW1 7829   6.331   6.731   0.959
 2310SOL    HW2 7830   6.280   6.868   1.030
 2311SOL     OW 7831   2.410   6.928   2.399
 2311SOL    HW1 7832   2.496   6.898   2.442
 2311SOL    HW2 7833   2.363   6.992   2.459
 2312SOL     OW 7834   3.012   6.708   3.248
 2312SOL    HW1 7835   3.025   6.681   3.344
 2312SOL    HW2 7836   2.994   6.626   3.193
 2313SOL     OW 7837   4.449   5.023   1.918
 2313SOL    HW1 7838   4.433   4.969   2.000
 2313SOL    HW2 7839   4.548   5.034   1.904
 2314SOL     OW 7840   5.586   0.835   3.235
 2314SOL    HW1 7841   5.519   0.888   3.287
 2314SOL    HW2 7842   5.657   0.896   3.200
 2315SOL     OW 7843   5.065   3.309   5.421
 2315SOL    HW1 7844   5.057   3.248   5.499
 2315SOL    HW2 7845   5.089   3.401   5.453
 2316SOL     OW 7846   2.599   1.504   5.233
 2316SOL    HW1 7847   2.586   1.413   5.194
 2316SOL    HW2 7848   2.576   1.502   5.331
 2317SOL     OW 7849   6.312   6.373   4.004
 2317SOL    HW1 7850   6.392   6.419   4.042
 2317SOL    HW2 7851   6.230   6.426   4.025
 2318SOL     OW 7852   2.073   3.501   4.265
 2318SOL    HW1 7853   2.093   3.428   4.200
 2318SOL    HW2 7854   2.097   3.472   4.358
 2319SOL     OW 7855   3.474   5.254   4.938
 2319SOL    HW1 7856   3.376   5.243   4.927
 2319SOL    HW2 7857   3.521   5.169   4.913
 2320SOL     OW 7858   1.014   2.320   5.404
 2320SOL    HW1 7859   0.997   2.277   5.493
 2320SOL    HW2 7860   0.932   2.370   5.375
 2321SOL     OW 7861   2.365   5.904   6.402
 2321SOL    HW1 7862   2.331   5.896   6.309
 2321SOL    HW2 7863   2.437   5.837   6.418
 2322SOL     OW 7864   1.893   4.428   2.126
 2322SOL    HW1 7865   1.872   4.495   2.196
 2322SOL    HW2 7866   1.824   4.431   2.054
 2323SOL     OW 7867   3.326   4.745   1.732
 2323SOL    HW1 7868   3.409   4.702   1.767
 2323SOL    HW2 7869   3.262   4.675   1.702
 2324SOL     OW 7870   6.684   5.721   0.983
 2324SOL    HW1 7871   6.733   5.695   0.900
 2324SOL    HW2 7872   6.714   5.812   1.012
 2325SOL     OW 7873   0.154   4.773   1.243
 2325SOL    HW1 7874   0.096   4.845   1.206
 2325SOL    HW2 7875   0.105   4.686   1.243
 2326SOL     OW 7876   1.358   6.199   6.210
 2326SOL    HW1 7877   1.351   6.299   6.217
 2326SOL    HW2 7878   1.346   6.159   6.301
 2327SOL     OW 7879   0.347   1.277   3.541
 2327SOL    HW1 7880   0.257   1.245   3.570
 2327SOL    HW2 7881   0.381   1.220   3.466
 2328SOL     OW 7882   1.662   2.062   3.038
 2328SOL    HW1 7883   1.751   2.072   3.082
 2328SOL    HW2 7884   1.613   1.985   3.079
 2329SOL     OW 7885   0.739   4.687   4.735
 2329SOL    HW1 7886   0.754   4.661   4.830
 2329SOL    HW2 7887   0.789   4.625   4.675
 2330SOL     OW 7888   0.478   2.917   0.510
 2330SOL    HW1 7889   0.425   2.905   0.594
 2330SOL    HW2 7890   0.425   2.970   0.443
 2331SOL     OW 7891   3.295   5.361   0.170
 2331SOL    HW1 7892   3.218   5.373   0.232
 2331SOL    HW2 7893   3.292   5.269   0.131
 2332SOL     OW 7894   0.214   0.289   5.704
 2332SOL    HW1 7895   0.126   0.268   5.661
 2332SOL    HW2 7896   0.234   0.221   5.774
 2333SOL     OW 7897   0.124   4.962   2.776
 2333SOL    HW1 7898   0.059   4.922   2.841
 2333SOL    HW2 7899   0.201   5.001   2.826
 2334SOL     OW 7900   1.534   1.128   6.901
 2334SOL    HW1 7901   1.548   1.157   6.807
 2334SOL    HW2 7902   1.593   1.183   6.962
 2335SOL     OW 7903   5.662   0.292   3.756
 2335SOL    HW1 7904   5.688   0.335   3.842
 2335SOL    HW2 7905   5.594   0.349   3.710
 2336SOL     OW 7906   3.125   1.118   4.249
 2336SOL    HW1 7907   3.097   1.048   4.183
 2336SOL    HW2 7908   3.094   1.091   4.340
 2337SOL     OW 7909   3.977   0.563   1.780
 2337SOL    HW1 7910   3.921   0.641   1.808
 2337SOL    HW2 7911   3.979   0.495   1.854
 2338SOL     OW 7912   0.755   3.385   4.276
 2338SOL    HW1 7913   0.734   3.460   4.338
 2338SOL    HW2 7914   0.851   3.390   4.248
 2339SOL     OW 7915   3.260   4.112   3.392
 2339SOL    HW1 7916   3.328   4.176   3.427
 2339SOL    HW2 7917   3.243   4.130   3.295
 2340SOL     OW 7918   0.675   4.486   6.896
 2340SOL    HW1 7919   0.639   4.413   6.838
 2340SOL    HW2 7920   0.774   4.474   6.907
 2341SOL     OW 7921   2.918   4.839   2.018
 2341SOL    HW1 7922   2.875   4.749   2.022
 2341SOL    HW2 7923   3.002   4.839   2.071
 2342SOL     OW 7924   1.895   0.067   4.666
 2342SOL    HW1 7925   1.806   0.038   4.630
 2342SOL    HW2 7926   1.967   0.009   4.628
 2343SOL     OW 7927   1.729   5.283   2.566
 2343SOL    HW1 7928   1.780   5.299   2.651
 2343SOL    HW2 7929   1.656   5.350   2.557
 2344SOL     OW 7930   0.153   5.741   6.829
 2344SOL    HW1 7931   0.141   5.657   6.777
 2344SOL    HW2 7932   0.242   5.739   6.875
 2345SOL     OW 7933   2.523   5.673   4.785
 2345SOL    HW1 7934   2.570   5.670   4.696
 2345SOL    HW2 7935   2.482   5.763   4.799
 2346SOL     OW 7936   3.823   3.417   5.705
 2346SOL    HW1 7937   3.859   3.410   5.612
 2346SOL    HW2 7938   3.833   3.330   5.752
 2347SOL     OW 7939   2.452   2.267   1.360
 2347SOL    HW1 7940   2.441   2.183   1.412
 2347SOL    HW2 7941   2.547   2.298   1.365
 2348SOL     OW 7942   1.561   6.386   3.593
 2348SOL    HW1 7943   1.631   6.341   3.538
 2348SOL    HW2 7944   1.577   6.484   3.595
 2349SOL     OW 7945   0.951   4.811   6.067
 2349SOL    HW1 7946   0.878   4.860   6.019
 2349SOL    HW2 7947   1.014   4.771   6.001
 2350SOL     OW 7948   6.116   5.261   5.993
 2350SOL    HW1 7949   6.055   5.252   5.914
 2350SOL    HW2 7950   6.096   5.346   6.040
 2351SOL     OW 7951   3.373   4.972   4.285
 2351SOL    HW1 7952   3.383   5.060   4.332
 2351SOL    HW2 7953   3.298   4.921   4.326
 2352SOL     OW 7954   0.187   3.397   2.631
 2352SOL    HW1 7955   0.168   3.323   2.567
 2352SOL    HW2 7956   0.274   3.439   2.608
 2353SOL     OW 7957   3.679   4.957   4.376
 2353SOL    HW1 7958   3.676   4.912   4.465
 2353SOL    HW2 7959   3.587   4.961   4.338
 2354SOL     OW 7960   2.322   2.007   4.611
 2354SOL    HW1 7961   2.419   2.004   4.634
 2354SOL    HW2 7962   2.281   1.918   4.630
 2355SOL     OW 7963   1.927   6.902   5.745
 2355SOL    HW1 7964   1.991   6.854   5.805
 2355SOL    HW2 7965   1.905   6.842   5.667
 2356SOL     OW 7966   1.117   3.177   6.059
 2356SOL    HW1 7967   1.149   3.270   6.076
 2356SOL    HW2 7968   1.191   3.122   6.019
 2357SOL     OW 7969   4.425   0.629   2.499
 2357SOL    HW1 7970   4.472   0.547   2.532
 2357SOL    HW2 7971   4.475   0.668   2.422
 2358SOL     OW 7972   3.220   5.290   5.415
 2358SOL    HW1 7973   3.298   5.328   5.365
 2358SOL    HW2 7974   3.140   5.349   5.403
 2359SOL     OW 7975   6.784   0.839   5.485
 2359SOL    HW1 7976   6.706   0.826   5.423
 2359SOL    HW2 7977   6.771   0.781   5.566
 2360SOL     OW 7978   5.392   3.436   6.906
 2360SOL    HW1 7979   5.397   3.523   6.856
 2360SOL    HW2 7980   5.482   3.411   6.939
 2361SOL     OW 7981   2.223   0.453   6.657
 2361SOL    HW1 7982   2.304   0.476   6.604
 2361SOL    HW2 7983   2.155   0.526   6.649
 2362SOL     OW 7984   2.512   5.698   4.191
 2362SOL    HW1 7985   2.477   5.722   4.281
 2362SOL    HW2 7986   2.592   5.639   4.201
 2363SOL     OW 7987   4.315   2.159   4.650
 2363SOL    HW1 7988   4.383   2.228   4.627
 2363SOL    HW2 7989   4.262   2.189   4.730
 2364SOL     OW 7990   1.007   2.554   2.273
 2364SOL    HW1 7991   1.036   2.648   2.288
 2364SOL    HW2 7992   0.944   2.526   2.346
 2365SOL     OW 7993   6.608   2.459   6.841
 2365SOL    HW1 7994   6.674   2.430   6.910
 2365SOL    HW2 7995   6.536   2.513   6.885
 2366SOL     OW 7996   2.232   5.793   6.658
 2366SOL    HW1 7997   2.159   5.814   6.722
 2366SOL    HW2 7998   2.202   5.812   6.565
 2367SOL     OW 7999   2.674   3.708   1.093
 2367SOL    HW1 8000   2.756   3.677   1.143
 2367SOL    HW2 8001   2.592   3.685   1.146
 2368SOL     OW 8002   5.265   6.450   4.573
 2368SOL    HW1 8003   5.191   6.383   4.573
 2368SOL    HW2 8004   5.347   6.408   4.611
 2369SOL     OW 8005   2.030   0.946   4.556
 2369SOL    HW1 8006   2.005   0.851   4.532
 2369SOL    HW2 8007   2.124   0.949   4.587
 2370SOL     OW 8008   5.362   3.106   0.224
 2370SOL    HW1 8009   5.313   3.155   0.297
 2370SOL    HW2 8010   5.386   3.014   0.255
 2371SOL     OW 8011   1.381   6.857   1.523
 2371SOL    HW1 8012   1.472   6.883   1.490
 2371SOL    HW2 8013   1.360   6.908   1.606
 2372SOL     OW 8014   0.065   2.607   2.109
 2372SOL    HW1 8015   6.995   2.631   2.142
 2372SOL    HW2 8016   0.123   2.689   2.108
 2373SOL     OW 8017   0.660   2.914   5.907
 2373SOL    HW1 8018   0.749   2.877   5.881
 2373SOL    HW2 8019   0.601   2.840   5.941
 2374SOL     OW 8020   6.074   1.652   4.098
 2374SOL    HW1 8021   5.999   1.686   4.154
 2374SOL    HW2 8022   6.162   1.677   4.140
 2375SOL     OW 8023   3.338   6.191   4.769
 2375SOL    HW1 8024   3.291   6.134   4.702
 2375SOL    HW2 8025   3.435   6.195   4.746
 2376SOL     OW 8026   6.327   3.088   4.285
 2376SOL    HW1 8027   6.319   3.101   4.384
 2376SOL    HW2 8028   6.238   3.102   4.242
 2377SOL     OW 8029   3.759   4.050   4.059
 2377SOL    HW1 8030   3.674   4.019   4.015
 2377SOL    HW2 8031   3.736   4.105   4.140
 2378SOL     OW 8032   4.784   1.755   0.490
 2378SOL    HW1 8033   4.790   1.831   0.554
 2378SOL    HW2 8034   4.875   1.719   0.472
 2379SOL     OW 8035   0.024   1.197   0.757
 2379SOL    HW1 8036   0.109   1.227   0.802
 2379SOL    HW2 8037   0.039   1.106   0.718
 2380SOL     OW 8038   0.337   2.327   6.657
 2380SOL    HW1 8039   0.391   2.401   6.698
 2380SOL    HW2 8040   0.248   2.321   6.702
 2381SOL     OW 8041   1.835   5.045   4.351
 2381SOL    HW1 8042   1.911   4.980   4.349
 2381SOL    HW2 8043   1.834   5.091   4.440
 2382SOL     OW 8044   2.180   3.837   4.504
 2382SOL    HW1 8045   2.181   3.908   4.575
 2382SOL    HW2 8046   2.122   3.761   4.533
 2383SOL     OW 8047   5.310   6.672   0.363
 2383SOL    HW1 8048   5.367   6.594   0.389
 2383SOL    HW2 8049   5.366   6.741   0.319
 2384SOL     OW 8050   5.947   1.197   2.782
 2384SOL    HW1 8051   5.935   1.258   2.861
 2384SOL    HW2 8052   5.879   1.218   2.713
 2385SOL     OW 8053   1.182   0.300   0.462
 2385SOL    HW1 8054   1.189   0.391   0.422
 2385SOL    HW2 8055   1.187   0.307   0.562
 2386SOL     OW 8056   5.760   6.117   4.545
 2386SOL    HW1 8057   5.709   6.117   4.631
 2386SOL    HW2 8058   5.734   6.036   4.492
 2387SOL     OW 8059   0.983   2.125   4.342
 2387SOL    HW1 8060   0.969   2.203   4.281
 2387SOL    HW2 8061   0.916   2.054   4.320
 2388SOL     OW 8062   0.473   1.981   4.108
 2388SOL    HW1 8063   0.381   2.018   4.098
 2388SOL    HW2 8064   0.540   2.054   4.098
 2389SOL     OW 8065   4.485   4.468   2.920
 2389SOL    HW1 8066   4.433   4.506   2.844
 2389SOL    HW2 8067   4.430   4.472   3.003
 2390SOL     OW 8068   3.608   2.992   3.440
 2390SOL    HW1 8069   3.623   2.960   3.346
 2390SOL    HW2 8070   3.526   3.049   3.443
 2391SOL     OW 8071   5.418   3.988   5.870
 2391SOL    HW1 8072   5.440   4.083   5.892
 2391SOL    HW2 8073   5.342   3.986   5.804
 2392SOL     OW 8074   3.415   6.342   5.329
 2392SOL    HW1 8075   3.416   6.408   5.404
 2392SOL    HW2 8076   3.461   6.258   5.359
 2393SOL     OW 8077   5.535   3.834   6.098
 2393SOL    HW1 8078   5.469   3.887   6.046
 2393SOL    HW2 8079   5.582   3.893   6.164
 2394SOL     OW 8080   1.063   4.313   4.819
 2394SOL    HW1 8081   1.081   4.283   4.725
 2394SOL    HW2 8082   1.065   4.413   4.823
 2395SOL     OW 8083   5.348   1.096   5.791
 2395SOL    HW1 8084   5.415   1.078   5.863
 2395SOL    HW2 8085   5.382   1.169   5.732
 2396SOL     OW 8086   3.800   5.187   1.163
 2396SOL    HW1 8087   3.852   5.236   1.094
 2396SOL    HW2 8088   3.763   5.251   1.230
 2397SOL     OW 8089   0.207   3.683   5.725
 2397SOL    HW1 8090   0.289   3.706   5.778
 2397SOL    HW2 8091   0.137   3.648   5.786
 2398SOL     OW 8092   4.420   4.325   6.669
 2398SOL    HW1 8093   4.406   4.285   6.759
 2398SOL    HW2 8094   4.517   4.318   6.643
 2399SOL     OW 8095   4.105   0.570   1.523
 2399SOL    HW1 8096   4.058   0.543   1.607
 2399SOL    HW2 8097   4.150   0.490   1.482
 2400SOL     OW 8098   2.899   4.312   1.061
 2400SOL    HW1 8099   2.980   4.320   1.119
 2400SOL    HW2 8100   2.925   4.273   0.972
 2401SOL     OW 8101   4.886   6.584   6.411
 2401SOL    HW1 8102   4.908   6.655   6.477
 2401SOL    HW2 8103   4.947   6.506   6.424
 2402SOL     OW 8104   0.246   0.598   3.639
 2402SOL    HW1 8105   0.225   0.677   3.697
 2402SOL    HW2 8106   0.304   0.534   3.690
 2403SOL     OW 8107   2.011   2.094   6.710
 2403SOL    HW1 8108   1.921   2.063   6.679
 2403SOL    HW2 8109   2.075   2.017   6.708
 2404SOL     OW 8110   2.615   0.856   0.880
 2404SOL    HW1 8111   2.561   0.843   0.797
 2404SOL    HW2 8112   2.623   0.954   0.899
 2405SOL     OW 8113   3.323   3.673   2.326
 2405SOL    HW1 8114   3.287   3.755   2.282
 2405SOL    HW2 8115   3.384   3.699   2.400
 2406SOL     OW 8116   3.151   0.261   1.923
 2406SOL    HW1 8117   3.066   0.312   1.926
 2406SOL    HW2 8118   3.133   0.167   1.893
 2407SOL     OW 8119   5.732   1.564   3.010
 2407SOL    HW1 8120   5.639   1.584   2.981
 2407SOL    HW2 8121   5.752   1.612   3.095
 2408SOL     OW 8122   4.361   4.602   3.176
 2408SOL    HW1 8123   4.392   4.545   3.252
 2408SOL    HW2 8124   4.404   4.692   3.182
 2409SOL     OW 8125   2.521   5.127   1.467
 2409SOL    HW1 8126   2.592   5.094   1.529
 2409SOL    HW2 8127   2.461   5.052   1.440
 2410SOL     OW 8128   4.196   3.035   5.319
 2410SOL    HW1 8129   4.259   3.105   5.352
 2410SOL    HW2 8130   4.239   2.945   5.327
 2411SOL     OW 8131   4.847   5.948   4.579
 2411SOL    HW1 8132   4.790   5.867   4.565
 2411SOL    HW2 8133   4.892   5.972   4.493
 2412SOL     OW 8134   5.887   4.331   1.141
 2412SOL    HW1 8135   5.883   4.298   1.236
 2412SOL    HW2 8136   5.975   4.305   1.101
 2413SOL     OW 8137   6.589   1.160   1.256
 2413SOL    HW1 8138   6.521   1.106   1.206
 2413SOL    HW2 8139   6.640   1.217   1.192
 2414SOL     OW 8140   5.015   4.208   2.999
 2414SOL    HW1 8141   4.959   4.135   3.036
 2414SOL    HW2 8142   5.069   4.250   3.072
 2415SOL     OW 8143   6.510   1.123   2.958
 2415SOL    HW1 8144   6.502   1.057   2.884
 2415SOL    HW2 8145   6.441   1.194   2.948
 2416SOL     OW 8146   5.076   2.527   4.579
 2416SOL    HW1 8147   5.089   2.448   4.638
 2416SOL    HW2 8148   4.991   2.516   4.528
 2417SOL     OW 8149   3.781   3.626   4.863
 2417SOL    HW1 8150   3.758   3.531   4.887
 2417SOL    HW2 8151   3.852   3.659   4.925
 2418SOL     OW 8152   3.770   2.866   4.905
 2418SOL    HW1 8153   3.783   2.879   4.806
 2418SOL    HW2 8154   3.791   2.771   4.928
 2419SOL     OW 8155   6.844   6.930   4.355
 2419SOL    HW1 8156   6.943   6.922   4.356
 2419SOL    HW2 8157   6.811   6.953   4.447
 2420SOL     OW 8158   3.646   0.564   3.069
 2420SOL    HW1 8159   3.732   0.595   3.029
 2420SOL    HW2 8160   3.583   0.537   2.996
 2421SOL     OW 8161   2.278   2.203   4.821
 2421SOL    HW1 8162   2.361   2.196   4.876
 2421SOL    HW2 8163   2.284   2.140   4.743
 2422SOL     OW 8164   4.922   1.660   1.053
 2422SOL    HW1 8165   4.890   1.741   1.103
 2422SOL    HW2 8166   4.845   1.619   1.004
 2423SOL     OW 8167   1.746   5.663   2.571
 2423SOL    HW1 8168   1.671   5.597   2.559
 2423SOL    HW2 8169   1.708   5.754   2.582
 2424SOL     OW 8170   6.471   6.758   6.487
 2424SOL    HW1 8171   6.490   6.681   6.426
 2424SOL    HW2 8172   6.391   6.808   6.453
 2425SOL     OW 8173   5.751   0.477   3.982
 2425SOL    HW1 8174   5.809   0.511   3.907
 2425SOL    HW2 8175   5.804   0.475   4.066
 2426SOL     OW 8176   1.414   5.581   5.460
 2426SOL    HW1 8177   1.477   5.641   5.508
 2426SOL    HW2 8178   1.409   5.608   5.363
 2427SOL     OW 8179   5.290   6.139   5.403
 2427SOL    HW1 8180   5.295   6.115   5.500
 2427SOL    HW2 8181   5.214   6.090   5.360
 2428SOL     OW 8182   0.144   0.222   2.520
 2428SOL    HW1 8183   0.148   0.284   2.599
 2428SOL    HW2 8184   0.052   0.185   2.511
 2429SOL     OW 8185   6.077   5.229   2.330
 2429SOL    HW1 8186   6.026   5.147   2.304
 2429SOL    HW2 8187   6.031   5.310   2.295
 2430SOL     OW 8188   6.586   1.268   1.930
 2430SOL    HW1 8189   6.594   1.255   2.029
 2430SOL    HW2 8190   6.639   1.197   1.884
 2431SOL     OW 8191   4.045   0.280   2.328
 2431SOL    HW1 8192   4.068   0.220   2.404
 2431SOL    HW2 8193   3.954   0.256   2.292
 2432SOL     OW 8194   4.061   6.691   2.713
 2432SOL    HW1 8195   4.066   6.663   2.809
 2432SOL    HW2 8196   4.154   6.691   2.674
 2433SOL     OW 8197   4.142   1.846   0.231
 2433SOL    HW1 8198   4.122   1.901   0.312
 2433SOL    HW2 8199   4.238   1.860   0.205
 2434SOL     OW 8200   4.065   1.652   6.083
 2434SOL    HW1 8201   4.137   1.685   6.021
 2434SOL    HW2 8202   4.067   1.552   6.085
 2435SOL     OW 8203   5.087   5.566   5.350
 2435SOL    HW1 8204   5.119   5.517   5.269
 2435SOL    HW2 8205   5.129   5.657   5.354
 2436SOL     OW 8206   1.466   5.567   6.398
 2436SOL    HW1 8207   1.529   5.573   6.321
 2436SOL    HW2 8208   1.516   5.536   6.479
 2437SOL     OW 8209   6.108   7.003   6.802
 2437SOL    HW1 8210   6.173   6.927   6.803
 2437SOL    HW2 8211   6.016   6.968   6.790
 2438SOL     OW 8212   3.234   2.193   0.509
 2438SOL    HW1 8213   3.216   2.267   0.444
 2438SOL    HW2 8214   3.258   2.110   0.459
 2439SOL     OW 8215   0.842   4.116   6.432
 2439SOL    HW1 8216   0.772   4.109   6.361
 2439SOL    HW2 8217   0.822   4.196   6.490
 2440SOL     OW 8218   4.678   5.905   5.978
 2440SOL    HW1 8219   4.717   5.997   5.966
 2440SOL    HW2 8220   4.579   5.909   5.961
 2441SOL     OW 8221   0.079   2.627   0.117
 2441SOL    HW1 8222   0.015   2.666   0.050
 2441SOL    HW2 8223   0.066   2.528   0.120
 2442SOL     OW 8224   1.265   3.928   5.782
 2442SOL    HW1 8225   1.193   3.990   5.811
 2442SOL    HW2 8226   1.243   3.891   5.691
 2443SOL     OW 8227   3.389   4.576   6.396
 2443SOL    HW1 8228   3.341   4.639   6.335
 2443SOL    HW2 8229   3.412   4.492   6.347
 2444SOL     OW 8230   2.905   4.913   6.415
 2444SOL    HW1 8231   2.905   4.814   6.427
 2444SOL    HW2 8232   2.957   4.937   6.333
 2445SOL     OW 8233   0.259   0.716   0.939
 2445SOL    HW1 8234   0.282   0.812   0.952
 2445SOL    HW2 8235   0.307   0.660   1.007
 2446SOL     OW 8236   6.422   4.243   4.390
 2446SOL    HW1 8237   6.376   4.330   4.374
 2446SOL    HW2 8238   6.373   4.192   4.460
 2447SOL     OW 8239   1.965   2.254   6.940
 2447SOL    HW1 8240   1.878   2.218   6.977
 2447SOL    HW2 8241   1.986   2.208   6.854
 2448SOL     OW 8242   0.517   0.453   4.249
 2448SOL    HW1 8243   0.486   0.487   4.160
 2448SOL    HW2 8244   0.592   0.511   4.282
 2449SOL     OW 8245   0.131   3.895   0.091
 2449SOL    HW1 8246   0.120   3.808   0.139
 2449SOL    HW2 8247   0.148   3.876   7.014
 2450SOL     OW 8248   2.524   4.539   2.817
 2450SOL    HW1 8249   2.474   4.616   2.856
 2450SOL    HW2 8250   2.549   4.560   2.723
 2451SOL     OW 8251   2.149   6.863   4.334
 2451SOL    HW1 8252   2.164   6.891   4.239
 2451SOL    HW2 8253   2.092   6.781   4.335
 2452SOL     OW 8254   1.400   3.713   2.648
 2452SOL    HW1 8255   1.492   3.688   2.618
 2452SOL    HW2 8256   1.347   3.630   2.666
 2453SOL     OW 8257   6.615   4.414   1.208
 2453SOL    HW1 8258   6.606   4.437   1.111
 2453SOL    HW2 8259   6.544   4.350   1.235
 2454SOL     OW 8260   3.451   0.713   2.640
 2454SOL    HW1 8261   3.481   0.770   2.562
 2454SOL    HW2 8262   3.530   0.664   2.677
 2455SOL     OW 8263   5.440   5.454   1.103
 2455SOL    HW1 8264   5.442   5.364   1.060
 2455SOL    HW2 8265   5.497   5.517   1.050
 2456SOL     OW 8266   5.254   6.491   1.765
 2456SOL    HW1 8267   5.281   6.502   1.861
 2456SOL    HW2 8268   5.205   6.573   1.735
 2457SOL     OW 8269   6.054   6.963   0.835
 2457SOL    HW1 8270   6.097   6.988   0.922
 2457SOL    HW2 8271   6.092   6.876   0.803
 2458SOL     OW 8272   2.177   6.055   3.248
 2458SOL    HW1 8273   2.214   6.083   3.160
 2458SOL    HW2 8274   2.176   6.134   3.311
 2459SOL     OW 8275   2.224   0.225   0.686
 2459SOL    HW1 8276   2.135   0.202   0.725
 2459SOL    HW2 8277   2.212   0.266   0.596
 2460SOL     OW 8278   2.650   6.020   2.114
 2460SOL    HW1 8279   2.623   6.043   2.021
 2460SOL    HW2 8280   2.749   6.033   2.124
 2461SOL     OW 8281   5.507   0.514   2.119
 2461SOL    HW1 8282   5.509   0.417   2.096
 2461SOL    HW2 8283   5.415   0.539   2.151
 2462SOL     OW 8284   2.325   5.388   6.710
 2462SOL    HW1 8285   2.329   5.483   6.682
 2462SOL    HW2 8286   2.411   5.342   6.687
 2463SOL     OW 8287   6.339   1.822   3.360
 2463SOL    HW1 8288   6.410   1.825   3.430
 2463SOL    HW2 8289   6.318   1.915   3.331
 2464SOL     OW 8290   1.390   3.196   1.241
 2464SOL    HW1 8291   1.390   3.207   1.341
 2464SOL    HW2 8292   1.378   3.099   1.219
 2465SOL     OW 8293   0.209   5.843   2.078
 2465SOL    HW1 8294   0.241   5.805   1.991
 2465SOL    HW2 8295   0.256   5.797   2.154
 2466SOL     OW 8296   4.028   1.812   2.485
 2466SOL    HW1 8297   4.105   1.799   2.422
 2466SOL    HW2 8298   4.053   1.878   2.555
 2467SOL     OW 8299   6.947   0.891   6.011
 2467SOL    HW1 8300   6.884   0.836   6.067
 2467SOL    HW2 8301   6.944   0.859   5.917
 2468SOL     OW 8302   6.757   6.369   1.365
 2468SOL    HW1 8303   6.822   6.314   1.313
 2468SOL    HW2 8304   6.748   6.332   1.458
 2469SOL     OW 8305   2.742   3.326   5.569
 2469SOL    HW1 8306   2.836   3.303   5.596
 2469SOL    HW2 8307   2.707   3.253   5.510
 2470SOL     OW 8308   4.316   3.699   6.712
 2470SOL    HW1 8309   4.301   3.634   6.638
 2470SOL    HW2 8310   4.412   3.698   6.738
 2471SOL     OW 8311   0.330   6.677   3.081
 2471SOL    HW1 8312   0.421   6.720   3.073
 2471SOL    HW2 8313   0.300   6.681   3.176
 2472SOL     OW 8314   5.491   2.699   4.455
 2472SOL    HW1 8315   5.514   2.761   4.530
 2472SOL    HW2 8316   5.508   2.745   4.367
 2473SOL     OW 8317   1.065   5.903   4.556
 2473SOL    HW1 8318   0.986   5.948   4.515
 2473SOL    HW2 8319   1.038   5.862   4.643
 2474SOL     OW 8320   6.647   4.679   5.267
 2474SOL    HW1 8321   6.572   4.732   5.307
 2474SOL    HW2 8322   6.722   4.740   5.243
 2475SOL     OW 8323   3.794   2.506   0.488
 2475SOL    HW1 8324   3.696   2.523   0.500
 2475SOL    HW2 8325   3.809   2.443   0.412
 2476SOL     OW 8326   0.825   1.714   3.543
 2476SOL    HW1 8327   0.734   1.735   3.506
 2476SOL    HW2 8328   0.826   1.620   3.577
 2477SOL     OW 8329   5.338   5.317   1.484
 2477SOL    HW1 8330   5.357   5.219   1.486
 2477SOL    HW2 8331   5.315   5.343   1.390
 2478SOL     OW 8332   5.737   6.802   2.696
 2478SOL    HW1 8333   5.806   6.867   2.727
 2478SOL    HW2 8334   5.719   6.817   2.599
 2479SOL     OW 8335   0.633   2.558   0.647
 2479SOL    HW1 8336   0.689   2.481   0.678
 2479SOL    HW2 8337   0.610   2.615   0.726
 2480SOL     OW 8338   0.780   3.501   1.068
 2480SOL    HW1 8339   0.694   3.509   1.119
 2480SOL    HW2 8340   0.827   3.417   1.096
 2481SOL     OW 8341   4.145   5.247   2.483
 2481SOL    HW1 8342   4.223   5.294   2.442
 2481SOL    HW2 8343   4.112   5.177   2.420
 2482SOL     OW 8344   5.063   2.696   4.802
 2482SOL    HW1 8345   5.058   2.640   4.720
 2482SOL    HW2 8346   4.979   2.750   4.812
 2483SOL     OW 8347   1.157   1.708   6.838
 2483SOL    HW1 8348   1.122   1.614   6.834
 2483SOL    HW2 8349   1.107   1.759   6.908
 2484SOL     OW 8350   3.205   1.458   0.115
 2484SOL    HW1 8351   3.217   1.528   0.185
 2484SOL    HW2 8352   3.126   1.401   0.137
 2485SOL     OW 8353   0.319   5.302   2.163
 2485SOL    HW1 8354   0.387   5.324   2.093
 2485SOL    HW2 8355   0.280   5.387   2.198
 2486SOL     OW 8356   1.527   5.495   2.956
 2486SOL    HW1 8357   1.516   5.577   3.012
 2486SOL    HW2 8358   1.617   5.497   2.912
 2487SOL     OW 8359   3.552   0.034   0.867
 2487SOL    HW1 8360   3.601   0.086   0.797
 2487SOL    HW2 8361   3.539   0.090   0.948
 2488SOL     OW 8362   2.801   5.248   1.269
 2488SOL    HW1 8363   2.784   5.153   1.241
 2488SOL    HW2 8364   2.860   5.292   1.202
 2489SOL     OW 8365   1.581   5.473   4.852
 2489SOL    HW1 8366   1.590   5.411   4.774
 2489SOL    HW2 8367   1.665   5.471   4.906
 2490SOL     OW 8368   5.889   3.555   1.235
 2490SOL    HW1 8369   5.959   3.489   1.210
 2490SOL    HW2 8370   5.931   3.627   1.292
 2491SOL     OW 8371   2.985   5.452   2.729
 2491SOL    HW1 8372   3.006   5.400   2.812
 2491SOL    HW2 8373   2.895   5.495   2.738
 2492SOL     OW 8374   4.912   3.245   6.513
 2492SOL    HW1 8375   4.983   3.189   6.555
 2492SOL    HW2 8376   4.940   3.341   6.514
 2493SOL     OW 8377   6.100   1.848   3.137
 2493SOL    HW1 8378   6.161   1.769   3.145
 2493SOL    HW2 8379   6.132   1.922   3.196
 2494SOL     OW 8380   4.793   2.934   2.567
 2494SOL    HW1 8381   4.797   2.903   2.662
 2494SOL    HW2 8382   4.704   2.909   2.527
 2495SOL     OW 8383   5.505   1.148   5.004
 2495SOL    HW1 8384   5.574   1.080   5.029
 2495SOL    HW2 8385   5.423   1.134   5.060
 2496SOL     OW 8386   1.240   6.343   0.111
 2496SOL    HW1 8387   1.142   6.337   0.129
 2496SOL    HW2 8388   1.290   6.308   0.190
 2497SOL     OW 8389   6.458   1.594   6.844
 2497SOL    HW1 8390   6.515   1.676   6.836
 2497SOL    HW2 8391   6.514   1.516   6.870
 2498SOL     OW 8392   1.710   3.141   4.961
 2498SOL    HW1 8393   1.788   3.117   5.018
 2498SOL    HW2 8394   1.678   3.059   4.913
 2499SOL     OW 8395   5.719   0.625   4.678
 2499SOL    HW1 8396   5.631   0.608   4.722
 2499SOL    HW2 8397   5.791   0.629   4.747
 2500SOL     OW 8398   4.874   2.910   6.953
 2500SOL    HW1 8399   4.848   2.969   0.010
 2500SOL    HW2 8400   4.848   2.816   6.973
 2501SOL     OW 8401   6.724   4.074   0.486
 2501SOL    HW1 8402   6.671   4.003   0.531
 2501SOL    HW2 8403   6.768   4.132   0.555
 2502SOL     OW 8404   2.640   7.010   3.116
 2502SOL    HW1 8405   2.618   0.007   3.021
 2502SOL    HW2 8406   2.681   6.919   3.125
 2503SOL     OW 8407   4.281   5.166   5.448
 2503SOL    HW1 8408   4.371   5.131   5.475
 2503SOL    HW2 8409   4.270   5.259   5.480
 2504SOL     OW 8410   1.618   4.387   4.109
 2504SOL    HW1 8411   1.603   4.292   4.081
 2504SOL    HW2 8412   1.575   4.449   4.043
 2505SOL     OW 8413   4.705   5.383   4.482
 2505SOL    HW1 8414   4.642   5.441   4.534
 2505SOL    HW2 8415   4.730   5.429   4.397
 2506SOL     OW 8416   7.016   2.573   6.443
 2506SOL    HW1 8417   6.920   2.547   6.443
 2506SOL    HW2 8418   0.027   2.586   6.349
 2507SOL     OW 8419   6.654   6.353   0.075
 2507SOL    HW1 8420   6.732   6.415   0.064
 2507SOL    HW2 8421   6.594   6.388   0.147
 2508SOL     OW 8422   2.771   1.972   2.400
 2508SOL    HW1 8423   2.706   2.032   2.445
 2508SOL    HW2 8424   2.821   2.023   2.330
 2509SOL     OW 8425   4.872   2.966   3.848
 2509SOL    HW1 8426   4.851   3.024   3.927
 2509SOL    HW2 8427   4.817   2.883   3.853
 2510SOL     OW 8428   4.058   5.459   0.349
 2510SOL    HW1 8429   4.050   5.520   0.428
 2510SOL    HW2 8430   4.054   5.364   0.380
 2511SOL     OW 8431   0.981   0.773   5.014
 2511SOL    HW1 8432   0.984   0.674   5.030
 2511SOL    HW2 8433   0.912   0.814   5.072
 2512SOL     OW 8434   5.298   3.300   5.246
 2512SOL    HW1 8435   5.270   3.247   5.166
 2512SOL    HW2 8436   5.223   3.302   5.312
 2513SOL     OW 8437   0.942   2.985   0.511
 2513SOL    HW1 8438   1.025   2.930   0.506
 2513SOL    HW2 8439   0.862   2.926   0.513
 2514SOL     OW 8440   1.229   0.558   3.382
 2514SOL    HW1 8441   1.324   0.532   3.402
 2514SOL    HW2 8442   1.174   0.548   3.465
 2515SOL     OW 8443   0.565   5.731   0.725
 2515SOL    HW1 8444   0.541   5.677   0.644
 2515SOL    HW2 8445   0.659   5.708   0.753
 2516SOL     OW 8446   5.238   6.302   3.463
 2516SOL    HW1 8447   5.201   6.290   3.555
 2516SOL    HW2 8448   5.326   6.350   3.469
 2517SOL     OW 8449   2.001   4.635   0.232
 2517SOL    HW1 8450   1.978   4.561   0.295
 2517SOL    HW2 8451   2.019   4.719   0.283
 2518SOL     OW 8452   2.716   2.614   6.730
 2518SOL    HW1 8453   2.634   2.642   6.681
 2518SOL    HW2 8454   2.744   2.685   6.794
 2519SOL     OW 8455   4.779   4.683   4.937
 2519SOL    HW1 8456   4.752   4.609   4.877
 2519SOL    HW2 8457   4.807   4.646   5.026
 2520SOL     OW 8458   2.452   4.296   1.853
 2520SOL    HW1 8459   2.516   4.278   1.779
 2520SOL    HW2 8460   2.393   4.216   1.866
 2521SOL     OW 8461   5.629   6.669   5.292
 2521SOL    HW1 8462   5.705   6.633   5.239
 2521SOL    HW2 8463   5.632   6.769   5.291
 2522SOL     OW 8464   0.848   3.345   4.651
 2522SOL    HW1 8465   0.875   3.249   4.657
 2522SOL    HW2 8466   0.749   3.352   4.665
 2523SOL     OW 8467   0.926   3.495   6.976
 2523SOL    HW1 8468   0.843   3.440   6.989
 2523SOL    HW2 8469   0.913   3.556   6.897
 2524SOL     OW 8470   1.452   6.623   4.171
 2524SOL    HW1 8471   1.471   6.525   4.158
 2524SOL    HW2 8472   1.434   6.666   4.083
 2525SOL     OW 8473   1.409   3.407   3.887
 2525SOL    HW1 8474   1.334   3.451   3.838
 2525SOL    HW2 8475   1.380   3.317   3.919
 2526SOL     OW 8476   6.585   1.986   4.759
 2526SOL    HW1 8477   6.500   1.977   4.707
 2526SOL    HW2 8478   6.588   2.076   4.802
 2527SOL     OW 8479   5.597   6.510   3.851
 2527SOL    HW1 8480   5.639   6.561   3.776
 2527SOL    HW2 8481   5.620   6.413   3.843
 2528SOL     OW 8482   6.688   5.660   6.969
 2528SOL    HW1 8483   6.772   5.702   7.002
 2528SOL    HW2 8484   6.651   5.600   0.019
 2529SOL     OW 8485   4.818   3.944   4.488
 2529SOL    HW1 8486   4.723   3.914   4.498
 2529SOL    HW2 8487   4.819   4.034   4.445
 2530SOL     OW 8488   0.661   0.621   3.829
 2530SOL    HW1 8489   0.688   0.530   3.799
 2530SOL    HW2 8490   0.676   0.686   3.755
 2531SOL     OW 8491   3.742   1.841   6.579
 2531SOL    HW1 8492   3.786   1.758   6.612
 2531SOL    HW2 8493   3.760   1.916   6.643
 2532SOL     OW 8494   1.139   4.846   6.667
 2532SOL    HW1 8495   1.069   4.812   6.604
 2532SOL    HW2 8496   1.098   4.863   6.756
 2533SOL     OW 8497   5.368   6.728   5.998
 2533SOL    HW1 8498   5.379   6.700   6.094
 2533SOL    HW2 8499   5.317   6.814   5.995
 2534SOL     OW 8500   1.099   0.946   3.542
 2534SOL    HW1 8501   1.113   0.904   3.632
 2534SOL    HW2 8502   1.030   0.894   3.491
 2535SOL     OW 8503   2.086   1.291   3.774
 2535SOL    HW1 8504   2.044   1.260   3.689
 2535SOL    HW2 8505   2.066   1.224   3.847
 2536SOL     OW 8506   5.972   0.951   3.889
 2536SOL    HW1 8507   5.937   0.910   3.805
 2536SOL    HW2 8508   5.899   0.955   3.957
 2537SOL     OW 8509   4.939   5.508   1.233
 2537SOL    HW1 8510   4.867   5.511   1.164
 2537SOL    HW2 8511   4.931   5.587   1.294
 2538SOL     OW 8512   2.396   4.728   4.530
 2538SOL    HW1 8513   2.422   4.825   4.535
 2538SOL    HW2 8514   2.334   4.714   4.454
 2539SOL     OW 8515   3.682   6.984   5.158
 2539SOL    HW1 8516   3.747   6.908   5.155
 2539SOL    HW2 8517   3.675   7.019   5.252
 2540SOL     OW 8518   5.605   1.984   2.357
 2540SOL    HW1 8519   5.535   1.915   2.376
 2540SOL    HW2 8520   5.623   1.986   2.259
 2541SOL     OW 8521   0.972   6.432   5.914
 2541SOL    HW1 8522   1.002   6.337   5.907
 2541SOL    HW2 8523   0.875   6.435   5.939
 2542SOL     OW 8524   3.482   1.899   4.699
 2542SOL    HW1 8525   3.432   1.818   4.729
 2542SOL    HW2 8526   3.544   1.929   4.772
 2543SOL     OW 8527   0.596   1.864   3.417
 2543SOL    HW1 8528   0.571   1.876   3.513
 2543SOL    HW2 8529   0.514   1.857   3.361
 2544SOL     OW 8530   6.672   5.059   1.442
 2544SOL    HW1 8531   6.754   5.112   1.460
 2544SOL    HW2 8532   6.631   5.030   1.529
 2545SOL     OW 8533   0.468   1.361   1.331
 2545SOL    HW1 8534   0.542   1.426   1.349
 2545SOL    HW2 8535   0.385   1.391   1.377
 2546SOL     OW 8536   0.261   4.005   2.311
 2546SOL    HW1 8537   0.162   4.016   2.305
 2546SOL    HW2 8538   0.288   3.992   2.406
 2547SOL     OW 8539   5.627   3.649   0.952
 2547SOL    HW1 8540   5.632   3.693   1.042
 2547SOL    HW2 8541   5.692   3.574   0.948
 2548SOL     OW 8542   6.915   6.948   5.255
 2548SOL    HW1 8543   6.922   6.875   5.187
 2548SOL    HW2 8544   6.916   0.016   5.209
 2549SOL     OW 8545   2.361   2.674   0.617
 2549SOL    HW1 8546   2.277   2.620   0.614
 2549SOL    HW2 8547   2.437   2.619   0.582
 2550SOL     OW 8548   4.274   6.908   6.143
 2550SOL    HW1 8549   4.345   6.872   6.204
 2550SOL    HW2 8550   4.300   6.889   6.048
 2551SOL     OW 8551   3.118   5.857   0.166
 2551SOL    HW1 8552   3.170   5.804   0.100
 2551SOL    HW2 8553   3.021   5.836   0.157
 2552SOL     OW 8554   2.295   6.172   0.951
 2552SOL    HW1 8555   2.234   6.250   0.943
 2552SOL    HW2 8556   2.364   6.175   0.879
 2553SOL     OW 8557   4.604   1.171   6.951
 2553SOL    HW1 8558   4.545   1.192   6.873
 2553SOL    HW2 8559   4.563   1.096   7.004
 2554SOL     OW 8560   1.323   5.691   1.508
 2554SOL    HW1 8561   1.285   5.721   1.596
 2554SOL    HW2 8562   1.362   5.769   1.459
 2555SOL     OW 8563   5.497   5.926   5.257
 2555SOL    HW1 8564   5.466   5.914   5.163
 2555SOL    HW2 8565   5.534   6.018   5.268
 2556SOL     OW 8566   3.942   6.995   1.284
 2556SOL    HW1 8567   3.907   0.004   1.196
 2556SOL    HW2 8568   3.867   6.959   1.340
 2557SOL     OW 8569   3.501   0.054   6.960
 2557SOL    HW1 8570   3.403   0.060   6.977
 2557SOL    HW2 8571   3.535   0.142   6.927
 2558SOL     OW 8572   5.947   4.049   6.328
 2558SOL    HW1 8573   5.937   3.977   6.259
 2558SOL    HW2 8574   5.857   4.074   6.363
 2559SOL     OW 8575   0.999   4.576   4.211
 2559SOL    HW1 8576   1.075   4.537   4.158
 2559SOL    HW2 8577   0.996   4.532   4.301
 2560SOL     OW 8578   4.861   2.021   3.220
 2560SOL    HW1 8579   4.867   2.114   3.257
 2560SOL    HW2 8580   4.851   1.956   3.295
 2561SOL     OW 8581   3.712   0.679   4.256
 2561SOL    HW1 8582   3.675   0.669   4.349
 2561SOL    HW2 8583   3.775   0.604   4.238
 2562SOL     OW 8584   3.314   0.008   3.445
 2562SOL    HW1 8585   3.306   0.012   3.545
 2562SOL    HW2 8586   3.230   6.991   3.406
 2563SOL     OW 8587   3.444   1.263   0.166
 2563SOL    HW1 8588   3.424   1.165   0.159
 2563SOL    HW2 8589   3.361   1.316   0.145
 2564SOL     OW 8590   1.407   1.352   0.610
 2564SOL    HW1 8591   1.402   1.365   0.709
 2564SOL    HW2 8592   1.482   1.290   0.589
 2565SOL     OW 8593   1.611   2.239   6.787
 2565SOL    HW1 8594   1.646   2.191   6.706
 2565SOL    HW2 8595   1.596   2.336   6.764
 2566SOL     OW 8596   2.229   1.053   0.998
 2566SOL    HW1 8597   2.310   1.059   0.939
 2566SOL    HW2 8598   2.256   1.074   1.093
 2567SOL     OW 8599   1.567   0.553   0.642
 2567SOL    HW1 8600   1.526   0.522   0.728
 2567SOL    HW2 8601   1.562   0.481   0.574
 2568SOL     OW 8602   2.827   6.339   1.511
 2568SOL    HW1 8603   2.815   6.396   1.429
 2568SOL    HW2 8604   2.747   6.279   1.522
 2569SOL     OW 8605   0.658   0.451   1.454
 2569SOL    HW1 8606   0.753   0.420   1.445
 2569SOL    HW2 8607   0.650   0.509   1.534
 2570SOL     OW 8608   5.393   6.591   6.233
 2570SOL    HW1 8609   5.456   6.659   6.271
 2570SOL    HW2 8610   5.437   6.502   6.230
 2571SOL     OW 8611   3.586   3.107   4.683
 2571SOL    HW1 8612   3.675   3.061   4.676
 2571SOL    HW2 8613   3.572   3.141   4.776
 2572SOL     OW 8614   2.050   6.266   1.862
 2572SOL    HW1 8615   2.072   6.270   1.765
 2572SOL    HW2 8616   2.106   6.195   1.906
 2573SOL     OW 8617   6.951   2.311   4.120
 2573SOL    HW1 8618   0.020   2.352   4.106
 2573SOL    HW2 8619   6.952   2.255   4.203
 2574SOL     OW 8620   1.061   3.781   1.563
 2574SOL    HW1 8621   0.993   3.816   1.498
 2574SOL    HW2 8622   1.087   3.688   1.538
 2575SOL     OW 8623   5.968   3.813   0.340
 2575SOL    HW1 8624   5.896   3.869   0.298
 2575SOL    HW2 8625   6.056   3.834   0.297
 2576SOL     OW 8626   2.189   6.867   3.056
 2576SOL    HW1 8627   2.235   6.949   3.089
 2576SOL    HW2 8628   2.097   6.891   3.025
 2577SOL     OW 8629   2.237   6.100   2.631
 2577SOL    HW1 8630   2.228   6.053   2.544
 2577SOL    HW2 8631   2.248   6.033   2.705
 2578SOL     OW 8632   5.135   2.888   4.546
 2578SOL    HW1 8633   5.213   2.852   4.597
 2578SOL    HW2 8634   5.075   2.939   4.607
 2579SOL     OW 8635   0.159   2.656   6.825
 2579SOL    HW1 8636   0.157   2.716   6.745
 2579SOL    HW2 8637   0.072   2.609   6.834
 2580SOL     OW 8638   1.717   2.669   6.567
 2580SOL    HW1 8639   1.628   2.670   6.522
 2580SOL    HW2 8640   1.734   2.757   6.612
 2581SOL     OW 8641   6.416   6.694   3.175
 2581SOL    HW1 8642   6.330   6.682   3.225
 2581SOL    HW2 8643   6.432   6.791   3.158
 2582SOL     OW 8644   0.714   5.298   2.095
 2582SOL    HW1 8645   0.748   5.322   2.004
 2582SOL    HW2 8646   0.760   5.354   2.164
 2583SOL     OW 8647   1.317   0.156   0.261
 2583SOL    HW1 8648   1.253   0.191   0.329
 2583SOL    HW2 8649   1.383   0.095   0.305
 2584SOL     OW 8650   3.701   6.157   1.240
 2584SOL    HW1 8651   3.706   6.185   1.336
 2584SOL    HW2 8652   3.781   6.101   1.218
 2585SOL     OW 8653   3.507   0.196   1.088
 2585SOL    HW1 8654   3.443   0.207   1.164
 2585SOL    HW2 8655   3.504   0.278   1.031
 2586SOL     OW 8656   6.372   1.946   3.913
 2586SOL    HW1 8657   6.281   1.908   3.898
 2586SOL    HW2 8658   6.441   1.876   3.894
 2587SOL     OW 8659   5.651   6.268   3.765
 2587SOL    HW1 8660   5.592   6.198   3.725
 2587SOL    HW2 8661   5.733   6.279   3.709
 2588SOL     OW 8662   5.291   0.336   1.510
 2588SOL    HW1 8663   5.342   0.411   1.552
 2588SOL    HW2 8664   5.334   0.249   1.536
 2589SOL     OW 8665   6.625   6.083   5.962
 2589SOL    HW1 8666   6.553   6.047   5.903
 2589SOL    HW2 8667   6.592   6.083   6.057
 2590SOL     OW 8668   4.412   6.945   2.659
 2590SOL    HW1 8669   4.448   6.915   2.747
 2590SOL    HW2 8670   4.433   0.021   2.645
 2591SOL     OW 8671   5.332   6.407   1.514
 2591SOL    HW1 8672   5.314   6.432   1.609
 2591SOL    HW2 8673   5.248   6.370   1.474
 2592SOL     OW 8674   3.854   5.424   2.227
 2592SOL    HW1 8675   3.821   5.505   2.276
 2592SOL    HW2 8676   3.808   5.343   2.263
 2593SOL     OW 8677   2.952   6.320   2.548
 2593SOL    HW1 8678   3.015   6.393   2.522
 2593SOL    HW2 8679   2.945   6.254   2.473
 2594SOL     OW 8680   0.712   6.656   6.387
 2594SOL    HW1 8681   0.652   6.645   6.465
 2594SOL    HW2 8682   0.772   6.576   6.379
 2595SOL     OW 8683   6.260   3.452   4.486
 2595SOL    HW1 8684   6.326   3.517   4.448
 2595SOL    HW2 8685   6.168   3.479   4.461
 2596SOL     OW 8686   4.001   2.200   1.890
 2596SOL    HW1 8687   4.033   2.112   1.925
 2596SOL    HW2 8688   3.929   2.235   1.950
 2597SOL     OW 8689   2.264   3.999   0.592
 2597SOL    HW1 8690   2.247   3.986   0.494
 2597SOL    HW2 8691   2.185   4.045   0.633
 2598SOL     OW 8692   6.512   3.210   3.320
 2598SOL    HW1 8693   6.535   3.118   3.290
 2598SOL    HW2 8694   6.578   3.240   3.390
 2599SOL     OW 8695   3.587   5.341   0.020
 2599SOL    HW1 8696   3.660   5.401   0.054
 2599SOL    HW2 8697   3.498   5.378   0.048
 2600SOL     OW 8698   5.805   3.500   3.329
 2600SOL    HW1 8699   5.746   3.420   3.318
 2600SOL    HW2 8700   5.900   3.470   3.332
 2601SOL     OW 8701   3.549   3.538   6.198
 2601SOL    HW1 8702   3.523   3.619   6.252
 2601SOL    HW2 8703   3.556   3.564   6.102
 2602SOL     OW 8704   6.562   5.318   4.021
 2602SOL    HW1 8705   6.477   5.266   4.022
 2602SOL    HW2 8706   6.640   5.256   4.035
 2603SOL     OW 8707   2.764   1.971   1.366
 2603SOL    HW1 8708   2.823   2.034   1.416
 2603SOL    HW2 8709   2.784   1.977   1.268
 2604SOL     OW 8710   5.405   0.270   1.120
 2604SOL    HW1 8711   5.490   0.220   1.133
 2604SOL    HW2 8712   5.331   0.226   1.171
 2605SOL     OW 8713   4.380   5.104   4.905
 2605SOL    HW1 8714   4.301   5.050   4.935
 2605SOL    HW2 8715   4.368   5.131   4.809
 2606SOL     OW 8716   6.906   4.320   0.550
 2606SOL    HW1 8717   6.915   4.343   0.453
 2606SOL    HW2 8718   6.997   4.310   0.590
 2607SOL     OW 8719   0.731   0.268   3.510
 2607SOL    HW1 8720   0.721   0.320   3.425
 2607SOL    HW2 8721   0.754   0.173   3.487
 2608SOL     OW 8722   4.430   1.147   1.143
 2608SOL    HW1 8723   4.392   1.228   1.098
 2608SOL    HW2 8724   4.529   1.147   1.132
 2609SOL     OW 8725   0.935   2.196   2.529
 2609SOL    HW1 8726   0.940   2.097   2.516
 2609SOL    HW2 8727   0.846   2.230   2.498
 2610SOL     OW 8728   6.268   6.010   4.794
 2610SOL    HW1 8729   6.199   6.018   4.723
 2610SOL    HW2 8730   6.321   5.926   4.779
 2611SOL     OW 8731   4.854   6.594   1.397
 2611SOL    HW1 8732   4.826   6.607   1.492
 2611SOL    HW2 8733   4.905   6.508   1.388
 2612SOL     OW 8734   5.498   6.650   3.154
 2612SOL    HW1 8735   5.565   6.703   3.103
 2612SOL    HW2 8736   5.495   6.557   3.118
 2613SOL     OW 8737   3.787   0.195   2.268
 2613SOL    HW1 8738   3.786   0.099   2.296
 2613SOL    HW2 8739   3.708   0.213   2.210
 2614SOL     OW 8740   6.629   6.730   6.108
 2614SOL    HW1 8741   6.729   6.726   6.116
 2614SOL    HW2 8742   6.595   6.810   6.157
 2615SOL     OW 8743   4.932   5.280   2.539
 2615SOL    HW1 8744   4.914   5.262   2.442
 2615SOL    HW2 8745   4.984   5.365   2.548
 2616SOL     OW 8746   3.717   2.903   2.940
 2616SOL    HW1 8747   3.786   2.972   2.919
 2616SOL    HW2 8748   3.668   2.929   3.023
 2617SOL     OW 8749   3.517   6.450   1.596
 2617SOL    HW1 8750   3.508   6.359   1.636
 2617SOL    HW2 8751   3.531   6.441   1.497
 2618SOL     OW 8752   0.256   0.280   0.602
 2618SOL    HW1 8753   0.241   0.213   0.674
 2618SOL    HW2 8754   0.289   0.366   0.641
 2619SOL     OW 8755   4.467   2.184   2.250
 2619SOL    HW1 8756   4.522   2.104   2.273
 2619SOL    HW2 8757   4.472   2.250   2.324
 2620SOL     OW 8758   0.999   5.016   3.674
 2620SOL    HW1 8759   0.905   5.037   3.699
 2620SOL    HW2 8760   1.002   4.972   3.584
 2621SOL     OW 8761   0.737   5.426   3.604
 2621SOL    HW1 8762   0.809   5.494   3.590
 2621SOL    HW2 8763   0.668   5.462   3.667
 2622SOL     OW 8764   2.800   2.762   7.012
 2622SOL    HW1 8765   2.798   2.842   0.051
 2622SOL    HW2 8766   2.895   2.735   6.996
 2623SOL     OW 8767   3.543   1.146   5.566
 2623SOL    HW1 8768   3.498   1.111   5.485
 2623SOL    HW2 8769   3.568   1.070   5.626
 2624SOL     OW 8770   5.732   2.496   3.434
 2624SOL    HW1 8771   5.783   2.536   3.510
 2624SOL    HW2 8772   5.648   2.548   3.418
 2625SOL     OW 8773   2.554   2.459   5.539
 2625SOL    HW1 8774   2.532   2.557   5.540
 2625SOL    HW2 8775   2.574   2.431   5.445
 2626SOL     OW 8776   1.917   6.538   3.096
 2626SOL    HW1 8777   1.835   6.517   3.044
 2626SOL    HW2 8778   1.891   6.578   3.184
 2627SOL     OW 8779   0.042   0.067   4.544
 2627SOL    HW1 8780   6.982   0.035   4.593
 2627SOL    HW2 8781   0.081   7.012   4.491
 2628SOL     OW 8782   3.859   6.389   6.858
 2628SOL    HW1 8783   3.870   6.299   6.816
 2628SOL    HW2 8784   3.878   6.382   6.956
 2629SOL     OW 8785   3.946   4.058   1.250
 2629SOL    HW1 8786   4.018   4.065   1.181
 2629SOL    HW2 8787   3.983   4.015   1.333
 2630SOL     OW 8788   3.433   1.880   2.560
 2630SOL    HW1 8789   3.391   1.799   2.520
 2630SOL    HW2 8790   3.494   1.922   2.494
 2631SOL     OW 8791   4.336   6.804   4.038
 2631SOL    HW1 8792   4.363   6.897   4.062
 2631SOL    HW2 8793   4.296   6.759   4.118
 2632SOL     OW 8794   3.412   2.010   0.331
 2632SOL    HW1 8795   3.459   1.983   0.247
 2632SOL    HW2 8796   3.431   1.942   0.403
 2633SOL     OW 8797   5.999   2.280   6.715
 2633SOL    HW1 8798   5.902   2.274   6.737
 2633SOL    HW2 8799   6.049   2.208   6.764
 2634SOL     OW 8800   2.003   4.236   1.376
 2634SOL    HW1 8801   2.074   4.246   1.446
 2634SOL    HW2 8802   2.045   4.215   1.288
 2635SOL     OW 8803   5.709   4.587   5.113
 2635SOL    HW1 8804   5.719   4.610   5.016
 2635SOL    HW2 8805   5.758   4.503   5.133
 2636SOL     OW 8806   4.719   0.406   5.675
 2636SOL    HW1 8807   4.792   0.474   5.669
 2636SOL    HW2 8808   4.738   0.331   5.613
 2637SOL     OW 8809   5.487   6.374   3.086
 2637SOL    HW1 8810   5.540   6.315   3.024
 2637SOL    HW2 8811   5.450   6.319   3.161
 2638SOL     OW 8812   5.921   5.973   0.700
 2638SOL    HW1 8813   5.869   6.018   0.628
 2638SOL    HW2 8814   5.879   5.885   0.722
 2639SOL     OW 8815   6.079   6.612   1.164
 2639SOL    HW1 8816   6.094   6.637   1.260
 2639SOL    HW2 8817   6.153   6.647   1.108
 2640SOL     OW 8818   6.779   6.243   5.425
 2640SOL    HW1 8819   6.701   6.182   5.415
 2640SOL    HW2 8820   6.821   6.258   5.335
 2641SOL     OW 8821   5.134   3.904   6.543
 2641SOL    HW1 8822   5.046   3.882   6.584
 2641SOL    HW2 8823   5.181   3.972   6.600
 2642SOL     OW 8824   5.070   0.382   3.730
 2642SOL    HW1 8825   4.995   0.317   3.718
 2642SOL    HW2 8826   5.053   0.462   3.673
 2643SOL     OW 8827   6.902   6.825   3.200
 2643SOL    HW1 8828   6.939   6.823   3.293
 2643SOL    HW2 8829   6.922   6.914   3.158
 2644SOL     OW 8830   0.604   4.962   5.675
 2644SOL    HW1 8831   0.677   4.915   5.626
 2644SOL    HW2 8832   0.515   4.926   5.646
 2645SOL     OW 8833   5.429   6.223   5.973
 2645SOL    HW1 8834   5.526   6.205   5.988
 2645SOL    HW2 8835   5.419   6.286   5.896
 2646SOL     OW 8836   0.089   0.033   6.399
 2646SOL    HW1 8837   0.104   0.074   6.308
 2646SOL    HW2 8838   0.054   0.103   6.461
 2647SOL     OW 8839   4.200   1.844   1.176
 2647SOL    HW1 8840   4.172   1.871   1.084
 2647SOL    HW2 8841   4.119   1.824   1.231
 2648SOL     OW 8842   5.674   0.041   2.162
 2648SOL    HW1 8843   5.631   0.129   2.183
 2648SOL    HW2 8844   5.746   0.022   2.229
 2649SOL     OW 8845   3.300   1.566   6.358
 2649SOL    HW1 8846   3.232   1.543   6.427
 2649SOL    HW2 8847   3.391   1.564   6.399
 2650SOL     OW 8848   0.441   5.128   3.227
 2650SOL    HW1 8849   0.367   5.074   3.189
 2650SOL    HW2 8850   0.449   5.214   3.177
 2651SOL     OW 8851   6.998   1.615   1.871
 2651SOL    HW1 8852   0.019   1.658   1.951
 2651SOL    HW2 8853   6.991   1.516   1.887
 2652SOL     OW 8854   3.073   3.543   3.134
 2652SOL    HW1 8855   3.051   3.520   3.039
 2652SOL    HW2 8856   2.991   3.577   3.180
 2653SOL     OW 8857   5.623   6.731   6.311
 2653SOL    HW1 8858   5.673   6.682   6.239
 2653SOL    HW2 8859   5.685   6.747   6.388
 2654SOL     OW 8860   4.780   2.361   5.815
 2654SOL    HW1 8861   4.764   2.456   5.791
 2654SOL    HW2 8862   4.830   2.315   5.741
 2655SOL     OW 8863   4.400   6.053   4.336
 2655SOL    HW1 8864   4.434   6.015   4.250
 2655SOL    HW2 8865   4.471   6.110   4.377
 2656SOL     OW 8866   5.479   3.500   3.483
 2656SOL    HW1 8867   5.392   3.489   3.435
 2656SOL    HW2 8868   5.542   3.553   3.426
 2657SOL     OW 8869   2.167   4.431   6.901
 2657SOL    HW1 8870   2.183   4.429   6.999
 2657SOL    HW2 8871   2.190   4.343   6.861
 2658SOL     OW 8872   6.347   4.205   5.800
 2658SOL    HW1 8873   6.371   4.164   5.888
 2658SOL    HW2 8874   6.348   4.135   5.729
 2659SOL     OW 8875   6.840   2.576   4.609
 2659SOL    HW1 8876   6.758   2.588   4.666
 2659SOL    HW2 8877   6.842   2.648   4.540
 2660SOL     OW 8878   6.457   2.138   2.603
 2660SOL    HW1 8879   6.405   2.145   2.689
 2660SOL    HW2 8880   6.393   2.123   2.527
 2661SOL     OW 8881   3.902   5.849   1.225
 2661SOL    HW1 8882   3.980   5.911   1.217
 2661SOL    HW2 8883   3.881   5.809   1.136
 2662SOL     OW 8884   4.077   7.000   4.661
 2662SOL    HW1 8885   4.058   6.953   4.575
 2662SOL    HW2 8886   4.137   0.057   4.644
 2663SOL     OW 8887   1.936   5.007   2.220
 2663SOL    HW1 8888   2.023   5.007   2.170
 2663SOL    HW2 8889   1.923   5.095   2.265
 2664SOL     OW 8890   4.024   3.835   2.850
 2664SOL    HW1 8891   3.999   3.808   2.943
 2664SOL    HW2 8892   4.072   3.759   2.806
 2665SOL     OW 8893   3.354   1.381   5.133
 2665SOL    HW1 8894   3.453   1.367   5.141
 2665SOL    HW2 8895   3.307   1.336   5.209
 2666SOL     OW 8896   5.048   4.156   1.118
 2666SOL    HW1 8897   4.949   4.170   1.120
 2666SOL    HW2 8898   5.091   4.213   1.188
 2667SOL     OW 8899   1.832   6.185   4.793
 2667SOL    HW1 8900   1.875   6.219   4.709
 2667SOL    HW2 8901   1.800   6.092   4.778
 2668SOL     OW 8902   6.780   3.352   5.180
 2668SOL    HW1 8903   6.767   3.255   5.195
 2668SOL    HW2 8904   6.761   3.374   5.084
 2669SOL     OW 8905   4.259   5.418   5.527
 2669SOL    HW1 8906   4.357   5.414   5.507
 2669SOL    HW2 8907   4.225   5.511   5.510
 2670SOL     OW 8908   0.817   1.045   0.033
 2670SOL    HW1 8909   0.727   1.042   7.011
 2670SOL    HW2 8910   0.881   0.991   6.998
 2671SOL     OW 8911   2.541   3.467   6.429
 2671SOL    HW1 8912   2.455   3.519   6.426
 2671SOL    HW2 8913   2.617   3.530   6.446
 2672SOL     OW 8914   2.185   5.500   0.164
 2672SOL    HW1 8915   2.187   5.429   0.093
 2672SOL    HW2 8916   2.209   5.588   0.123
 2673SOL     OW 8917   4.112   2.179   2.897
 2673SOL    HW1 8918   4.015   2.155   2.890
 2673SOL    HW2 8919   4.146   2.211   2.809
 2674SOL     OW 8920   0.039   5.654   4.171
 2674SOL    HW1 8921   0.080   5.727   4.226
 2674SOL    HW2 8922   6.971   5.629   4.211
 2675SOL     OW 8923   0.479   4.668   5.466
 2675SOL    HW1 8924   0.530   4.708   5.390
 2675SOL    HW2 8925   0.429   4.741   5.514
 2676SOL     OW 8926   4.843   1.535   1.724
 2676SOL    HW1 8927   4.840   1.588   1.809
 2676SOL    HW2 8928   4.785   1.578   1.656
 2677SOL     OW 8929   1.835   4.510   1.292
 2677SOL    HW1 8930   1.861   4.415   1.305
 2677SOL    HW2 8931   1.907   4.570   1.328
 2678SOL     OW 8932   1.122   5.161   6.074
 2678SOL    HW1 8933   1.063   5.235   6.108
 2678SOL    HW2 8934   1.132   5.092   6.146
 2679SOL     OW 8935   3.110   5.181   0.745
 2679SOL    HW1 8936   3.153   5.161   0.834
 2679SOL    HW2 8937   3.090   5.095   0.698
 2680SOL     OW 8938   2.256   1.748   0.966
 2680SOL    HW1 8939   2.289   1.664   1.009
 2680SOL    HW2 8940   2.186   1.790   1.024
 2681SOL     OW 8941   1.092   2.936   4.084
 2681SOL    HW1 8942   1.112   2.888   3.999
 2681SOL    HW2 8943   1.173   2.934   4.143
 2682SOL     OW 8944   5.233   3.034   2.354
 2682SOL    HW1 8945   5.273   3.121   2.324
 2682SOL    HW2 8946   5.203   2.981   2.275
 2683SOL     OW 8947   0.688   5.668   1.211
 2683SOL    HW1 8948   0.710   5.695   1.305
 2683SOL    HW2 8949   0.772   5.664   1.157
 2684SOL     OW 8950   2.855   6.750   2.661
 2684SOL    HW1 8951   2.951   6.774   2.654
 2684SOL    HW2 8952   2.840   6.696   2.744
 2685SOL     OW 8953   4.966   6.024   4.811
 2685SOL    HW1 8954   4.889   6.003   4.871
 2685SOL    HW2 8955   4.940   6.008   4.716
 2686SOL     OW 8956   2.237   2.985   4.081
 2686SOL    HW1 8957   2.302   2.940   4.143
 2686SOL    HW2 8958   2.253   2.954   3.988
 2687SOL     OW 8959   3.786   5.178   2.364
 2687SOL    HW1 8960   3.764   5.247   2.433
 2687SOL    HW2 8961   3.877   5.142   2.381
 2688SOL     OW 8962   4.767   4.792   6.526
 2688SOL    HW1 8963   4.739   4.870   6.471
 2688SOL    HW2 8964   4.855   4.811   6.570
 2689SOL     OW 8965   0.876   2.275   3.609
 2689SOL    HW1 8966   0.791   2.223   3.613
 2689SOL    HW2 8967   0.894   2.318   3.697
 2690SOL     OW 8968   4.115   3.351   3.898
 2690SOL    HW1 8969   4.095   3.447   3.921
 2690SOL    HW2 8970   4.184   3.348   3.827
 2691SOL     OW 8971   1.687   5.592   2.138
 2691SOL    HW1 8972   1.725   5.655   2.205
 2691SOL    HW2 8973   1.595   5.565   2.167
 2692SOL     OW 8974   0.373   5.626   3.512
 2692SOL    HW1 8975   0.394   5.529   3.529
 2692SOL    HW2 8976   0.437   5.683   3.562
 2693SOL     OW 8977   2.005   3.737   3.752
 2693SOL    HW1 8978   2.080   3.795   3.718
 2693SOL    HW2 8979   1.918   3.772   3.719
 2694SOL     OW 8980   2.755   6.761   3.135
 2694SOL    HW1 8981   2.839   6.725   3.176
 2694SOL    HW2 8982   2.742   6.719   3.045
 2695SOL     OW 8983   4.875   2.180   2.398
 2695SOL    HW1 8984   4.842   2.273   2.387
 2695SOL    HW2 8985   4.930   2.174   2.481
 2696SOL     OW 8986   3.951   3.919   5.651
 2696SOL    HW1 8987   3.968   3.966   5.565
 2696SOL    HW2 8988   3.927   3.824   5.633
 2697SOL     OW 8989   3.390   1.791   3.974
 2697SOL    HW1 8990   3.333   1.815   4.052
 2697SOL    HW2 8991   3.363   1.844   3.894
 2698SOL     OW 8992   0.857   3.896   0.563
 2698SOL    HW1 8993   0.814   3.975   0.606
 2698SOL    HW2 8994   0.788   3.824   0.549
 2699SOL     OW 8995   3.739   5.589   1.694
 2699SOL    HW1 8996   3.733   5.599   1.794
 2699SOL    HW2 8997   3.787   5.504   1.672
 2700SOL     OW 8998   1.803   3.511   2.735
 2700SOL    HW1 8999   1.801   3.415   2.762
 2700SOL    HW2 9000   1.897   3.544   2.734
 2701SOL     OW 9001   3.891   0.001   6.504
 2701SOL    HW1 9002   3.852   6.931   6.519
 2701SOL    HW2 9003   3.858   0.037   6.417
 2702SOL     OW 9004   6.985   1.542   3.125
 2702SOL    HW1 9005   6.925   1.506   3.054
 2702SOL    HW2 9006   6.935   1.551   3.211
 2703SOL     OW 9007   2.311   1.778   2.693
 2703SOL    HW1 9008   2.368   1.713   2.743
 2703SOL    HW2 9009   2.306   1.751   2.596
 2704SOL     OW 9010   3.010   5.134   1.818
 2704SOL    HW1 9011   2.991   5.131   1.719
 2704SOL    HW2 9012   3.063   5.215   1.839
 2705SOL     OW 9013   6.038   6.029   3.787
 2705SOL    HW1 9014   5.982   6.074   3.856
 2705SOL    HW2 9015   5.996   5.942   3.762
 2706SOL     OW 9016   6.593   1.531   2.341
 2706SOL    HW1 9017   6.615   1.578   2.427
 2706SOL    HW2 9018   6.597   1.597   2.266
 2707SOL     OW 9019   1.789   1.903   6.767
 2707SOL    HW1 9020   1.797   1.826   6.704
 2707SOL    HW2 9021   1.754   1.872   6.855
 2708SOL     OW 9022   2.113   2.581   2.123
 2708SOL    HW1 9023   2.056   2.506   2.091
 2708SOL    HW2 9024   2.136   2.567   2.219
 2709SOL     OW 9025   5.524   5.884   0.803
 2709SOL    HW1 9026   5.515   5.971   0.851
 2709SOL    HW2 9027   5.525   5.809   0.869
 2710SOL     OW 9028   0.051   3.766   2.698
 2710SOL    HW1 9029   0.086   3.685   2.651
 2710SOL    HW2 9030   7.007   3.814   2.638
 2711SOL     OW 9031   1.102   0.535   1.930
 2711SOL    HW1 9032   1.082   0.475   1.852
 2711SOL    HW2 9033   1.200   0.542   1.943
 2712SOL     OW 9034   2.364   4.595   0.763
 2712SOL    HW1 9035   2.267   4.621   0.766
 2712SOL    HW2 9036   2.415   4.648   0.830
 2713SOL     OW 9037   2.241   3.253   5.212
 2713SOL    HW1 9038   2.309   3.180   5.204
 2713SOL    HW2 9039   2.269   3.317   5.283
 2714SOL     OW 9040   4.957   0.787   5.938
 2714SOL    HW1 9041   4.909   0.873   5.923
 2714SOL    HW2 9042   4.955   0.764   6.035
 2715SOL     OW 9043   5.796   1.447   6.595
 2715SOL    HW1 9044   5.740   1.365   6.584
 2715SOL    HW2 9045   5.865   1.432   6.666
 2716SOL     OW 9046   6.627   5.856   2.378
 2716SOL    HW1 9047   6.626   5.914   2.459
 2716SOL    HW2 9048   6.719   5.856   2.339
 2717SOL     OW 9049   0.780   6.742   2.847
 2717SOL    HW1 9050   0.828   6.763   2.932
 2717SOL    HW2 9051   0.837   6.768   2.769
 2718SOL     OW 9052   1.946   4.132   4.045
 2718SOL    HW1 9053   2.031   4.083   4.061
 2718SOL    HW2 9054   1.878   4.069   4.007
 2719SOL     OW 9055   4.337   5.361   2.301
 2719SOL    HW1 9056   4.394   5.336   2.223
 2719SOL    HW2 9057   4.379   5.438   2.350
 2720SOL     OW 9058   1.932   6.763   4.047
 2720SOL    HW1 9059   2.020   6.798   4.079
 2720SOL    HW2 9060   1.859   6.827   4.072
 2721SOL     OW 9061   2.999   0.025   4.552
 2721SOL    HW1 9062   2.942   7.013   4.476
 2721SOL    HW2 9063   3.054   0.102   4.521
 2722SOL     OW 9064   0.526   5.751   3.281
 2722SOL    HW1 9065   0.470   5.701   3.347
 2722SOL    HW2 9066   0.490   5.739   3.189
 2723SOL     OW 9067   2.077   1.213   5.642
 2723SOL    HW1 9068   2.171   1.178   5.639
 2723SOL    HW2 9069   2.027   1.179   5.563
 2724SOL     OW 9070   4.012   5.775   6.605
 2724SOL    HW1 9071   4.019   5.874   6.591
 2724SOL    HW2 9072   4.099   5.740   6.639
 2725SOL     OW 9073   4.307   4.710   3.600
 2725SOL    HW1 9074   4.214   4.693   3.631
 2725SOL    HW2 9075   4.348   4.624   3.569
 2726SOL     OW 9076   4.986   4.907   1.686
 2726SOL    HW1 9077   5.031   4.990   1.720
 2726SOL    HW2 9078   4.887   4.916   1.701
 2727SOL     OW 9079   0.946   4.846   2.561
 2727SOL    HW1 9080   0.889   4.769   2.532
 2727SOL    HW2 9081   0.974   4.899   2.480
 2728SOL     OW 9082   2.546   6.718   5.814
 2728SOL    HW1 9083   2.610   6.793   5.832
 2728SOL    HW2 9084   2.561   6.683   5.722
 2729SOL     OW 9085   5.860   4.792   3.334
 2729SOL    HW1 9086   5.952   4.763   3.306
 2729SOL    HW2 9087   5.835   4.874   3.283
 2730SOL     OW 9088   1.864   0.380   0.684
 2730SOL    HW1 9089   1.860   0.461   0.741
 2730SOL    HW2 9090   1.917   0.309   0.730
 2731SOL     OW 9091   2.922   3.801   1.887
 2731SOL    HW1 9092   3.000   3.863   1.894
 2731SOL    HW2 9093   2.954   3.709   1.865
 2732SOL     OW 9094   5.356   2.548   2.725
 2732SOL    HW1 9095   5.397   2.630   2.763
 2732SOL    HW2 9096   5.394   2.467   2.771
 2733SOL     OW 9097   0.978   6.570   5.310
 2733SOL    HW1 9098   1.009   6.605   5.399
 2733SOL    HW2 9099   1.052   6.580   5.244
 2734SOL     OW 9100   1.895   6.792   3.762
 2734SOL    HW1 9101   1.968   6.731   3.732
 2734SOL    HW2 9102   1.877   6.777   3.859
 2735SOL     OW 9103   1.332   4.913   2.298
 2735SOL    HW1 9104   1.365   4.825   2.263
 2735SOL    HW2 9105   1.410   4.968   2.327
 2736SOL     OW 9106   3.892   0.400   4.916
 2736SOL    HW1 9107   3.866   0.496   4.930
 2736SOL    HW2 9108   3.983   0.385   4.955
 2737SOL     OW 9109   4.413   4.054   6.192
 2737SOL    HW1 9110   4.510   4.031   6.182
 2737SOL    HW2 9111   4.397   4.094   6.282
 2738SOL     OW 9112   5.787   4.972   4.840
 2738SOL    HW1 9113   5.695   4.998   4.808
 2738SOL    HW2 9114   5.782   4.945   4.936
 2739SOL     OW 9115   5.353   3.525   1.460
 2739SOL    HW1 9116   5.329   3.501   1.366
 2739SOL    HW2 9117   5.287   3.592   1.495
 2740SOL     OW 9118   5.920   2.307   2.776
 2740SOL    HW1 9119   5.942   2.404   2.765
 2740SOL    HW2 9120   5.892   2.289   2.870
 2741SOL     OW 9121   0.279   2.140   5.387
 2741SOL    HW1 9122   0.317   2.159   5.477
 2741SOL    HW2 9123   0.223   2.057   5.391
 2742SOL     OW 9124   1.730   6.283   6.570
 2742SOL    HW1 9125   1.777   6.233   6.643
 2742SOL    HW2 9126   1.642   6.316   6.603
 2743SOL     OW 9127   5.286   4.829   1.373
 2743SOL    HW1 9128   5.256   4.740   1.407
 2743SOL    HW2 9129   5.366   4.818   1.314
 2744SOL     OW 9130   3.870   2.348   6.012
 2744SOL    HW1 9131   3.845   2.313   5.922
 2744SOL    HW2 9132   3.796   2.406   6.046
 2745SOL     OW 9133   2.580   6.397   1.270
 2745SOL    HW1 9134   2.488   6.361   1.255
 2745SOL    HW2 9135   2.575   6.486   1.314
 2746SOL     OW 9136   2.075   1.720   6.003
 2746SOL    HW1 9137   2.074   1.717   6.103
 2746SOL    HW2 9138   2.071   1.627   5.967
 2747SOL     OW 9139   5.180   6.590   4.108
 2747SOL    HW1 9140   5.209   6.560   4.199
 2747SOL    HW2 9141   5.260   6.612   4.052
 2748SOL     OW 9142   3.903   1.487   2.991
 2748SOL    HW1 9143   3.838   1.485   3.067
 2748SOL    HW2 9144   3.995   1.466   3.025
 2749SOL     OW 9145   4.556   4.873   4.297
 2749SOL    HW1 9146   4.579   4.969   4.314
 2749SOL    HW2 9147   4.470   4.868   4.246
 2750SOL     OW 9148   0.547   5.734   2.463
 2750SOL    HW1 9149   0.510   5.797   2.395
 2750SOL    HW2 9150   0.484   5.657   2.475
 2751SOL     OW 9151   2.013   6.740   6.453
 2751SOL    HW1 9152   2.005   6.782   6.544
 2751SOL    HW2 9153   1.926   6.698   6.428
 2752SOL     OW 9154   5.875   6.038   5.286
 2752SOL    HW1 9155   5.815   6.033   5.207
 2752SOL    HW2 9156   5.880   5.948   5.329
 2753SOL     OW 9157   4.049   6.027   6.562
 2753SOL    HW1 9158   3.972   6.091   6.566
 2753SOL    HW2 9159   4.118   6.063   6.499
 2754SOL     OW 9160   0.224   0.890   4.334
 2754SOL    HW1 9161   0.226   0.989   4.320
 2754SOL    HW2 9162   0.314   0.859   4.366
 2755SOL     OW 9163   3.092   6.301   2.268
 2755SOL    HW1 9164   3.170   6.241   2.252
 2755SOL    HW2 9165   3.010   6.246   2.283
 2756SOL     OW 9166   6.534   3.115   5.855
 2756SOL    HW1 9167   6.463   3.150   5.794
 2756SOL    HW2 9168   6.617   3.169   5.845
 2757SOL     OW 9169   4.430   2.628   6.663
 2757SOL    HW1 9170   4.494   2.702   6.687
 2757SOL    HW2 9171   4.410   2.631   6.565
 2758SOL     OW 9172   6.304   5.359   2.736
 2758SOL    HW1 9173   6.301   5.343   2.637
 2758SOL    HW2 9174   6.255   5.443   2.757
 2759SOL     OW 9175   3.111   4.540   6.580
 2759SOL    HW1 9176   3.196   4.557   6.531
 2759SOL    HW2 9177   3.086   4.620   6.634
 2760SOL     OW 9178   5.182   5.700   3.408
 2760SOL    HW1 9179   5.229   5.744   3.332
 2760SOL    HW2 9180   5.183   5.761   3.487
 2761SOL     OW 9181   1.977   3.581   2.372
 2761SOL    HW1 9182   1.917   3.546   2.444
 2761SOL    HW2 9183   1.996   3.509   2.306
 2762SOL     OW 9184   2.214   1.825   0.307
 2762SOL    HW1 9185   2.216   1.925   0.304
 2762SOL    HW2 9186   2.123   1.794   0.333
 2763SOL     OW 9187   4.731   1.538   5.292
 2763SOL    HW1 9188   4.824   1.552   5.327
 2763SOL    HW2 9189   4.728   1.455   5.237
 2764SOL     OW 9190   0.944   4.075   1.859
 2764SOL    HW1 9191   0.988   4.013   1.924
 2764SOL    HW2 9192   0.994   4.075   1.773
 2765SOL     OW 9193   6.457   6.574   6.732
 2765SOL    HW1 9194   6.541   6.597   6.781
 2765SOL    HW2 9195   6.457   6.619   6.643
 2766SOL     OW 9196   5.750   0.865   6.820
 2766SOL    HW1 9197   5.768   0.784   6.765
 2766SOL    HW2 9198   5.786   0.851   6.912
 2767SOL     OW 9199   6.849   5.058   6.533
 2767SOL    HW1 9200   6.888   4.993   6.597
 2767SOL    HW2 9201   6.921   5.091   6.471
 2768SOL     OW 9202   4.482   6.995   0.997
 2768SOL    HW1 9203   4.406   6.956   1.048
 2768SOL    HW2 9204   4.500   0.068   1.030
 2769SOL     OW 9205   1.947   4.786   5.574
 2769SOL    HW1 9206   1.941   4.886   5.579
 2769SOL    HW2 9207   2.042   4.757   5.585
 2770SOL     OW 9208   2.422   6.774   0.603
 2770SOL    HW1 9209   2.392   6.855   0.653
 2770SOL    HW2 9210   2.494   6.799   0.538
 2771SOL     OW 9211   4.455   0.284   5.005
 2771SOL    HW1 9212   4.355   0.285   5.013
 2771SOL    HW2 9213   4.480   0.307   4.911
 2772SOL     OW 9214   3.859   0.705   2.949
 2772SOL    HW1 9215   3.945   0.744   2.915
 2772SOL    HW2 9216   3.847   0.731   3.045
 2773SOL     OW 9217   5.899   2.932   4.075
 2773SOL    HW1 9218   5.953   2.993   4.016
 2773SOL    HW2 9219   5.943   2.843   4.080
 2774SOL     OW 9220   5.215   1.733   3.576
 2774SOL    HW1 9221   5.124   1.696   3.559
 2774SOL    HW2 9222   5.217   1.774   3.667
 2775SOL     OW 9223   0.802   4.421   4.503
 2775SOL    HW1 9224   0.900   4.442   4.506
 2775SOL    HW2 9225   0.776   4.370   4.585
 2776SOL     OW 9226   4.877   4.390   5.891
 2776SOL    HW1 9227   4.843   4.339   5.969
 2776SOL    HW2 9228   4.943   4.334   5.841
 2777SOL     OW 9229   3.137   2.192   6.007
 2777SOL    HW1 9230   3.198   2.119   6.037
 2777SOL    HW2 9231   3.180   2.281   6.023
 2778SOL     OW 9232   3.109   6.134   6.564
 2778SOL    HW1 9233   3.101   6.083   6.478
 2778SOL    HW2 9234   3.018   6.147   6.603
 2779SOL     OW 9235   5.940   6.878   2.027
 2779SOL    HW1 9236   5.919   6.893   2.124
 2779SOL    HW2 9237   6.033   6.842   2.018
 2780SOL     OW 9238   0.354   1.794   5.806
 2780SOL    HW1 9239   0.398   1.762   5.890
 2780SOL    HW2 9240   0.422   1.836   5.746
 2781SOL     OW 9241   6.408   0.488   2.888
 2781SOL    HW1 9242   6.483   0.553   2.905
 2781SOL    HW2 9243   6.321   0.536   2.889
 2782SOL     OW 9244   4.140   1.173   0.062
 2782SOL    HW1 9245   4.153   1.074   0.068
 2782SOL    HW2 9246   4.050   1.192   0.024
 2783SOL     OW 9247   5.529   3.981   1.669
 2783SOL    HW1 9248   5.581   3.901   1.699
 2783SOL    HW2 9249   5.522   4.046   1.745
 2784SOL     OW 9250   1.117   1.539   1.014
 2784SOL    HW1 9251   1.138   1.631   1.047
 2784SOL    HW2 9252   1.116   1.475   1.091
 2785SOL     OW 9253   5.448   2.827   1.700
 2785SOL    HW1 9254   5.472   2.773   1.619
 2785SOL    HW2 9255   5.403   2.769   1.767
 2786SOL     OW 9256   0.017   6.374   0.082
 2786SOL    HW1 9257   6.982   6.312   0.027
 2786SOL    HW2 9258   6.981   6.451   0.113
 2787SOL     OW 9259   6.303   4.782   6.444
 2787SOL    HW1 9260   6.258   4.869   6.468
 2787SOL    HW2 9261   6.399   4.799   6.423
 2788SOL     OW 9262   3.237   6.320   5.766
 2788SOL    HW1 9263   3.261   6.249   5.699
 2788SOL    HW2 9264   3.141   6.310   5.792
 2789SOL     OW 9265   0.781   2.616   5.150
 2789SOL    HW1 9266   0.774   2.682   5.075
 2789SOL    HW2 9267   0.720   2.538   5.132
 2790SOL     OW 9268   1.670   5.931   1.288
 2790SOL    HW1 9269   1.636   5.839   1.268
 2790SOL    HW2 9270   1.661   5.988   1.206
 2791SOL     OW 9271   0.082   3.959   3.458
 2791SOL    HW1 9272   7.019   3.906   3.445
 2791SOL    HW2 9273   0.159   3.911   3.415
 2792SOL     OW 9274   3.102   1.690   5.310
 2792SOL    HW1 9275   3.004   1.671   5.321
 2792SOL    HW2 9276   3.150   1.670   5.395
 2793SOL     OW 9277   3.503   4.382   1.234
 2793SOL    HW1 9278   3.451   4.389   1.149
 2793SOL    HW2 9279   3.489   4.465   1.288
 2794SOL     OW 9280   0.798   2.204   6.136
 2794SOL    HW1 9281   0.763   2.135   6.200
 2794SOL    HW2 9282   0.722   2.258   6.100
 2795SOL     OW 9283   1.159   4.641   1.565
 2795SOL    HW1 9284   1.206   4.560   1.532
 2795SOL    HW2 9285   1.072   4.615   1.606
 2796SOL     OW 9286   1.456   6.153   5.631
 2796SOL    HW1 9287   1.449   6.054   5.629
 2796SOL    HW2 9288   1.547   6.181   5.598
 2797SOL     OW 9289   5.631   6.973   3.762
 2797SOL    HW1 9290   5.604   6.940   3.853
 2797SOL    HW2 9291   5.608   0.049   3.754
 2798SOL     OW 9292   5.777   6.838   1.630
 2798SOL    HW1 9293   5.699   6.860   1.571
 2798SOL    HW2 9294   5.839   6.916   1.636
 2799SOL     OW 9295   3.695   6.124   4.976
 2799SOL    HW1 9296   3.632   6.085   5.044
 2799SOL    HW2 9297   3.722   6.053   4.911
 2800SOL     OW 9298   6.284   0.676   6.655
 2800SOL    HW1 9299   6.234   0.615   6.717
 2800SOL    HW2 9300   6.382   0.661   6.666
 2801SOL     OW 9301   0.943   5.031   5.388
 2801SOL    HW1 9302   0.920   4.976   5.469
 2801SOL    HW2 9303   0.861   5.075   5.353
 2802SOL     OW 9304   6.965   5.179   5.618
 2802SOL    HW1 9305   6.883   5.134   5.653
 2802SOL    HW2 9306   6.948   5.276   5.604
 2803SOL     OW 9307   3.783   2.947   6.846
 2803SOL    HW1 9308   3.860   2.962   6.783
 2803SOL    HW2 9309   3.706   3.006   6.819
 2804SOL     OW 9310   0.407   2.695   3.621
 2804SOL    HW1 9311   0.349   2.660   3.694
 2804SOL    HW2 9312   0.488   2.738   3.661
 2805SOL     OW 9313   4.405   3.291   1.096
 2805SOL    HW1 9314   4.409   3.195   1.124
 2805SOL    HW2 9315   4.487   3.314   1.045
 2806SOL     OW 9316   0.293   4.717   5.967
 2806SOL    HW1 9317   0.385   4.682   5.982
 2806SOL    HW2 9318   0.297   4.810   5.933
 2807SOL     OW 9319   3.171   0.344   3.374
 2807SOL    HW1 9320   3.265   0.311   3.365
 2807SOL    HW2 9321   3.170   0.444   3.370
 2808SOL     OW 9322   6.352   4.644   7.003
 2808SOL    HW1 9323   6.341   4.643   6.903
 2808SOL    HW2 9324   6.301   4.721   0.021
 2809SOL     OW 9325   6.553   4.980   2.047
 2809SOL    HW1 9326   6.578   5.063   2.096
 2809SOL    HW2 9327   6.517   4.913   2.111
 2810SOL     OW 9328   2.389   5.441   3.436
 2810SOL    HW1 9329   2.333   5.524   3.426
 2810SOL    HW2 9330   2.345   5.366   3.387
 2811SOL     OW 9331   0.688   0.589   1.930
 2811SOL    HW1 9332   0.720   0.494   1.931
 2811SOL    HW2 9333   0.764   0.650   1.952
 2812SOL     OW 9334   0.820   2.949   1.194
 2812SOL    HW1 9335   0.813   2.955   1.095
 2812SOL    HW2 9336   0.911   2.916   1.219
 2813SOL     OW 9337   0.914   2.257   1.498
 2813SOL    HW1 9338   0.936   2.354   1.494
 2813SOL    HW2 9339   0.978   2.206   1.440
 2814SOL     OW 9340   2.254   4.097   0.046
 2814SOL    HW1 9341   2.285   4.095   6.972
 2814SOL    HW2 9342   2.154   4.095   0.049
 2815SOL     OW 9343   0.457   5.815   5.499
 2815SOL    HW1 9344   0.398   5.829   5.420
 2815SOL    HW2 9345   0.504   5.900   5.521
 2816SOL     OW 9346   0.776   5.963   5.880
 2816SOL    HW1 9347   0.678   5.942   5.874
 2816SOL    HW2 9348   0.829   5.878   5.880
 2817SOL     OW 9349   4.569   0.709   2.297
 2817SOL    HW1 9350   4.502   0.760   2.244
 2817SOL    HW2 9351   4.616   0.643   2.238
 2818SOL     OW 9352   1.032   0.308   0.992
 2818SOL    HW1 9353   1.002   0.339   0.902
 2818SOL    HW2 9354   1.042   0.209   0.991
 2819SOL     OW 9355   0.786   0.595   0.315
 2819SOL    HW1 9356   0.795   0.557   0.224
 2819SOL    HW2 9357   0.721   0.671   0.313
 2820SOL     OW 9358   1.009   2.881   1.440
 2820SOL    HW1 9359   0.913   2.868   1.464
 2820SOL    HW2 9360   1.050   2.948   1.501
 2821SOL     OW 9361   3.068   4.050   6.448
 2821SOL    HW1 9362   3.099   4.133   6.494
 2821SOL    HW2 9363   3.070   3.973   6.512
 2822SOL     OW 9364   4.740   2.756   0.952
 2822SOL    HW1 9365   4.706   2.663   0.962
 2822SOL    HW2 9366   4.673   2.821   0.989
 2823SOL     OW 9367   5.694   2.126   1.310
 2823SOL    HW1 9368   5.733   2.208   1.269
 2823SOL    HW2 9369   5.599   2.116   1.280
 2824SOL     OW 9370   0.921   3.941   5.216
 2824SOL    HW1 9371   0.941   4.012   5.148
 2824SOL    HW2 9372   0.822   3.927   5.222
 2825SOL     OW 9373   5.093   1.485   6.388
 2825SOL    HW1 9374   5.049   1.516   6.472
 2825SOL    HW2 9375   5.192   1.501   6.396
 2826SOL     OW 9376   2.266   3.355   6.622
 2826SOL    HW1 9377   2.317   3.273   6.648
 2826SOL    HW2 9378   2.181   3.360   6.675
 2827SOL     OW 9379   6.623   1.035   6.116
 2827SOL    HW1 9380   6.676   1.073   6.192
 2827SOL    HW2 9381   6.535   1.083   6.110
 2828SOL     OW 9382   1.443   3.719   0.757
 2828SOL    HW1 9383   1.399   3.682   0.838
 2828SOL    HW2 9384   1.374   3.741   0.688
 2829SOL     OW 9385   4.022   3.842   3.361
 2829SOL    HW1 9386   3.931   3.881   3.376
 2829SOL    HW2 9387   4.085   3.878   3.429
 2830SOL     OW 9388   3.135   4.924   5.637
 2830SOL    HW1 9389   3.048   4.929   5.687
 2830SOL    HW2 9390   3.123   4.963   5.545
 2831SOL     OW 9391   6.220   1.681   2.081
 2831SOL    HW1 9392   6.173   1.762   2.114
 2831SOL    HW2 9393   6.280   1.706   2.004
 2832SOL     OW 9394   0.852   3.254   1.167
 2832SOL    HW1 9395   0.829   3.161   1.196
 2832SOL    HW2 9396   0.925   3.251   1.100
 2833SOL     OW 9397   1.785   2.185   2.000
 2833SOL    HW1 9398   1.726   2.195   2.080
 2833SOL    HW2 9399   1.728   2.170   1.919
 2834SOL     OW 9400   3.583   6.111   5.402
 2834SOL    HW1 9401   3.671   6.159   5.408
 2834SOL    HW2 9402   3.577   6.043   5.475
 2835SOL     OW 9403   0.638   6.767   0.446
 2835SOL    HW1 9404   0.718   6.733   0.396
 2835SOL    HW2 9405   0.653   6.863   0.472
 2836SOL     OW 9406   3.367   6.456   3.034
 2836SOL    HW1 9407   3.331   6.367   3.061
 2836SOL    HW2 9408   3.465   6.461   3.055
 2837SOL     OW 9409   5.197   4.239   2.487
 2837SOL    HW1 9410   5.258   4.304   2.532
 2837SOL    HW2 9411   5.110   4.237   2.536
 2838SOL     OW 9412   5.335   4.211   6.162
 2838SOL    HW1 9413   5.310   4.303   6.192
 2838SOL    HW2 9414   5.290   4.143   6.219
 2839SOL     OW 9415   5.851   2.888   5.109
 2839SOL    HW1 9416   5.891   2.878   5.200
 2839SOL    HW2 9417   5.904   2.835   5.043
 2840SOL     OW 9418   0.075   6.276   3.888
 2840SOL    HW1 9419   0.168   6.255   3.857
 2840SOL    HW2 9420   0.012   6.268   3.811
 2841SOL     OW 9421   6.310   2.806   2.227
 2841SOL    HW1 9422   6.313   2.879   2.296
 2841SOL    HW2 9423   6.288   2.719   2.272
 2842SOL     OW 9424   1.295   6.555   3.055
 2842SOL    HW1 9425   1.349   6.635   3.031
 2842SOL    HW2 9426   1.294   6.543   3.154
 2843SOL     OW 9427   2.313   2.840   3.303
 2843SOL    HW1 9428   2.327   2.777   3.379
 2843SOL    HW2 9429   2.348   2.799   3.219
 2844SOL     OW 9430   4.827   4.333   1.124
 2844SOL    HW1 9431   4.830   4.395   1.045
 2844SOL    HW2 9432   4.893   4.363   1.192
 2845SOL     OW 9433   3.207   1.696   2.997
 2845SOL    HW1 9434   3.164   1.718   3.085
 2845SOL    HW2 9435   3.269   1.618   3.010
 2846SOL     OW 9436   5.514   0.602   0.277
 2846SOL    HW1 9437   5.482   0.510   0.301
 2846SOL    HW2 9438   5.573   0.637   0.350
 2847SOL     OW 9439   4.634   4.832   2.448
 2847SOL    HW1 9440   4.643   4.733   2.458
 2847SOL    HW2 9441   4.637   4.875   2.538
 2848SOL     OW 9442   0.781   4.075   5.486
 2848SOL    HW1 9443   0.867   4.050   5.442
 2848SOL    HW2 9444   0.770   4.020   5.569
 2849SOL     OW 9445   4.867   0.460   2.688
 2849SOL    HW1 9446   4.829   0.435   2.777
 2849SOL    HW2 9447   4.829   0.548   2.659
 2850SOL     OW 9448   2.032   6.737   2.675
 2850SOL    HW1 9449   2.049   6.687   2.760
 2850SOL    HW2 9450   1.960   6.805   2.689
 2851SOL     OW 9451   3.803   3.581   0.729
 2851SOL    HW1 9452   3.779   3.550   0.821
 2851SOL    HW2 9453   3.898   3.611   0.727
 2852SOL     OW 9454   6.023   3.846   5.864
 2852SOL    HW1 9455   6.040   3.920   5.799
 2852SOL    HW2 9456   5.959   3.781   5.824
 2853SOL     OW 9457   0.446   3.851   6.659
 2853SOL    HW1 9458   0.394   3.886   6.581
 2853SOL    HW2 9459   0.529   3.806   6.626
 2854SOL     OW 9460   3.187   1.573   6.060
 2854SOL    HW1 9461   3.263   1.530   6.012
 2854SOL    HW2 9462   3.210   1.583   6.157
 2855SOL     OW 9463   2.093   1.341   4.933
 2855SOL    HW1 9464   2.026   1.405   4.896
 2855SOL    HW2 9465   2.046   1.274   4.991
 2856SOL     OW 9466   0.441   5.077   3.496
 2856SOL    HW1 9467   0.446   4.977   3.497
 2856SOL    HW2 9468   0.490   5.111   3.416
 2857SOL     OW 9469   0.138   3.566   0.549
 2857SOL    HW1 9470   0.171   3.472   0.534
 2857SOL    HW2 9471   0.039   3.568   0.533
 2858SOL     OW 9472   4.553   5.277   2.723
 2858SOL    HW1 9473   4.518   5.197   2.771
 2858SOL    HW2 9474   4.531   5.269   2.625
 2859SOL     OW 9475   5.026   4.550   1.444
 2859SOL    HW1 9476   4.960   4.475   1.448
 2859SOL    HW2 9477   5.017   4.599   1.357
 2860SOL     OW 9478   0.870   6.204   2.226
 2860SOL    HW1 9479   0.772   6.185   2.225
 2860SOL    HW2 9480   0.921   6.121   2.205
 2861SOL     OW 9481   4.673   5.146   0.060
 2861SOL    HW1 9482   4.582   5.111   0.037
 2861SOL    HW2 9483   4.716   5.184   6.999
 2862SOL     OW 9484   3.858   3.020   0.440
 2862SOL    HW1 9485   3.882   2.982   0.351
 2862SOL    HW2 9486   3.873   3.119   0.439
 2863SOL     OW 9487   5.705   6.959   5.352
 2863SOL    HW1 9488   5.620   6.969   5.301
 2863SOL    HW2 9489   5.716   0.015   5.415
 2864SOL     OW 9490   4.027   3.843   0.403
 2864SOL    HW1 9491   3.956   3.913   0.407
 2864SOL    HW2 9492   4.111   3.877   0.444
 2865SOL     OW 9493   4.999   5.594   4.533
 2865SOL    HW1 9494   5.052   5.511   4.512
 2865SOL    HW2 9495   5.060   5.673   4.530
 2866SOL     OW 9496   4.316   4.589   0.044
 2866SOL    HW1 9497   4.285   4.585   6.969
 2866SOL    HW2 9498   4.398   4.645   0.051
 2867SOL     OW 9499   5.485   6.071   1.701
 2867SOL    HW1 9500   5.444   6.126   1.774
 2867SOL    HW2 9501   5.456   6.106   1.612
 2868SOL     OW 9502   1.623   1.712   6.068
 2868SOL    HW1 9503   1.588   1.636   6.013
 2868SOL    HW2 9504   1.579   1.712   6.157
 2869SOL     OW 9505   5.501   5.759   4.642
 2869SOL    HW1 9506   5.581   5.749   4.701
 2869SOL    HW2 9507   5.470   5.854   4.644
 2870SOL     OW 9508   6.499   1.941   1.266
 2870SOL    HW1 9509   6.552   1.870   1.220
 2870SOL    HW2 9510   6.559   1.993   1.327
 2871SOL     OW 9511   4.893   1.741   1.402
 2871SOL    HW1 9512   4.875   1.793   1.318
 2871SOL    HW2 9513   4.877   1.800   1.481
 2872SOL     OW 9514   2.797   2.330   2.505
 2872SOL    HW1 9515   2.883   2.344   2.553
 2872SOL    HW2 9516   2.815   2.296   2.413
 2873SOL     OW 9517   0.797   6.093   1.475
 2873SOL    HW1 9518   0.877   6.032   1.477
 2873SOL    HW2 9519   0.778   6.120   1.381
 2874SOL     OW 9520   2.752   0.808   2.744
 2874SOL    HW1 9521   2.661   0.821   2.705
 2874SOL    HW2 9522   2.774   0.886   2.803
 2875SOL     OW 9523   3.273   6.671   3.203
 2875SOL    HW1 9524   3.304   6.597   3.143
 2875SOL    HW2 9525   3.173   6.676   3.200
 2876SOL     OW 9526   1.269   6.154   1.884
 2876SOL    HW1 9527   1.327   6.073   1.892
 2876SOL    HW2 9528   1.327   6.235   1.871
 2877SOL     OW 9529   1.056   1.582   6.051
 2877SOL    HW1 9530   0.984   1.636   6.008
 2877SOL    HW2 9531   1.141   1.593   6.000
 2878SOL     OW 9532   4.146   3.557   4.552
 2878SOL    HW1 9533   4.194   3.505   4.623
 2878SOL    HW2 9534   4.137   3.501   4.470
 2879SOL     OW 9535   4.583   4.114   0.254
 2879SOL    HW1 9536   4.490   4.131   0.221
 2879SOL    HW2 9537   4.596   4.016   0.268
 2880SOL     OW 9538   1.569   1.492   4.611
 2880SOL    HW1 9539   1.510   1.522   4.536
 2880SOL    HW2 9540   1.604   1.573   4.660
 2881SOL     OW 9541   4.384   6.109   6.600
 2881SOL    HW1 9542   4.327   6.093   6.681
 2881SOL    HW2 9543   4.328   6.151   6.528
 2882SOL     OW 9544   5.055   6.591   0.260
 2882SOL    HW1 9545   4.978   6.599   0.323
 2882SOL    HW2 9546   5.130   6.649   0.292
 2883SOL     OW 9547   6.323   6.128   3.880
 2883SOL    HW1 9548   6.230   6.093   3.870
 2883SOL    HW2 9549   6.321   6.226   3.898
 2884SOL     OW 9550   0.153   5.390   2.985
 2884SOL    HW1 9551   0.099   5.369   3.067
 2884SOL    HW2 9552   0.093   5.427   2.914
 2885SOL     OW 9553   0.942   2.658   3.106
 2885SOL    HW1 9554   0.964   2.587   3.040
 2885SOL    HW2 9555   0.993   2.741   3.083
 2886SOL     OW 9556   2.536   4.251   5.940
 2886SOL    HW1 9557   2.462   4.305   5.899
 2886SOL    HW2 9558   2.624   4.283   5.905
 2887SOL     OW 9559   1.241   5.710   3.412
 2887SOL    HW1 9560   1.251   5.611   3.403
 2887SOL    HW2 9561   1.325   5.749   3.450
 2888SOL     OW 9562   6.394   6.883   0.380
 2888SOL    HW1 9563   6.364   6.787   0.385
 2888SOL    HW2 9564   6.385   6.925   0.470
 2889SOL     OW 9565   3.781   6.337   3.382
 2889SOL    HW1 9566   3.867   6.383   3.358
 2889SOL    HW2 9567   3.750   6.282   3.304
 2890SOL     OW 9568   2.834   0.336   1.511
 2890SOL    HW1 9569   2.782   0.388   1.579
 2890SOL    HW2 9570   2.902   0.279   1.558
 2891SOL     OW 9571   0.456   2.552   4.237
 2891SOL    HW1 9572   0.527   2.528   4.303
 2891SOL    HW2 9573   0.399   2.624   4.274
 2892SOL     OW 9574   6.902   3.901   2.521
 2892SOL    HW1 9575   6.803   3.897   2.507
 2892SOL    HW2 9576   6.937   3.988   2.485
 2893SOL     OW 9577   0.131   5.772   4.731
 2893SOL    HW1 9578   0.154   5.838   4.659
 2893SOL    HW2 9579   0.046   5.726   4.707
 2894SOL     OW 9580   1.138   5.230   2.618
 2894SOL    HW1 9581   1.214   5.251   2.556
 2894SOL    HW2 9582   1.167   5.161   2.684
 2895SOL     OW 9583   4.009   6.627   6.103
 2895SOL    HW1 9584   3.959   6.707   6.070
 2895SOL    HW2 9585   4.106   6.650   6.111
 2896SOL     OW 9586   5.849   5.963   4.978
 2896SOL    HW1 9587   5.901   5.903   5.039
 2896SOL    HW2 9588   5.850   5.926   4.886
 2897SOL     OW 9589   3.949   4.822   3.007
 2897SOL    HW1 9590   4.022   4.757   2.987
 2897SOL    HW2 9591   3.944   4.837   3.106
 2898SOL     OW 9592   5.877   3.858   2.582
 2898SOL    HW1 9593   5.909   3.943   2.539
 2898SOL    HW2 9594   5.810   3.814   2.521
 2899SOL     OW 9595   0.173   3.320   1.058
 2899SOL    HW1 9596   0.122   3.244   1.099
 2899SOL    HW2 9597   0.112   3.370   0.996
 2900SOL     OW 9598   2.993   3.921   6.683
 2900SOL    HW1 9599   2.914   3.859   6.687
 2900SOL    HW2 9600   2.968   4.008   6.726
 2901SOL     OW 9601   1.106   3.815   3.692
 2901SOL    HW1 9602   1.114   3.895   3.751
 2901SOL    HW2 9603   1.069   3.843   3.604
 2902SOL     OW 9604   0.652   6.155   3.635
 2902SOL    HW1 9605   0.575   6.164   3.699
 2902SOL    HW2 9606   0.737   6.150   3.687
 2903SOL     OW 9607   4.789   5.715   0.811
 2903SOL    HW1 9608   4.856   5.645   0.785
 2903SOL    HW2 9609   4.828   5.775   0.880
 2904SOL     OW 9610   2.333   4.401   5.165
 2904SOL    HW1 9611   2.398   4.336   5.204
 2904SOL    HW2 9612   2.280   4.357   5.092
 2905SOL     OW 9613   0.453   4.914   1.947
 2905SOL    HW1 9614   0.363   4.905   1.906
 2905SOL    HW2 9615   0.444   4.943   2.043
 2906SOL     OW 9616   5.998   5.781   3.059
 2906SOL    HW1 9617   6.046   5.842   2.996
 2906SOL    HW2 9618   6.066   5.729   3.112
 2907SOL     OW 9619   0.495   0.856   3.337
 2907SOL    HW1 9620   0.469   0.937   3.390
 2907SOL    HW2 9621   0.423   0.836   3.270
 2908SOL     OW 9622   4.312   6.714   2.568
 2908SOL    HW1 9623   4.363   6.779   2.625
 2908SOL    HW2 9624   4.307   6.748   2.474
 2909SOL     OW 9625   0.978   5.909   2.406
 2909SOL    HW1 9626   0.963   5.882   2.311
 2909SOL    HW2 9627   0.911   5.863   2.465
 2910SOL     OW 9628   0.008   0.984   3.692
 2910SOL    HW1 9629   0.036   0.985   3.596
 2910SOL    HW2 9630   0.002   1.078   3.726
 2911SOL     OW 9631   6.688   4.145   4.445
 2911SOL    HW1 9632   6.772   4.124   4.395
 2911SOL    HW2 9633   6.640   4.220   4.398
 2912SOL     OW 9634   0.168   6.834   1.330
 2912SOL    HW1 9635   0.234   6.856   1.402
 2912SOL    HW2 9636   0.217   6.807   1.247
 2913SOL     OW 9637   2.358   6.219   1.205
 2913SOL    HW1 9638   2.350   6.185   1.112
 2913SOL    HW2 9639   2.314   6.155   1.268
 2914SOL     OW 9640   5.109   5.082   0.136
 2914SOL    HW1 9641   5.020   5.049   0.166
 2914SOL    HW2 9642   5.108   5.181   0.130
 2915SOL     OW 9643   2.773   1.035   2.888
 2915SOL    HW1 9644   2.737   1.007   2.977
 2915SOL    HW2 9645   2.737   1.125   2.864
 2916SOL     OW 9646   1.106   5.580   0.218
 2916SOL    HW1 9647   1.169   5.548   0.288
 2916SOL    HW2 9648   1.047   5.651   0.256
 2917SOL     OW 9649   2.732   6.210   4.180
 2917SOL    HW1 9650   2.750   6.231   4.084
 2917SOL    HW2 9651   2.806   6.246   4.237
 2918SOL     OW 9652   5.956   3.456   1.637
 2918SOL    HW1 9653   5.859   3.434   1.648
 2918SOL    HW2 9654   5.974   3.547   1.672
 2919SOL     OW 9655   1.449   5.276   4.051
 2919SOL    HW1 9656   1.426   5.367   4.087
 2919SOL    HW2 9657   1.452   5.280   3.951
 2920SOL     OW 9658   1.819   1.745   2.177
 2920SOL    HW1 9659   1.814   1.814   2.105
 2920SOL    HW2 9660   1.808   1.789   2.266
 2921SOL     OW 9661   0.750   0.566   5.103
 2921SOL    HW1 9662   0.751   0.479   5.053
 2921SOL    HW2 9663   0.765   0.548   5.201
 2922SOL     OW 9664   3.646   0.553   3.359
 2922SOL    HW1 9665   3.670   0.508   3.445
 2922SOL    HW2 9666   3.616   0.484   3.293
 2923SOL     OW 9667   5.922   5.506   4.659
 2923SOL    HW1 9668   5.837   5.514   4.607
 2923SOL    HW2 9669   5.975   5.428   4.624
 2924SOL     OW 9670   6.018   2.648   5.398
 2924SOL    HW1 9671   5.951   2.581   5.430
 2924SOL    HW2 9672   5.976   2.739   5.399
 2925SOL     OW 9673   4.817   0.139   6.036
 2925SOL    HW1 9674   4.866   0.146   6.123
 2925SOL    HW2 9675   4.795   0.043   6.017
 2926SOL     OW 9676   6.948   2.220   4.396
 2926SOL    HW1 9677   6.862   2.261   4.427
 2926SOL    HW2 9678   6.931   2.126   4.366
 2927SOL     OW 9679   1.229   2.337   2.053
 2927SOL    HW1 9680   1.210   2.406   1.984
 2927SOL    HW2 9681   1.304   2.368   2.112
 2928SOL     OW 9682   0.161   3.051   0.607
 2928SOL    HW1 9683   0.110   3.118   0.661
 2928SOL    HW2 9684   0.112   2.964   0.607
 2929SOL     OW 9685   2.380   2.487   5.009
 2929SOL    HW1 9686   2.377   2.389   5.027
 2929SOL    HW2 9687   2.314   2.510   4.937
 2930SOL     OW 9688   6.604   5.035   5.510
 2930SOL    HW1 9689   6.586   4.936   5.505
 2930SOL    HW2 9690   6.679   5.052   5.573
 2931SOL     OW 9691   4.867   4.035   5.664
 2931SOL    HW1 9692   4.773   4.069   5.670
 2931SOL    HW2 9693   4.868   3.950   5.610
 2932SOL     OW 9694   6.382   5.443   0.413
 2932SOL    HW1 9695   6.403   5.380   0.488
 2932SOL    HW2 9696   6.295   5.418   0.372
 2933SOL     OW 9697   1.750   0.307   1.087
 2933SOL    HW1 9698   1.720   0.337   1.177
 2933SOL    HW2 9699   1.679   0.326   1.020
 2934SOL     OW 9700   4.289   4.687   0.539
 2934SOL    HW1 9701   4.379   4.726   0.562
 2934SOL    HW2 9702   4.281   4.678   0.440
 2935SOL     OW 9703   6.871   2.411   6.023
 2935SOL    HW1 9704   6.809   2.335   6.043
 2935SOL    HW2 9705   6.954   2.377   5.980
 2936SOL     OW 9706   4.567   6.716   0.984
 2936SOL    HW1 9707   4.530   6.809   0.978
 2936SOL    HW2 9708   4.639   6.713   1.053
 2937SOL     OW 9709   4.962   5.208   2.131
 2937SOL    HW1 9710   4.921   5.258   2.054
 2937SOL    HW2 9711   4.892   5.192   2.201
 2938SOL     OW 9712   6.237   5.774   6.897
 2938SOL    HW1 9713   6.310   5.749   6.960
 2938SOL    HW2 9714   6.275   5.826   6.821
 2939SOL     OW 9715   0.109   5.842   0.788
 2939SOL    HW1 9716   0.052   5.761   0.773
 2939SOL    HW2 9717   0.070   5.920   0.741
 2940SOL     OW 9718   4.551   6.025   3.716
 2940SOL    HW1 9719   4.562   5.984   3.625
 2940SOL    HW2 9720   4.534   5.953   3.783
 2941SOL     OW 9721   1.628   3.542   4.010
 2941SOL    HW1 9722   1.541   3.507   3.976
 2941SOL    HW2 9723   1.611   3.608   4.083
 2942SOL     OW 9724   3.657   1.873   1.435
 2942SOL    HW1 9725   3.639   1.796   1.374
 2942SOL    HW2 9726   3.689   1.951   1.382
 2943SOL     OW 9727   5.869   4.207   3.561
 2943SOL    HW1 9728   5.884   4.247   3.471
 2943SOL    HW2 9729   5.930   4.250   3.627
 2944SOL     OW 9730   1.680   5.920   3.146
 2944SOL    HW1 9731   1.643   6.006   3.181
 2944SOL    HW2 9732   1.780   5.921   3.153
 2945SOL     OW 9733   5.229   4.315   1.475
 2945SOL    HW1 9734   5.245   4.219   1.500
 2945SOL    HW2 9735   5.149   4.349   1.525
 2946SOL     OW 9736   3.086   3.903   5.880
 2946SOL    HW1 9737   3.079   3.806   5.858
 2946SOL    HW2 9738   3.168   3.941   5.837
 2947SOL     OW 9739   5.679   6.731   0.546
 2947SOL    HW1 9740   5.739   6.701   0.472
 2947SOL    HW2 9741   5.687   6.830   0.557
 2948SOL     OW 9742   6.322   4.195   2.372
 2948SOL    HW1 9743   6.346   4.215   2.467
 2948SOL    HW2 9744   6.402   4.209   2.314
 2949SOL     OW 9745   1.385   6.926   0.939
 2949SOL    HW1 9746   1.403   6.832   0.909
 2949SOL    HW2 9747   1.304   6.926   0.998
 2950SOL     OW 9748   5.651   5.164   2.582
 2950SOL    HW1 9749   5.715   5.219   2.637
 2950SOL    HW2 9750   5.591   5.112   2.642
 2951SOL     OW 9751   6.199   1.873   1.728
 2951SOL    HW1 9752   6.144   1.905   1.651
 2951SOL    HW2 9753   6.153   1.796   1.772
 2952SOL     OW 9754   5.501   1.500   4.069
 2952SOL    HW1 9755   5.429   1.516   4.002
 2952SOL    HW2 9756   5.545   1.413   4.051
 2953SOL     OW 9757   1.049   5.651   4.378
 2953SOL    HW1 9758   1.049   5.714   4.456
 2953SOL    HW2 9759   0.969   5.591   4.384
 2954SOL     OW 9760   0.011   4.692   5.941
 2954SOL    HW1 9761   0.107   4.706   5.966
 2954SOL    HW2 9762   7.004   4.599   5.964
 2955SOL     OW 9763   2.189   4.956   6.827
 2955SOL    HW1 9764   2.202   4.872   6.880
 2955SOL    HW2 9765   2.110   4.944   6.766
 2956SOL     OW 9766   5.982   4.395   3.384
 2956SOL    HW1 9767   6.066   4.394   3.331
 2956SOL    HW2 9768   6.000   4.433   3.475
 2957SOL     OW 9769   2.409   5.388   1.505
 2957SOL    HW1 9770   2.326   5.409   1.452
 2957SOL    HW2 9771   2.427   5.290   1.500
 2958SOL     OW 9772   2.730   5.324   3.088
 2958SOL    HW1 9773   2.690   5.391   3.150
 2958SOL    HW2 9774   2.666   5.308   3.012
 2959SOL     OW 9775   0.035   2.797   3.326
 2959SOL    HW1 9776   0.033   2.876   3.387
 2959SOL    HW2 9777   0.052   2.714   3.380
 2960SOL     OW 9778   4.422   0.962   0.349
 2960SOL    HW1 9779   4.358   0.953   0.426
 2960SOL    HW2 9780   4.502   1.015   0.378
 2961SOL     OW 9781   5.660   3.939   2.427
 2961SOL    HW1 9782   5.594   3.875   2.388
 2961SOL    HW2 9783   5.611   4.017   2.466
 2962SOL     OW 9784   0.256   6.750   2.465
 2962SOL    HW1 9785   0.174   6.696   2.485
 2962SOL    HW2 9786   0.322   6.694   2.416
 2963SOL     OW 9787   1.868   1.231   4.743
 2963SOL    HW1 9788   1.828   1.147   4.779
 2963SOL    HW2 9789   1.941   1.209   4.679
 2964SOL     OW 9790   1.145   2.214   0.199
 2964SOL    HW1 9791   1.093   2.131   0.176
 2964SOL    HW2 9792   1.176   2.259   0.115
 2965SOL     OW 9793   1.112   0.235   4.443
 2965SOL    HW1 9794   1.190   0.179   4.469
 2965SOL    HW2 9795   1.046   0.237   4.518
 2966SOL     OW 9796   3.890   5.658   3.282
 2966SOL    HW1 9797   3.918   5.581   3.224
 2966SOL    HW2 9798   3.794   5.679   3.266
 2967SOL     OW 9799   6.335   6.908   5.536
 2967SOL    HW1 9800   6.241   6.902   5.502
 2967SOL    HW2 9801   6.355   6.828   5.593
 2968SOL     OW 9802   1.782   2.362   1.207
 2968SOL    HW1 9803   1.838   2.440   1.236
 2968SOL    HW2 9804   1.689   2.373   1.244
 2969SOL     OW 9805   5.319   3.353   4.517
 2969SOL    HW1 9806   5.314   3.253   4.511
 2969SOL    HW2 9807   5.277   3.384   4.603
 2970SOL     OW 9808   2.476   2.636   4.099
 2970SOL    HW1 9809   2.533   2.582   4.161
 2970SOL    HW2 9810   2.396   2.669   4.149
 2971SOL     OW 9811   5.372   3.024   6.328
 2971SOL    HW1 9812   5.299   2.957   6.312
 2971SOL    HW2 9813   5.337   3.116   6.310
 2972SOL     OW 9814   5.710   4.788   0.106
 2972SOL    HW1 9815   5.687   4.711   0.046
 2972SOL    HW2 9816   5.672   4.772   0.197
 2973SOL     OW 9817   4.785   0.869   2.386
 2973SOL    HW1 9818   4.711   0.802   2.388
 2973SOL    HW2 9819   4.813   0.886   2.292
 2974SOL     OW 9820   4.686   5.786   3.085
 2974SOL    HW1 9821   4.653   5.694   3.062
 2974SOL    HW2 9822   4.613   5.837   3.131
 2975SOL     OW 9823   4.805   4.206   4.347
 2975SOL    HW1 9824   4.898   4.225   4.316
 2975SOL    HW2 9825   4.741   4.211   4.270
 2976SOL     OW 9826   4.038   1.956   2.031
 2976SOL    HW1 9827   4.043   1.862   1.999
 2976SOL    HW2 9828   4.104   1.970   2.106
 2977SOL     OW 9829   1.221   0.765   1.590
 2977SOL    HW1 9830   1.124   0.754   1.570
 2977SOL    HW2 9831   1.275   0.703   1.532
 2978SOL     OW 9832   4.703   5.459   6.727
 2978SOL    HW1 9833   4.774   5.520   6.690
 2978SOL    HW2 9834   4.637   5.438   6.656
 2979SOL     OW 9835   3.512   0.901   4.121
 2979SOL    HW1 9836   3.469   0.822   4.164
 2979SOL    HW2 9837   3.609   0.905   4.146
 2980SOL     OW 9838   3.664   4.144   5.975
 2980SOL    HW1 9839   3.660   4.105   6.067
 2980SOL    HW2 9840   3.618   4.233   5.974
 2981SOL     OW 9841   1.198   1.153   1.096
 2981SOL    HW1 9842   1.177   1.202   1.180
 2981SOL    HW2 9843   1.224   1.059   1.118
 2982SOL     OW 9844   0.561   0.709   1.620
 2982SOL    HW1 9845   0.551   0.739   1.715
 2982SOL    HW2 9846   0.536   0.784   1.559
 2983SOL     OW 9847   5.619   2.790   6.167
 2983SOL    HW1 9848   5.564   2.719   6.123
 2983SOL    HW2 9849   5.581   2.810   6.257
 2984SOL     OW 9850   0.414   4.917   0.315
 2984SOL    HW1 9851   0.498   4.959   0.281
 2984SOL    HW2 9852   0.433   4.824   0.345
 2985SOL     OW 9853   0.200   6.532   4.593
 2985SOL    HW1 9854   0.271   6.557   4.527
 2985SOL    HW2 9855   0.237   6.465   4.658
 2986SOL     OW 9856   3.640   3.989   2.652
 2986SOL    HW1 9857   3.601   4.076   2.622
 2986SOL    HW2 9858   3.665   3.995   2.749
 2987SOL     OW 9859   2.112   0.799   4.274
 2987SOL    HW1 9860   2.155   0.882   4.310
 2987SOL    HW2 9861   2.016   0.798   4.302
 2988SOL     OW 9862   0.579   1.881   0.135
 2988SOL    HW1 9863   0.667   1.844   0.107
 2988SOL    HW2 9864   0.593   1.959   0.196
 2989SOL     OW 9865   5.488   3.968   4.282
 2989SOL    HW1 9866   5.468   3.887   4.337
 2989SOL    HW2 9867   5.485   4.049   4.340
 2990SOL     OW 9868   5.221   1.733   4.317
 2990SOL    HW1 9869   5.132   1.701   4.348
 2990SOL    HW2 9870   5.209   1.814   4.260
 2991SOL     OW 9871   6.593   3.970   0.760
 2991SOL    HW1 9872   6.588   4.069   0.766
 2991SOL    HW2 9873   6.504   3.933   0.735
 2992SOL     OW 9874   0.237   3.611   5.241
 2992SOL    HW1 9875   0.154   3.554   5.242
 2992SOL    HW2 9876   0.282   3.602   5.152
 2993SOL     OW 9877   1.226   4.287   6.990
 2993SOL    HW1 9878   1.179   4.227   6.926
 2993SOL    HW2 9879   1.160   4.328   0.033
 2994SOL     OW 9880   4.216   6.913   6.883
 2994SOL    HW1 9881   4.308   6.952   6.888
 2994SOL    HW2 9882   4.213   6.843   6.812
 2995SOL     OW 9883   4.982   0.472   1.181
 2995SOL    HW1 9884   4.892   0.463   1.137
 2995SOL    HW2 9885   4.993   0.566   1.214
 2996SOL     OW 9886   0.135   1.697   4.831
 2996SOL    HW1 9887   0.059   1.745   4.875
 2996SOL    HW2 9888   0.114   1.682   4.735
 2997SOL     OW 9889   5.299   0.224   3.803
 2997SOL    HW1 9890   5.230   0.290   3.773
 2997SOL    HW2 9891   5.357   0.199   3.725
 2998SOL     OW 9892   2.332   1.609   2.471
 2998SOL    HW1 9893   2.374   1.530   2.426
 2998SOL    HW2 9894   2.362   1.693   2.425
 2999SOL     OW 9895   2.586   4.542   0.617
 2999SOL    HW1 9896   2.668   4.599   0.605
 2999SOL    HW2 9897   2.526   4.584   0.685
 3000SOL     OW 9898   2.863   3.904   5.013
 3000SOL    HW1 9899   2.780   3.938   4.970
 3000SOL    HW2 9900   2.902   3.830   4.958
 3001SOL     OW 9901   6.057   0.310   5.805
 3001SOL    HW1 9902   5.990   0.328   5.877
 3001SOL    HW2 9903   6.033   0.364   5.724
 3002SOL     OW 9904   2.512   1.711   1.760
 3002SOL    HW1 9905   2.562   1.741   1.679
 3002SOL    HW2 9906   2.570   1.719   1.840
 3003SOL     OW 9907   1.472   6.482   7.010
 3003SOL    HW1 9908   1.389   6.430   0.011
 3003SOL    HW2 9909   1.460   6.576   0.020
 3004SOL     OW 9910   2.469   6.113   3.842
 3004SOL    HW1 9911   2.449   6.164   3.926
 3004SOL    HW2 9912   2.526   6.034   3.864
 3005SOL     OW 9913   0.971   2.673   5.577
 3005SOL    HW1 9914   0.929   2.615   5.507
 3005SOL    HW2 9915   1.056   2.631   5.608
 3006SOL     OW 9916   5.458   1.480   5.774
 3006SOL    HW1 9917   5.406   1.557   5.809
 3006SOL    HW2 9918   5.455   1.404   5.839
 3007SOL     OW 9919   5.243   4.311   6.665
 3007SOL    HW1 9920   5.158   4.267   6.695
 3007SOL    HW2 9921   5.225   4.407   6.646
 3008SOL     OW 9922   4.475   2.634   5.903
 3008SOL    HW1 9923   4.384   2.656   5.937
 3008SOL    HW2 9924   4.492   2.536   5.917
 3009SOL     OW 9925   0.490   3.468   2.235
 3009SOL    HW1 9926   0.563   3.534   2.216
 3009SOL    HW2 9927   0.471   3.414   2.153
 3010SOL     OW 9928   4.498   6.129   6.342
 3010SOL    HW1 9929   4.455   6.120   6.432
 3010SOL    HW2 9930   4.434   6.172   6.279
 3011SOL     OW 9931   6.808   6.836   0.777
 3011SOL    HW1 9932   6.904   6.852   0.752
 3011SOL    HW2 9933   6.754   6.917   0.755
 3012SOL     OW 9934   2.649   2.668   6.135
 3012SOL    HW1 9935   2.712   2.638   6.064
 3012SOL    HW2 9936   2.601   2.589   6.174
 3013SOL     OW 9937   0.754   5.301   5.028
 3013SOL    HW1 9938   0.853   5.312   5.031
 3013SOL    HW2 9939   0.712   5.387   4.999
 3014SOL     OW 9940   4.994   0.416   5.454
 3014SOL    HW1 9941   5.000   0.515   5.441
 3014SOL    HW2 9942   5.060   0.371   5.393
 3015SOL     OW 9943   1.347   1.129   0.176
 3015SOL    HW1 9944   1.315   1.134   0.082
 3015SOL    HW2 9945   1.383   1.217   0.205
 3016SOL     OW 9946   2.012   6.580   4.322
 3016SOL    HW1 9947   1.951   6.650   4.359
 3016SOL    HW2 9948   1.968   6.534   4.245
 3017SOL     OW 9949   7.004   5.590   0.828
 3017SOL    HW1 9950   6.967   5.582   0.920
 3017SOL    HW2 9951   0.036   5.508   0.806
 3018SOL     OW 9952   3.161   0.139   0.404
 3018SOL    HW1 9953   3.251   0.129   0.363
 3018SOL    HW2 9954   3.095   0.084   0.354
 3019SOL     OW 9955   2.085   0.633   4.765
 3019SOL    HW1 9956   2.123   0.543   4.784
 3019SOL    HW2 9957   2.024   0.629   4.686
 3020SOL     OW 9958   5.223   3.260   0.030
 3020SOL    HW1 9959   5.269   3.195   0.091
 3020SOL    HW2 9960   5.292   3.313   7.001
 3021SOL     OW 9961   3.767   6.394   4.748
 3021SOL    HW1 9962   3.819   6.382   4.832
 3021SOL    HW2 9963   3.705   6.316   4.737
 3022SOL     OW 9964   4.442   5.598   3.870
 3022SOL    HW1 9965   4.415   5.687   3.905
 3022SOL    HW2 9966   4.366   5.557   3.820
 3023SOL     OW 9967   5.026   6.504   2.876
 3023SOL    HW1 9968   5.016   6.540   2.783
 3023SOL    HW2 9969   4.987   6.569   2.941
 3024SOL     OW 9970   0.241   6.562   6.556
 3024SOL    HW1 9971   0.293   6.479   6.575
 3024SOL    HW2 9972   0.240   6.579   6.457
 3025SOL     OW 9973   3.633   6.089   0.892
 3025SOL    HW1 9974   3.562   6.026   0.859
 3025SOL    HW2 9975   3.691   6.041   0.957
 3026SOL     OW 9976   6.295   0.805   0.561
 3026SOL    HW1 9977   6.304   0.878   0.492
 3026SOL    HW2 9978   6.199   0.795   0.586
 3027SOL     OW 9979   4.534   1.386   1.383
 3027SOL    HW1 9980   4.551   1.305   1.438
 3027SOL    HW2 9981   4.559   1.368   1.288
 3028SOL     OW 9982   2.923   4.084   5.659
 3028SOL    HW1 9983   2.881   3.994   5.669
 3028SOL    HW2 9984   2.917   4.113   5.564
 3029SOL     OW 9985   0.792   2.603   4.608
 3029SOL    HW1 9986   0.734   2.610   4.689
 3029SOL    HW2 9987   0.883   2.638   4.630
 3030SOL     OW 9988   2.528   3.312   0.485
 3030SOL    HW1 9989   2.468   3.389   0.463
 3030SOL    HW2 9990   2.475   3.227   0.487
 3031SOL     OW 9991   0.884   6.415   1.546
 3031SOL    HW1 9992   0.931   6.489   1.497
 3031SOL    HW2 9993   0.948   6.340   1.561
 3032SOL     OW 9994   2.024   0.598   2.149
 3032SOL    HW1 9995   2.081   0.606   2.067
 3032SOL    HW2 9996   1.930   0.576   2.122
 3033SOL     OW 9997   6.730   2.308   4.515
 3033SOL    HW1 9998   6.647   2.313   4.460
 3033SOL    HW2 9999   6.742   2.393   4.566
 3034SOL     OW10000   6.765   5.208   3.238
 3034SOL    HW110001   6.715   5.294   3.227
 3034SOL    HW210002   6.851   5.213   3.188
 3035SOL     OW10003   1.022   2.617   6.645
 3035SOL    HW110004   0.985   2.674   6.572
 3035SOL    HW210005   1.087   2.670   6.700
 3036SOL     OW10006   3.440   2.225   6.271
 3036SOL    HW110007   3.344   2.196   6.264
 3036SOL    HW210008   3.496   2.169   6.210
 3037SOL     OW10009   0.018   5.547   0.278
 3037SOL    HW110010   6.971   5.621   0.280
 3037SOL    HW210011   6.992   5.461   0.255
 3038SOL     OW10012   5.434   4.054   6.651
 3038SOL    HW110013   5.522   4.041   6.698
 3038SOL    HW210014   5.409   4.150   6.654
 3039SOL     OW10015   6.564   3.797   6.768
 3039SOL    HW110016   6.534   3.800   6.672
 3039SOL    HW210017   6.502   3.852   6.823
 3040SOL     OW10018   5.079   3.757   5.805
 3040SOL    HW110019   5.109   3.821   5.734
 3040SOL    HW210020   5.089   3.800   5.895
 3041SOL     OW10021   2.213   4.240   4.983
 3041SOL    HW110022   2.261   4.161   5.022
 3041SOL    HW210023   2.229   4.244   4.885
 3042SOL     OW10024   7.016   5.396   3.216
 3042SOL    HW110025   0.057   5.421   3.290
 3042SOL    HW210026   6.984   5.479   3.170
 3043SOL     OW10027   3.066   4.776   0.668
 3043SOL    HW110028   3.148   4.778   0.726
 3043SOL    HW210029   3.076   4.842   0.594
 3044SOL     OW10030   3.567   3.320   5.153
 3044SOL    HW110031   3.489   3.318   5.216
 3044SOL    HW210032   3.582   3.414   5.122
 3045SOL     OW10033   5.132   1.652   2.027
 3045SOL    HW110034   5.053   1.667   1.969
 3045SOL    HW210035   5.106   1.660   2.123
 3046SOL     OW10036   5.592   5.677   1.011
 3046SOL    HW110037   5.623   5.592   0.969
 3046SOL    HW210038   5.669   5.741   1.016
 3047SOL     OW10039   6.355   0.959   5.917
 3047SOL    HW110040   6.310   0.991   5.834
 3047SOL    HW210041   6.350   1.029   5.987
 3048SOL     OW10042   3.616   4.000   0.917
 3048SOL    HW110043   3.656   3.999   0.825
 3048SOL    HW210044   3.576   3.910   0.937
 3049SOL     OW10045   1.436   0.827   4.147
 3049SOL    HW110046   1.403   0.836   4.241
 3049SOL    HW210047   1.376   0.879   4.086
 3050SOL     OW10048   2.718   2.311   1.436
 3050SOL    HW110049   2.709   2.384   1.504
 3050SOL    HW210050   2.737   2.225   1.482
 3051SOL     OW10051   2.168   5.918   5.533
 3051SOL    HW110052   2.102   5.985   5.501
 3051SOL    HW210053   2.147   5.828   5.495
 3052SOL     OW10054   6.896   6.185   2.741
 3052SOL    HW110055   6.862   6.262   2.795
 3052SOL    HW210056   6.895   6.210   2.644
 3053SOL     OW10057   1.689   4.351   0.212
 3053SOL    HW110058   1.645   4.262   0.195
 3053SOL    HW210059   1.701   4.400   0.126
 3054SOL     OW10060   5.640   1.299   2.735
 3054SOL    HW110061   5.633   1.316   2.636
 3054SOL    HW210062   5.666   1.384   2.781
 3055SOL     OW10063   6.073   5.504   6.168
 3055SOL    HW110064   6.149   5.567   6.186
 3055SOL    HW210065   6.005   5.550   6.110
 3056SOL     OW10066   4.676   1.419   5.840
 3056SOL    HW110067   4.582   1.454   5.842
 3056SOL    HW210068   4.713   1.428   5.747
 3057SOL     OW10069   5.774   4.960   3.053
 3057SOL    HW110070   5.730   5.047   3.028
 3057SOL    HW210071   5.819   4.922   2.973
 3058SOL     OW10072   0.528   4.704   6.833
 3058SOL    HW110073   0.581   4.619   6.832
 3058SOL    HW210074   0.492   4.719   6.924
 3059SOL     OW10075   2.230   2.304   4.245
 3059SOL    HW110076   2.265   2.321   4.338
 3059SOL    HW210077   2.140   2.346   4.236
 3060SOL     OW10078   5.138   5.083   5.027
 3060SOL    HW110079   5.227   5.128   5.039
 3060SOL    HW210080   5.149   5.002   4.970
 3061SOL     OW10081   4.983   5.245   5.158
 3061SOL    HW110082   5.032   5.330   5.140
 3061SOL    HW210083   5.033   5.168   5.118
 3062SOL     OW10084   4.914   4.570   1.958
 3062SOL    HW110085   4.907   4.670   1.968
 3062SOL    HW210086   4.826   4.534   1.929
 3063SOL     OW10087   0.383   4.205   1.538
 3063SOL    HW110088   0.429   4.122   1.509
 3063SOL    HW210089   0.284   4.196   1.524
 3064SOL     OW10090   4.729   1.878   6.795
 3064SOL    HW110091   4.803   1.820   6.760
 3064SOL    HW210092   4.735   1.968   6.752
 3065SOL     OW10093   6.962   1.557   6.473
 3065SOL    HW110094   6.913   1.622   6.531
 3065SOL    HW210095   6.996   1.605   6.392
 3066SOL     OW10096   5.218   6.058   5.922
 3066SOL    HW110097   5.153   6.131   5.897
 3066SOL    HW210098   5.307   6.099   5.939
 3067SOL     OW10099   1.770   2.342   5.962
 3067SOL    HW110100   1.766   2.429   6.011
 3067SOL    HW210101   1.681   2.325   5.918
 3068SOL     OW10102   0.656   0.743   0.941
 3068SOL    HW110103   0.605   0.811   0.887
 3068SOL    HW210104   0.591   0.686   0.991
 3069SOL     OW10105   4.925   0.070   2.789
 3069SOL    HW110106   4.872   0.106   2.865
 3069SOL    HW210107   4.990   0.002   2.823
 3070SOL     OW10108   2.552   0.949   1.174
 3070SOL    HW110109   2.556   0.874   1.241
 3070SOL    HW210110   2.583   0.915   1.085
 3071SOL     OW10111   6.851   3.643   3.979
 3071SOL    HW110112   6.866   3.637   4.078
 3071SOL    HW210113   6.860   3.737   3.949
 3072SOL     OW10114   1.924   6.861   6.096
 3072SOL    HW110115   2.016   6.875   6.133
 3072SOL    HW210116   1.899   6.765   6.105
 3073SOL     OW10117   6.154   5.288   0.979
 3073SOL    HW110118   6.088   5.265   1.051
 3073SOL    HW210119   6.118   5.259   0.890
 3074SOL     OW10120   2.047   3.261   0.967
 3074SOL    HW110121   2.046   3.215   1.056
 3074SOL    HW210122   2.107   3.341   0.972
 3075SOL     OW10123   2.704   5.240   2.513
 3075SOL    HW110124   2.681   5.261   2.609
 3075SOL    HW210125   2.803   5.252   2.500
 3076SOL     OW10126   0.205   0.476   4.884
 3076SOL    HW110127   0.141   0.460   4.808
 3076SOL    HW210128   0.295   0.500   4.846
 3077SOL     OW10129   6.290   3.813   2.228
 3077SOL    HW110130   6.250   3.822   2.137
 3077SOL    HW210131   6.227   3.852   2.296
 3078SOL     OW10132   6.766   2.798   1.746
 3078SOL    HW110133   6.796   2.810   1.841
 3078SOL    HW210134   6.738   2.703   1.731
 3079SOL     OW10135   2.103   3.255   5.582
 3079SOL    HW110136   2.012   3.216   5.567
 3079SOL    HW210137   2.144   3.214   5.664
 3080SOL     OW10138   4.503   5.239   0.844
 3080SOL    HW110139   4.601   5.219   0.845
 3080SOL    HW210140   4.488   5.331   0.880
 3081SOL     OW10141   1.583   4.138   0.442
 3081SOL    HW110142   1.578   4.059   0.504
 3081SOL    HW210143   1.505   4.198   0.458
 3082SOL     OW10144   4.370   5.405   4.819
 3082SOL    HW110145   4.329   5.487   4.860
 3082SOL    HW210146   4.423   5.356   4.889
 3083SOL     OW10147   2.937   5.419   2.461
 3083SOL    HW110148   2.973   5.489   2.400
 3083SOL    HW210149   2.959   5.442   2.555
 3084SOL     OW10150   0.493   3.403   3.908
 3084SOL    HW110151   0.582   3.418   3.866
 3084SOL    HW210152   0.504   3.386   4.006
 3085SOL     OW10153   5.323   4.345   0.885
 3085SOL    HW110154   5.356   4.400   0.962
 3085SOL    HW210155   5.369   4.256   0.887
 3086SOL     OW10156   5.655   0.594   6.428
 3086SOL    HW110157   5.671   0.610   6.331
 3086SOL    HW210158   5.647   0.496   6.444
 3087SOL     OW10159   3.124   0.424   2.407
 3087SOL    HW110160   3.181   0.366   2.465
 3087SOL    HW210161   3.154   0.416   2.312
 3088SOL     OW10162   1.601   2.552   5.368
 3088SOL    HW110163   1.506   2.575   5.389
 3088SOL    HW210164   1.662   2.615   5.417
 3089SOL     OW10165   4.300   6.738   4.957
 3089SOL    HW110166   4.374   6.805   4.947
 3089SOL    HW210167   4.255   6.723   4.869
 3090SOL     OW10168   1.798   1.902   2.396
 3090SOL    HW110169   1.895   1.924   2.385
 3090SOL    HW210170   1.745   1.986   2.390
 3091SOL     OW10171   0.778   2.513   0.908
 3091SOL    HW110172   0.713   2.445   0.941
 3091SOL    HW210173   0.828   2.477   0.830
 3092SOL     OW10174   6.448   0.583   2.558
 3092SOL    HW110175   6.362   0.611   2.600
 3092SOL    HW210176   6.452   0.483   2.555
 3093SOL     OW10177   4.990   4.901   6.906
 3093SOL    HW110178   5.063   4.969   6.918
 3093SOL    HW210179   4.908   4.945   6.870
 3094SOL     OW10180   2.961   1.298   6.083
 3094SOL    HW110181   2.982   1.394   6.105
 3094SOL    HW210182   2.864   1.289   6.063
 3095SOL     OW10183   1.808   3.398   4.904
 3095SOL    HW110184   1.783   3.301   4.905
 3095SOL    HW210185   1.905   3.407   4.882
 3096SOL     OW10186   0.335   3.909   4.061
 3096SOL    HW110187   0.356   3.814   4.080
 3096SOL    HW210188   0.417   3.957   4.030
 3097SOL     OW10189   5.375   2.116   6.206
 3097SOL    HW110190   5.457   2.172   6.207
 3097SOL    HW210191   5.300   2.164   6.251
 3098SOL     OW10192   2.125   2.626   2.384
 3098SOL    HW110193   2.203   2.681   2.352
 3098SOL    HW210194   2.047   2.686   2.400
 3099SOL     OW10195   0.138   6.073   4.126
 3099SOL    HW110196   0.079   6.154   4.124
 3099SOL    HW210197   0.111   6.015   4.202
 3100SOL     OW10198   6.778   5.431   2.097
 3100SOL    HW110199   6.733   5.350   2.059
 3100SOL    HW210200   6.716   5.476   2.162
 3101SOL     OW10201   4.047   6.078   5.604
 3101SOL    HW110202   4.101   6.112   5.681
 3101SOL    HW210203   4.108   6.038   5.536
 3102SOL     OW10204   0.069   4.554   0.814
 3102SOL    HW110205   7.005   4.500   0.813
 3102SOL    HW210206   0.049   4.645   0.852
 3103SOL     OW10207   3.259   0.355   1.566
 3103SOL    HW110208   3.347   0.352   1.615
 3103SOL    HW210209   3.196   0.289   1.607
 3104SOL     OW10210   4.500   0.370   6.447
 3104SOL    HW110211   4.450   0.313   6.382
 3104SOL    HW210212   4.589   0.329   6.466
 3105SOL     OW10213   5.894   3.380   0.048
 3105SOL    HW110214   5.872   3.450   0.115
 3105SOL    HW210215   5.961   3.317   0.087
 3106SOL     OW10216   6.096   7.003   5.201
 3106SOL    HW110217   6.194   7.019   5.201
 3106SOL    HW210218   6.065   6.986   5.294
 3107SOL     OW10219   3.802   1.203   5.997
 3107SOL    HW110220   3.828   1.128   5.936
 3107SOL    HW210221   3.706   1.228   5.980
 3108SOL     OW10222   1.955   4.173   3.522
 3108SOL    HW110223   1.992   4.236   3.453
 3108SOL    HW210224   2.025   4.154   3.591
 3109SOL     OW10225   6.624   6.152   3.910
 3109SOL    HW110226   6.656   6.065   3.873
 3109SOL    HW210227   6.524   6.153   3.908
 3110SOL     OW10228   1.212   4.595   3.537
 3110SOL    HW110229   1.179   4.618   3.446
 3110SOL    HW210230   1.312   4.594   3.538
 3111SOL     OW10231   6.001   4.451   4.326
 3111SOL    HW110232   6.100   4.446   4.313
 3111SOL    HW210233   5.954   4.403   4.252
 3112SOL     OW10234   3.784   2.055   6.714
 3112SOL    HW110235   3.714   2.121   6.739
 3112SOL    HW210236   3.854   2.052   6.786
 3113SOL     OW10237   2.159   5.712   3.911
 3113SOL    HW110238   2.194   5.799   3.946
 3113SOL    HW210239   2.200   5.637   3.962
 3114SOL     OW10240   4.265   0.994   6.887
 3114SOL    HW110241   4.289   1.091   6.879
 3114SOL    HW210242   4.333   0.939   6.839
 3115SOL     OW10243   4.336   4.933   5.216
 3115SOL    HW110244   4.382   4.922   5.128
 3115SOL    HW210245   4.371   5.015   5.262
 3116SOL     OW10246   0.558   1.849   1.322
 3116SOL    HW110247   0.481   1.912   1.311
 3116SOL    HW210248   0.539   1.763   1.275
 3117SOL     OW10249   5.022   1.510   5.867
 3117SOL    HW110250   4.923   1.525   5.868
 3117SOL    HW210251   5.060   1.536   5.955
 3118SOL     OW10252   1.530   1.150   3.320
 3118SOL    HW110253   1.489   1.093   3.249
 3118SOL    HW210254   1.462   1.171   3.390
 3119SOL     OW10255   4.675   4.283   5.625
 3119SOL    HW110256   4.684   4.255   5.721
 3119SOL    HW210257   4.705   4.378   5.616
 3120SOL     OW10258   2.001   6.700   4.676
 3120SOL    HW110259   2.054   6.778   4.642
 3120SOL    HW210260   1.908   6.705   4.639
 3121SOL     OW10261   4.414   1.463   4.786
 3121SOL    HW110262   4.501   1.460   4.737
 3121SOL    HW210263   4.372   1.553   4.774
 3122SOL     OW10264   3.717   5.301   5.050
 3122SOL    HW110265   3.631   5.297   4.998
 3122SOL    HW210266   3.741   5.396   5.066
 3123SOL     OW10267   2.561   1.529   3.738
 3123SOL    HW110268   2.466   1.508   3.760
 3123SOL    HW210269   2.574   1.628   3.738
 3124SOL     OW10270   5.087   6.995   3.758
 3124SOL    HW110271   5.074   7.000   3.659
 3124SOL    HW210272   5.172   0.021   3.783
 3125SOL     OW10273   1.587   2.088   5.505
 3125SOL    HW110274   1.537   2.170   5.532
 3125SOL    HW210275   1.533   2.038   5.437
 3126SOL     OW10276   5.752   4.903   4.534
 3126SOL    HW110277   5.737   4.881   4.631
 3126SOL    HW210278   5.816   4.837   4.495
 3127SOL     OW10279   6.861   1.437   4.621
 3127SOL    HW110280   6.936   1.395   4.673
 3127SOL    HW210281   6.890   1.454   4.527
 3128SOL     OW10282   4.409   0.693   0.266
 3128SOL    HW110283   4.316   0.665   0.244
 3128SOL    HW210284   4.412   0.793   0.277
 3129SOL     OW10285   4.378   3.260   0.616
 3129SOL    HW110286   4.281   3.264   0.639
 3129SOL    HW210287   4.427   3.213   0.690
 3130SOL     OW10288   0.979   4.515   1.740
 3130SOL    HW110289   0.890   4.488   1.704
 3130SOL    HW210290   0.968   4.573   1.820
 3131SOL     OW10291   6.797   4.214   2.576
 3131SOL    HW110292   6.888   4.194   2.612
 3131SOL    HW210293   6.755   4.286   2.631
 3132SOL     OW10294   4.031   4.564   6.804
 3132SOL    HW110295   4.039   4.661   6.826
 3132SOL    HW210296   3.940   4.545   6.768
 3133SOL     OW10297   3.827   0.593   3.947
 3133SOL    HW110298   3.891   0.561   3.877
 3133SOL    HW210299   3.859   0.680   3.985
 3134SOL     OW10300   4.044   5.315   2.882
 3134SOL    HW110301   3.988   5.324   2.800
 3134SOL    HW210302   4.057   5.406   2.923
 3135SOL     OW10303   4.831   6.727   6.194
 3135SOL    HW110304   4.843   6.663   6.270
 3135SOL    HW210305   4.777   6.685   6.122
 3136SOL     OW10306   6.281   1.636   3.110
 3136SOL    HW110307   6.374   1.603   3.125
 3136SOL    HW210308   6.224   1.563   3.074
 3137SOL     OW10309   6.433   6.979   6.916
 3137SOL    HW110310   6.398   6.887   6.897
 3137SOL    HW210311   6.460   6.985   7.012
 3138SOL     OW10312   5.586   5.289   4.126
 3138SOL    HW110313   5.662   5.342   4.164
 3138SOL    HW210314   5.509   5.292   4.190
 3139SOL     OW10315   2.235   5.203   0.909
 3139SOL    HW110316   2.176   5.259   0.968
 3139SOL    HW210317   2.330   5.216   0.936
 3140SOL     OW10318   0.049   6.747   6.358
 3140SOL    HW110319   0.135   6.726   6.313
 3140SOL    HW210320   0.051   6.841   6.392
 3141SOL     OW10321   6.571   2.380   6.421
 3141SOL    HW110322   6.480   2.363   6.459
 3141SOL    HW210323   6.583   2.325   6.338
 3142SOL     OW10324   5.101   0.896   2.805
 3142SOL    HW110325   5.068   0.915   2.713
 3142SOL    HW210326   5.194   0.861   2.801
 3143SOL     OW10327   6.241   1.395   0.485
 3143SOL    HW110328   6.208   1.487   0.465
 3143SOL    HW210329   6.326   1.401   0.538
 3144SOL     OW10330   4.218   3.794   6.303
 3144SOL    HW110331   4.229   3.865   6.232
 3144SOL    HW210332   4.125   3.760   6.301
 3145SOL     OW10333   0.464   6.254   1.536
 3145SOL    HW110334   0.434   6.232   1.443
 3145SOL    HW210335   0.530   6.185   1.566
 3146SOL     OW10336   0.502   0.467   4.901
 3146SOL    HW110337   0.517   0.389   4.840
 3146SOL    HW210338   0.551   0.547   4.865
 3147SOL     OW10339   4.087   4.826   6.738
 3147SOL    HW110340   4.003   4.857   6.782
 3147SOL    HW210341   4.107   4.884   6.659
 3148SOL     OW10342   7.004   5.483   2.772
 3148SOL    HW110343   6.999   5.468   2.673
 3148SOL    HW210344   6.923   5.444   2.816
 3149SOL     OW10345   3.139   1.136   0.481
 3149SOL    HW110346   3.138   1.040   0.508
 3149SOL    HW210347   3.096   1.191   0.552
 3150SOL     OW10348   6.727   6.006   4.720
 3150SOL    HW110349   6.666   6.064   4.667
 3150SOL    HW210350   6.744   6.047   4.809
 3151SOL     OW10351   6.191   1.489   5.980
 3151SOL    HW110352   6.245   1.479   6.063
 3151SOL    HW210353   6.246   1.464   5.900
 3152SOL     OW10354   1.220   2.705   6.124
 3152SOL    HW110355   1.177   2.782   6.171
 3152SOL    HW210356   1.215   2.719   6.025
 3153SOL     OW10357   6.301   4.961   1.168
 3153SOL    HW110358   6.337   4.869   1.182
 3153SOL    HW210359   6.278   4.973   1.072
 3154SOL     OW10360   4.731   1.565   0.890
 3154SOL    HW110361   4.653   1.571   0.953
 3154SOL    HW210362   4.700   1.584   0.797
 3155SOL     OW10363   0.317   4.872   1.036
 3155SOL    HW110364   0.278   4.959   1.006
 3155SOL    HW210365   0.251   4.824   1.094
 3156SOL     OW10366   3.600   4.149   1.975
 3156SOL    HW110367   3.624   4.168   1.879
 3156SOL    HW210368   3.683   4.121   2.024
 3157SOL     OW10369   0.556   1.871   5.049
 3157SOL    HW110370   0.561   1.855   5.147
 3157SOL    HW210371   0.465   1.846   5.016
 3158SOL     OW10372   2.558   1.352   5.649
 3158SOL    HW110373   2.468   1.322   5.679
 3158SOL    HW210374   2.549   1.419   5.576
 3159SOL     OW10375   6.276   6.620   0.231
 3159SOL    HW110376   6.353   6.624   0.167
 3159SOL    HW210377   6.272   6.528   0.271
 3160SOL     OW10378   2.246   0.256   5.951
 3160SOL    HW110379   2.234   0.172   5.897
 3160SOL    HW210380   2.286   0.327   5.893
 3161SOL     OW10381   2.073   3.011   3.209
 3161SOL    HW110382   2.114   2.926   3.242
 3161SOL    HW210383   2.079   3.082   3.279
 3162SOL     OW10384   1.862   5.607   0.815
 3162SOL    HW110385   1.901   5.556   0.738
 3162SOL    HW210386   1.891   5.702   0.810
 3163SOL     OW10387   4.844   3.828   0.595
 3163SOL    HW110388   4.883   3.907   0.641
 3163SOL    HW210389   4.887   3.818   0.505
 3164SOL     OW10390   2.744   5.837   3.226
 3164SOL    HW110391   2.661   5.869   3.273
 3164SOL    HW210392   2.719   5.766   3.160
 3165SOL     OW10393   0.772   6.215   0.747
 3165SOL    HW110394   0.818   6.243   0.831
 3165SOL    HW210395   0.681   6.179   0.769
 3166SOL     OW10396   4.043   0.961   5.491
 3166SOL    HW110397   3.976   0.888   5.502
 3166SOL    HW210398   4.133   0.922   5.471
 3167SOL     OW10399   5.269   3.237   0.705
 3167SOL    HW110400   5.221   3.314   0.662
 3167SOL    HW210401   5.226   3.215   0.792
 3168SOL     OW10402   4.310   1.650   0.567
 3168SOL    HW110403   4.234   1.586   0.576
 3168SOL    HW210404   4.374   1.617   0.498
 3169SOL     OW10405   1.944   4.656   2.359
 3169SOL    HW110406   1.919   4.570   2.405
 3169SOL    HW210407   1.946   4.730   2.426
 3170SOL     OW10408   3.432   5.256   3.282
 3170SOL    HW110409   3.512   5.313   3.301
 3170SOL    HW210410   3.449   5.163   3.315
 3171SOL     OW10411   5.294   2.789   3.183
 3171SOL    HW110412   5.229   2.850   3.229
 3171SOL    HW210413   5.341   2.839   3.110
 3172SOL     OW10414   0.241   4.599   0.617
 3172SOL    HW110415   0.313   4.530   0.626
 3172SOL    HW210416   0.168   4.579   0.683
 3173SOL     OW10417   3.670   1.666   0.582
 3173SOL    HW110418   3.762   1.701   0.602
 3173SOL    HW210419   3.659   1.575   0.621
 3174SOL     OW10420   2.914   3.387   5.918
 3174SOL    HW110421   2.946   3.355   5.829
 3174SOL    HW210422   2.814   3.391   5.918
 3175SOL     OW10423   6.999   0.553   3.928
 3175SOL    HW110424   6.926   0.538   3.995
 3175SOL    HW210425   0.026   0.638   3.950
 3176SOL     OW10426   1.263   4.754   4.947
 3176SOL    HW110427   1.321   4.797   5.016
 3176SOL    HW210428   1.234   4.822   4.880
 3177SOL     OW10429   5.606   3.708   3.340
 3177SOL    HW110430   5.695   3.667   3.321
 3177SOL    HW210431   5.615   3.807   3.345
 3178SOL     OW10432   6.716   0.881   1.177
 3178SOL    HW110433   6.801   0.892   1.126
 3178SOL    HW210434   6.679   0.972   1.200
 3179SOL     OW10435   1.122   1.873   1.711
 3179SOL    HW110436   1.192   1.846   1.778
 3179SOL    HW210437   1.069   1.792   1.685
 3180SOL     OW10438   6.916   5.802   0.018
 3180SOL    HW110439   7.003   5.851   0.013
 3180SOL    HW210440   6.875   5.814   0.108
 3181SOL     OW10441   0.504   1.051   4.771
 3181SOL    HW110442   0.560   1.107   4.832
 3181SOL    HW210443   0.462   1.108   4.701
 3182SOL     OW10444   2.724   0.085   0.199
 3182SOL    HW110445   2.672   0.161   0.163
 3182SOL    HW210446   2.763   0.031   0.124
 3183SOL     OW10447   4.537   4.561   2.117
 3183SOL    HW110448   4.521   4.474   2.071
 3183SOL    HW210449   4.624   4.600   2.087
 3184SOL     OW10450   0.351   2.166   4.523
 3184SOL    HW110451   0.320   2.123   4.607
 3184SOL    HW210452   0.274   2.209   4.476
 3185SOL     OW10453   0.109   5.856   6.099
 3185SOL    HW110454   0.187   5.817   6.050
 3185SOL    HW210455   0.141   5.919   6.169
 3186SOL     OW10456   0.209   1.739   6.496
 3186SOL    HW110457   0.251   1.803   6.431
 3186SOL    HW210458   0.192   1.652   6.449
 3187SOL     OW10459   4.171   5.943   2.977
 3187SOL    HW110460   4.153   6.014   2.910
 3187SOL    HW210461   4.090   5.931   3.036
 3188SOL     OW10462   2.203   4.661   5.640
 3188SOL    HW110463   2.164   4.590   5.582
 3188SOL    HW210464   2.271   4.713   5.588
 3189SOL     OW10465   2.872   1.426   6.927
 3189SOL    HW110466   2.890   1.508   6.873
 3189SOL    HW210467   2.811   1.449   7.003
 3190SOL     OW10468   6.926   5.963   4.514
 3190SOL    HW110469   6.850   5.983   4.576
 3190SOL    HW210470   6.890   5.926   4.428
 3191SOL     OW10471   4.648   5.497   1.869
 3191SOL    HW110472   4.662   5.552   1.787
 3191SOL    HW210473   4.693   5.540   1.947
 3192SOL     OW10474   6.263   2.180   2.394
 3192SOL    HW110475   6.174   2.200   2.435
 3192SOL    HW210476   6.250   2.148   2.300
 3193SOL     OW10477   3.620   0.208   5.369
 3193SOL    HW110478   3.564   0.268   5.312
 3193SOL    HW210479   3.593   0.218   5.464
 3194SOL     OW10480   0.994   1.433   5.697
 3194SOL    HW110481   1.092   1.420   5.710
 3194SOL    HW210482   0.962   1.376   5.621
 3195SOL     OW10483   0.017   1.579   1.596
 3195SOL    HW110484   0.109   1.560   1.562
 3195SOL    HW210485   0.023   1.620   1.687
 3196SOL     OW10486   6.241   0.222   4.585
 3196SOL    HW110487   6.184   0.302   4.569
 3196SOL    HW210488   6.189   0.153   4.636
 3197SOL     OW10489   2.148   0.588   6.284
 3197SOL    HW110490   2.226   0.638   6.321
 3197SOL    HW210491   2.068   0.603   6.344
 3198SOL     OW10492   6.525   2.396   3.881
 3198SOL    HW110493   6.472   2.337   3.942
 3198SOL    HW210494   6.479   2.403   3.793
 3199SOL     OW10495   5.380   4.167   3.157
 3199SOL    HW110496   5.440   4.236   3.197
 3199SOL    HW210497   5.291   4.171   3.202
 3200SOL     OW10498   5.551   3.246   4.002
 3200SOL    HW110499   5.465   3.295   4.017
 3200SOL    HW210500   5.546   3.195   3.917
 3201SOL     OW10501   5.950   4.242   2.594
 3201SOL    HW110502   5.915   4.185   2.519
 3201SOL    HW210503   5.890   4.232   2.673
 3202SOL     OW10504   1.150   5.255   0.654
 3202SOL    HW110505   1.155   5.170   0.705
 3202SOL    HW210506   1.182   5.240   0.560
 3203SOL     OW10507   4.358   6.001   1.130
 3203SOL    HW110508   4.428   6.033   1.065
 3203SOL    HW210509   4.400   5.947   1.202
 3204SOL     OW10510   2.399   1.085   3.496
 3204SOL    HW110511   2.444   1.143   3.564
 3204SOL    HW210512   2.379   1.139   3.415
 3205SOL     OW10513   5.439   2.855   5.629
 3205SOL    HW110514   5.470   2.852   5.534
 3205SOL    HW210515   5.464   2.770   5.676
 3206SOL     OW10516   2.910   2.855   1.726
 3206SOL    HW110517   2.910   2.945   1.769
 3206SOL    HW210518   2.816   2.831   1.699
 3207SOL     OW10519   1.067   6.954   5.023
 3207SOL    HW110520   1.024   6.897   5.093
 3207SOL    HW210521   1.069   6.905   4.936
 3208SOL     OW10522   6.139   6.148   5.552
 3208SOL    HW110523   6.193   6.075   5.510
 3208SOL    HW210524   6.043   6.136   5.529
 3209SOL     OW10525   5.095   5.850   6.046
 3209SOL    HW110526   5.083   5.858   6.144
 3209SOL    HW210527   5.137   5.933   6.010
 3210SOL     OW10528   6.725   4.863   1.253
 3210SOL    HW110529   6.720   4.943   1.312
 3210SOL    HW210530   6.709   4.781   1.307
 3211SOL     OW10531   1.218   6.003   0.093
 3211SOL    HW110532   1.249   6.071   0.027
 3211SOL    HW210533   1.294   5.976   0.152
 3212SOL     OW10534   2.649   6.889   2.544
 3212SOL    HW110535   2.607   6.952   2.609
 3212SOL    HW210536   2.720   6.835   2.589
 3213SOL     OW10537   1.316   0.964   6.132
 3213SOL    HW110538   1.370   0.961   6.047
 3213SOL    HW210539   1.241   1.030   6.121
 3214SOL     OW10540   3.622   1.313   3.060
 3214SOL    HW110541   3.672   1.228   3.042
 3214SOL    HW210542   3.627   1.372   2.980
 3215SOL     OW10543   1.612   2.741   0.756
 3215SOL    HW110544   1.691   2.681   0.763
 3215SOL    HW210545   1.583   2.748   0.660
 3216SOL     OW10546   5.595   4.062   0.703
 3216SOL    HW110547   5.553   4.094   0.618
 3216SOL    HW210548   5.530   4.072   0.778
 3217SOL     OW10549   0.688   4.817   2.920
 3217SOL    HW110550   0.651   4.884   2.984
 3217SOL    HW210551   0.780   4.790   2.948
 3218SOL     OW10552   6.777   2.114   2.922
 3218SOL    HW110553   6.870   2.078   2.922
 3218SOL    HW210554   6.720   2.062   2.859
 3219SOL     OW10555   6.218   0.486   5.463
 3219SOL    HW110556   6.283   0.554   5.429
 3219SOL    HW210557   6.164   0.527   5.538
 3220SOL     OW10558   6.718   5.143   0.071
 3220SOL    HW110559   6.808   5.112   0.041
 3220SOL    HW210560   6.679   5.204   0.003
 3221SOL     OW10561   4.282   6.979   1.783
 3221SOL    HW110562   4.316   6.996   1.876
 3221SOL    HW210563   4.335   0.013   1.719
 3222SOL     OW10564   2.658   1.268   2.472
 3222SOL    HW110565   2.671   1.365   2.496
 3222SOL    HW210566   2.738   1.235   2.422
 3223SOL     OW10567   1.398   6.606   1.152
 3223SOL    HW110568   1.470   6.643   1.094
 3223SOL    HW210569   1.438   6.548   1.223
 3224SOL     OW10570   4.548   2.360   4.599
 3224SOL    HW110571   4.634   2.315   4.625
 3224SOL    HW210572   4.508   2.405   4.679
 3225SOL     OW10573   4.367   0.320   4.237
 3225SOL    HW110574   4.282   0.268   4.233
 3225SOL    HW210575   4.395   0.346   4.144
 3226SOL     OW10576   0.398   0.417   1.946
 3226SOL    HW110577   0.348   0.486   1.893
 3226SOL    HW210578   0.404   0.446   2.041
 3227SOL     OW10579   4.463   2.637   5.554
 3227SOL    HW110580   4.536   2.622   5.486
 3227SOL    HW210581   4.454   2.555   5.610
 3228SOL     OW10582   0.941   4.338   0.409
 3228SOL    HW110583   1.009   4.265   0.413
 3228SOL    HW210584   0.851   4.300   0.385
 3229SOL     OW10585   2.128   1.849   6.687
 3229SOL    HW110586   2.067   1.791   6.741
 3229SOL    HW210587   2.213   1.863   6.737
 3230SOL     OW10588   2.422   5.874   5.827
 3230SOL    HW110589   2.440   5.971   5.844
 3230SOL    HW210590   2.455   5.851   5.735
 3231SOL     OW10591   2.659   1.242   2.102
 3231SOL    HW110592   2.580   1.181   2.115
 3231SOL    HW210593   2.645   1.298   2.020
 3232SOL     OW10594   4.142   5.968   4.211
 3232SOL    HW110595   4.169   6.040   4.276
 3232SOL    HW210596   4.056   5.993   4.167
 3233SOL     OW10597   1.016   2.030   0.040
 3233SOL    HW110598   1.005   1.931   0.033
 3233SOL    HW210599   0.981   2.074   6.977
 3234SOL     OW10600   2.671   3.084   0.625
 3234SOL    HW110601   2.770   3.082   0.612
 3234SOL    HW210602   2.629   3.134   0.550
 3235SOL     OW10603   6.704   6.568   2.248
 3235SOL    HW110604   6.614   6.597   2.215
 3235SOL    HW210605   6.698   6.474   2.283
 3236SOL     OW10606   2.979   4.306   0.404
 3236SOL    HW110607   2.987   4.234   0.335
 3236SOL    HW210608   2.882   4.323   0.422
 3237SOL     OW10609   6.147   1.174   5.439
 3237SOL    HW110610   6.178   1.265   5.467
 3237SOL    HW210611   6.066   1.149   5.491
 3238SOL     OW10612   6.321   5.485   1.096
 3238SOL    HW110613   6.420   5.475   1.103
 3238SOL    HW210614   6.279   5.397   1.075
 3239SOL     OW10615   0.102   0.320   3.905
 3239SOL    HW110616   0.193   0.335   3.866
 3239SOL    HW210617   0.041   0.395   3.879
 3240SOL     OW10618   0.703   0.969   6.165
 3240SOL    HW110619   0.745   0.944   6.252
 3240SOL    HW210620   0.671   0.887   6.118
 3241SOL     OW10621   5.436   1.665   6.607
 3241SOL    HW110622   5.526   1.705   6.589
 3241SOL    HW210623   5.447   1.572   6.641
 3242SOL     OW10624   5.037   4.225   5.466
 3242SOL    HW110625   4.968   4.182   5.524
 3242SOL    HW210626   5.009   4.318   5.443
 3243SOL     OW10627   4.561   5.383   5.795
 3243SOL    HW110628   4.578   5.300   5.847
 3243SOL    HW210629   4.624   5.388   5.718
 3244SOL     OW10630   5.911   6.417   6.722
 3244SOL    HW110631   5.915   6.490   6.791
 3244SOL    HW210632   5.963   6.444   6.642
 3245SOL     OW10633   4.188   1.478   3.874
 3245SOL    HW110634   4.165   1.407   3.807
 3245SOL    HW210635   4.127   1.556   3.861
 3246SOL     OW10636   0.711   0.357   2.114
 3246SOL    HW110637   0.705   0.272   2.167
 3246SOL    HW210638   0.693   0.435   2.174
 3247SOL     OW10639   0.491   4.032   2.737
 3247SOL    HW110640   0.584   4.015   2.703
 3247SOL    HW210641   0.487   4.008   2.834
 3248SOL     OW10642   5.664   2.047   3.215
 3248SOL    HW110643   5.691   2.012   3.124
 3248SOL    HW210644   5.695   2.141   3.225
 3249SOL     OW10645   3.581   3.774   3.404
 3249SOL    HW110646   3.619   3.740   3.318
 3249SOL    HW210647   3.640   3.845   3.442
 3250SOL     OW10648   5.209   6.226   2.418
 3250SOL    HW110649   5.131   6.228   2.480
 3250SOL    HW210650   5.223   6.133   2.384
 3251SOL     OW10651   2.484   1.163   4.366
 3251SOL    HW110652   2.553   1.151   4.438
 3251SOL    HW210653   2.507   1.244   4.311
 3252SOL     OW10654   2.718   1.673   4.202
 3252SOL    HW110655   2.702   1.730   4.282
 3252SOL    HW210656   2.631   1.651   4.158
 3253SOL     OW10657   6.404   2.992   0.870
 3253SOL    HW110658   6.466   3.061   0.835
 3253SOL    HW210659   6.455   2.923   0.922
 3254SOL     OW10660   5.826   0.825   0.675
 3254SOL    HW110661   5.895   0.770   0.628
 3254SOL    HW210662   5.867   0.868   0.756
 3255SOL     OW10663   5.953   4.810   1.348
 3255SOL    HW110664   5.861   4.849   1.352
 3255SOL    HW210665   6.015   4.867   1.402
 3256SOL     OW10666   4.615   2.466   1.199
 3256SOL    HW110667   4.539   2.531   1.211
 3256SOL    HW210668   4.636   2.457   1.102
 3257SOL     OW10669   2.409   2.173   2.736
 3257SOL    HW110670   2.487   2.111   2.751
 3257SOL    HW210671   2.337   2.152   2.803
 3258SOL     OW10672   2.444   5.716   3.771
 3258SOL    HW110673   2.466   5.796   3.828
 3258SOL    HW210674   2.361   5.734   3.719
 3259SOL     OW10675   5.089   4.162   4.640
 3259SOL    HW110676   4.997   4.122   4.640
 3259SOL    HW210677   5.155   4.092   4.615
 3260SOL     OW10678   2.290   4.498   1.750
 3260SOL    HW110679   2.378   4.464   1.784
 3260SOL    HW210680   2.229   4.516   1.828
 3261SOL     OW10681   4.591   0.676   3.148
 3261SOL    HW110682   4.533   0.598   3.168
 3261SOL    HW210683   4.634   0.709   3.232
 3262SOL     OW10684   3.845   1.991   2.657
 3262SOL    HW110685   3.762   1.941   2.629
 3262SOL    HW210686   3.878   2.046   2.580
 3263SOL     OW10687   1.888   1.522   2.921
 3263SOL    HW110688   1.957   1.550   2.854
 3263SOL    HW210689   1.830   1.600   2.944
 3264SOL     OW10690   2.386   5.323   0.226
 3264SOL    HW110691   2.434   5.345   0.142
 3264SOL    HW210692   2.300   5.373   0.230
 3265SOL     OW10693   5.872   5.222   5.821
 3265SOL    HW110694   5.868   5.315   5.784
 3265SOL    HW210695   5.794   5.208   5.883
 3266SOL     OW10696   3.068   4.993   0.506
 3266SOL    HW110697   3.081   4.929   0.431
 3266SOL    HW210698   2.988   5.051   0.488
 3267SOL     OW10699   4.108   0.095   0.813
 3267SOL    HW110700   4.147   0.127   0.900
 3267SOL    HW210701   4.176   0.041   0.764
 3268SOL     OW10702   6.651   4.582   1.662
 3268SOL    HW110703   6.736   4.570   1.713
 3268SOL    HW210704   6.586   4.636   1.715
 3269SOL     OW10705   1.079   4.998   2.394
 3269SOL    HW110706   1.164   4.965   2.353
 3269SOL    HW210707   1.084   5.097   2.406
 3270SOL     OW10708   0.828   2.529   5.395
 3270SOL    HW110709   0.819   2.576   5.308
 3270SOL    HW210710   0.745   2.475   5.412
 3271SOL     OW10711   0.192   3.606   2.206
 3271SOL    HW110712   0.262   3.535   2.214
 3271SOL    HW210713   0.198   3.649   2.116
 3272SOL     OW10714   4.424   6.242   0.377
 3272SOL    HW110715   4.479   6.233   0.460
 3272SOL    HW210716   4.480   6.282   0.304
 3273SOL     OW10717   4.667   3.658   6.234
 3273SOL    HW110718   4.619   3.646   6.147
 3273SOL    HW210719   4.765   3.672   6.218
 3274SOL     OW10720   5.890   0.969   0.061
 3274SOL    HW110721   5.907   0.928   0.150
 3274SOL    HW210722   5.822   1.041   0.070
 3275SOL     OW10723   4.434   0.345   1.075
 3275SOL    HW110724   4.430   0.426   1.134
 3275SOL    HW210725   4.368   0.355   1.000
 3276SOL     OW10726   4.862   0.115   0.288
 3276SOL    HW110727   4.868   0.069   0.376
 3276SOL    HW210728   4.767   0.140   0.270
 3277SOL     OW10729   3.118   1.568   1.753
 3277SOL    HW110730   3.160   1.659   1.751
 3277SOL    HW210731   3.018   1.578   1.756
 3278SOL     OW10732   0.014   0.631   6.862
 3278SOL    HW110733   7.016   0.724   6.828
 3278SOL    HW210734   0.035   0.635   6.960
 3279SOL     OW10735   4.366   6.231   0.858
 3279SOL    HW110736   4.285   6.206   0.910
 3279SOL    HW210737   4.350   6.317   0.808
 3280SOL     OW10738   5.473   3.719   4.414
 3280SOL    HW110739   5.416   3.715   4.496
 3280SOL    HW210740   5.456   3.639   4.357
 3281SOL     OW10741   6.842   4.308   2.011
 3281SOL    HW110742   6.856   4.210   1.998
 3281SOL    HW210743   6.886   4.338   2.096
 3282SOL     OW10744   0.476   3.911   5.084
 3282SOL    HW110745   0.548   3.883   5.146
 3282SOL    HW210746   0.500   3.885   4.990
 3283SOL     OW10747   3.590   0.973   1.355
 3283SOL    HW110748   3.566   0.981   1.258
 3283SOL    HW210749   3.570   0.880   1.386
 3284SOL     OW10750   1.727   5.947   4.732
 3284SOL    HW110751   1.740   5.848   4.735
 3284SOL    HW210752   1.660   5.970   4.661
 3285SOL     OW10753   5.843   0.942   4.325
 3285SOL    HW110754   5.795   1.027   4.305
 3285SOL    HW210755   5.814   0.908   4.415
 3286SOL     OW10756   3.105   1.951   1.567
 3286SOL    HW110757   3.158   2.016   1.621
 3286SOL    HW210758   3.161   1.917   1.492
 3287SOL     OW10759   1.690   0.533   6.118
 3287SOL    HW110760   1.714   0.624   6.085
 3287SOL    HW210761   1.664   0.538   6.215
 3288SOL     OW10762   1.636   6.289   0.850
 3288SOL    HW110763   1.542   6.267   0.877
 3288SOL    HW210764   1.666   6.371   0.900
 3289SOL     OW10765   3.563   1.570   6.486
 3289SOL    HW110766   3.644   1.521   6.518
 3289SOL    HW210767   3.592   1.653   6.436
 3290SOL     OW10768   6.755   5.153   0.571
 3290SOL    HW110769   6.781   5.073   0.517
 3290SOL    HW210770   6.837   5.197   0.607
 3291SOL     OW10771   4.466   6.946   5.497
 3291SOL    HW110772   4.522   0.008   5.489
 3291SOL    HW210773   4.371   6.971   5.513
 3292SOL     OW10774   0.345   1.607   0.975
 3292SOL    HW110775   0.425   1.554   1.002
 3292SOL    HW210776   0.266   1.580   1.031
 3293SOL     OW10777   6.539   5.291   3.041
 3293SOL    HW110778   6.470   5.317   3.108
 3293SOL    HW210779   6.535   5.192   3.026
 3294SOL     OW10780   5.326   2.143   5.691
 3294SOL    HW110781   5.280   2.227   5.719
 3294SOL    HW210782   5.367   2.099   5.771
 3295SOL     OW10783   2.043   2.957   0.928
 3295SOL    HW110784   1.959   3.012   0.925
 3295SOL    HW210785   2.029   2.872   0.878
 3296SOL     OW10786   0.367   0.446   5.925
 3296SOL    HW110787   0.341   0.539   5.900
 3296SOL    HW210788   0.332   0.382   5.856
 3297SOL     OW10789   3.045   1.928   5.182
 3297SOL    HW110790   3.060   1.834   5.213
 3297SOL    HW210791   3.133   1.967   5.154
 3298SOL     OW10792   6.311   4.080   4.642
 3298SOL    HW110793   6.245   4.030   4.586
 3298SOL    HW210794   6.401   4.036   4.634
 3299SOL     OW10795   3.577   4.893   3.727
 3299SOL    HW110796   3.656   4.880   3.787
 3299SOL    HW210797   3.495   4.907   3.782
 3300SOL     OW10798   2.019   0.108   5.322
 3300SOL    HW110799   1.983   0.200   5.303
 3300SOL    HW210800   2.058   0.107   5.413
 3301SOL     OW10801   1.766   3.223   2.526
 3301SOL    HW110802   1.769   3.239   2.625
 3301SOL    HW210803   1.856   3.191   2.495
 3302SOL     OW10804   2.355   4.821   5.494
 3302SOL    HW110805   2.360   4.790   5.399
 3302SOL    HW210806   2.442   4.805   5.539
 3303SOL     OW10807   3.414   3.034   0.894
 3303SOL    HW110808   3.386   2.997   0.805
 3303SOL    HW210809   3.424   2.960   0.959
 3304SOL     OW10810   2.535   4.597   5.858
 3304SOL    HW110811   2.558   4.642   5.772
 3304SOL    HW210812   2.459   4.535   5.844
 3305SOL     OW10813   3.513   0.728   1.416
 3305SOL    HW110814   3.513   0.674   1.331
 3305SOL    HW210815   3.419   0.752   1.439
 3306SOL     OW10816   1.388   0.344   0.072
 3306SOL    HW110817   1.393   0.430   0.123
 3306SOL    HW210818   1.353   0.272   0.132
 3307SOL     OW10819   1.075   6.832   4.790
 3307SOL    HW110820   1.158   6.829   4.734
 3307SOL    HW210821   1.050   6.740   4.818
 3308SOL     OW10822   3.836   4.345   0.964
 3308SOL    HW110823   3.784   4.290   1.029
 3308SOL    HW210824   3.932   4.349   0.992
 3309SOL     OW10825   4.989   4.216   4.064
 3309SOL    HW110826   5.033   4.127   4.074
 3309SOL    HW210827   5.023   4.261   3.981
 3310SOL     OW10828   0.718   5.339   4.694
 3310SOL    HW110829   0.660   5.341   4.612
 3310SOL    HW210830   0.661   5.348   4.775
 3311SOL     OW10831   3.047   3.588   0.547
 3311SOL    HW110832   3.018   3.500   0.583
 3311SOL    HW210833   3.124   3.574   0.484
 3312SOL     OW10834   4.901   2.802   6.283
 3312SOL    HW110835   4.890   2.706   6.258
 3312SOL    HW210836   4.838   2.858   6.229
 3313SOL     OW10837   0.960   0.454   2.899
 3313SOL    HW110838   0.873   0.451   2.850
 3313SOL    HW210839   0.964   0.536   2.956
 3314SOL     OW10840   2.318   6.648   3.133
 3314SOL    HW110841   2.282   6.738   3.109
 3314SOL    HW210842   2.382   6.618   3.063
 3315SOL     OW10843   0.474   5.436   5.281
 3315SOL    HW110844   0.435   5.358   5.231
 3315SOL    HW210845   0.570   5.446   5.256
 3316SOL     OW10846   2.583   1.188   6.375
 3316SOL    HW110847   2.573   1.237   6.462
 3316SOL    HW210848   2.493   1.164   6.339
 3317SOL     OW10849   5.203   2.539   2.007
 3317SOL    HW110850   5.106   2.543   2.031
 3317SOL    HW210851   5.229   2.445   1.985
 3318SOL     OW10852   3.243   2.662   0.203
 3318SOL    HW110853   3.190   2.739   0.168
 3318SOL    HW210854   3.331   2.695   0.238
 3319SOL     OW10855   6.538   6.654   2.767
 3319SOL    HW110856   6.508   6.587   2.835
 3319SOL    HW210857   6.632   6.681   2.786
 3320SOL     OW10858   6.311   0.171   0.800
 3320SOL    HW110859   6.219   0.208   0.791
 3320SOL    HW210860   6.378   0.246   0.792
 3321SOL     OW10861   5.428   1.896   0.207
 3321SOL    HW110862   5.373   1.979   0.219
 3321SOL    HW210863   5.432   1.845   0.292
 3322SOL     OW10864   6.602   3.154   0.741
 3322SOL    HW110865   6.682   3.113   0.697
 3322SOL    HW210866   6.546   3.201   0.673
 3323SOL     OW10867   2.688   1.784   1.965
 3323SOL    HW110868   2.722   1.876   1.949
 3323SOL    HW210869   2.757   1.730   2.013
 3324SOL     OW10870   5.004   5.431   5.881
 3324SOL    HW110871   5.059   5.472   5.954
 3324SOL    HW210872   4.933   5.494   5.853
 3325SOL     OW10873   1.326   3.245   6.429
 3325SOL    HW110874   1.370   3.321   6.477
 3325SOL    HW210875   1.230   3.266   6.415
 3326SOL     OW10876   5.434   1.135   3.092
 3326SOL    HW110877   5.348   1.180   3.068
 3326SOL    HW210878   5.423   1.090   3.181
 3327SOL     OW10879   1.015   5.928   1.480
 3327SOL    HW110880   1.054   5.906   1.390
 3327SOL    HW210881   1.089   5.945   1.545
 3328SOL     OW10882   3.221   1.554   1.041
 3328SOL    HW110883   3.166   1.628   1.080
 3328SOL    HW210884   3.265   1.587   0.957
 3329SOL     OW10885   6.371   5.649   5.501
 3329SOL    HW110886   6.351   5.663   5.404
 3329SOL    HW210887   6.461   5.607   5.511
 3330SOL     OW10888   6.532   2.630   2.146
 3330SOL    HW110889   6.440   2.594   2.165
 3330SOL    HW210890   6.558   2.695   2.218
 3331SOL     OW10891   1.532   2.109   1.405
 3331SOL    HW110892   1.503   2.197   1.365
 3331SOL    HW210893   1.466   2.082   1.475
 3332SOL     OW10894   5.711   4.518   0.363
 3332SOL    HW110895   5.744   4.457   0.435
 3332SOL    HW210896   5.637   4.473   0.313
 3333SOL     OW10897   4.406   5.047   6.071
 3333SOL    HW110898   4.417   4.999   6.158
 3333SOL    HW210899   4.310   5.071   6.058
 3334SOL     OW10900   3.499   3.472   1.445
 3334SOL    HW110901   3.578   3.415   1.470
 3334SOL    HW210902   3.516   3.566   1.472
 3335SOL     OW10903   4.889   5.049   5.696
 3335SOL    HW110904   4.935   5.072   5.782
 3335SOL    HW210905   4.956   5.043   5.622
 3336SOL     OW10906   3.269   5.392   6.092
 3336SOL    HW110907   3.176   5.356   6.098
 3336SOL    HW210908   3.281   5.439   6.004
 3337SOL     OW10909   3.452   2.475   1.487
 3337SOL    HW110910   3.527   2.431   1.436
 3337SOL    HW210911   3.488   2.515   1.571
 3338SOL     OW10912   0.154   4.023   1.594
 3338SOL    HW110913   0.126   4.034   1.499
 3338SOL    HW210914   0.239   3.969   1.598
 3339SOL     OW10915   6.461   6.107   6.764
 3339SOL    HW110916   6.401   6.031   6.739
 3339SOL    HW210917   6.519   6.080   6.841
 3340SOL     OW10918   3.276   6.345   2.462
 3340SOL    HW110919   3.193   6.352   2.406
 3340SOL    HW210920   3.287   6.430   2.514
 3341SOL     OW10921   0.897   0.151   2.629
 3341SOL    HW110922   0.903   0.240   2.583
 3341SOL    HW210923   0.984   0.131   2.673
 3342SOL     OW10924   1.844   6.798   4.337
 3342SOL    HW110925   1.764   6.741   4.357
 3342SOL    HW210926   1.819   6.870   4.273
 3343SOL     OW10927   5.040   2.827   0.931
 3343SOL    HW110928   5.030   2.912   0.879
 3343SOL    HW210929   4.952   2.801   0.971
 3344SOL     OW10930   5.666   3.784   5.193
 3344SOL    HW110931   5.713   3.791   5.281
 3344SOL    HW210932   5.611   3.867   5.178
 3345SOL     OW10933   2.831   4.002   5.983
 3345SOL    HW110934   2.775   3.983   5.903
 3345SOL    HW210935   2.890   3.923   6.002
 3346SOL     OW10936   0.465   0.789   2.217
 3346SOL    HW110937   0.405   0.764   2.142
 3346SOL    HW210938   0.426   0.866   2.267
 3347SOL     OW10939   6.147   3.939   4.487
 3347SOL    HW110940   6.088   3.871   4.531
 3347SOL    HW210941   6.121   3.949   4.391
 3348SOL     OW10942   3.360   3.242   3.885
 3348SOL    HW110943   3.394   3.282   3.800
 3348SOL    HW210944   3.288   3.176   3.865
 3349SOL     OW10945   6.683   3.881   4.191
 3349SOL    HW110946   6.593   3.917   4.217
 3349SOL    HW210947   6.698   3.793   4.237
 3350SOL     OW10948   1.959   1.066   0.009
 3350SOL    HW110949   2.021   0.987   0.011
 3350SOL    HW210950   2.012   1.150   0.020
 3351SOL     OW10951   5.561   1.210   1.059
 3351SOL    HW110952   5.583   1.280   1.126
 3351SOL    HW210953   5.584   1.243   0.967
 3352SOL     OW10954   0.757   3.975   1.136
 3352SOL    HW110955   0.832   4.042   1.139
 3352SOL    HW210956   0.791   3.889   1.098
 3353SOL     OW10957   1.465   6.854   6.414
 3353SOL    HW110958   1.382   6.799   6.422
 3353SOL    HW210959   1.529   6.830   6.488
 3354SOL     OW10960   7.007   2.127   3.552
 3354SOL    HW110961   6.977   2.185   3.628
 3354SOL    HW210962   0.019   2.185   3.477
 3355SOL     OW10963   0.293   1.513   1.494
 3355SOL    HW110964   0.292   1.444   1.566
 3355SOL    HW210965   0.374   1.571   1.504
 3356SOL     OW10966   3.116   3.633   6.673
 3356SOL    HW110967   3.102   3.660   6.578
 3356SOL    HW210968   3.030   3.638   6.723
 3357SOL     OW10969   3.110   5.397   1.733
 3357SOL    HW110970   3.148   5.321   1.679
 3357SOL    HW210971   3.185   5.451   1.771
 3358SOL     OW10972   4.852   6.346   2.532
 3358SOL    HW110973   4.938   6.398   2.526
 3358SOL    HW210974   4.865   6.266   2.590
 3359SOL     OW10975   1.057   0.650   2.612
 3359SOL    HW110976   1.047   0.664   2.514
 3359SOL    HW210977   1.099   0.560   2.629
 3360SOL     OW10978   0.446   1.059   0.336
 3360SOL    HW110979   0.378   1.021   0.400
 3360SOL    HW210980   0.407   1.061   0.244
 3361SOL     OW10981   5.828   5.946   3.172
 3361SOL    HW110982   5.891   5.878   3.136
 3361SOL    HW210983   5.734   5.917   3.155
 3362SOL     OW10984   2.843   1.521   4.646
 3362SOL    HW110985   2.801   1.511   4.556
 3362SOL    HW210986   2.849   1.618   4.669
 3363SOL     OW10987   0.087   1.603   0.183
 3363SOL    HW110988   0.086   1.692   0.137
 3363SOL    HW210989   7.015   1.564   0.181
 3364SOL     OW10990   1.178   5.726   6.044
 3364SOL    HW110991   1.253   5.758   5.986
 3364SOL    HW210992   1.210   5.652   6.102
 3365SOL     OW10993   0.316   2.616   4.699
 3365SOL    HW110994   0.315   2.519   4.724
 3365SOL    HW210995   0.223   2.653   4.704
 3366SOL     OW10996   5.344   0.354   5.457
 3366SOL    HW110997   5.293   0.426   5.503
 3366SOL    HW210998   5.351   0.376   5.360
 3367SOL     OW10999   1.575   2.374   2.570
 3367SOL    HW111000   1.518   2.355   2.650
 3367SOL    HW211001   1.522   2.427   2.504
 3368SOL     OW11002   6.321   5.542   6.363
 3368SOL    HW111003   6.253   5.569   6.431
 3368SOL    HW211004   6.341   5.444   6.373
 3369SOL     OW11005   3.795   0.376   0.261
 3369SOL    HW111006   3.782   0.297   0.201
 3369SOL    HW211007   3.836   0.346   0.347
 3370SOL     OW11008   6.766   6.702   5.068
 3370SOL    HW111009   6.691   6.640   5.043
 3370SOL    HW211010   6.803   6.674   5.157
 3371SOL     OW11011   1.248   4.530   1.847
 3371SOL    HW111012   1.156   4.528   1.807
 3371SOL    HW211013   1.285   4.437   1.852
 3372SOL     OW11014   0.637   0.877   2.533
 3372SOL    HW111015   0.644   0.870   2.434
 3372SOL    HW211016   0.696   0.808   2.576
 3373SOL     OW11017   5.888   1.465   4.810
 3373SOL    HW111018   5.943   1.420   4.738
 3373SOL    HW211019   5.797   1.424   4.812
 3374SOL     OW11020   3.232   6.054   5.607
 3374SOL    HW111021   3.259   5.965   5.643
 3374SOL    HW211022   3.214   6.047   5.509
 3375SOL     OW11023   4.569   4.411   5.205
 3375SOL    HW111024   4.496   4.424   5.138
 3375SOL    HW211025   4.569   4.486   5.271
 3376SOL     OW11026   3.161   2.947   2.483
 3376SOL    HW111027   3.103   2.871   2.512
 3376SOL    HW211028   3.257   2.922   2.497
 3377SOL     OW11029   1.036   6.200   4.703
 3377SOL    HW111030   1.003   6.266   4.635
 3377SOL    HW211031   1.135   6.192   4.695
 3378SOL     OW11032   6.699   1.299   1.475
 3378SOL    HW111033   6.642   1.263   1.401
 3378SOL    HW211034   6.645   1.364   1.529
 3379SOL     OW11035   0.818   4.845   5.556
 3379SOL    HW111036   0.864   4.786   5.622
 3379SOL    HW211037   0.772   4.788   5.487
 3380SOL     OW11038   0.225   4.474   6.759
 3380SOL    HW111039   0.321   4.464   6.733
 3380SOL    HW211040   0.201   4.571   6.761
 3381SOL     OW11041   3.144   2.819   0.610
 3381SOL    HW111042   3.228   2.864   0.641
 3381SOL    HW211043   3.152   2.720   0.622
 3382SOL     OW11044   6.771   1.875   0.604
 3382SOL    HW111045   6.777   1.790   0.658
 3382SOL    HW211046   6.802   1.857   0.511
 3383SOL     OW11047   5.898   4.552   3.061
 3383SOL    HW111048   5.960   4.606   3.117
 3383SOL    HW211049   5.909   4.578   2.965
 3384SOL     OW11050   3.241   3.018   4.751
 3384SOL    HW111051   3.297   3.095   4.723
 3384SOL    HW211052   3.146   3.034   4.724
 3385SOL     OW11053   6.505   3.773   3.254
 3385SOL    HW111054   6.571   3.718   3.305
 3385SOL    HW211055   6.513   3.869   3.283
 3386SOL     OW11056   5.907   4.730   4.376
 3386SOL    HW111057   5.966   4.806   4.348
 3386SOL    HW211058   5.953   4.643   4.359
 3387SOL     OW11059   2.603   2.378   2.697
 3387SOL    HW111060   2.519   2.332   2.669
 3387SOL    HW211061   2.676   2.357   2.631
 3388SOL     OW11062   5.757   2.416   1.208
 3388SOL    HW111063   5.710   2.450   1.290
 3388SOL    HW211064   5.855   2.433   1.216
 3389SOL     OW11065   4.750   4.141   3.848
 3389SOL    HW111066   4.719   4.074   3.782
 3389SOL    HW211067   4.730   4.233   3.815
 3390SOL     OW11068   4.796   2.628   5.709
 3390SOL    HW111069   4.754   2.639   5.619
 3390SOL    HW211070   4.770   2.705   5.768
 3391SOL     OW11071   3.925   1.796   4.742
 3391SOL    HW111072   3.972   1.756   4.822
 3391SOL    HW211073   3.877   1.724   4.693
 3392SOL     OW11074   2.601   0.692   4.019
 3392SOL    HW111075   2.523   0.646   3.976
 3392SOL    HW211076   2.592   0.791   4.006
 3393SOL     OW11077   6.476   6.599   0.045
 3393SOL    HW111078   6.418   6.522   0.019
 3393SOL    HW211079   6.528   6.630   6.986
 3394SOL     OW11080   6.014   2.181   0.862
 3394SOL    HW111081   6.019   2.137   0.952
 3394SOL    HW211082   5.939   2.141   0.810
 3395SOL     OW11083   0.502   3.394   4.190
 3395SOL    HW111084   0.453   3.323   4.241
 3395SOL    HW211085   0.595   3.402   4.224
 3396SOL     OW11086   0.329   3.364   3.227
 3396SOL    HW111087   0.380   3.282   3.253
 3396SOL    HW211088   0.231   3.342   3.224
 3397SOL     OW11089   3.773   0.063   5.941
 3397SOL    HW111090   3.839   0.131   5.907
 3397SOL    HW211091   3.681   0.092   5.919
 3398SOL     OW11092   1.113   0.259   4.187
 3398SOL    HW111093   1.052   0.199   4.135
 3398SOL    HW211094   1.096   0.248   4.285
 3399SOL     OW11095   4.583   5.114   4.477
 3399SOL    HW111096   4.654   5.071   4.533
 3399SOL    HW211097   4.611   5.207   4.452
 3400SOL     OW11098   4.685   2.110   6.619
 3400SOL    HW111099   4.734   2.082   6.537
 3400SOL    HW211100   4.680   2.210   6.623
 3401SOL     OW11101   6.909   3.495   0.364
 3401SOL    HW111102   6.962   3.493   0.279
 3401SOL    HW211103   6.838   3.565   0.358
 3402SOL     OW11104   5.514   5.703   1.427
 3402SOL    HW111105   5.547   5.611   1.406
 3402SOL    HW211106   5.484   5.747   1.342
 3403SOL     OW11107   3.623   0.182   4.490
 3403SOL    HW111108   3.592   0.207   4.398
 3403SOL    HW211109   3.614   0.083   4.502
 3404SOL     OW11110   4.176   1.364   0.595
 3404SOL    HW111111   4.093   1.319   0.629
 3404SOL    HW211112   4.177   1.360   0.495
 3405SOL     OW11113   6.237   4.082   6.261
 3405SOL    HW111114   6.146   4.041   6.265
 3405SOL    HW211115   6.236   4.170   6.307
 3406SOL     OW11116   2.539   4.550   1.967
 3406SOL    HW111117   2.511   4.461   1.931
 3406SOL    HW211118   2.638   4.560   1.957
 3407SOL     OW11119   1.261   5.729   1.954
 3407SOL    HW111120   1.249   5.632   1.935
 3407SOL    HW211121   1.216   5.752   2.041
 3408SOL     OW11122   4.861   3.989   3.064
 3408SOL    HW111123   4.834   3.900   3.028
 3408SOL    HW211124   4.779   4.043   3.085
 3409SOL     OW11125   3.924   6.862   5.997
 3409SOL    HW111126   3.993   6.855   5.925
 3409SOL    HW211127   3.881   6.952   5.993
 3410SOL     OW11128   6.139   5.438   6.910
 3410SOL    HW111129   6.171   5.515   6.966
 3410SOL    HW211130   6.215   5.401   6.857
 3411SOL     OW11131   4.855   2.261   1.833
 3411SOL    HW111132   4.899   2.203   1.902
 3411SOL    HW211133   4.770   2.298   1.871
 3412SOL     OW11134   4.155   3.630   6.920
 3412SOL    HW111135   4.222   3.660   6.853
 3412SOL    HW211136   4.175   3.673   7.008
 3413SOL     OW11137   4.032   1.527   2.734
 3413SOL    HW111138   4.011   1.517   2.832
 3413SOL    HW211139   4.098   1.458   2.706
 3414SOL     OW11140   2.912   1.871   4.941
 3414SOL    HW111141   2.947   1.885   5.034
 3414SOL    HW211142   2.854   1.790   4.939
 3415SOL     OW11143   0.807   4.957   4.009
 3415SOL    HW111144   0.898   4.987   3.981
 3415SOL    HW211145   0.805   4.941   4.107
 3416SOL     OW11146   0.352   4.161   5.471
 3416SOL    HW111147   0.294   4.241   5.487
 3416SOL    HW211148   0.385   4.162   5.377
 3417SOL     OW11149   7.020   6.640   2.467
 3417SOL    HW111150   0.013   6.578   2.389
 3417SOL    HW211151   6.935   6.691   2.454
 3418SOL     OW11152   2.700   1.352   4.808
 3418SOL    HW111153   2.755   1.409   4.746
 3418SOL    HW211154   2.740   1.354   4.899
 3419SOL     OW11155   4.579   4.710   6.996
 3419SOL    HW111156   4.625   4.695   6.908
 3419SOL    HW211157   4.644   4.694   0.050
 3420SOL     OW11158   4.972   1.611   4.058
 3420SOL    HW111159   4.919   1.669   3.996
 3420SOL    HW211160   4.917   1.587   4.138
 3421SOL     OW11161   6.992   0.191   5.603
 3421SOL    HW111162   0.019   0.131   5.538
 3421SOL    HW211163   6.970   0.277   5.558
 3422SOL     OW11164   3.081   6.992   1.103
 3422SOL    HW111165   3.104   6.922   1.171
 3422SOL    HW211166   3.064   0.058   1.150
 3423SOL     OW11167   2.282   0.698   0.320
 3423SOL    HW111168   2.364   0.711   0.375
 3423SOL    HW211169   2.288   0.612   0.270
 3424SOL     OW11170   3.582   1.249   2.374
 3424SOL    HW111171   3.595   1.196   2.458
 3424SOL    HW211172   3.515   1.321   2.390
 3425SOL     OW11173   4.965   4.447   2.208
 3425SOL    HW111174   4.886   4.405   2.253
 3425SOL    HW211175   4.933   4.504   2.133
 3426SOL     OW11176   3.504   3.250   0.233
 3426SOL    HW111177   3.442   3.267   0.157
 3426SOL    HW211178   3.540   3.338   0.266
 3427SOL     OW11179   6.516   0.162   0.132
 3427SOL    HW111180   6.576   0.175   0.054
 3427SOL    HW211181   6.507   0.065   0.153
 3428SOL     OW11182   3.858   5.073   1.984
 3428SOL    HW111183   3.829   5.017   2.062
 3428SOL    HW211184   3.806   5.048   1.903
 3429SOL     OW11185   1.278   2.380   6.923
 3429SOL    HW111186   1.346   2.315   6.958
 3429SOL    HW211187   1.261   2.362   6.827
 3430SOL     OW11188   1.161   6.809   0.118
 3430SOL    HW111189   1.124   6.894   0.156
 3430SOL    HW211190   1.103   6.733   0.148
 3431SOL     OW11191   1.414   5.920   1.364
 3431SOL    HW111192   1.513   5.928   1.350
 3431SOL    HW211193   1.376   6.011   1.381
 3432SOL     OW11194   2.707   2.428   5.032
 3432SOL    HW111195   2.754   2.515   5.024
 3432SOL    HW211196   2.774   2.353   5.035
 3433SOL     OW11197   3.182   0.905   6.059
 3433SOL    HW111198   3.085   0.910   6.036
 3433SOL    HW211199   3.232   0.973   6.007
 3434SOL     OW11200   3.893   2.773   1.005
 3434SOL    HW111201   3.840   2.852   0.977
 3434SOL    HW211202   3.957   2.748   0.933
 3435SOL     OW11203   0.120   2.573   1.553
 3435SOL    HW111204   0.060   2.653   1.547
 3435SOL    HW211205   0.155   2.564   1.646
 3436SOL     OW11206   3.963   6.689   4.883
 3436SOL    HW111207   3.899   6.708   4.809
 3436SOL    HW211208   3.977   6.773   4.937
 3437SOL     OW11209   4.445   0.174   5.701
 3437SOL    HW111210   4.413   0.100   5.642
 3437SOL    HW211211   4.535   0.205   5.669
 3438SOL     OW11212   2.101   2.530   6.751
 3438SOL    HW111213   2.007   2.516   6.783
 3438SOL    HW211214   2.144   2.603   6.804
 3439SOL     OW11215   2.757   6.976   5.249
 3439SOL    HW111216   2.825   6.929   5.193
 3439SOL    HW211217   2.740   6.923   5.332
 3440SOL     OW11218   4.365   3.736   0.994
 3440SOL    HW111219   4.439   3.791   0.956
 3440SOL    HW211220   4.336   3.774   1.082
 3441SOL     OW11221   3.842   6.604   3.699
 3441SOL    HW111222   3.801   6.515   3.682
 3441SOL    HW211223   3.930   6.591   3.745
 3442SOL     OW11224   2.023   5.495   3.550
 3442SOL    HW111225   2.073   5.409   3.544
 3442SOL    HW211226   1.969   5.508   3.467
 3443SOL     OW11227   5.856   1.740   3.219
 3443SOL    HW111228   5.946   1.768   3.184
 3443SOL    HW211229   5.817   1.814   3.273
 3444SOL     OW11230   4.988   5.853   6.587
 3444SOL    HW111231   4.904   5.873   6.637
 3444SOL    HW211232   5.054   5.809   6.648
 3445SOL     OW11233   6.883   4.076   4.248
 3445SOL    HW111234   6.869   3.977   4.254
 3445SOL    HW211235   6.979   4.095   4.230
 3446SOL     OW11236   4.079   1.063   2.614
 3446SOL    HW111237   3.998   1.016   2.649
 3446SOL    HW211238   4.152   0.996   2.597
 3447SOL     OW11239   5.905   5.408   0.027
 3447SOL    HW111240   5.911   5.330   0.090
 3447SOL    HW211241   5.982   5.407   6.984
 3448SOL     OW11242   3.280   0.355   0.938
 3448SOL    HW111243   3.254   0.264   0.904
 3448SOL    HW211244   3.200   0.415   0.936
 3449SOL     OW11245   6.155   6.889   2.271
 3449SOL    HW111246   6.140   6.815   2.204
 3449SOL    HW211247   6.172   6.849   2.361
 3450SOL     OW11248   0.809   1.850   1.416
 3450SOL    HW111249   0.715   1.848   1.382
 3450SOL    HW211250   0.817   1.788   1.494
 3451SOL     OW11251   0.902   5.643   3.583
 3451SOL    HW111252   0.886   5.688   3.496
 3451SOL    HW211253   0.994   5.666   3.616
 3452SOL     OW11254   6.821   1.050   6.664
 3452SOL    HW111255   6.898   1.114   6.658
 3452SOL    HW211256   6.811   1.019   6.758
 3453SOL     OW11257   5.312   5.677   5.094
 3453SOL    HW111258   5.380   5.610   5.123
 3453SOL    HW211259   5.356   5.746   5.036
 3454SOL     OW11260   1.815   1.493   6.985
 3454SOL    HW111261   1.901   1.448   7.010
 3454SOL    HW211262   1.832   1.554   6.907
 3455SOL     OW11263   1.280   3.255   4.855
 3455SOL    HW111264   1.209   3.324   4.843
 3455SOL    HW211265   1.358   3.295   4.904
 3456SOL     OW11266   5.795   6.249   1.813
 3456SOL    HW111267   5.843   6.271   1.897
 3456SOL    HW211268   5.829   6.162   1.776
 3457SOL     OW11269   2.856   5.312   4.207
 3457SOL    HW111270   2.840   5.266   4.295
 3457SOL    HW211271   2.798   5.271   4.137
 3458SOL     OW11272   5.938   6.900   0.256
 3458SOL    HW111273   6.025   6.939   0.287
 3458SOL    HW211274   5.904   6.952   0.178
 3459SOL     OW11275   0.415   3.468   2.995
 3459SOL    HW111276   0.428   3.388   2.938
 3459SOL    HW211277   0.338   3.452   3.058
 3460SOL     OW11278   2.914   3.177   0.411
 3460SOL    HW111279   2.895   3.244   0.483
 3460SOL    HW211280   3.006   3.192   0.376
 3461SOL     OW11281   3.910   5.413   4.323
 3461SOL    HW111282   3.892   5.331   4.378
 3461SOL    HW211283   3.973   5.473   4.372
 3462SOL     OW11284   6.263   2.871   2.695
 3462SOL    HW111285   6.173   2.908   2.719
 3462SOL    HW211286   6.334   2.938   2.715
 3463SOL     OW11287   0.925   3.145   2.124
 3463SOL    HW111288   0.830   3.122   2.146
 3463SOL    HW211289   0.930   3.240   2.094
 3464SOL     OW11290   5.726   2.429   6.683
 3464SOL    HW111291   5.714   2.407   6.779
 3464SOL    HW211292   5.660   2.499   6.656
 3465SOL     OW11293   2.228   3.532   1.517
 3465SOL    HW111294   2.277   3.590   1.581
 3465SOL    HW211295   2.292   3.466   1.477
 3466SOL     OW11296   5.495   4.556   5.685
 3466SOL    HW111297   5.433   4.634   5.670
 3466SOL    HW211298   5.441   4.472   5.695
 3467SOL     OW11299   3.618   1.576   1.016
 3467SOL    HW111300   3.622   1.552   0.919
 3467SOL    HW211301   3.574   1.503   1.067
 3468SOL     OW11302   4.822   1.668   1.955
 3468SOL    HW111303   4.790   1.610   2.030
 3468SOL    HW211304   4.782   1.759   1.962
 3469SOL     OW11305   4.558   0.237   6.091
 3469SOL    HW111306   4.651   0.200   6.090
 3469SOL    HW211307   4.547   0.302   6.016
 3470SOL     OW11308   0.427   3.074   1.205
 3470SOL    HW111309   0.476   3.000   1.252
 3470SOL    HW211310   0.493   3.143   1.175
 3471SOL     OW11311   4.701   4.176   3.123
 3471SOL    HW111312   4.737   4.258   3.167
 3471SOL    HW211313   4.602   4.174   3.132
 3472SOL     OW11314   4.505   1.996   2.845
 3472SOL    HW111315   4.488   2.030   2.753
 3472SOL    HW211316   4.534   1.901   2.842
 3473SOL     OW11317   0.013   3.614   3.704
 3473SOL    HW111318   0.026   3.685   3.772
 3473SOL    HW211319   6.941   3.576   3.712
 3474SOL     OW11320   0.400   4.207   3.884
 3474SOL    HW111321   0.324   4.143   3.876
 3474SOL    HW211322   0.478   4.174   3.830
 3475SOL     OW11323   0.459   5.207   4.288
 3475SOL    HW111324   0.436   5.113   4.263
 3475SOL    HW211325   0.378   5.265   4.279
 3476SOL     OW11326   1.880   0.965   3.693
 3476SOL    HW111327   1.938   0.978   3.613
 3476SOL    HW211328   1.803   1.029   3.688
 3477SOL     OW11329   0.492   3.393   0.616
 3477SOL    HW111330   0.416   3.363   0.558
 3477SOL    HW211331   0.578   3.381   0.567
 3478SOL     OW11332   2.099   6.729   0.287
 3478SOL    HW111333   2.152   6.809   0.261
 3478SOL    HW211334   2.160   6.651   0.300
 3479SOL     OW11335   0.721   2.482   3.913
 3479SOL    HW111336   0.812   2.442   3.904
 3479SOL    HW211337   0.727   2.567   3.965
 3480SOL     OW11338   1.056   5.923   6.588
 3480SOL    HW111339   1.133   5.958   6.641
 3480SOL    HW211340   1.060   5.960   6.495
 3481SOL     OW11341   5.403   0.861   0.488
 3481SOL    HW111342   5.469   0.787   0.485
 3481SOL    HW211343   5.393   0.901   0.397
 3482SOL     OW11344   6.089   2.109   3.503
 3482SOL    HW111345   5.990   2.100   3.488
 3482SOL    HW211346   6.106   2.190   3.560
 3483SOL     OW11347   5.410   2.341   2.891
 3483SOL    HW111348   5.465   2.261   2.868
 3483SOL    HW211349   5.357   2.323   2.974
 3484SOL     OW11350   1.799   3.782   6.725
 3484SOL    HW111351   1.853   3.788   6.809
 3484SOL    HW211352   1.857   3.750   6.650
 3485SOL     OW11353   6.788   2.337   5.519
 3485SOL    HW111354   6.750   2.244   5.519
 3485SOL    HW211355   6.761   2.384   5.435
 3486SOL     OW11356   2.019   0.116   4.366
 3486SOL    HW111357   1.975   0.041   4.318
 3486SOL    HW211358   2.077   0.080   4.439
 3487SOL     OW11359   6.619   2.004   0.012
 3487SOL    HW111360   6.673   1.920   7.020
 3487SOL    HW211361   6.621   2.031   0.108
 3488SOL     OW11362   5.703   0.356   5.007
 3488SOL    HW111363   5.711   0.272   5.060
 3488SOL    HW211364   5.782   0.365   4.946
 3489SOL     OW11365   3.173   6.857   1.338
 3489SOL    HW111366   3.235   6.895   1.407
 3489SOL    HW211367   3.121   6.782   1.377
 3490SOL     OW11368   3.616   5.063   1.480
 3490SOL    HW111369   3.674   5.004   1.424
 3490SOL    HW211370   3.550   5.006   1.531
 3491SOL     OW11371   4.747   4.084   6.637
 3491SOL    HW111372   4.674   4.017   6.623
 3491SOL    HW211373   4.779   4.118   6.549
 3492SOL     OW11374   6.794   3.633   1.566
 3492SOL    HW111375   6.831   3.718   1.530
 3492SOL    HW211376   6.695   3.637   1.569
 3493SOL     OW11377   6.347   4.198   4.043
 3493SOL    HW111378   6.368   4.110   4.084
 3493SOL    HW211379   6.279   4.185   3.970
 3494SOL     OW11380   3.379   2.059   2.277
 3494SOL    HW111381   3.476   2.070   2.299
 3494SOL    HW211382   3.357   1.961   2.270
 3495SOL     OW11383   0.667   3.622   2.121
 3495SOL    HW111384   0.686   3.720   2.116
 3495SOL    HW211385   0.661   3.584   2.029
 3496SOL     OW11386   5.706   4.517   1.020
 3496SOL    HW111387   5.784   4.462   1.051
 3496SOL    HW211388   5.662   4.471   0.942
 3497SOL     OW11389   3.417   1.246   3.852
 3497SOL    HW111390   3.453   1.152   3.856
 3497SOL    HW211391   3.419   1.278   3.758
 3498SOL     OW11392   2.698   1.687   2.352
 3498SOL    HW111393   2.744   1.772   2.377
 3498SOL    HW211394   2.716   1.667   2.256
 3499SOL     OW11395   6.325   6.135   5.233
 3499SOL    HW111396   6.324   6.116   5.134
 3499SOL    HW211397   6.236   6.169   5.261
 3500SOL     OW11398   1.944   2.688   4.167
 3500SOL    HW111399   1.922   2.668   4.262
 3500SOL    HW211400   1.934   2.787   4.151
 3501SOL     OW11401   2.451   6.779   6.194
 3501SOL    HW111402   2.408   6.835   6.123
 3501SOL    HW211403   2.516   6.834   6.246
 3502SOL     OW11404   6.054   3.345   1.964
 3502SOL    HW111405   6.079   3.433   1.923
 3502SOL    HW211406   6.010   3.361   2.052
 3503SOL     OW11407   7.018   6.214   6.010
 3503SOL    HW111408   7.017   6.270   5.927
 3503SOL    HW211409   6.943   6.241   6.069
 3504SOL     OW11410   2.098   0.847   2.226
 3504SOL    HW111411   2.006   0.876   2.252
 3504SOL    HW211412   2.100   0.748   2.213
 3505SOL     OW11413   5.873   5.798   5.456
 3505SOL    HW111414   5.910   5.833   5.542
 3505SOL    HW211415   5.896   5.702   5.445
 3506SOL     OW11416   5.904   4.397   5.052
 3506SOL    HW111417   5.951   4.438   5.131
 3506SOL    HW211418   5.971   4.367   4.985
 3507SOL     OW11419   2.127   6.533   0.688
 3507SOL    HW111420   2.089   6.492   0.605
 3507SOL    HW211421   2.225   6.515   0.691
 3508SOL     OW11422   3.264   2.685   6.373
 3508SOL    HW111423   3.303   2.659   6.285
 3508SOL    HW211424   3.304   2.629   6.445
 3509SOL     OW11425   5.553   0.087   0.081
 3509SOL    HW111426   5.628   0.148   0.053
 3509SOL    HW211427   5.568   7.017   0.042
 3510SOL     OW11428   1.803   0.635   1.297
 3510SOL    HW111429   1.736   0.619   1.224
 3510SOL    HW211430   1.858   0.715   1.275
 3511SOL     OW11431   1.901   4.749   1.566
 3511SOL    HW111432   1.955   4.750   1.650
 3511SOL    HW211433   1.814   4.703   1.583
 3512SOL     OW11434   1.085   3.512   0.663
 3512SOL    HW111435   1.024   3.473   0.731
 3512SOL    HW211436   1.039   3.514   0.574
 3513SOL     OW11437   5.912   2.311   1.528
 3513SOL    HW111438   5.975   2.305   1.450
 3513SOL    HW211439   5.961   2.348   1.607
 3514SOL     OW11440   5.373   0.944   2.112
 3514SOL    HW111441   5.304   1.003   2.154
 3514SOL    HW211442   5.463   0.986   2.122
 3515SOL     OW11443   5.118   6.205   4.050
 3515SOL    HW111444   5.094   6.297   4.082
 3515SOL    HW211445   5.085   6.193   3.956
 3516SOL     OW11446   5.321   6.593   1.048
 3516SOL    HW111447   5.408   6.591   0.999
 3516SOL    HW211448   5.294   6.500   1.071
 3517SOL     OW11449   0.291   1.320   1.674
 3517SOL    HW111450   0.376   1.308   1.623
 3517SOL    HW211451   0.311   1.326   1.772
 3518SOL     OW11452   5.117   2.079   4.909
 3518SOL    HW111453   5.161   2.049   4.993
 3518SOL    HW211454   5.070   2.002   4.866
 3519SOL     OW11455   2.365   1.171   6.246
 3519SOL    HW111456   2.279   1.163   6.297
 3519SOL    HW211457   2.361   1.113   6.165
 3520SOL     OW11458   3.489   6.737   0.313
 3520SOL    HW111459   3.475   6.704   0.407
 3520SOL    HW211460   3.543   6.670   0.262
 3521SOL     OW11461   3.938   2.955   6.601
 3521SOL    HW111462   4.017   2.907   6.640
 3521SOL    HW211463   3.969   3.017   6.529
 3522SOL     OW11464   6.105   4.989   6.968
 3522SOL    HW111465   6.149   4.926   0.011
 3522SOL    HW211466   6.171   5.018   6.899
 3523SOL     OW11467   1.157   4.362   5.623
 3523SOL    HW111468   1.059   4.370   5.636
 3523SOL    HW211469   1.178   4.363   5.525
 3524SOL     OW11470   5.191   2.003   2.426
 3524SOL    HW111471   5.237   2.081   2.467
 3524SOL    HW211472   5.236   1.979   2.340
 3525SOL     OW11473   6.241   3.578   4.099
 3525SOL    HW111474   6.175   3.648   4.125
 3525SOL    HW211475   6.318   3.579   4.163
 3526SOL     OW11476   2.155   6.449   3.220
 3526SOL    HW111477   2.074   6.500   3.191
 3526SOL    HW211478   2.238   6.495   3.188
 3527SOL     OW11479   6.018   3.092   6.406
 3527SOL    HW111480   5.992   3.022   6.339
 3527SOL    HW211481   5.960   3.172   6.395
 3528SOL     OW11482   1.989   6.279   5.026
 3528SOL    HW111483   1.923   6.242   4.961
 3528SOL    HW211484   2.050   6.343   4.980
 3529SOL     OW11485   4.078   6.685   0.213
 3529SOL    HW111486   4.069   6.585   0.211
 3529SOL    HW211487   4.075   6.717   0.307
 3530SOL     OW11488   7.008   5.165   1.316
 3530SOL    HW111489   6.931   5.174   1.380
 3530SOL    HW211490   0.047   5.245   1.324
 3531SOL     OW11491   5.931   2.689   1.539
 3531SOL    HW111492   5.984   2.772   1.526
 3531SOL    HW211493   5.981   2.627   1.600
 3532SOL     OW11494   2.518   1.139   1.685
 3532SOL    HW111495   2.610   1.161   1.654
 3532SOL    HW211496   2.483   1.215   1.741
 3533SOL     OW11497   0.704   1.911   2.654
 3533SOL    HW111498   0.738   1.957   2.736
 3533SOL    HW211499   0.773   1.916   2.581
 3534SOL     OW11500   0.920   2.120   1.764
 3534SOL    HW111501   0.988   2.049   1.745
 3534SOL    HW211502   0.897   2.168   1.680
 3535SOL     OW11503   2.612   5.419   5.596
 3535SOL    HW111504   2.587   5.322   5.586
 3535SOL    HW211505   2.547   5.476   5.546
 3536SOL     OW11506   2.977   2.070   3.653
 3536SOL    HW111507   3.038   2.019   3.592
 3536SOL    HW211508   2.883   2.062   3.620
 3537SOL     OW11509   1.676   5.384   1.923
 3537SOL    HW111510   1.675   5.301   1.978
 3537SOL    HW211511   1.686   5.464   1.983
 3538SOL     OW11512   3.029   5.386   5.770
 3538SOL    HW111513   3.129   5.394   5.763
 3538SOL    HW211514   2.996   5.321   5.701
 3539SOL     OW11515   3.647   3.554   4.494
 3539SOL    HW111516   3.718   3.539   4.425
 3539SOL    HW211517   3.690   3.578   4.581
 3540SOL     OW11518   2.366   2.242   4.477
 3540SOL    HW111519   2.456   2.252   4.434
 3540SOL    HW211520   2.363   2.157   4.529
 3541SOL     OW11521   3.075   2.832   5.436
 3541SOL    HW111522   3.103   2.745   5.397
 3541SOL    HW211523   2.993   2.819   5.492
 3542SOL     OW11524   1.451   5.082   3.105
 3542SOL    HW111525   1.391   5.145   3.055
 3542SOL    HW211526   1.424   5.079   3.201
 3543SOL     OW11527   6.181   3.063   3.674
 3543SOL    HW111528   6.203   3.120   3.595
 3543SOL    HW211529   6.185   2.967   3.648
 3544SOL     OW11530   2.313   4.047   6.801
 3544SOL    HW111531   2.251   4.093   6.737
 3544SOL    HW211532   2.406   4.081   6.787
 3545SOL     OW11533   4.203   6.207   6.379
 3545SOL    HW111534   4.152   6.219   6.294
 3545SOL    HW211535   4.202   6.293   6.431
 3546SOL     OW11536   0.858   5.096   3.314
 3546SOL    HW111537   0.951   5.119   3.286
 3546SOL    HW211538   0.799   5.088   3.234
 3547SOL     OW11539   4.678   4.994   3.519
 3547SOL    HW111540   4.745   5.060   3.555
 3547SOL    HW211541   4.647   4.934   3.593
 3548SOL     OW11542   4.969   1.970   5.555
 3548SOL    HW111543   5.056   1.924   5.574
 3548SOL    HW211544   4.905   1.951   5.629
 3549SOL     OW11545   6.535   4.883   4.506
 3549SOL    HW111546   6.558   4.954   4.573
 3549SOL    HW211547   6.602   4.809   4.512
 3550SOL     OW11548   5.102   2.262   2.744
 3550SOL    HW111549   5.123   2.200   2.820
 3550SOL    HW211550   5.097   2.356   2.778
 3551SOL     OW11551   3.900   6.416   3.019
 3551SOL    HW111552   3.870   6.375   2.933
 3551SOL    HW211553   3.890   6.349   3.093
 3552SOL     OW11554   4.876   6.232   2.182
 3552SOL    HW111555   4.819   6.305   2.220
 3552SOL    HW211556   4.933   6.193   2.253
 3553SOL     OW11557   5.805   3.184   2.241
 3553SOL    HW111558   5.868   3.108   2.225
 3553SOL    HW211559   5.843   3.268   2.202
 3554SOL     OW11560   3.885   3.281   0.407
 3554SOL    HW111561   3.905   3.268   0.310
 3554SOL    HW211562   3.897   3.377   0.431
 3555SOL     OW11563   0.649   3.087   2.781
 3555SOL    HW111564   0.672   3.069   2.686
 3555SOL    HW211565   0.725   3.136   2.825
 3556SOL     OW11566   3.445   0.397   5.258
 3556SOL    HW111567   3.505   0.456   5.203
 3556SOL    HW211568   3.350   0.408   5.227
 3557SOL     OW11569   0.837   0.447   4.307
 3557SOL    HW111570   0.819   0.412   4.399
 3557SOL    HW211571   0.843   0.370   4.243
 3558SOL     OW11572   0.088   5.655   1.551
 3558SOL    HW111573   0.001   5.702   1.538
 3558SOL    HW211574   0.140   5.657   1.465
 3559SOL     OW11575   0.405   0.131   4.577
 3559SOL    HW111576   0.377   0.183   4.495
 3559SOL    HW211577   0.336   0.144   4.649
 3560SOL     OW11578   1.147   5.944   1.232
 3560SOL    HW111579   1.240   5.978   1.247
 3560SOL    HW211580   1.150   5.845   1.217
 3561SOL     OW11581   5.054   5.155   5.868
 3561SOL    HW111582   5.052   5.251   5.896
 3561SOL    HW211583   5.139   5.137   5.818
 3562SOL     OW11584   5.015   0.799   4.445
 3562SOL    HW111585   5.062   0.751   4.372
 3562SOL    HW211586   5.079   0.860   4.492
 3563SOL     OW11587   5.564   0.713   1.648
 3563SOL    HW111588   5.600   0.746   1.561
 3563SOL    HW211589   5.603   0.767   1.723
 3564SOL     OW11590   1.292   4.432   4.092
 3564SOL    HW111591   1.271   4.369   4.166
 3564SOL    HW211592   1.272   4.389   4.004
 3565SOL     OW11593   3.217   6.513   5.132
 3565SOL    HW111594   3.223   6.599   5.183
 3565SOL    HW211595   3.271   6.443   5.179
 3566SOL     OW11596   0.008   3.547   5.839
 3566SOL    HW111597   6.936   3.582   5.828
 3566SOL    HW211598   0.021   3.516   5.934
 3567SOL     OW11599   1.713   2.257   0.564
 3567SOL    HW111600   1.637   2.278   0.626
 3567SOL    HW211601   1.764   2.340   0.545
 3568SOL     OW11602   5.284   5.369   2.313
 3568SOL    HW111603   5.345   5.290   2.301
 3568SOL    HW211604   5.213   5.346   2.379
 3569SOL     OW11605   2.816   3.317   5.237
 3569SOL    HW111606   2.886   3.305   5.308
 3569SOL    HW211607   2.858   3.305   5.147
 3570SOL     OW11608   5.809   1.123   5.376
 3570SOL    HW111609   5.731   1.072   5.412
 3570SOL    HW211610   5.893   1.085   5.415
 3571SOL     OW11611   1.650   0.609   4.776
 3571SOL    HW111612   1.634   0.664   4.695
 3571SOL    HW211613   1.567   0.557   4.798
 3572SOL     OW11614   5.332   3.929   2.920
 3572SOL    HW111615   5.302   3.921   3.015
 3572SOL    HW211616   5.412   3.989   2.916
 3573SOL     OW11617   6.886   4.552   2.199
 3573SOL    HW111618   6.881   4.630   2.261
 3573SOL    HW211619   6.838   4.574   2.114
 3574SOL     OW11620   2.149   3.107   6.415
 3574SOL    HW111621   2.128   3.009   6.413
 3574SOL    HW211622   2.228   3.126   6.356
 3575SOL     OW11623   5.220   5.601   0.811
 3575SOL    HW111624   5.208   5.666   0.737
 3575SOL    HW211625   5.175   5.635   0.893
 3576SOL     OW11626   0.414   2.531   0.032
 3576SOL    HW111627   0.354   2.453   0.049
 3576SOL    HW211628   0.389   2.606   0.093
 3577SOL     OW11629   2.202   2.798   5.522
 3577SOL    HW111630   2.203   2.839   5.613
 3577SOL    HW211631   2.287   2.819   5.475
 3578SOL     OW11632   3.541   3.501   0.889
 3578SOL    HW111633   3.546   3.443   0.970
 3578SOL    HW211634   3.495   3.452   0.815
 3579SOL     OW11635   0.441   3.173   2.533
 3579SOL    HW111636   0.537   3.186   2.508
 3579SOL    HW211637   0.410   3.250   2.589
 3580SOL     OW11638   0.173   3.094   1.565
 3580SOL    HW111639   0.099   3.161   1.559
 3580SOL    HW211640   0.176   3.056   1.658
 3581SOL     OW11641   0.634   6.964   3.330
 3581SOL    HW111642   0.714   6.903   3.324
 3581SOL    HW211643   0.646   0.020   3.267
 3582SOL     OW11644   3.300   4.618   6.033
 3582SOL    HW111645   3.233   4.595   5.963
 3582SOL    HW211646   3.254   4.664   6.109
 3583SOL     OW11647   0.442   4.209   0.859
 3583SOL    HW111648   0.479   4.202   0.952
 3583SOL    HW211649   0.359   4.154   0.852
 3584SOL     OW11650   6.199   4.479   5.582
 3584SOL    HW111651   6.133   4.500   5.654
 3584SOL    HW211652   6.291   4.477   5.621
 3585SOL     OW11653   2.595   1.920   4.642
 3585SOL    HW111654   2.637   1.956   4.559
 3585SOL    HW211655   2.590   1.820   4.637
 3586SOL     OW11656   6.613   3.263   3.716
 3586SOL    HW111657   6.554   3.330   3.761
 3586SOL    HW211658   6.613   3.178   3.768
 3587SOL     OW11659   3.897   5.859   6.886
 3587SOL    HW111660   3.836   5.896   6.816
 3587SOL    HW211661   3.983   5.831   6.844
 3588SOL     OW11662   6.563   4.343   3.739
 3588SOL    HW111663   6.590   4.307   3.828
 3588SOL    HW211664   6.496   4.282   3.697
 3589SOL     OW11665   0.242   0.068   5.849
 3589SOL    HW111666   0.312   0.027   5.907
 3589SOL    HW211667   0.204   7.018   5.788
 3590SOL     OW11668   0.130   4.234   0.640
 3590SOL    HW111669   0.114   4.154   0.696
 3590SOL    HW211670   0.225   4.262   0.648
 3591SOL     OW11671   5.531   2.757   6.771
 3591SOL    HW111672   5.452   2.816   6.783
 3591SOL    HW211673   5.505   2.676   6.718
 3592SOL     OW11674   1.316   0.066   2.026
 3592SOL    HW111675   1.396   0.068   2.086
 3592SOL    HW211676   1.325   7.013   1.959
 3593SOL     OW11677   0.195   4.478   5.471
 3593SOL    HW111678   0.180   4.453   5.375
 3593SOL    HW211679   0.254   4.559   5.475
 3594SOL     OW11680   4.191   5.827   5.067
 3594SOL    HW111681   4.224   5.913   5.106
 3594SOL    HW211682   4.095   5.814   5.090
 3595SOL     OW11683   5.978   5.885   6.884
 3595SOL    HW111684   6.074   5.858   6.880
 3595SOL    HW211685   5.925   5.812   6.927
 3596SOL     OW11686   4.385   2.091   3.327
 3596SOL    HW111687   4.480   2.067   3.349
 3596SOL    HW211688   4.365   2.063   3.233
 3597SOL     OW11689   1.955   3.228   5.219
 3597SOL    HW111690   1.939   3.304   5.282
 3597SOL    HW211691   2.054   3.212   5.212
 3598SOL     OW11692   1.708   6.061   5.441
 3598SOL    HW111693   1.723   6.005   5.522
 3598SOL    HW211694   1.779   6.041   5.373
 3599SOL     OW11695   4.624   1.781   6.459
 3599SOL    HW111696   4.581   1.708   6.512
 3599SOL    HW211697   4.578   1.868   6.479
 3600SOL     OW11698   2.368   3.521   0.417
 3600SOL    HW111699   2.402   3.615   0.408
 3600SOL    HW211700   2.269   3.520   0.405
 3601SOL     OW11701   5.071   1.300   5.472
 3601SOL    HW111702   5.157   1.264   5.436
 3601SOL    HW211703   5.075   1.399   5.477
 3602SOL     OW11704   2.164   2.901   1.600
 3602SOL    HW111705   2.159   2.805   1.574
 3602SOL    HW211706   2.096   2.953   1.547
 3603SOL     OW11707   3.242   0.957   6.338
 3603SOL    HW111708   3.245   1.056   6.334
 3603SOL    HW211709   3.220   0.920   6.248
 3604SOL     OW11710   6.862   0.620   3.577
 3604SOL    HW111711   6.825   0.699   3.626
 3604SOL    HW211712   6.831   0.535   3.620
 3605SOL     OW11713   1.295   5.417   3.413
 3605SOL    HW111714   1.230   5.375   3.477
 3605SOL    HW211715   1.379   5.441   3.462
 3606SOL     OW11716   1.656   6.245   1.582
 3606SOL    HW111717   1.569   6.197   1.574
 3606SOL    HW211718   1.672   6.270   1.677
 3607SOL     OW11719   5.072   2.583   2.730
 3607SOL    HW111720   5.050   2.680   2.724
 3607SOL    HW211721   5.172   2.572   2.731
 3608SOL     OW11722   4.586   1.860   3.913
 3608SOL    HW111723   4.555   1.857   3.818
 3608SOL    HW211724   4.525   1.804   3.970
 3609SOL     OW11725   2.353   6.296   4.458
 3609SOL    HW111726   2.311   6.231   4.521
 3609SOL    HW211727   2.452   6.281   4.457
 3610SOL     OW11728   1.908   0.388   5.365
 3610SOL    HW111729   1.959   0.442   5.299
 3610SOL    HW211730   1.926   0.423   5.458
 3611SOL     OW11731   4.699   4.465   4.407
 3611SOL    HW111732   4.724   4.368   4.414
 3611SOL    HW211733   4.780   4.521   4.418
 3612SOL     OW11734   6.386   1.396   6.565
 3612SOL    HW111735   6.425   1.306   6.548
 3612SOL    HW211736   6.286   1.391   6.563
 3613SOL     OW11737   3.758   5.380   1.344
 3613SOL    HW111738   3.772   5.447   1.271
 3613SOL    HW211739   3.785   5.420   1.431
 3614SOL     OW11740   3.908   4.043   0.108
 3614SOL    HW111741   3.910   4.069   0.204
 3614SOL    HW211742   4.002   4.025   0.076
 3615SOL     OW11743   5.580   2.965   5.877
 3615SOL    HW111744   5.569   2.980   5.779
 3615SOL    HW211745   5.493   2.936   5.917
 3616SOL     OW11746   2.320   2.163   6.315
 3616SOL    HW111747   2.369   2.145   6.230
 3616SOL    HW211748   2.297   2.076   6.359
 3617SOL     OW11749   4.431   6.949   5.881
 3617SOL    HW111750   4.493   0.007   5.879
 3617SOL    HW211751   4.473   6.872   5.833
 3618SOL     OW11752   1.987   3.651   4.888
 3618SOL    HW111753   1.983   3.616   4.794
 3618SOL    HW211754   2.044   3.733   4.890
 3619SOL     OW11755   5.888   2.930   0.698
 3619SOL    HW111756   5.895   2.830   0.706
 3619SOL    HW211757   5.816   2.954   0.634
 3620SOL     OW11758   6.233   6.345   4.378
 3620SOL    HW111759   6.200   6.379   4.466
 3620SOL    HW211760   6.303   6.407   4.343
 3621SOL     OW11761   3.627   3.226   4.015
 3621SOL    HW111762   3.541   3.215   3.966
 3621SOL    HW211763   3.619   3.301   4.081
 3622SOL     OW11764   0.349   0.428   0.958
 3622SOL    HW111765   0.398   0.386   1.034
 3622SOL    HW211766   0.413   0.445   0.883
 3623SOL     OW11767   0.928   5.637   6.157
 3623SOL    HW111768   1.004   5.702   6.150
 3623SOL    HW211769   0.884   5.628   6.068
 3624SOL     OW11770   2.954   0.471   1.877
 3624SOL    HW111771   2.867   0.518   1.896
 3624SOL    HW211772   3.024   0.538   1.856
 3625SOL     OW11773   6.616   2.779   6.570
 3625SOL    HW111774   6.576   2.848   6.509
 3625SOL    HW211775   6.653   2.704   6.515
 3626SOL     OW11776   0.239   3.655   4.383
 3626SOL    HW111777   0.145   3.631   4.409
 3626SOL    HW211778   0.247   3.655   4.283
 3627SOL     OW11779   4.691   2.974   1.119
 3627SOL    HW111780   4.751   3.054   1.130
 3627SOL    HW211781   4.612   2.983   1.179
 3628SOL     OW11782   1.426   1.703   1.611
 3628SOL    HW111783   1.377   1.689   1.697
 3628SOL    HW211784   1.361   1.703   1.536
 3629SOL     OW11785   0.980   1.123   3.853
 3629SOL    HW111786   1.058   1.177   3.820
 3629SOL    HW211787   0.989   1.109   3.952
 3630SOL     OW11788   6.837   2.683   3.221
 3630SOL    HW111789   6.901   2.747   3.264
 3630SOL    HW211790   6.746   2.696   3.259
 3631SOL     OW11791   1.729   6.779   2.925
 3631SOL    HW111792   1.694   6.780   2.831
 3631SOL    HW211793   1.712   6.688   2.965
 3632SOL     OW11794   3.974   4.008   0.644
 3632SOL    HW111795   3.993   3.921   0.690
 3632SOL    HW211796   4.045   4.075   0.668
 3633SOL     OW11797   3.508   2.862   5.930
 3633SOL    HW111798   3.445   2.912   5.870
 3633SOL    HW211799   3.602   2.891   5.912
 3634SOL     OW11800   2.621   5.853   6.114
 3634SOL    HW111801   2.522   5.867   6.108
 3634SOL    HW211802   2.652   5.807   6.031
 3635SOL     OW11803   2.749   1.125   1.517
 3635SOL    HW111804   2.767   1.029   1.494
 3635SOL    HW211805   2.823   1.182   1.480
 3636SOL     OW11806   0.239   5.470   0.474
 3636SOL    HW111807   0.151   5.476   0.427
 3636SOL    HW211808   0.301   5.411   0.422
 3637SOL     OW11809   0.748   2.836   6.640
 3637SOL    HW111810   0.761   2.742   6.668
 3637SOL    HW211811   0.742   2.895   6.721
 3638SOL     OW11812   5.968   4.532   2.709
 3638SOL    HW111813   6.032   4.573   2.645
 3638SOL    HW211814   5.932   4.448   2.670
 3639SOL     OW11815   3.960   3.882   4.930
 3639SOL    HW111816   3.905   3.932   4.862
 3639SOL    HW211817   4.012   3.810   4.884
 3640SOL     OW11818   5.604   2.665   0.507
 3640SOL    HW111819   5.685   2.611   0.533
 3640SOL    HW211820   5.569   2.714   0.587
 3641SOL     OW11821   6.513   3.988   1.297
 3641SOL    HW111822   6.573   4.001   1.376
 3641SOL    HW211823   6.502   3.890   1.279
 3642SOL     OW11824   5.596   2.278   6.495
 3642SOL    HW111825   5.651   2.322   6.566
 3642SOL    HW211826   5.516   2.235   6.536
 3643SOL     OW11827   4.749   6.178   5.937
 3643SOL    HW111828   4.826   6.220   5.986
 3643SOL    HW211829   4.671   6.240   5.939
 3644SOL     OW11830   3.156   0.963   1.888
 3644SOL    HW111831   3.089   1.019   1.838
 3644SOL    HW211832   3.139   0.866   1.870
 3645SOL     OW11833   1.547   3.955   4.736
 3645SOL    HW111834   1.488   4.018   4.685
 3645SOL    HW211835   1.546   3.980   4.833
 3646SOL     OW11836   2.792   4.798   4.807
 3646SOL    HW111837   2.816   4.756   4.895
 3646SOL    HW211838   2.711   4.752   4.769
 3647SOL     OW11839   1.815   6.552   0.370
 3647SOL    HW111840   1.800   6.649   0.351
 3647SOL    HW211841   1.799   6.499   0.287
 3648SOL     OW11842   5.353   5.456   3.541
 3648SOL    HW111843   5.274   5.512   3.516
 3648SOL    HW211844   5.413   5.446   3.463
 3649SOL     OW11845   5.215   3.586   0.258
 3649SOL    HW111846   5.210   3.602   0.159
 3649SOL    HW211847   5.129   3.546   0.289
 3650SOL     OW11848   4.907   4.559   0.989
 3650SOL    HW111849   4.816   4.580   0.954
 3650SOL    HW211850   4.966   4.529   0.914
 3651SOL     OW11851   1.282   2.323   6.070
 3651SOL    HW111852   1.364   2.311   6.127
 3651SOL    HW211853   1.204   2.345   6.128
 3652SOL     OW11854   5.282   1.201   2.222
 3652SOL    HW111855   5.220   1.232   2.150
 3652SOL    HW211856   5.302   1.277   2.284
 3653SOL     OW11857   1.304   1.120   2.230
 3653SOL    HW111858   1.297   1.196   2.294
 3653SOL    HW211859   1.344   1.153   2.144
 3654SOL     OW11860   5.019   0.319   0.899
 3654SOL    HW111861   5.034   0.220   0.895
 3654SOL    HW211862   4.974   0.342   0.986
 3655SOL     OW11863   1.961   1.402   3.995
 3655SOL    HW111864   1.962   1.410   3.895
 3655SOL    HW211865   1.873   1.435   4.030
 3656SOL     OW11866   0.421   5.463   1.920
 3656SOL    HW111867   0.384   5.377   1.885
 3656SOL    HW211868   0.359   5.538   1.897
 3657SOL     OW11869   4.742   6.013   4.955
 3657SOL    HW111870   4.771   6.090   5.011
 3657SOL    HW211871   4.650   6.029   4.921
 3658SOL     OW11872   0.842   5.643   6.433
 3658SOL    HW111873   0.855   5.605   6.341
 3658SOL    HW211874   0.813   5.570   6.496
 3659SOL     OW11875   6.706   1.756   6.331
 3659SOL    HW111876   6.709   1.846   6.287
 3659SOL    HW211877   6.618   1.744   6.377
 3660SOL     OW11878   5.458   5.656   5.867
 3660SOL    HW111879   5.542   5.651   5.814
 3660SOL    HW211880   5.385   5.694   5.811
 3661SOL     OW11881   6.940   1.750   5.272
 3661SOL    HW111882   6.993   1.742   5.356
 3661SOL    HW211883   6.941   1.662   5.224
 3662SOL     OW11884   3.807   0.901   5.920
 3662SOL    HW111885   3.751   0.921   5.840
 3662SOL    HW211886   3.748   0.893   6.001
 3663SOL     OW11887   2.372   3.135   6.711
 3663SOL    HW111888   2.342   3.057   6.655
 3663SOL    HW211889   2.367   3.110   6.807
 3664SOL     OW11890   4.266   1.797   2.310
 3664SOL    HW111891   4.313   1.873   2.265
 3664SOL    HW211892   4.334   1.736   2.350
 3665SOL     OW11893   0.194   6.071   5.675
 3665SOL    HW111894   0.160   5.977   5.666
 3665SOL    HW211895   0.173   6.122   5.592
 3666SOL     OW11896   1.700   2.264   4.150
 3666SOL    HW111897   1.619   2.219   4.112
 3666SOL    HW211898   1.675   2.311   4.235
 3667SOL     OW11899   2.160   1.251   2.332
 3667SOL    HW111900   2.181   1.278   2.426
 3667SOL    HW211901   2.237   1.276   2.273
 3668SOL     OW11902   0.893   0.292   1.906
 3668SOL    HW111903   0.984   0.278   1.945
 3668SOL    HW211904   0.834   0.336   1.974
 3669SOL     OW11905   6.575   1.757   3.890
 3669SOL    HW111906   6.640   1.708   3.832
 3669SOL    HW211907   6.626   1.811   3.958
 3670SOL     OW11908   3.198   5.267   1.304
 3670SOL    HW111909   3.289   5.249   1.267
 3670SOL    HW211910   3.138   5.298   1.230
 3671SOL     OW11911   0.043   0.370   3.399
 3671SOL    HW111912   0.035   0.469   3.389
 3671SOL    HW211913   6.980   0.335   3.442
 3672SOL     OW11914   4.607   1.469   2.853
 3672SOL    HW111915   4.639   1.403   2.786
 3672SOL    HW211916   4.521   1.437   2.894
 3673SOL     OW11917   5.011   6.059   0.557
 3673SOL    HW111918   5.036   6.084   0.464
 3673SOL    HW211919   5.093   6.028   0.606
 3674SOL     OW11920   1.642   5.737   5.417
 3674SOL    HW111921   1.638   5.705   5.323
 3674SOL    HW211922   1.726   5.703   5.460
 3675SOL     OW11923   6.738   2.067   4.294
 3675SOL    HW111924   6.725   2.013   4.377
 3675SOL    HW211925   6.715   2.163   4.312
 3676SOL     OW11926   4.884   2.201   2.967
 3676SOL    HW111927   4.929   2.136   3.028
 3676SOL    HW211928   4.938   2.285   2.962
 3677SOL     OW11929   2.402   0.587   3.857
 3677SOL    HW111930   2.365   0.572   3.766
 3677SOL    HW211931   2.334   0.632   3.914
 3678SOL     OW11932   1.468   0.459   3.739
 3678SOL    HW111933   1.426   0.427   3.824
 3678SOL    HW211934   1.566   0.475   3.754
 3679SOL     OW11935   5.032   0.967   2.551
 3679SOL    HW111936   4.957   0.919   2.505
 3679SOL    HW211937   5.119   0.933   2.517
 3680SOL     OW11938   4.573   1.456   3.427
 3680SOL    HW111939   4.482   1.458   3.468
 3680SOL    HW211940   4.575   1.514   3.346
 3681SOL     OW11941   1.516   0.297   4.868
 3681SOL    HW111942   1.470   0.208   4.859
 3681SOL    HW211943   1.605   0.283   4.911
 3682SOL     OW11944   5.591   2.036   0.976
 3682SOL    HW111945   5.562   2.120   0.931
 3682SOL    HW211946   5.677   2.052   1.025
 3683SOL     OW11947   6.959   0.869   5.270
 3683SOL    HW111948   6.929   0.856   5.175
 3683SOL    HW211949   6.881   0.895   5.326
 3684SOL     OW11950   1.696   7.013   5.504
 3684SOL    HW111951   1.678   6.997   5.601
 3684SOL    HW211952   1.672   0.087   5.481
 3685SOL     OW11953   2.173   6.070   5.773
 3685SOL    HW111954   2.186   6.000   5.703
 3685SOL    HW211955   2.258   6.121   5.786
 3686SOL     OW11956   6.856   3.846   3.416
 3686SOL    HW111957   6.847   3.885   3.325
 3686SOL    HW211958   6.805   3.760   3.420
 3687SOL     OW11959   4.683   6.165   3.369
 3687SOL    HW111960   4.698   6.113   3.284
 3687SOL    HW211961   4.673   6.262   3.347
 3688SOL     OW11962   5.624   2.799   0.009
 3688SOL    HW111963   5.611   2.898   0.023
 3688SOL    HW211964   5.601   2.776   6.934
 3689SOL     OW11965   1.521   0.643   5.234
 3689SOL    HW111966   1.432   0.684   5.250
 3689SOL    HW211967   1.516   0.582   5.154
 3690SOL     OW11968   5.290   4.979   1.061
 3690SOL    HW111969   5.364   4.943   1.118
 3690SOL    HW211970   5.205   4.981   1.114
 3691SOL     OW11971   2.867   1.826   0.003
 3691SOL    HW111972   2.934   1.767   6.979
 3691SOL    HW211973   2.846   1.904   6.964
 3692SOL     OW11974   0.822   3.501   6.272
 3692SOL    HW111975   0.804   3.460   6.361
 3692SOL    HW211976   0.910   3.549   6.275
 3693SOL     OW11977   1.148   1.781   2.786
 3693SOL    HW111978   1.173   1.818   2.697
 3693SOL    HW211979   1.108   1.853   2.842
 3694SOL     OW11980   0.308   0.383   2.228
 3694SOL    HW111981   0.218   0.396   2.186
 3694SOL    HW211982   0.339   0.290   2.211
 3695SOL     OW11983   6.253   2.582   2.946
 3695SOL    HW111984   6.265   2.519   2.869
 3695SOL    HW211985   6.163   2.625   2.941
 3696SOL     OW11986   5.016   0.735   5.025
 3696SOL    HW111987   5.097   0.719   5.081
 3696SOL    HW211988   4.950   0.662   5.041
 3697SOL     OW11989   6.252   6.591   3.731
 3697SOL    HW111990   6.297   6.641   3.805
 3697SOL    HW211991   6.319   6.534   3.684
 3698SOL     OW11992   2.119   0.576   2.912
 3698SOL    HW111993   2.099   0.478   2.922
 3698SOL    HW211994   2.049   0.629   2.958
 3699SOL     OW11995   2.385   2.081   4.145
 3699SOL    HW111996   2.473   2.119   4.173
 3699SOL    HW211997   2.313   2.147   4.164
 3700SOL     OW11998   1.497   5.211   4.976
 3700SOL    HW111999   1.529   5.294   4.931
 3700SOL    HW212000   1.476   5.141   4.908
 3701SOL     OW12001   0.969   6.840   3.010
 3701SOL    HW112002   0.971   6.936   3.037
 3701SOL    HW212003   1.033   6.825   2.934
 3702SOL     OW12004   5.231   4.388   3.531
 3702SOL    HW112005   5.219   4.479   3.569
 3702SOL    HW212006   5.283   4.331   3.595
 3703SOL     OW12007   1.372   1.870   5.667
 3703SOL    HW112008   1.309   1.808   5.620
 3703SOL    HW212009   1.344   1.964   5.650
 3704SOL     OW12010   6.779   2.341   1.211
 3704SOL    HW112011   6.795   2.302   1.120
 3704SOL    HW212012   6.703   2.406   1.205
 3705SOL     OW12013   4.811   4.671   3.891
 3705SOL    HW112014   4.834   4.606   3.964
 3705SOL    HW212015   4.888   4.733   3.877
 3706SOL     OW12016   1.074   3.788   0.283
 3706SOL    HW112017   1.062   3.709   0.344
 3706SOL    HW212018   1.022   3.866   0.320
 3707SOL     OW12019   2.306   4.711   3.784
 3707SOL    HW112020   2.369   4.647   3.739
 3707SOL    HW212021   2.342   4.804   3.777
 3708SOL     OW12022   3.799   6.829   1.047
 3708SOL    HW112023   3.716   6.808   0.996
 3708SOL    HW212024   3.783   6.909   1.105
 3709SOL     OW12025   2.111   0.630   2.642
 3709SOL    HW112026   2.107   0.728   2.627
 3709SOL    HW212027   2.093   0.610   2.738
 3710SOL     OW12028   0.230   5.326   5.537
 3710SOL    HW112029   0.313   5.285   5.575
 3710SOL    HW212030   0.240   5.337   5.438
 3711SOL     OW12031   2.053   6.400   4.632
 3711SOL    HW112032   2.048   6.478   4.569
 3711SOL    HW212033   1.976   6.405   4.696
 3712SOL     OW12034   1.977   5.561   5.244
 3712SOL    HW112035   2.059   5.603   5.205
 3712SOL    HW212036   1.915   5.536   5.170
 3713SOL     OW12037   6.635   6.507   5.457
 3713SOL    HW112038   6.694   6.585   5.478
 3713SOL    HW212039   6.692   6.428   5.436
 3714SOL     OW12040   1.020   4.671   0.398
 3714SOL    HW112041   1.113   4.640   0.377
 3714SOL    HW212042   1.000   4.652   0.494
 3715SOL     OW12043   6.533   5.877   3.216
 3715SOL    HW112044   6.591   5.927   3.282
 3715SOL    HW212045   6.532   5.780   3.239
 3716SOL     OW12046   5.691   5.806   3.813
 3716SOL    HW112047   5.715   5.871   3.885
 3716SOL    HW212048   5.608   5.838   3.767
 3717SOL     OW12049   4.136   1.493   1.258
 3717SOL    HW112050   4.052   1.440   1.268
 3717SOL    HW212051   4.213   1.442   1.297
 3718SOL     OW12052   0.515   6.877   6.393
 3718SOL    HW112053   0.585   6.807   6.379
 3718SOL    HW212054   0.428   6.845   6.357
 3719SOL     OW12055   4.490   3.955   6.595
 3719SOL    HW112056   4.477   3.884   6.526
 3719SOL    HW212057   4.444   4.039   6.565
 3720SOL     OW12058   6.811   3.131   1.436
 3720SOL    HW112059   6.744   3.109   1.508
 3720SOL    HW212060   6.888   3.179   1.477
 3721SOL     OW12061   6.851   4.494   6.774
 3721SOL    HW112062   6.756   4.498   6.803
 3721SOL    HW212063   6.910   4.523   6.850
 3722SOL     OW12064   4.054   6.941   2.487
 3722SOL    HW112065   4.057   0.011   2.529
 3722SOL    HW212066   4.074   6.871   2.555
 3723SOL     OW12067   4.387   5.233   6.684
 3723SOL    HW112068   4.289   5.238   6.666
 3723SOL    HW212069   4.406   5.267   6.776
 3724SOL     OW12070   1.436   4.709   4.620
 3724SOL    HW112071   1.496   4.639   4.583
 3724SOL    HW212072   1.487   4.765   4.687
 3725SOL     OW12073   0.313   6.697   7.012
 3725SOL    HW112074   0.275   6.685   6.920
 3725SOL    HW212075   0.313   6.609   0.039
 3726SOL     OW12076   5.638   3.655   3.884
 3726SOL    HW112077   5.671   3.563   3.906
 3726SOL    HW212078   5.543   3.650   3.853
 3727SOL     OW12079   0.009   3.022   4.298
 3727SOL    HW112080   6.970   2.987   4.225
 3727SOL    HW212081   0.101   2.986   4.286
 3728SOL     OW12082   3.550   3.570   0.139
 3728SOL    HW112083   3.452   3.583   0.149
 3728SOL    HW212084   3.598   3.653   0.168
 3729SOL     OW12085   0.690   0.077   5.260
 3729SOL    HW112086   0.625   0.126   5.318
 3729SOL    HW212087   0.764   0.039   5.316
 3730SOL     OW12088   4.235   6.120   5.837
 3730SOL    HW112089   4.272   6.027   5.837
 3730SOL    HW212090   4.191   6.139   5.925
 3731SOL     OW12091   0.576   2.143   6.300
 3731SOL    HW112092   0.503   2.211   6.295
 3731SOL    HW212093   0.568   2.093   6.386
 3732SOL     OW12094   2.931   1.989   6.782
 3732SOL    HW112095   2.880   2.057   6.834
 3732SOL    HW212096   2.916   2.004   6.684
 3733SOL     OW12097   1.677   2.302   3.716
 3733SOL    HW112098   1.706   2.353   3.797
 3733SOL    HW212099   1.757   2.268   3.667
 3734SOL     OW12100   3.836   0.357   1.633
 3734SOL    HW112101   3.862   0.427   1.700
 3734SOL    HW212102   3.753   0.384   1.586
 3735SOL     OW12103   4.410   6.835   2.199
 3735SOL    HW112104   4.508   6.856   2.200
 3735SOL    HW212105   4.397   6.739   2.226
 3736SOL     OW12106   6.726   1.123   1.717
 3736SOL    HW112107   6.676   1.036   1.718
 3736SOL    HW212108   6.679   1.187   1.656
 3737SOL     OW12109   0.738   2.429   3.426
 3737SOL    HW112110   0.810   2.420   3.494
 3737SOL    HW212111   0.747   2.356   3.358
 3738SOL     OW12112   6.583   6.261   0.359
 3738SOL    HW112113   6.525   6.229   0.285
 3738SOL    HW212114   6.549   6.350   0.392
 3739SOL     OW12115   2.886   4.975   1.215
 3739SOL    HW112116   2.964   5.001   1.270
 3739SOL    HW212117   2.846   4.891   1.251
 3740SOL     OW12118   5.450   5.326   6.917
 3740SOL    HW112119   5.439   5.233   6.882
 3740SOL    HW212120   5.533   5.331   6.972
 3741SOL     OW12121   5.648   2.297   0.595
 3741SOL    HW112122   5.729   2.356   0.597
 3741SOL    HW212123   5.663   2.222   0.531
 3742SOL     OW12124   4.115   5.797   0.166
 3742SOL    HW112125   4.031   5.757   0.129
 3742SOL    HW212126   4.170   5.832   0.090
 3743SOL     OW12127   4.155   3.389   1.057
 3743SOL    HW112128   4.090   3.359   1.127
 3743SOL    HW212129   4.243   3.342   1.071
 3744SOL     OW12130   0.624   6.264   2.109
 3744SOL    HW112131   0.592   6.203   2.037
 3744SOL    HW212132   0.673   6.341   2.068
 3745SOL     OW12133   4.891   3.652   2.460
 3745SOL    HW112134   4.850   3.585   2.398
 3745SOL    HW212135   4.946   3.717   2.407
 3746SOL     OW12136   6.703   0.457   3.733
 3746SOL    HW112137   6.657   0.537   3.771
 3746SOL    HW212138   6.759   0.414   3.803
 3747SOL     OW12139   4.500   6.729   6.396
 3747SOL    HW112140   4.514   6.819   6.356
 3747SOL    HW212141   4.589   6.686   6.414
 3748SOL     OW12142   5.584   1.031   2.844
 3748SOL    HW112143   5.600   1.116   2.796
 3748SOL    HW212144   5.544   1.050   2.934
 3749SOL     OW12145   0.433   5.207   2.683
 3749SOL    HW112146   0.358   5.196   2.618
 3749SOL    HW212147   0.508   5.256   2.638
 3750SOL     OW12148   5.832   3.994   0.150
 3750SOL    HW112149   5.787   4.083   0.158
 3750SOL    HW212150   5.860   3.979   0.055
 3751SOL     OW12151   2.067   3.183   1.305
 3751SOL    HW112152   2.130   3.225   1.371
 3751SOL    HW212153   2.095   3.089   1.287
 3752SOL     OW12154   0.859   0.488   6.449
 3752SOL    HW112155   0.784   0.432   6.415
 3752SOL    HW212156   0.946   0.446   6.425
 3753SOL     OW12157   6.954   6.338   4.455
 3753SOL    HW112158   7.017   6.352   4.379
 3753SOL    HW212159   7.003   6.299   4.533
 3754SOL     OW12160   5.696   6.380   0.949
 3754SOL    HW112161   5.738   6.440   0.881
 3754SOL    HW212162   5.736   6.399   1.039
 3755SOL     OW12163   5.298   4.263   3.777
 3755SOL    HW112164   5.327   4.187   3.834
 3755SOL    HW212165   5.282   4.344   3.834
 3756SOL     OW12166   2.029   2.232   5.948
 3756SOL    HW112167   1.948   2.289   5.937
 3756SOL    HW212168   2.083   2.265   6.026
 3757SOL     OW12169   3.027   5.794   5.974
 3757SOL    HW112170   2.959   5.732   6.012
 3757SOL    HW212171   3.030   5.877   6.029
 3758SOL     OW12172   2.179   1.332   4.374
 3758SOL    HW112173   2.269   1.368   4.401
 3758SOL    HW212174   2.134   1.397   4.313
 3759SOL     OW12175   4.956   4.659   5.923
 3759SOL    HW112176   4.938   4.560   5.918
 3759SOL    HW212177   4.871   4.707   5.946
 3760SOL     OW12178   1.478   2.974   4.470
 3760SOL    HW112179   1.479   3.047   4.539
 3760SOL    HW212180   1.571   2.939   4.458
 3761SOL     OW12181   0.515   6.553   4.673
 3761SOL    HW112182   0.582   6.512   4.735
 3761SOL    HW212183   0.513   6.503   4.587
 3762SOL     OW12184   0.789   4.278   0.120
 3762SOL    HW112185   0.707   4.276   0.063
 3762SOL    HW212186   0.815   4.373   0.137
 3763SOL     OW12187   6.298   3.238   6.285
 3763SOL    HW112188   6.345   3.273   6.204
 3763SOL    HW212189   6.307   3.139   6.288
 3764SOL     OW12190   2.721   0.293   3.988
 3764SOL    HW112191   2.798   0.339   4.033
 3764SOL    HW212192   2.727   0.306   3.890
 3765SOL     OW12193   4.694   0.984   3.591
 3765SOL    HW112194   4.649   1.053   3.534
 3765SOL    HW212195   4.640   0.970   3.674
 3766SOL     OW12196   0.233   1.277   3.870
 3766SOL    HW112197   0.181   1.362   3.876
 3766SOL    HW212198   0.331   1.298   3.872
 3767SOL     OW12199   1.230   5.180   6.592
 3767SOL    HW112200   1.326   5.189   6.620
 3767SOL    HW212201   1.177   5.138   6.666
 3768SOL     OW12202   4.378   6.470   6.719
 3768SOL    HW112203   4.379   6.570   6.710
 3768SOL    HW212204   4.285   6.439   6.735
 3769SOL     OW12205   5.386   6.088   4.981
 3769SOL    HW112206   5.299   6.110   5.025
 3769SOL    HW212207   5.411   6.163   4.920
 3770SOL     OW12208   2.050   1.335   6.180
 3770SOL    HW112209   1.961   1.360   6.141
 3770SOL    HW212210   2.070   1.396   6.256
 3771SOL     OW12211   5.044   2.300   0.285
 3771SOL    HW112212   5.067   2.225   0.347
 3771SOL    HW212213   4.976   2.269   0.219
 3772SOL     OW12214   5.932   0.585   1.478
 3772SOL    HW112215   5.891   0.627   1.398
 3772SOL    HW212216   5.923   0.646   1.557
 3773SOL     OW12217   5.766   2.993   5.572
 3773SOL    HW112218   5.826   2.936   5.628
 3773SOL    HW212219   5.753   3.082   5.617
 3774SOL     OW12220   0.939   0.878   6.875
 3774SOL    HW112221   0.896   0.827   6.800
 3774SOL    HW212222   1.037   0.884   6.858
 3775SOL     OW12223   5.208   3.709   3.608
 3775SOL    HW112224   5.133   3.684   3.547
 3775SOL    HW212225   5.240   3.801   3.586
 3776SOL     OW12226   2.095   2.617   1.579
 3776SOL    HW112227   2.103   2.586   1.674
 3776SOL    HW212228   2.145   2.556   1.519
 3777SOL     OW12229   2.901   5.208   4.739
 3777SOL    HW112230   2.876   5.302   4.760
 3777SOL    HW212231   2.975   5.207   4.671
 3778SOL     OW12232   2.696   5.702   2.017
 3778SOL    HW112233   2.787   5.741   2.005
 3778SOL    HW212234   2.659   5.675   1.928
 3779SOL     OW12235   2.510   4.672   0.016
 3779SOL    HW112236   2.559   4.749   6.995
 3779SOL    HW212237   2.535   4.588   6.989
 3780SOL     OW12238   3.015   5.814   5.556
 3780SOL    HW112239   2.939   5.875   5.579
 3780SOL    HW212240   3.065   5.851   5.478
 3781SOL     OW12241   3.180   6.627   4.311
 3781SOL    HW112242   3.158   6.625   4.408
 3781SOL    HW212243   3.277   6.646   4.299
 3782SOL     OW12244   1.978   1.572   4.290
 3782SOL    HW112245   2.046   1.619   4.347
 3782SOL    HW212246   1.904   1.537   4.348
 3783SOL     OW12247   5.390   6.319   4.820
 3783SOL    HW112248   5.469   6.285   4.768
 3783SOL    HW212249   5.420   6.393   4.881
 3784SOL     OW12250   5.403   0.990   3.393
 3784SOL    HW112251   5.426   0.968   3.488
 3784SOL    HW212252   5.380   1.087   3.385
 3785SOL     OW12253   2.358   2.239   0.793
 3785SOL    HW112254   2.392   2.146   0.800
 3785SOL    HW212255   2.411   2.299   0.854
 3786SOL     OW12256   2.876   5.098   3.593
 3786SOL    HW112257   2.930   5.140   3.521
 3786SOL    HW212258   2.910   5.005   3.610
 3787SOL     OW12259   4.966   1.256   4.189
 3787SOL    HW112260   4.986   1.275   4.093
 3787SOL    HW212261   4.875   1.291   4.212
 3788SOL     OW12262   6.397   3.018   3.019
 3788SOL    HW112263   6.446   2.943   2.975
 3788SOL    HW212264   6.462   3.089   3.047
 3789SOL     OW12265   1.446   4.635   3.967
 3789SOL    HW112266   1.431   4.733   3.959
 3789SOL    HW212267   1.362   4.591   3.999
 3790SOL     OW12268   2.166   3.384   4.500
 3790SOL    HW112269   2.219   3.408   4.581
 3790SOL    HW212270   2.183   3.288   4.476
 3791SOL     OW12271   5.307   6.928   1.591
 3791SOL    HW112272   5.341   6.882   1.673
 3791SOL    HW212273   5.233   6.875   1.550
 3792SOL     OW12274   6.336   6.647   4.970
 3792SOL    HW112275   6.326   6.549   4.949
 3792SOL    HW212276   6.419   6.661   5.024
 3793SOL     OW12277   2.048   1.591   2.234
 3793SOL    HW112278   2.062   1.528   2.310
 3793SOL    HW212279   1.958   1.634   2.243
 3794SOL     OW12280   4.183   6.275   1.740
 3794SOL    HW112281   4.273   6.274   1.698
 3794SOL    HW212282   4.147   6.368   1.739
 3795SOL     OW12283   5.005   0.728   6.937
 3795SOL    HW112284   4.911   0.728   6.970
 3795SOL    HW212285   5.029   0.637   6.902
 3796SOL     OW12286   1.606   2.115   1.808
 3796SOL    HW112287   1.612   2.031   1.755
 3796SOL    HW212288   1.513   2.127   1.841
 3797SOL     OW12289   1.173   5.263   2.011
 3797SOL    HW112290   1.266   5.298   2.023
 3797SOL    HW212291   1.177   5.165   1.995
 3798SOL     OW12292   2.380   4.739   2.921
 3798SOL    HW112293   2.301   4.686   2.952
 3798SOL    HW212294   2.417   4.792   2.997
 3799SOL     OW12295   1.774   1.348   5.327
 3799SOL    HW112296   1.843   1.301   5.272
 3799SOL    HW212297   1.818   1.386   5.409
 3800SOL     OW12298   5.276   2.279   4.972
 3800SOL    HW112299   5.235   2.221   4.902
 3800SOL    HW212300   5.254   2.375   4.953
 3801SOL     OW12301   6.985   6.399   5.797
 3801SOL    HW112302   6.904   6.361   5.751
 3801SOL    HW212303   6.971   6.496   5.814
 3802SOL     OW12304   0.976   1.921   4.742
 3802SOL    HW112305   1.047   1.880   4.798
 3802SOL    HW212306   0.955   2.012   4.776
 3803SOL     OW12307   4.004   0.215   1.411
 3803SOL    HW112308   3.953   0.228   1.496
 3803SOL    HW212309   3.968   0.136   1.362
 3804SOL     OW12310   4.390   2.030   4.429
 3804SOL    HW112311   4.346   2.094   4.365
 3804SOL    HW212312   4.364   2.053   4.522
 3805SOL     OW12313   2.989   4.231   1.749
 3805SOL    HW112314   2.955   4.321   1.775
 3805SOL    HW212315   2.942   4.200   1.666
 3806SOL     OW12316   2.682   2.860   0.449
 3806SOL    HW112317   2.728   2.901   0.370
 3806SOL    HW212318   2.674   2.927   0.522
 3807SOL     OW12319   0.822   6.790   4.246
 3807SOL    HW112320   0.824   6.776   4.147
 3807SOL    HW212321   0.901   6.745   4.288
 3808SOL     OW12322   3.510   0.094   1.729
 3808SOL    HW112323   3.524   0.187   1.763
 3808SOL    HW212324   3.500   0.032   1.807
 3809SOL     OW12325   6.035   1.850   6.950
 3809SOL    HW112326   6.112   1.798   6.989
 3809SOL    HW212327   5.979   1.789   6.894
 3810SOL     OW12328   3.295   3.186   5.305
 3810SOL    HW112329   3.267   3.127   5.229
 3810SOL    HW212330   3.215   3.236   5.338
 3811SOL     OW12331   0.535   4.744   4.415
 3811SOL    HW112332   0.543   4.806   4.493
 3811SOL    HW212333   0.439   4.736   4.388
 3812SOL     OW12334   6.253   1.820   5.734
 3812SOL    HW112335   6.194   1.867   5.669
 3812SOL    HW212336   6.262   1.876   5.817
 3813SOL     OW12337   3.334   5.671   0.426
 3813SOL    HW112338   3.243   5.691   0.461
 3813SOL    HW212339   3.373   5.753   0.384
 3814SOL     OW12340   6.648   6.180   1.774
 3814SOL    HW112341   6.567   6.144   1.820
 3814SOL    HW212342   6.620   6.230   1.692
 3815SOL     OW12343   5.436   2.017   1.259
 3815SOL    HW112344   5.381   1.984   1.336
 3815SOL    HW212345   5.470   1.939   1.206
 3816SOL     OW12346   0.101   6.622   1.926
 3816SOL    HW112347   0.167   6.547   1.914
 3816SOL    HW212348   0.049   6.634   1.842
 3817SOL     OW12349   4.738   2.324   4.239
 3817SOL    HW112350   4.771   2.231   4.255
 3817SOL    HW212351   4.669   2.323   4.167
 3818SOL     OW12352   4.692   6.034   2.491
 3818SOL    HW112353   4.599   6.070   2.482
 3818SOL    HW212354   4.689   5.939   2.519
 3819SOL     OW12355   5.462   5.223   0.976
 3819SOL    HW112356   5.373   5.183   1.000
 3819SOL    HW212357   5.509   5.162   0.912
 3820SOL     OW12358   4.566   5.880   4.174
 3820SOL    HW112359   4.662   5.898   4.151
 3820SOL    HW212360   4.561   5.845   4.268
 3821SOL     OW12361   1.744   3.436   2.156
 3821SOL    HW112362   1.785   3.377   2.087
 3821SOL    HW212363   1.767   3.532   2.137
 3822SOL     OW12364   2.678   5.106   1.739
 3822SOL    HW112365   2.735   5.102   1.821
 3822SOL    HW212366   2.630   5.194   1.736
 3823SOL     OW12367   3.780   2.854   5.871
 3823SOL    HW112368   3.781   2.783   5.801
 3823SOL    HW212369   3.835   2.824   5.949
 3824SOL     OW12370   6.150   1.927   6.164
 3824SOL    HW112371   6.071   1.980   6.197
 3824SOL    HW212372   6.205   1.897   6.242
 3825SOL     OW12373   0.718   0.083   6.155
 3825SOL    HW112374   0.705   0.123   6.245
 3825SOL    HW212375   0.808   0.109   6.119
 3826SOL     OW12376   6.744   3.568   1.084
 3826SOL    HW112377   6.784   3.478   1.100
 3826SOL    HW212378   6.667   3.560   1.020
 3827SOL     OW12379   3.592   3.714   0.656
 3827SOL    HW112380   3.555   3.753   0.740
 3827SOL    HW212381   3.672   3.658   0.677
 3828SOL     OW12382   4.384   2.618   1.722
 3828SOL    HW112383   4.287   2.640   1.732
 3828SOL    HW212384   4.435   2.702   1.705
 3829SOL     OW12385   2.191   5.090   3.754
 3829SOL    HW112386   2.214   5.100   3.851
 3829SOL    HW212387   2.234   5.007   3.718
 3830SOL     OW12388   2.615   0.230   5.368
 3830SOL    HW112389   2.644   0.178   5.287
 3830SOL    HW212390   2.691   0.287   5.400
 3831SOL     OW12391   4.529   1.953   2.417
 3831SOL    HW112392   4.509   1.997   2.504
 3831SOL    HW212393   4.510   1.855   2.423
 3832SOL     OW12394   6.626   0.792   1.508
 3832SOL    HW112395   6.694   0.776   1.436
 3832SOL    HW212396   6.535   0.767   1.473
 3833SOL     OW12397   0.780   5.007   0.957
 3833SOL    HW112398   0.696   4.994   1.010
 3833SOL    HW212399   0.857   5.023   1.020
 3834SOL     OW12400   2.737   1.748   0.506
 3834SOL    HW112401   2.731   1.753   0.606
 3834SOL    HW212402   2.679   1.819   0.466
 3835SOL     OW12403   3.940   5.788   5.925
 3835SOL    HW112404   4.036   5.762   5.931
 3835SOL    HW212405   3.883   5.707   5.937
 3836SOL     OW12406   1.540   4.265   6.153
 3836SOL    HW112407   1.610   4.195   6.140
 3836SOL    HW212408   1.502   4.292   6.064
 3837SOL     OW12409   4.709   3.856   0.237
 3837SOL    HW112410   4.770   3.900   0.303
 3837SOL    HW212411   4.763   3.801   0.173
 3838SOL     OW12412   5.909   2.405   4.161
 3838SOL    HW112413   5.928   2.405   4.259
 3838SOL    HW212414   5.816   2.370   4.145
 3839SOL     OW12415   5.430   6.603   5.491
 3839SOL    HW112416   5.388   6.518   5.462
 3839SOL    HW212417   5.502   6.628   5.426
 3840SOL     OW12418   1.905   1.002   3.983
 3840SOL    HW112419   1.888   0.973   3.889
 3840SOL    HW212420   1.818   1.009   4.032
 3841SOL     OW12421   0.978   4.169   5.080
 3841SOL    HW112422   1.071   4.180   5.117
 3841SOL    HW212423   0.959   4.243   5.015
 3842SOL     OW12424   1.075   4.947   0.314
 3842SOL    HW112425   1.076   4.854   0.351
 3842SOL    HW212426   1.046   5.010   0.386
 3843SOL     OW12427   6.142   2.846   0.441
 3843SOL    HW112428   6.139   2.852   0.541
 3843SOL    HW212429   6.208   2.912   0.406
 3844SOL     OW12430   2.136   4.799   5.871
 3844SOL    HW112431   2.186   4.742   5.806
 3844SOL    HW212432   2.101   4.880   5.824
 3845SOL     OW12433   3.516   3.975   3.200
 3845SOL    HW112434   3.420   3.966   3.228
 3845SOL    HW212435   3.563   3.888   3.215
 3846SOL     OW12436   0.352   4.418   4.296
 3846SOL    HW112437   0.318   4.382   4.209
 3846SOL    HW212438   0.302   4.501   4.319
 3847SOL     OW12439   0.097   0.338   6.467
 3847SOL    HW112440   0.087   0.435   6.489
 3847SOL    HW212441   0.149   0.293   6.540
 3848SOL     OW12442   2.841   4.819   1.484
 3848SOL    HW112443   2.844   4.918   1.468
 3848SOL    HW212444   2.865   4.799   1.579
 3849SOL     OW12445   0.835   1.893   5.567
 3849SOL    HW112446   0.810   1.969   5.627
 3849SOL    HW212447   0.786   1.810   5.595
 3850SOL     OW12448   3.281   4.011   1.707
 3850SOL    HW112449   3.380   4.000   1.698
 3850SOL    HW212450   3.253   4.095   1.660
 3851SOL     OW12451   2.136   3.340   3.250
 3851SOL    HW112452   2.216   3.280   3.248
 3851SOL    HW212453   2.094   3.341   3.159
 3852SOL     OW12454   4.158   0.601   4.549
 3852SOL    HW112455   4.224   0.635   4.483
 3852SOL    HW212456   4.132   0.507   4.526
 3853SOL     OW12457   1.023   3.599   2.357
 3853SOL    HW112458   1.042   3.696   2.373
 3853SOL    HW212459   1.059   3.572   2.268
 3854SOL     OW12460   0.629   3.567   4.462
 3854SOL    HW112461   0.593   3.628   4.392
 3854SOL    HW212462   0.553   3.523   4.511
 3855SOL     OW12463   6.248   3.681   5.391
 3855SOL    HW112464   6.258   3.747   5.316
 3855SOL    HW212465   6.169   3.707   5.447
 3856SOL     OW12466   6.953   6.675   5.790
 3856SOL    HW112467   6.949   6.707   5.696
 3856SOL    HW212468   6.894   6.733   5.847
 3857SOL     OW12469   1.009   6.569   4.840
 3857SOL    HW112470   0.977   6.548   4.932
 3857SOL    HW212471   1.093   6.517   4.821
 3858SOL     OW12472   2.007   5.991   6.523
 3858SOL    HW112473   2.088   6.050   6.517
 3858SOL    HW212474   1.948   6.023   6.598
 3859SOL     OW12475   0.058   2.973   2.655
 3859SOL    HW112476   0.081   2.951   2.750
 3859SOL    HW212477   0.134   3.022   2.612
 3860SOL     OW12478   2.256   6.811   5.638
 3860SOL    HW112479   2.194   6.771   5.705
 3860SOL    HW212480   2.303   6.890   5.679
 3861SOL     OW12481   4.571   4.439   1.263
 3861SOL    HW112482   4.643   4.395   1.209
 3861SOL    HW212483   4.564   4.394   1.352
 3862SOL     OW12484   1.187   5.961   5.473
 3862SOL    HW112485   1.286   5.975   5.468
 3862SOL    HW212486   1.147   6.033   5.530
 3863SOL     OW12487   3.064   3.854   1.515
 3863SOL    HW112488   3.127   3.907   1.572
 3863SOL    HW212489   2.972   3.860   1.553
 3864SOL     OW12490   3.174   1.943   0.160
 3864SOL    HW112491   3.083   1.970   0.130
 3864SOL    HW212492   3.213   2.014   0.218
 3865SOL     OW12493   4.957   0.312   2.480
 3865SOL    HW112494   5.029   0.262   2.528
 3865SOL    HW212495   4.910   0.373   2.544
 3866SOL     OW12496   3.574   6.969   0.186
 3866SOL    HW112497   3.550   6.986   0.090
 3866SOL    HW212498   3.514   6.898   0.223
 3867SOL     OW12499   2.146   3.823   3.408
 3867SOL    HW112500   2.113   3.729   3.419
 3867SOL    HW212501   2.153   3.866   3.498
 3868SOL     OW12502   2.078   6.496   2.853
 3868SOL    HW112503   2.015   6.514   2.929
 3868SOL    HW212504   2.069   6.400   2.825
 3869SOL     OW12505   0.879   3.055   3.206
 3869SOL    HW112506   0.957   3.063   3.268
 3869SOL    HW212507   0.912   3.038   3.113
 3870SOL     OW12508   2.543   5.190   0.749
 3870SOL    HW112509   2.582   5.261   0.689
 3870SOL    HW212510   2.518   5.231   0.837
 3871SOL     OW12511   2.449   0.101   3.585
 3871SOL    HW112512   2.423   0.013   3.625
 3871SOL    HW212513   2.545   0.121   3.608
 3872SOL     OW12514   4.194   4.203   0.674
 3872SOL    HW112515   4.170   4.244   0.586
 3872SOL    HW212516   4.253   4.124   0.660
 3873SOL     OW12517   5.900   4.516   1.949
 3873SOL    HW112518   5.975   4.542   2.010
 3873SOL    HW212519   5.873   4.421   1.968
 3874SOL     OW12520   4.671   0.564   6.982
 3874SOL    HW112521   4.678   0.655   0.001
 3874SOL    HW212522   4.685   0.495   0.033
 3875SOL     OW12523   1.314   5.099   1.175
 3875SOL    HW112524   1.349   5.172   1.233
 3875SOL    HW212525   1.234   5.131   1.125
 3876SOL     OW12526   4.979   3.562   3.772
 3876SOL    HW112527   4.985   3.547   3.674
 3876SOL    HW212528   4.932   3.649   3.789
 3877SOL     OW12529   6.041   0.852   2.409
 3877SOL    HW112530   6.065   0.868   2.313
 3877SOL    HW212531   5.946   0.878   2.424
 3878SOL     OW12532   3.744   6.389   5.792
 3878SOL    HW112533   3.646   6.378   5.805
 3878SOL    HW212534   3.793   6.350   5.870
 3879SOL     OW12535   3.984   5.753   2.051
 3879SOL    HW112536   4.072   5.785   2.015
 3879SOL    HW212537   3.975   5.780   2.147
 3880SOL     OW12538   5.234   3.154   3.453
 3880SOL    HW112539   5.328   3.183   3.471
 3880SOL    HW212540   5.191   3.127   3.539
 3881SOL     OW12541   1.439   3.316   0.914
 3881SOL    HW112542   1.406   3.255   0.842
 3881SOL    HW212543   1.538   3.325   0.907
 3882SOL     OW12544   0.098   0.620   5.695
 3882SOL    HW112545   0.024   0.613   5.762
 3882SOL    HW212546   0.064   0.663   5.612
 3883SOL     OW12547   3.628   0.467   5.779
 3883SOL    HW112548   3.722   0.493   5.797
 3883SOL    HW212549   3.567   0.542   5.804
 3884SOL     OW12550   1.930   5.321   6.009
 3884SOL    HW112551   2.011   5.265   6.030
 3884SOL    HW212552   1.860   5.264   5.966
 3885SOL     OW12553   6.662   1.228   4.708
 3885SOL    HW112554   6.714   1.303   4.666
 3885SOL    HW212555   6.570   1.226   4.670
 3886SOL     OW12556   6.211   6.499   5.732
 3886SOL    HW112557   6.268   6.442   5.791
 3886SOL    HW212558   6.169   6.571   5.786
 3887SOL     OW12559   4.118   2.461   5.797
 3887SOL    HW112560   4.125   2.504   5.706
 3887SOL    HW212561   4.049   2.389   5.794
 3888SOL     OW12562   6.928   2.052   0.736
 3888SOL    HW112563   6.881   1.981   0.683
 3888SOL    HW212564   6.990   2.103   0.676
 3889SOL     OW12565   1.056   6.337   6.247
 3889SOL    HW112566   1.005   6.305   6.167
 3889SOL    HW212567   1.130   6.398   6.217
 3890SOL     OW12568   5.143   4.274   3.289
 3890SOL    HW112569   5.186   4.321   3.366
 3890SOL    HW212570   5.068   4.217   3.322
 3891SOL     OW12571   5.470   4.676   5.221
 3891SOL    HW112572   5.487   4.740   5.296
 3891SOL    HW212573   5.556   4.634   5.192
 3892SOL     OW12574   5.074   6.873   2.835
 3892SOL    HW112575   5.045   6.823   2.753
 3892SOL    HW212576   5.161   6.835   2.868
 3893SOL     OW12577   2.866   5.901   3.885
 3893SOL    HW112578   2.843   5.899   3.982
 3893SOL    HW212579   2.918   5.819   3.860
 3894SOL     OW12580   5.367   3.700   6.806
 3894SOL    HW112581   5.397   3.687   6.712
 3894SOL    HW212582   5.364   3.798   6.826
 3895SOL     OW12583   2.896   2.250   5.541
 3895SOL    HW112584   2.893   2.152   5.521
 3895SOL    HW212585   2.849   2.268   5.627
 3896SOL     OW12586   6.248   2.922   5.637
 3896SOL    HW112587   6.262   2.828   5.667
 3896SOL    HW212588   6.218   2.978   5.714
 3897SOL     OW12589   3.891   6.492   2.041
 3897SOL    HW112590   3.823   6.428   2.007
 3897SOL    HW212591   3.856   6.585   2.034
 3898SOL     OW12592   3.885   4.063   4.734
 3898SOL    HW112593   3.971   4.024   4.700
 3898SOL    HW212594   3.824   4.080   4.656
 3899SOL     OW12595   4.723   1.778   5.051
 3899SOL    HW112596   4.717   1.868   5.093
 3899SOL    HW212597   4.673   1.712   5.107
 3900SOL     OW12598   6.442   2.735   3.634
 3900SOL    HW112599   6.444   2.728   3.734
 3900SOL    HW212600   6.514   2.798   3.604
 3901SOL     OW12601   1.990   6.013   5.319
 3901SOL    HW112602   1.926   5.964   5.259
 3901SOL    HW212603   2.070   6.041   5.265
 3902SOL     OW12604   4.258   5.018   1.612
 3902SOL    HW112605   4.206   4.965   1.545
 3902SOL    HW212606   4.242   4.980   1.704
 3903SOL     OW12607   4.321   2.669   6.230
 3903SOL    HW112608   4.265   2.601   6.277
 3903SOL    HW212609   4.300   2.668   6.132
 3904SOL     OW12610   1.574   6.408   1.359
 3904SOL    HW112611   1.650   6.453   1.311
 3904SOL    HW212612   1.609   6.361   1.440
 3905SOL     OW12613   6.732   0.390   5.381
 3905SOL    HW112614   6.822   0.427   5.358
 3905SOL    HW212615   6.734   0.291   5.372
 3906SOL     OW12616   0.779   5.581   4.052
 3906SOL    HW112617   0.818   5.506   4.105
 3906SOL    HW212618   0.730   5.543   3.973
 3907SOL     OW12619   0.418   1.243   4.605
 3907SOL    HW112620   0.469   1.325   4.581
 3907SOL    HW212621   0.320   1.261   4.598
 3908SOL     OW12622   1.346   0.426   4.447
 3908SOL    HW112623   1.368   0.479   4.365
 3908SOL    HW212624   1.255   0.385   4.437
 3909SOL     OW12625   5.983   2.112   6.484
 3909SOL    HW112626   5.938   2.040   6.537
 3909SOL    HW212627   6.004   2.190   6.544
 3910SOL     OW12628   3.527   2.519   0.387
 3910SOL    HW112629   3.527   2.438   0.329
 3910SOL    HW212630   3.478   2.500   0.472
 3911SOL     OW12631   0.043   1.164   1.088
 3911SOL    HW112632   0.001   1.074   1.085
 3911SOL    HW212633   7.017   1.221   1.157
 3912SOL     OW12634   3.748   1.901   0.430
 3912SOL    HW112635   3.722   1.998   0.431
 3912SOL    HW212636   3.676   1.847   0.472
 3913SOL     OW12637   4.904   5.264   1.360
 3913SOL    HW112638   4.991   5.218   1.374
 3913SOL    HW212639   4.920   5.362   1.345
 3914SOL     OW12640   6.528   1.153   0.301
 3914SOL    HW112641   6.441   1.111   0.324
 3914SOL    HW212642   6.582   1.167   0.385
 3915SOL     OW12643   4.849   5.579   6.516
 3915SOL    HW112644   4.886   5.629   6.438
 3915SOL    HW212645   4.900   5.494   6.530
 3916SOL     OW12646   2.806   1.819   2.700
 3916SOL    HW112647   2.885   1.854   2.650
 3916SOL    HW212648   2.836   1.746   2.762
 3917SOL     OW12649   3.300   4.828   1.152
 3917SOL    HW112650   3.264   4.810   1.243
 3917SOL    HW212651   3.390   4.785   1.142
 3918SOL     OW12652   5.136   0.983   0.617
 3918SOL    HW112653   5.155   1.080   0.637
 3918SOL    HW212654   5.207   0.947   0.557
 3919SOL     OW12655   3.797   6.927   2.386
 3919SOL    HW112656   3.719   6.927   2.448
 3919SOL    HW212657   3.882   6.926   2.439
 3920SOL     OW12658   2.781   1.789   5.586
 3920SOL    HW112659   2.758   1.811   5.681
 3920SOL    HW212660   2.860   1.844   5.557
 3921SOL     OW12661   6.869   2.954   6.281
 3921SOL    HW112662   6.912   2.932   6.368
 3921SOL    HW212663   6.937   2.953   6.208
 3922SOL     OW12664   4.947   4.648   2.916
 3922SOL    HW112665   4.980   4.714   2.847
 3922SOL    HW212666   4.962   4.555   2.883
 3923SOL     OW12667   5.277   1.085   1.449
 3923SOL    HW112668   5.286   1.007   1.512
 3923SOL    HW212669   5.239   1.053   1.362
 3924SOL     OW12670   5.357   5.265   4.342
 3924SOL    HW112671   5.281   5.329   4.339
 3924SOL    HW212672   5.328   5.180   4.387
 3925SOL     OW12673   5.242   3.806   0.844
 3925SOL    HW112674   5.290   3.894   0.845
 3925SOL    HW212675   5.204   3.790   0.753
 3926SOL     OW12676   0.457   6.419   6.321
 3926SOL    HW112677   0.459   6.362   6.403
 3926SOL    HW212678   0.414   6.367   6.246
 3927SOL     OW12679   5.610   1.952   5.737
 3927SOL    HW112680   5.665   1.897   5.799
 3927SOL    HW212681   5.594   1.901   5.653
 3928SOL     OW12682   2.926   5.924   2.067
 3928SOL    HW112683   2.930   5.875   2.154
 3928SOL    HW212684   2.962   5.866   1.994
 3929SOL     OW12685   0.260   2.492   5.013
 3929SOL    HW112686   0.315   2.435   5.074
 3929SOL    HW212687   0.250   2.446   4.925
 3930SOL     OW12688   1.849   4.740   3.737
 3930SOL    HW112689   1.839   4.720   3.835
 3930SOL    HW212690   1.912   4.675   3.696
 3931SOL     OW12691   2.479   2.047   1.567
 3931SOL    HW112692   2.404   2.059   1.632
 3931SOL    HW212693   2.564   2.077   1.610
 3932SOL     OW12694   2.458   4.929   3.762
 3932SOL    HW112695   2.553   4.900   3.757
 3932SOL    HW212696   2.453   5.029   3.754
 3933SOL     OW12697   2.104   5.707   1.375
 3933SOL    HW112698   2.111   5.615   1.414
 3933SOL    HW212699   2.022   5.752   1.411
 3934SOL     OW12700   0.262   0.885   1.656
 3934SOL    HW112701   0.354   0.913   1.686
 3934SOL    HW212702   0.220   0.960   1.605
 3935SOL     OW12703   6.868   3.460   6.317
 3935SOL    HW112704   6.876   3.467   6.416
 3935SOL    HW212705   6.785   3.507   6.287
 3936SOL     OW12706   0.128   4.990   5.726
 3936SOL    HW112707   0.104   5.085   5.706
 3936SOL    HW212708   0.048   4.932   5.712
 3937SOL     OW12709   0.134   6.758   1.677
 3937SOL    HW112710   0.201   6.832   1.682
 3937SOL    HW212711   0.171   6.682   1.623
 3938SOL     OW12712   1.046   3.351   2.482
 3938SOL    HW112713   1.039   3.406   2.399
 3938SOL    HW212714   1.094   3.266   2.461
 3939SOL     OW12715   1.570   0.969   2.396
 3939SOL    HW112716   1.507   0.912   2.343
 3939SOL    HW212717   1.550   0.960   2.493
 3940SOL     OW12718   3.256   5.458   1.012
 3940SOL    HW112719   3.264   5.498   1.104
 3940SOL    HW212720   3.317   5.379   1.006
 3941SOL     OW12721   5.282   5.785   3.164
 3941SOL    HW112722   5.248   5.875   3.138
 3941SOL    HW212723   5.381   5.781   3.151
 3942SOL     OW12724   6.507   5.951   5.706
 3942SOL    HW112725   6.603   5.971   5.684
 3942SOL    HW212726   6.447   5.992   5.637
 3943SOL     OW12727   1.578   2.454   0.321
 3943SOL    HW112728   1.514   2.483   0.250
 3943SOL    HW212729   1.592   2.355   0.315
 3944SOL     OW12730   5.454   2.499   6.739
 3944SOL    HW112731   5.441   2.411   6.693
 3944SOL    HW212732   5.381   2.513   6.806
 3945SOL     OW12733   6.051   0.431   3.499
 3945SOL    HW112734   6.068   0.334   3.516
 3945SOL    HW212735   6.084   0.456   3.408
 3946SOL     OW12736   1.138   3.007   0.106
 3946SOL    HW112737   1.140   3.092   0.053
 3946SOL    HW212738   1.116   3.028   0.202
 3947SOL     OW12739   6.037   4.991   2.173
 3947SOL    HW112740   6.033   5.006   2.074
 3947SOL    HW212741   5.945   4.999   2.211
 3948SOL     OW12742   1.321   2.516   5.902
 3948SOL    HW112743   1.313   2.453   5.979
 3948SOL    HW212744   1.257   2.591   5.913
 3949SOL     OW12745   6.102   6.883   1.479
 3949SOL    HW112746   6.182   6.860   1.425
 3949SOL    HW212747   6.094   6.983   1.486
 3950SOL     OW12748   3.076   4.623   1.648
 3950SOL    HW112749   3.032   4.583   1.728
 3950SOL    HW212750   3.078   4.723   1.658
 3951SOL     OW12751   1.347   2.124   4.802
 3951SOL    HW112752   1.379   2.184   4.729
 3951SOL    HW212753   1.281   2.174   4.858
 3952SOL     OW12754   6.081   3.548   6.641
 3952SOL    HW112755   6.007   3.557   6.708
 3952SOL    HW212756   6.114   3.453   6.641
 3953SOL     OW12757   2.936   4.219   6.114
 3953SOL    HW112758   2.957   4.268   6.030
 3953SOL    HW212759   2.892   4.132   6.092
 3954SOL     OW12760   0.131   3.157   5.355
 3954SOL    HW112761   0.223   3.174   5.392
 3954SOL    HW212762   0.139   3.112   5.266
 3955SOL     OW12763   6.918   4.027   0.225
 3955SOL    HW112764   6.964   4.044   0.312
 3955SOL    HW212765   6.986   4.002   0.156
 3956SOL     OW12766   0.649   3.114   5.689
 3956SOL    HW112767   0.618   3.202   5.726
 3956SOL    HW212768   0.666   3.051   5.765
 3957SOL     OW12769   0.655   1.234   3.259
 3957SOL    HW112770   0.660   1.334   3.252
 3957SOL    HW212771   0.739   1.194   3.224
 3958SOL     OW12772   5.943   6.000   6.432
 3958SOL    HW112773   5.879   5.929   6.400
 3958SOL    HW212774   5.933   6.082   6.376
 3959SOL     OW12775   2.286   4.927   0.834
 3959SOL    HW112776   2.374   4.881   0.843
 3959SOL    HW212777   2.286   5.011   0.888
 3960SOL     OW12778   4.831   3.356   0.543
 3960SOL    HW112779   4.760   3.426   0.540
 3960SOL    HW212780   4.792   3.268   0.519
 3961SOL     OW12781   5.487   0.842   2.375
 3961SOL    HW112782   5.420   0.912   2.399
 3961SOL    HW212783   5.480   0.819   2.278
 3962SOL     OW12784   0.571   6.836   5.490
 3962SOL    HW112785   0.493   6.898   5.500
 3962SOL    HW212786   0.655   6.882   5.520
 3963SOL     OW12787   4.805   5.554   2.913
 3963SOL    HW112788   4.735   5.548   2.842
 3963SOL    HW212789   4.786   5.487   2.985
 3964SOL     OW12790   5.507   6.653   5.755
 3964SOL    HW112791   5.480   6.633   5.660
 3964SOL    HW212792   5.442   6.716   5.796
 3965SOL     OW12793   4.082   3.235   0.613
 3965SOL    HW112794   4.043   3.273   0.529
 3965SOL    HW212795   4.081   3.305   0.685
 3966SOL     OW12796   6.336   4.335   5.230
 3966SOL    HW112797   6.408   4.314   5.296
 3966SOL    HW212798   6.297   4.425   5.252
 3967SOL     OW12799   1.257   5.544   6.812
 3967SOL    HW112800   1.299   5.612   6.752
 3967SOL    HW212801   1.327   5.478   6.841
 3968SOL     OW12802   5.470   0.463   1.641
 3968SOL    HW112803   5.522   0.384   1.671
 3968SOL    HW212804   5.527   0.545   1.648
 3969SOL     OW12805   0.300   5.732   1.811
 3969SOL    HW112806   0.201   5.722   1.811
 3969SOL    HW212807   0.326   5.812   1.758
 3970SOL     OW12808   4.722   4.410   3.719
 3970SOL    HW112809   4.642   4.464   3.694
 3970SOL    HW212810   4.788   4.467   3.768
 3971SOL     OW12811   1.680   5.836   3.844
 3971SOL    HW112812   1.762   5.816   3.897
 3971SOL    HW212813   1.701   5.832   3.746
 3972SOL     OW12814   1.519   0.053   0.468
 3972SOL    HW112815   1.505   0.074   0.565
 3972SOL    HW212816   1.570   0.128   0.425
 3973SOL     OW12817   3.484   3.161   2.973
 3973SOL    HW112818   3.511   3.190   2.882
 3973SOL    HW212819   3.507   3.232   3.039
 3974SOL     OW12820   6.142   1.206   6.552
 3974SOL    HW112821   6.182   1.143   6.485
 3974SOL    HW212822   6.160   1.171   6.644
 3975SOL     OW12823   6.729   0.034   5.706
 3975SOL    HW112824   6.649   0.082   5.672
 3975SOL    HW212825   6.812   0.078   5.670
 3976SOL     OW12826   1.074   3.371   6.703
 3976SOL    HW112827   1.076   3.470   6.706
 3976SOL    HW212828   1.164   3.334   6.725
 3977SOL     OW12829   4.279   6.553   6.274
 3977SOL    HW112830   4.313   6.646   6.285
 3977SOL    HW212831   4.247   6.519   6.362
 3978SOL     OW12832   5.542   3.200   6.668
 3978SOL    HW112833   5.465   3.212   6.604
 3978SOL    HW212834   5.594   3.285   6.674
 3979SOL     OW12835   1.364   0.009   3.036
 3979SOL    HW112836   1.286   7.010   2.976
 3979SOL    HW212837   1.335   0.070   3.109
 3980SOL     OW12838   4.939   3.341   5.008
 3980SOL    HW112839   4.873   3.396   4.957
 3980SOL    HW212840   4.901   3.316   5.097
 3981SOL     OW12841   6.379   1.623   5.581
 3981SOL    HW112842   6.404   1.668   5.495
 3981SOL    HW212843   6.322   1.685   5.635
 3982SOL     OW12844   3.985   1.664   3.844
 3982SOL    HW112845   4.012   1.733   3.777
 3982SOL    HW212846   3.991   1.703   3.936
 3983SOL     OW12847   3.551   6.317   3.895
 3983SOL    HW112848   3.537   6.415   3.879
 3983SOL    HW212849   3.581   6.273   3.810
 3984SOL     OW12850   1.330   6.589   1.461
 3984SOL    HW112851   1.329   6.689   1.465
 3984SOL    HW212852   1.421   6.558   1.434
 3985SOL     OW12853   1.562   3.785   2.072
 3985SOL    HW112854   1.535   3.756   2.164
 3985SOL    HW212855   1.657   3.761   2.056
 3986SOL     OW12856   1.197   3.154   2.121
 3986SOL    HW112857   1.203   3.066   2.073
 3986SOL    HW212858   1.102   3.175   2.142
 3987SOL     OW12859   2.794   4.851   6.701
 3987SOL    HW112860   2.803   4.875   6.604
 3987SOL    HW212861   2.727   4.911   6.744
 3988SOL     OW12862   4.330   2.356   0.282
 3988SOL    HW112863   4.246   2.315   0.246
 3988SOL    HW212864   4.376   2.291   0.343
 3989SOL     OW12865   4.367   1.022   6.540
 3989SOL    HW112866   4.320   1.023   6.452
 3989SOL    HW212867   4.462   0.993   6.528
 3990SOL     OW12868   1.148   2.981   3.621
 3990SOL    HW112869   1.176   3.054   3.683
 3990SOL    HW212870   1.071   2.931   3.661
 3991SOL     OW12871   6.909   1.749   4.329
 3991SOL    HW112872   6.837   1.792   4.383
 3991SOL    HW212873   6.963   1.820   4.283
 3992SOL     OW12874   5.096   3.929   6.031
 3992SOL    HW112875   5.010   3.888   6.062
 3992SOL    HW212876   5.148   3.962   6.109
 3993SOL     OW12877   2.031   1.532   3.302
 3993SOL    HW112878   2.033   1.632   3.313
 3993SOL    HW212879   2.051   1.509   3.207
 3994SOL     OW12880   2.513   1.899   3.996
 3994SOL    HW112881   2.590   1.946   3.953
 3994SOL    HW212882   2.464   1.962   4.056
 3995SOL     OW12883   1.482   3.697   2.301
 3995SOL    HW112884   1.447   3.613   2.343
 3995SOL    HW212885   1.546   3.742   2.364
 3996SOL     OW12886   5.496   0.068   3.201
 3996SOL    HW112887   5.419   0.102   3.255
 3996SOL    HW212888   5.557   0.015   3.259
 3997SOL     OW12889   5.621   3.606   2.532
 3997SOL    HW112890   5.591   3.671   2.602
 3997SOL    HW212891   5.650   3.521   2.576
 3998SOL     OW12892   6.530   2.370   3.406
 3998SOL    HW112893   6.530   2.271   3.413
 3998SOL    HW212894   6.553   2.396   3.312
 3999SOL     OW12895   5.463   2.436   1.398
 3999SOL    HW112896   5.505   2.365   1.456
 3999SOL    HW212897   5.414   2.393   1.323
 4000SOL     OW12898   3.404   5.734   2.462
 4000SOL    HW112899   3.434   5.827   2.438
 4000SOL    HW212900   3.472   5.693   2.523
 4001SOL     OW12901   1.898   4.415   4.607
 4001SOL    HW112902   1.871   4.331   4.652
 4001SOL    HW212903   1.947   4.474   4.671
 4002SOL     OW12904   3.842   3.504   3.714
 4002SOL    HW112905   3.775   3.574   3.689
 4002SOL    HW212906   3.795   3.419   3.736
 4003SOL     OW12907   2.834   0.983   5.116
 4003SOL    HW112908   2.807   1.029   5.201
 4003SOL    HW212909   2.829   0.884   5.129
 4004SOL     OW12910   0.602   3.916   3.492
 4004SOL    HW112911   0.702   3.911   3.494
 4004SOL    HW212912   0.565   3.823   3.496
 4005SOL     OW12913   5.492   3.258   0.978
 4005SOL    HW112914   5.483   3.358   0.978
 4005SOL    HW212915   5.406   3.217   1.007
 4006SOL     OW12916   5.099   5.038   3.628
 4006SOL    HW112917   5.088   4.982   3.710
 4006SOL    HW212918   5.013   5.085   3.608
 4007SOL     OW12919   6.553   1.526   2.994
 4007SOL    HW112920   6.651   1.505   2.992
 4007SOL    HW212921   6.524   1.556   2.903
 4008SOL     OW12922   3.055   0.218   1.256
 4008SOL    HW112923   2.984   0.278   1.222
 4008SOL    HW212924   3.028   0.180   1.345
 4009SOL     OW12925   4.298   2.079   0.756
 4009SOL    HW112926   4.226   2.054   0.821
 4009SOL    HW212927   4.316   2.177   0.762
 4010SOL     OW12928   2.188   5.108   1.727
 4010SOL    HW112929   2.241   5.028   1.755
 4010SOL    HW212930   2.223   5.189   1.773
 4011SOL     OW12931   5.829   6.018   6.692
 4011SOL    HW112932   5.881   6.015   6.607
 4011SOL    HW212933   5.884   5.977   6.766
 4012SOL     OW12934   4.100   6.768   2.167
 4012SOL    HW112935   4.163   6.693   2.188
 4012SOL    HW212936   4.098   6.832   2.244
 4013SOL     OW12937   0.311   1.145   6.419
 4013SOL    HW112938   0.364   1.116   6.339
 4013SOL    HW212939   0.344   1.234   6.450
 4014SOL     OW12940   3.010   4.782   2.511
 4014SOL    HW112941   3.078   4.718   2.547
 4014SOL    HW212942   3.039   4.876   2.532
 4015SOL     OW12943   3.945   5.033   5.829
 4015SOL    HW112944   3.899   4.968   5.890
 4015SOL    HW212945   3.926   5.009   5.734
 4016SOL     OW12946   4.345   5.869   5.897
 4016SOL    HW112947   4.317   5.850   5.992
 4016SOL    HW212948   4.399   5.793   5.862
 4017SOL     OW12949   0.557   4.658   5.970
 4017SOL    HW112950   0.630   4.713   6.010
 4017SOL    HW212951   0.587   4.563   5.964
 4018SOL     OW12952   4.599   6.336   1.869
 4018SOL    HW112953   4.533   6.345   1.795
 4018SOL    HW212954   4.674   6.278   1.839
 4019SOL     OW12955   5.275   3.236   3.190
 4019SOL    HW112956   5.331   3.188   3.123
 4019SOL    HW212957   5.277   3.188   3.277
 4020SOL     OW12958   6.558   4.654   4.119
 4020SOL    HW112959   6.477   4.607   4.085
 4020SOL    HW212960   6.604   4.597   4.187
 4021SOL     OW12961   3.539   3.462   5.734
 4021SOL    HW112962   3.635   3.453   5.708
 4021SOL    HW212963   3.532   3.497   5.827
 4022SOL     OW12964   2.767   0.363   0.788
 4022SOL    HW112965   2.673   0.359   0.754
 4022SOL    HW212966   2.812   0.274   0.774
 4023SOL     OW12967   0.621   2.341   5.386
 4023SOL    HW112968   0.671   2.281   5.323
 4023SOL    HW212969   0.530   2.359   5.349
 4024SOL     OW12970   0.691   4.634   4.182
 4024SOL    HW112971   0.779   4.642   4.229
 4024SOL    HW212972   0.620   4.681   4.235
 4025SOL     OW12973   0.595   6.333   4.171
 4025SOL    HW112974   0.508   6.350   4.126
 4025SOL    HW212975   0.670   6.349   4.107
 4026SOL     OW12976   6.491   6.488   3.624
 4026SOL    HW112977   6.468   6.395   3.596
 4026SOL    HW212978   6.561   6.486   3.695
 4027SOL     OW12979   2.461   3.761   5.570
 4027SOL    HW112980   2.398   3.722   5.637
 4027SOL    HW212981   2.542   3.702   5.563
 4028SOL     OW12982   4.741   1.591   2.486
 4028SOL    HW112983   4.812   1.648   2.530
 4028SOL    HW212984   4.780   1.545   2.407
 4029SOL     OW12985   2.302   5.301   6.267
 4029SOL    HW112986   2.274   5.221   6.320
 4029SOL    HW212987   2.343   5.272   6.181
 4030SOL     OW12988   0.412   0.995   2.955
 4030SOL    HW112989   0.425   0.960   2.863
 4030SOL    HW212990   0.420   1.095   2.954
 4031SOL     OW12991   5.380   6.942   1.203
 4031SOL    HW112992   5.368   6.881   1.281
 4031SOL    HW212993   5.313   6.919   1.133
 4032SOL     OW12994   6.353   0.250   1.409
 4032SOL    HW112995   6.426   0.304   1.367
 4032SOL    HW212996   6.334   0.285   1.500
 4033SOL     OW12997   2.939   2.239   2.854
 4033SOL    HW112998   2.909   2.184   2.776
 4033SOL    HW212999   2.959   2.179   2.931
 4034SOL     OW13000   0.068   3.384   4.971
 4034SOL    HW113001   0.161   3.421   4.959
 4034SOL    HW213002   0.053   3.362   5.067
 4035SOL     OW13003   6.143   1.886   1.283
 4035SOL    HW113004   6.212   1.951   1.313
 4035SOL    HW213005   6.061   1.896   1.340
 4036SOL     OW13006   2.476   5.196   3.807
 4036SOL    HW113007   2.462   5.292   3.781
 4036SOL    HW213008   2.419   5.175   3.886
 4037SOL     OW13009   1.972   0.829   5.810
 4037SOL    HW113010   1.939   0.809   5.718
 4037SOL    HW213011   2.036   0.757   5.838
 4038SOL     OW13012   3.549   4.394   5.982
 4038SOL    HW113013   3.507   4.393   5.891
 4038SOL    HW213014   3.593   4.483   5.997
 4039SOL     OW13015   6.261   4.438   1.540
 4039SOL    HW113016   6.297   4.405   1.453
 4039SOL    HW213017   6.180   4.495   1.524
 4040SOL     OW13018   3.634   5.224   5.339
 4040SOL    HW113019   3.589   5.139   5.312
 4040SOL    HW213020   3.731   5.206   5.355
 4041SOL     OW13021   2.024   6.330   1.181
 4041SOL    HW113022   2.032   6.374   1.092
 4041SOL    HW213023   2.073   6.243   1.180
 4042SOL     OW13024   6.351   0.414   3.864
 4042SOL    HW113025   6.319   0.428   3.770
 4042SOL    HW213026   6.436   0.465   3.877
 4043SOL     OW13027   5.269   3.298   6.668
 4043SOL    HW113028   5.281   3.316   6.766
 4043SOL    HW213029   5.201   3.361   6.631
 4044SOL     OW13030   4.206   5.219   3.416
 4044SOL    HW113031   4.196   5.271   3.501
 4044SOL    HW213032   4.212   5.122   3.438
 4045SOL     OW13033   4.984   0.323   5.859
 4045SOL    HW113034   4.903   0.287   5.905
 4045SOL    HW213035   5.006   0.266   5.779
 4046SOL     OW13036   0.153   1.719   3.047
 4046SOL    HW113037   0.079   1.662   3.083
 4046SOL    HW213038   0.164   1.701   2.949
 4047SOL     OW13039   2.716   3.057   6.716
 4047SOL    HW113040   2.663   3.140   6.694
 4047SOL    HW213041   2.689   2.983   6.655
 4048SOL     OW13042   5.097   1.338   2.037
 4048SOL    HW113043   5.079   1.338   1.938
 4048SOL    HW213044   5.145   1.422   2.063
 4049SOL     OW13045   4.282   5.457   6.283
 4049SOL    HW113046   4.195   5.428   6.244
 4049SOL    HW213047   4.271   5.544   6.330
 4050SOL     OW13048   0.268   5.617   2.472
 4050SOL    HW113049   0.237   5.710   2.491
 4050SOL    HW213050   0.205   5.552   2.515
 4051SOL     OW13051   4.924   1.303   6.301
 4051SOL    HW113052   5.010   1.350   6.322
 4051SOL    HW213053   4.870   1.360   6.239
 4052SOL     OW13054   6.001   1.808   3.471
 4052SOL    HW113055   6.052   1.890   3.444
 4052SOL    HW213056   5.903   1.825   3.464
 4053SOL     OW13057   1.239   5.380   4.713
 4053SOL    HW113058   1.272   5.307   4.654
 4053SOL    HW213059   1.256   5.469   4.669
 4054SOL     OW13060   4.711   4.072   0.988
 4054SOL    HW113061   4.732   4.146   1.052
 4054SOL    HW213062   4.716   3.985   1.035
 4055SOL     OW13063   1.429   3.832   1.825
 4055SOL    HW113064   1.447   3.832   1.923
 4055SOL    HW213065   1.494   3.893   1.779
 4056SOL     OW13066   4.918   3.350   0.970
 4056SOL    HW113067   4.979   3.293   0.914
 4056SOL    HW213068   4.972   3.396   1.041
 4057SOL     OW13069   6.631   3.564   6.222
 4057SOL    HW113070   6.602   3.595   6.132
 4057SOL    HW213071   6.553   3.566   6.285
 4058SOL     OW13072   2.626   6.013   5.438
 4058SOL    HW113073   2.674   6.036   5.523
 4058SOL    HW213074   2.676   5.942   5.389
 4059SOL     OW13075   0.837   1.963   4.151
 4059SOL    HW113076   0.782   2.038   4.113
 4059SOL    HW213077   0.880   1.912   4.077
 4060SOL     OW13078   6.523   5.722   5.240
 4060SOL    HW113079   6.591   5.787   5.273
 4060SOL    HW213080   6.568   5.635   5.217
 4061SOL     OW13081   2.488   5.112   2.081
 4061SOL    HW113082   2.504   5.069   2.169
 4061SOL    HW213083   2.560   5.084   2.017
 4062SOL     OW13084   2.251   1.794   1.806
 4062SOL    HW113085   2.348   1.774   1.790
 4062SOL    HW213086   2.229   1.775   1.902
 4063SOL     OW13087   5.427   0.954   1.146
 4063SOL    HW113088   5.338   0.961   1.192
 4063SOL    HW213089   5.459   1.046   1.122
 4064SOL     OW13090   2.182   1.741   4.623
 4064SOL    HW113091   2.121   1.818   4.604
 4064SOL    HW213092   2.161   1.703   4.713
 4065SOL     OW13093   1.850   6.822   0.289
 4065SOL    HW113094   1.938   6.779   0.309
 4065SOL    HW213095   1.836   6.900   0.350
 4066SOL     OW13096   7.011   4.511   3.182
 4066SOL    HW113097   0.030   4.551   3.265
 4066SOL    HW213098   6.957   4.431   3.206
 4067SOL     OW13099   5.863   4.525   2.294
 4067SOL    HW113100   5.923   4.589   2.246
 4067SOL    HW213101   5.787   4.575   2.335
 4068SOL     OW13102   1.877   2.238   5.154
 4068SOL    HW113103   1.867   2.139   5.166
 4068SOL    HW213104   1.971   2.258   5.126
 4069SOL     OW13105   4.071   0.072   6.728
 4069SOL    HW113106   4.077   0.040   6.633
 4069SOL    HW213107   4.120   0.008   6.788
 4070SOL     OW13108   1.598   3.142   3.520
 4070SOL    HW113109   1.612   3.206   3.595
 4070SOL    HW213110   1.577   3.051   3.557
 4071SOL     OW13111   0.778   0.276   3.927
 4071SOL    HW113112   0.702   0.268   3.992
 4071SOL    HW213113   0.834   0.355   3.951
 4072SOL     OW13114   1.407   5.522   4.170
 4072SOL    HW113115   1.360   5.467   4.238
 4072SOL    HW213116   1.492   5.559   4.209
 4073SOL     OW13117   2.708   5.544   0.555
 4073SOL    HW113118   2.767   5.487   0.611
 4073SOL    HW213119   2.653   5.487   0.494
 4074SOL     OW13120   1.114   5.276   2.316
 4074SOL    HW113121   1.131   5.259   2.219
 4074SOL    HW213122   1.055   5.356   2.326
 4075SOL     OW13123   4.898   0.547   0.532
 4075SOL    HW113124   4.858   0.578   0.618
 4075SOL    HW213125   4.954   0.466   0.548
 4076SOL     OW13126   3.032   3.282   5.386
 4076SOL    HW113127   2.999   3.230   5.465
 4076SOL    HW213128   3.067   3.370   5.417
 4077SOL     OW13129   4.153   2.160   1.494
 4077SOL    HW113130   4.196   2.225   1.556
 4077SOL    HW213131   4.085   2.106   1.544
 4078SOL     OW13132   2.982   4.844   2.938
 4078SOL    HW113133   2.921   4.784   2.887
 4078SOL    HW213134   2.979   4.936   2.900
 4079SOL     OW13135   1.243   2.434   4.162
 4079SOL    HW113136   1.279   2.505   4.102
 4079SOL    HW213137   1.285   2.346   4.138
 4080SOL     OW13138   5.138   1.681   4.983
 4080SOL    HW113139   5.174   1.588   4.992
 4080SOL    HW213140   5.174   1.737   5.057
 4081SOL     OW13141   1.563   2.918   4.174
 4081SOL    HW113142   1.643   2.912   4.115
 4081SOL    HW213143   1.565   3.004   4.225
 4082SOL     OW13144   1.725   2.968   0.873
 4082SOL    HW113145   1.671   3.021   0.939
 4082SOL    HW213146   1.674   2.887   0.845
 4083SOL     OW13147   5.646   2.669   3.772
 4083SOL    HW113148   5.614   2.620   3.853
 4083SOL    HW213149   5.643   2.768   3.789
 4084SOL     OW13150   6.214   1.967   4.335
 4084SOL    HW113151   6.246   1.966   4.429
 4084SOL    HW213152   6.114   1.970   4.334
 4085SOL     OW13153   3.878   5.937   0.757
 4085SOL    HW113154   3.878   6.026   0.710
 4085SOL    HW213155   3.861   5.865   0.691
 4086SOL     OW13156   1.771   5.510   1.697
 4086SOL    HW113157   1.720   5.595   1.694
 4086SOL    HW213158   1.760   5.468   1.787
 4087SOL     OW13159   2.274   1.963   3.214
 4087SOL    HW113160   2.339   1.946   3.140
 4087SOL    HW213161   2.301   2.045   3.264
 4088SOL     OW13162   6.327   2.110   1.878
 4088SOL    HW113163   6.424   2.133   1.875
 4088SOL    HW213164   6.315   2.013   1.857
 4089SOL     OW13165   0.750   0.431   3.226
 4089SOL    HW113166   0.848   0.450   3.227
 4089SOL    HW213167   0.702   0.503   3.276
 4090SOL     OW13168   2.540   4.198   6.705
 4090SOL    HW113169   2.570   4.287   6.739
 4090SOL    HW213170   2.559   4.193   6.607
 4091SOL     OW13171   5.487   6.907   0.303
 4091SOL    HW113172   5.494   6.970   0.380
 4091SOL    HW213173   5.576   6.865   0.286
 4092SOL     OW13174   0.160   3.048   5.106
 4092SOL    HW113175   0.162   2.948   5.099
 4092SOL    HW213176   0.080   3.083   5.056
 4093SOL     OW13177   5.426   0.888   3.644
 4093SOL    HW113178   5.396   0.957   3.710
 4093SOL    HW213179   5.489   0.825   3.689
 4094SOL     OW13180   2.059   4.485   4.970
 4094SOL    HW113181   2.102   4.401   4.938
 4094SOL    HW213182   1.981   4.463   5.028
 4095SOL     OW13183   1.195   3.390   5.690
 4095SOL    HW113184   1.192   3.457   5.763
 4095SOL    HW213185   1.289   3.362   5.674
 4096SOL     OW13186   4.882   5.125   0.477
 4096SOL    HW113187   4.898   5.033   0.441
 4096SOL    HW213188   4.943   5.142   0.554
 4097SOL     OW13189   3.154   3.980   6.126
 4097SOL    HW113190   3.131   3.956   6.032
 4097SOL    HW213191   3.085   4.043   6.163
 4098SOL     OW13192   0.356   2.924   2.589
 4098SOL    HW113193   0.386   3.008   2.544
 4098SOL    HW213194   0.413   2.907   2.669
 4099SOL     OW13195   2.760   5.709   1.591
 4099SOL    HW113196   2.813   5.628   1.614
 4099SOL    HW213197   2.821   5.781   1.557
 4100SOL     OW13198   4.871   5.848   3.673
 4100SOL    HW113199   4.845   5.770   3.617
 4100SOL    HW213200   4.864   5.932   3.619
 4101SOL     OW13201   5.745   1.518   0.212
 4101SOL    HW113202   5.773   1.595   0.269
 4101SOL    HW213203   5.798   1.437   0.237
 4102SOL     OW13204   6.315   0.222   1.105
 4102SOL    HW113205   6.352   0.153   1.042
 4102SOL    HW213206   6.216   0.213   1.108
 4103SOL     OW13207   0.725   0.891   2.254
 4103SOL    HW113208   0.626   0.884   2.241
 4103SOL    HW213209   0.771   0.858   2.172
 4104SOL     OW13210   1.654   4.190   2.337
 4104SOL    HW113211   1.754   4.198   2.331
 4104SOL    HW213212   1.611   4.270   2.297
 4105SOL     OW13213   4.346   5.705   0.334
 4105SOL    HW113214   4.268   5.744   0.284
 4105SOL    HW213215   4.382   5.774   0.397
 4106SOL     OW13216   6.928   3.673   4.566
 4106SOL    HW113217   6.847   3.624   4.597
 4106SOL    HW213218   7.010   3.619   4.586
 4107SOL     OW13219   0.049   6.009   1.004
 4107SOL    HW113220   0.130   6.062   1.032
 4107SOL    HW213221   0.077   5.935   0.943
 4108SOL     OW13222   0.421   4.681   6.371
 4108SOL    HW113223   0.505   4.736   6.371
 4108SOL    HW213224   0.429   4.609   6.301
 4109SOL     OW13225   3.743   6.221   4.097
 4109SOL    HW113226   3.713   6.262   4.011
 4109SOL    HW213227   3.706   6.128   4.103
 4110SOL     OW13228   3.938   3.853   6.028
 4110SOL    HW113229   3.941   3.816   6.121
 4110SOL    HW213230   3.886   3.791   5.969
 4111SOL     OW13231   3.718   3.061   0.130
 4111SOL    HW113232   3.663   3.127   0.182
 4111SOL    HW213233   3.662   3.020   0.058
 4112SOL     OW13234   4.509   1.251   4.974
 4112SOL    HW113235   4.564   1.170   4.954
 4112SOL    HW213236   4.471   1.288   4.889
 4113SOL     OW13237   3.291   5.774   5.649
 4113SOL    HW113238   3.216   5.725   5.604
 4113SOL    HW213239   3.378   5.730   5.627
 4114SOL     OW13240   3.397   1.133   4.244
 4114SOL    HW113241   3.424   1.057   4.184
 4114SOL    HW213242   3.298   1.137   4.250
 4115SOL     OW13243   4.981   6.041   2.015
 4115SOL    HW113244   4.978   5.958   2.071
 4115SOL    HW213245   4.935   6.115   2.065
 4116SOL     OW13246   3.932   2.047   1.599
 4116SOL    HW113247   3.833   2.062   1.603
 4116SOL    HW213248   3.955   1.964   1.650
 4117SOL     OW13249   0.857   5.380   1.088
 4117SOL    HW113250   0.875   5.463   1.036
 4117SOL    HW213251   0.758   5.365   1.092
 4118SOL     OW13252   0.821   6.827   0.936
 4118SOL    HW113253   0.896   6.763   0.920
 4118SOL    HW213254   0.810   6.887   0.856
 4119SOL     OW13255   3.502   1.498   4.295
 4119SOL    HW113256   3.466   1.468   4.206
 4119SOL    HW213257   3.516   1.597   4.293
 4120SOL     OW13258   3.901   6.518   2.340
 4120SOL    HW113259   3.903   6.523   2.240
 4120SOL    HW213260   3.826   6.458   2.369
 4121SOL     OW13261   6.233   2.464   4.409
 4121SOL    HW113262   6.238   2.377   4.359
 4121SOL    HW213263   6.299   2.528   4.370
 4122SOL     OW13264   0.438   6.608   4.952
 4122SOL    HW113265   0.428   6.568   4.861
 4122SOL    HW213266   0.424   6.707   4.946
 4123SOL     OW13267   5.782   4.174   6.036
 4123SOL    HW113268   5.880   4.184   6.054
 4123SOL    HW213269   5.740   4.122   6.110
 4124SOL     OW13270   5.403   6.672   3.982
 4124SOL    HW113271   5.458   6.664   4.065
 4124SOL    HW213272   5.453   6.633   3.905
 4125SOL     OW13273   4.581   0.929   1.704
 4125SOL    HW113274   4.581   0.866   1.627
 4125SOL    HW213275   4.668   0.978   1.708
 4126SOL     OW13276   1.367   4.183   4.475
 4126SOL    HW113277   1.459   4.195   4.436
 4126SOL    HW213278   1.299   4.198   4.403
 4127SOL     OW13279   5.251   3.463   4.827
 4127SOL    HW113280   5.308   3.493   4.903
 4127SOL    HW213281   5.230   3.366   4.837
 4128SOL     OW13282   1.892   3.827   2.412
 4128SOL    HW113283   1.810   3.838   2.469
 4128SOL    HW213284   1.900   3.731   2.385
 4129SOL     OW13285   5.439   1.963   6.442
 4129SOL    HW113286   5.409   2.049   6.401
 4129SOL    HW213287   5.386   1.947   6.526
 4130SOL     OW13288   6.767   3.627   5.813
 4130SOL    HW113289   6.675   3.639   5.851
 4130SOL    HW213290   6.771   3.542   5.761
 4131SOL     OW13291   0.096   5.930   3.896
 4131SOL    HW113292   0.128   5.835   3.887
 4131SOL    HW213293   0.073   5.948   3.992
 4132SOL     OW13294   5.602   3.319   3.274
 4132SOL    HW113295   5.525   3.333   3.212
 4132SOL    HW213296   5.589   3.233   3.324
 4133SOL     OW13297   3.013   0.621   0.573
 4133SOL    HW113298   3.070   0.558   0.626
 4133SOL    HW213299   2.934   0.649   0.628
 4134SOL     OW13300   2.424   2.185   0.520
 4134SOL    HW113301   2.339   2.144   0.486
 4134SOL    HW213302   2.413   2.211   0.615
 4135SOL     OW13303   1.940   0.283   2.325
 4135SOL    HW113304   1.903   0.192   2.344
 4135SOL    HW213305   2.038   0.275   2.303
 4136SOL     OW13306   0.478   2.383   3.979
 4136SOL    HW113307   0.555   2.422   3.928
 4136SOL    HW213308   0.467   2.433   4.065
 4137SOL     OW13309   3.279   4.208   0.131
 4137SOL    HW113310   3.265   4.159   0.046
 4137SOL    HW213311   3.227   4.164   0.204
 4138SOL     OW13312   4.780   4.748   4.660
 4138SOL    HW113313   4.686   4.733   4.630
 4138SOL    HW213314   4.792   4.712   4.752
 4139SOL     OW13315   1.907   2.326   6.230
 4139SOL    HW113316   1.872   2.274   6.308
 4139SOL    HW213317   1.850   2.406   6.214
 4140SOL     OW13318   3.625   1.351   5.180
 4140SOL    HW113319   3.677   1.412   5.240
 4140SOL    HW213320   3.678   1.269   5.162
 4141SOL     OW13321   4.928   5.400   1.637
 4141SOL    HW113322   4.862   5.366   1.570
 4141SOL    HW213323   4.979   5.477   1.598
 4142SOL     OW13324   6.569   5.150   0.988
 4142SOL    HW113325   6.536   5.146   1.082
 4142SOL    HW213326   6.568   5.245   0.955
 4143SOL     OW13327   6.935   2.788   0.293
 4143SOL    HW113328   6.875   2.867   0.291
 4143SOL    HW213329   6.996   2.790   0.213
 4144SOL     OW13330   5.768   1.292   1.534
 4144SOL    HW113331   5.794   1.369   1.591
 4144SOL    HW213332   5.811   1.208   1.569
 4145SOL     OW13333   0.068   6.469   1.629
 4145SOL    HW113334   0.010   6.530   1.576
 4145SOL    HW213335   0.157   6.459   1.584
 4146SOL     OW13336   5.733   0.224   6.156
 4146SOL    HW113337   5.813   0.164   6.165
 4146SOL    HW213338   5.708   0.260   6.246
 4147SOL     OW13339   3.056   1.910   6.228
 4147SOL    HW113340   3.128   1.871   6.170
 4147SOL    HW213341   3.092   1.989   6.277
 4148SOL     OW13342   0.660   0.775   4.050
 4148SOL    HW113343   0.613   0.860   4.029
 4148SOL    HW213344   0.647   0.710   3.975
 4149SOL     OW13345   6.182   2.610   0.277
 4149SOL    HW113346   6.152   2.666   0.354
 4149SOL    HW213347   6.249   2.660   0.223
 4150SOL     OW13348   5.908   0.599   6.091
 4150SOL    HW113349   5.810   0.588   6.105
 4150SOL    HW213350   5.946   0.516   6.051
 4151SOL     OW13351   6.114   6.299   0.131
 4151SOL    HW113352   6.061   6.224   0.092
 4151SOL    HW213353   6.189   6.322   0.069
 4152SOL     OW13354   3.749   4.882   2.169
 4152SOL    HW113355   3.709   4.863   2.259
 4152SOL    HW213356   3.681   4.865   2.098
 4153SOL     OW13357   5.391   5.197   6.422
 4153SOL    HW113358   5.486   5.224   6.440
 4153SOL    HW213359   5.382   5.167   6.328
 4154SOL     OW13360   6.663   3.689   4.970
 4154SOL    HW113361   6.738   3.631   4.936
 4154SOL    HW213362   6.582   3.673   4.914
 4155SOL     OW13363   0.860   3.426   2.669
 4155SOL    HW113364   0.945   3.396   2.625
 4155SOL    HW213365   0.830   3.513   2.629
 4156SOL     OW13366   5.843   6.972   5.116
 4156SOL    HW113367   5.782   7.000   5.190
 4156SOL    HW213368   5.937   6.995   5.140
 4157SOL     OW13369   3.893   0.199   4.299
 4157SOL    HW113370   3.829   0.265   4.261
 4157SOL    HW213371   3.909   0.220   4.395
 4158SOL     OW13372   0.689   5.291   3.368
 4158SOL    HW113373   0.759   5.220   3.362
 4158SOL    HW213374   0.695   5.337   3.457
 4159SOL     OW13375   1.902   2.696   3.678
 4159SOL    HW113376   1.947   2.729   3.761
 4159SOL    HW213377   1.804   2.689   3.694
 4160SOL     OW13378   6.552   0.350   1.270
 4160SOL    HW113379   6.493   0.319   1.196
 4160SOL    HW213380   6.590   0.440   1.248
 4161SOL     OW13381   1.722   0.770   6.594
 4161SOL    HW113382   1.779   0.834   6.645
 4161SOL    HW213383   1.688   0.699   6.656
 4162SOL     OW13384   5.951   0.308   4.855
 4162SOL    HW113385   5.915   0.283   4.765
 4162SOL    HW213386   6.030   0.367   4.844
 4163SOL     OW13387   5.574   1.325   3.396
 4163SOL    HW113388   5.634   1.285   3.327
 4163SOL    HW213389   5.615   1.410   3.429
 4164SOL     OW13390   1.629   0.596   6.384
 4164SOL    HW113391   1.649   0.678   6.439
 4164SOL    HW213392   1.530   0.586   6.375
 4165SOL     OW13393   3.910   6.439   0.853
 4165SOL    HW113394   3.957   6.523   0.880
 4165SOL    HW213395   3.844   6.413   0.923
 4166SOL     OW13396   4.030   2.848   0.585
 4166SOL    HW113397   4.022   2.762   0.536
 4166SOL    HW213398   3.947   2.902   0.573
 4167SOL     OW13399   2.243   2.450   1.372
 4167SOL    HW113400   2.216   2.507   1.294
 4167SOL    HW213401   2.327   2.399   1.349
 4168SOL     OW13402   0.235   5.430   1.612
 4168SOL    HW113403   0.178   5.503   1.574
 4168SOL    HW213404   0.297   5.397   1.541
 4169SOL     OW13405   4.858   3.771   4.130
 4169SOL    HW113406   4.799   3.845   4.161
 4169SOL    HW213407   4.839   3.689   4.182
 4170SOL     OW13408   3.844   2.496   5.606
 4170SOL    HW113409   3.786   2.456   5.535
 4170SOL    HW213410   3.837   2.596   5.602
 4171SOL     OW13411   5.620   3.587   1.365
 4171SOL    HW113412   5.684   3.516   1.334
 4171SOL    HW213413   5.528   3.549   1.369
 4172SOL     OW13414   6.947   1.825   0.393
 4172SOL    HW113415   6.996   1.859   0.312
 4172SOL    HW213416   7.004   1.838   0.474
 4173SOL     OW13417   5.926   2.904   5.363
 4173SOL    HW113418   6.011   2.957   5.365
 4173SOL    HW213419   5.858   2.948   5.421
 4174SOL     OW13420   4.841   0.226   3.746
 4174SOL    HW113421   4.788   0.191   3.823
 4174SOL    HW213422   4.885   0.150   3.698
 4175SOL     OW13423   3.394   0.203   3.808
 4175SOL    HW113424   3.338   0.127   3.773
 4175SOL    HW213425   3.451   0.239   3.734
 4176SOL     OW13426   4.605   0.289   2.322
 4176SOL    HW113427   4.577   0.333   2.236
 4176SOL    HW213428   4.563   0.335   2.399
 4177SOL     OW13429   0.178   5.658   3.946
 4177SOL    HW113430   0.274   5.633   3.952
 4177SOL    HW213431   0.136   5.652   4.037
 4178SOL     OW13432   3.276   1.252   6.167
 4178SOL    HW113433   3.191   1.243   6.116
 4178SOL    HW213434   3.256   1.266   6.264
 4179SOL     OW13435   5.648   3.463   4.959
 4179SOL    HW113436   5.661   3.366   4.936
 4179SOL    HW213437   5.736   3.510   4.950
 4180SOL     OW13438   5.525   4.356   1.867
 4180SOL    HW113439   5.480   4.443   1.848
 4180SOL    HW213440   5.501   4.289   1.797
 4181SOL     OW13441   1.224   1.717   6.354
 4181SOL    HW113442   1.221   1.801   6.300
 4181SOL    HW213443   1.144   1.661   6.334
 4182SOL     OW13444   0.463   0.106   2.513
 4182SOL    HW113445   0.377   0.151   2.489
 4182SOL    HW213446   0.444   0.013   2.545
 4183SOL     OW13447   2.861   1.636   2.142
 4183SOL    HW113448   2.906   1.671   2.225
 4183SOL    HW213449   2.926   1.580   2.091
 4184SOL     OW13450   3.876   5.295   0.702
 4184SOL    HW113451   3.972   5.270   0.688
 4184SOL    HW213452   3.850   5.366   0.637
 4185SOL     OW13453   0.258   6.704   3.337
 4185SOL    HW113454   0.317   6.678   3.413
 4185SOL    HW213455   0.167   6.726   3.371
 4186SOL     OW13456   2.224   3.951   0.319
 4186SOL    HW113457   2.247   4.022   0.253
 4186SOL    HW213458   2.295   3.881   0.320
 4187SOL     OW13459   3.665   3.442   6.645
 4187SOL    HW113460   3.577   3.393   6.648
 4187SOL    HW213461   3.660   3.522   6.705
 4188SOL     OW13462   4.797   0.104   4.464
 4188SOL    HW113463   4.765   0.199   4.461
 4188SOL    HW213464   4.893   0.101   4.436
 4189SOL     OW13465   2.791   1.424   3.948
 4189SOL    HW113466   2.722   1.443   3.879
 4189SOL    HW213467   2.789   1.495   4.018
 4190SOL     OW13468   2.819   0.257   6.689
 4190SOL    HW113469   2.804   0.179   6.750
 4190SOL    HW213470   2.853   0.225   6.601
 4191SOL     OW13471   6.273   2.883   3.278
 4191SOL    HW113472   6.295   2.786   3.278
 4191SOL    HW213473   6.326   2.930   3.208
 4192SOL     OW13474   5.926   1.298   3.050
 4192SOL    HW113475   5.959   1.274   3.142
 4192SOL    HW213476   5.826   1.305   3.051
 4193SOL     OW13477   2.332   6.713   2.238
 4193SOL    HW113478   2.359   6.788   2.298
 4193SOL    HW213479   2.257   6.661   2.281
 4194SOL     OW13480   6.814   1.892   4.563
 4194SOL    HW113481   6.753   1.926   4.635
 4194SOL    HW213482   6.898   1.947   4.562
 4195SOL     OW13483   4.453   0.559   1.226
 4195SOL    HW113484   4.507   0.604   1.154
 4195SOL    HW213485   4.470   0.605   1.313
 4196SOL     OW13486   5.264   2.850   4.155
 4196SOL    HW113487   5.166   2.851   4.174
 4196SOL    HW213488   5.286   2.768   4.102
 4197SOL     OW13489   5.479   4.487   4.798
 4197SOL    HW113490   5.398   4.428   4.793
 4197SOL    HW213491   5.554   4.437   4.841
 4198SOL     OW13492   5.929   3.565   6.850
 4198SOL    HW113493   5.890   3.491   6.906
 4198SOL    HW213494   6.013   3.598   6.892
 4199SOL     OW13495   3.186   3.554   5.162
 4199SOL    HW113496   3.158   3.644   5.130
 4199SOL    HW213497   3.186   3.489   5.086
 4200SOL     OW13498   2.169   6.846   6.239
 4200SOL    HW113499   2.133   6.935   6.265
 4200SOL    HW213500   2.143   6.778   6.308
 4201SOL     OW13501   6.278   6.864   3.411
 4201SOL    HW113502   6.317   6.852   3.502
 4201SOL    HW213503   6.337   6.926   3.358
 4202SOL     OW13504   5.286   4.775   5.652
 4202SOL    HW113505   5.323   4.868   5.644
 4202SOL    HW213506   5.260   4.742   5.561
 4203SOL     OW13507   5.227   5.203   3.224
 4203SOL    HW113508   5.274   5.191   3.311
 4203SOL    HW213509   5.214   5.300   3.206
 4204SOL     OW13510   3.361   3.382   1.236
 4204SOL    HW113511   3.416   3.441   1.295
 4204SOL    HW213512   3.334   3.299   1.286
 4205SOL     OW13513   3.139   5.083   4.934
 4205SOL    HW113514   3.107   5.005   4.879
 4205SOL    HW213515   3.175   5.050   5.021
 4206SOL     OW13516   5.049   0.038   5.198
 4206SOL    HW113517   4.953   0.014   5.210
 4206SOL    HW213518   5.086   7.010   5.119
 4207SOL     OW13519   1.366   0.978   1.683
 4207SOL    HW113520   1.449   0.989   1.627
 4207SOL    HW213521   1.321   0.893   1.658
 4208SOL     OW13522   1.445   2.665   0.977
 4208SOL    HW113523   1.405   2.590   0.925
 4208SOL    HW213524   1.522   2.703   0.927
 4209SOL     OW13525   2.125   6.947   4.585
 4209SOL    HW113526   2.159   6.908   4.499
 4209SOL    HW213527   2.203   6.980   4.639
 4210SOL     OW13528   3.565   3.275   1.078
 4210SOL    HW113529   3.632   3.224   1.132
 4210SOL    HW213530   3.497   3.316   1.139
 4211SOL     OW13531   4.998   4.546   4.795
 4211SOL    HW113532   4.921   4.484   4.779
 4211SOL    HW213533   5.009   4.563   4.893
 4212SOL     OW13534   6.180   0.695   2.859
 4212SOL    HW113535   6.112   0.673   2.928
 4212SOL    HW213536   6.237   0.771   2.891
 4213SOL     OW13537   1.767   0.530   2.154
 4213SOL    HW113538   1.790   0.514   2.250
 4213SOL    HW213539   1.699   0.603   2.148
 4214SOL     OW13540   0.823   3.439   5.430
 4214SOL    HW113541   0.812   3.343   5.458
 4214SOL    HW213542   0.825   3.444   5.331
 4215SOL     OW13543   0.977   5.798   4.781
 4215SOL    HW113544   1.019   5.806   4.871
 4215SOL    HW213545   0.983   5.703   4.750
 4216SOL     OW13546   1.463   2.250   4.579
 4216SOL    HW113547   1.518   2.316   4.630
 4216SOL    HW213548   1.439   2.289   4.490
 4217SOL     OW13549   0.418   0.384   2.747
 4217SOL    HW113550   0.367   0.322   2.807
 4217SOL    HW213551   0.421   0.475   2.789
 4218SOL     OW13552   4.818   0.500   1.907
 4218SOL    HW113553   4.813   0.435   1.831
 4218SOL    HW213554   4.902   0.554   1.899
 4219SOL     OW13555   4.010   5.110   5.001
 4219SOL    HW113556   3.940   5.057   5.049
 4219SOL    HW213557   3.993   5.105   4.902
 4220SOL     OW13558   6.737   3.294   3.469
 4220SOL    HW113559   6.702   3.297   3.563
 4220SOL    HW213560   6.805   3.221   3.461
 4221SOL     OW13561   5.080   5.173   6.814
 4221SOL    HW113562   5.110   5.252   6.868
 4221SOL    HW213563   5.160   5.130   6.771
 4222SOL     OW13564   5.663   2.570   1.795
 4222SOL    HW113565   5.700   2.504   1.860
 4222SOL    HW213566   5.569   2.591   1.819
 4223SOL     OW13567   3.276   4.029   2.583
 4223SOL    HW113568   3.342   4.077   2.525
 4223SOL    HW213569   3.236   3.953   2.533
 4224SOL     OW13570   4.454   2.481   4.832
 4224SOL    HW113571   4.520   2.547   4.868
 4224SOL    HW213572   4.381   2.467   4.899
 4225SOL     OW13573   6.452   0.605   4.642
 4225SOL    HW113574   6.471   0.601   4.544
 4225SOL    HW213575   6.469   0.516   4.684
 4226SOL     OW13576   0.820   1.473   3.692
 4226SOL    HW113577   0.756   1.399   3.671
 4226SOL    HW213578   0.910   1.435   3.714
 4227SOL     OW13579   3.736   4.380   0.115
 4227SOL    HW113580   3.826   4.366   0.075
 4227SOL    HW213581   3.689   4.292   0.123
 4228SOL     OW13582   6.203   5.662   3.261
 4228SOL    HW113583   6.191   5.752   3.303
 4228SOL    HW213584   6.141   5.597   3.305
 4229SOL     OW13585   4.712   4.889   6.173
 4229SOL    HW113586   4.683   4.926   6.261
 4229SOL    HW213587   4.742   4.963   6.113
 4230SOL     OW13588   3.387   0.929   5.329
 4230SOL    HW113589   3.458   0.982   5.282
 4230SOL    HW213590   3.354   0.857   5.268
 4231SOL     OW13591   4.639   6.613   5.259
 4231SOL    HW113592   4.687   6.617   5.171
 4231SOL    HW213593   4.669   6.689   5.317
 4232SOL     OW13594   1.748   5.038   3.086
 4232SOL    HW113595   1.775   5.127   3.124
 4232SOL    HW213596   1.649   5.036   3.072
 4233SOL     OW13597   6.445   0.200   6.437
 4233SOL    HW113598   6.469   0.185   6.533
 4233SOL    HW213599   6.521   0.170   6.379
 4234SOL     OW13600   3.362   5.269   6.479
 4234SOL    HW113601   3.374   5.289   6.382
 4234SOL    HW213602   3.346   5.354   6.529
 4235SOL     OW13603   5.934   4.071   5.584
 4235SOL    HW113604   5.867   4.144   5.597
 4235SOL    HW213605   6.008   4.103   5.524
 4236SOL     OW13606   0.625   2.763   4.428
 4236SOL    HW113607   0.706   2.764   4.487
 4236SOL    HW213608   0.552   2.816   4.471
 4237SOL     OW13609   5.237   3.741   5.068
 4237SOL    HW113610   5.259   3.792   5.151
 4237SOL    HW213611   5.315   3.685   5.040
 4238SOL     OW13612   4.263   5.313   3.940
 4238SOL    HW113613   4.329   5.360   3.999
 4238SOL    HW213614   4.311   5.254   3.876
 4239SOL     OW13615   4.262   6.668   5.932
 4239SOL    HW113616   4.188   6.662   5.864
 4239SOL    HW213617   4.307   6.579   5.940
 4240SOL     OW13618   2.828   4.668   6.919
 4240SOL    HW113619   2.916   4.624   6.901
 4240SOL    HW213620   2.813   4.741   6.852
 4241SOL     OW13621   4.621   0.682   1.060
 4241SOL    HW113622   4.547   0.722   1.006
 4241SOL    HW213623   4.677   0.755   1.099
 4242SOL     OW13624   2.081   6.932   2.413
 4242SOL    HW113625   1.997   6.987   2.412
 4242SOL    HW213626   2.153   6.980   2.463
 4243SOL     OW13627   0.761   3.607   2.508
 4243SOL    HW113628   0.673   3.578   2.471
 4243SOL    HW213629   0.835   3.579   2.446
 4244SOL     OW13630   4.915   6.590   0.972
 4244SOL    HW113631   5.012   6.572   0.953
 4244SOL    HW213632   4.867   6.604   0.885
 4245SOL     OW13633   6.723   2.798   0.759
 4245SOL    HW113634   6.662   2.794   0.838
 4245SOL    HW213635   6.669   2.786   0.675
 4246SOL     OW13636   5.064   2.181   3.378
 4246SOL    HW113637   5.049   2.272   3.340
 4246SOL    HW213638   5.098   2.189   3.472
 4247SOL     OW13639   2.039   4.925   4.936
 4247SOL    HW113640   2.119   4.915   4.995
 4247SOL    HW213641   1.973   4.854   4.958
 4248SOL     OW13642   1.926   0.861   2.649
 4248SOL    HW113643   1.901   0.789   2.714
 4248SOL    HW213644   1.860   0.936   2.655
 4249SOL     OW13645   0.200   0.596   5.138
 4249SOL    HW113646   0.225   0.691   5.119
 4249SOL    HW213647   0.173   0.551   5.052
 4250SOL     OW13648   6.725   6.273   4.114
 4250SOL    HW113649   6.688   6.238   4.028
 4250SOL    HW213650   6.674   6.233   4.191
 4251SOL     OW13651   5.955   2.112   6.225
 4251SOL    HW113652   6.001   2.197   6.203
 4251SOL    HW213653   5.953   2.099   6.324
 4252SOL     OW13654   6.572   6.041   6.227
 4252SOL    HW113655   6.563   5.942   6.235
 4252SOL    HW213656   6.522   6.086   6.301
 4253SOL     OW13657   4.480   5.557   2.416
 4253SOL    HW113658   4.493   5.619   2.494
 4253SOL    HW213659   4.516   5.600   2.333
 4254SOL     OW13660   2.037   3.078   6.667
 4254SOL    HW113661   2.059   3.092   6.570
 4254SOL    HW213662   2.033   3.167   6.712
 4255SOL     OW13663   0.519   3.709   2.666
 4255SOL    HW113664   0.553   3.799   2.639
 4255SOL    HW213665   0.474   3.716   2.755
 4256SOL     OW13666   0.684   5.066   2.216
 4256SOL    HW113667   0.702   5.144   2.156
 4256SOL    HW213668   0.725   4.983   2.178
 4257SOL     OW13669   6.333   0.482   5.011
 4257SOL    HW113670   6.343   0.426   5.093
 4257SOL    HW213671   6.402   0.555   5.011
 4258SOL     OW13672   3.960   5.919   0.341
 4258SOL    HW113673   4.024   5.873   0.280
 4258SOL    HW213674   4.010   5.967   0.413
 4259SOL     OW13675   0.870   6.763   2.143
 4259SOL    HW113676   0.870   6.667   2.115
 4259SOL    HW213677   0.887   6.769   2.242
 4260SOL     OW13678   5.102   6.913   4.961
 4260SOL    HW113679   5.065   6.970   4.887
 4260SOL    HW213680   5.192   6.879   4.934
 4261SOL     OW13681   2.020   0.155   3.383
 4261SOL    HW113682   2.032   0.212   3.464
 4261SOL    HW213683   1.988   0.064   3.411
 4262SOL     OW13684   1.906   4.396   6.821
 4262SOL    HW113685   1.910   4.298   6.802
 4262SOL    HW213686   1.995   4.428   6.853
 4263SOL     OW13687   2.770   2.015   3.903
 4263SOL    HW113688   2.742   2.109   3.889
 4263SOL    HW213689   2.851   1.996   3.846
 4264SOL     OW13690   5.285   1.561   3.919
 4264SOL    HW113691   5.207   1.549   3.980
 4264SOL    HW213692   5.294   1.658   3.895
 4265SOL     OW13693   2.944   0.806   0.924
 4265SOL    HW113694   2.988   0.744   0.990
 4265SOL    HW213695   2.907   0.752   0.848
 4266SOL     OW13696   1.461   6.621   0.582
 4266SOL    HW113697   1.483   6.524   0.584
 4266SOL    HW213698   1.520   6.668   0.516
 4267SOL     OW13699   1.844   4.177   4.719
 4267SOL    HW113700   1.880   4.151   4.809
 4267SOL    HW213701   1.795   4.100   4.679
 4268SOL     OW13702   1.570   4.850   6.072
 4268SOL    HW113703   1.626   4.876   5.994
 4268SOL    HW213704   1.609   4.769   6.116
 4269SOL     OW13705   2.797   1.980   4.424
 4269SOL    HW113706   2.862   2.013   4.492
 4269SOL    HW213707   2.846   1.945   4.344
 4270SOL     OW13708   3.664   2.275   0.868
 4270SOL    HW113709   3.612   2.277   0.953
 4270SOL    HW213710   3.745   2.333   0.876
 4271SOL     OW13711   6.762   0.372   1.014
 4271SOL    HW113712   6.801   0.433   1.082
 4271SOL    HW213713   6.789   0.277   1.034
 4272SOL     OW13714   6.224   2.098   5.859
 4272SOL    HW113715   6.195   2.179   5.910
 4272SOL    HW213716   6.274   2.126   5.777
 4273SOL     OW13717   4.171   5.371   5.232
 4273SOL    HW113718   4.253   5.413   5.191
 4273SOL    HW213719   4.197   5.289   5.282
 4274SOL     OW13720   6.858   0.737   1.701
 4274SOL    HW113721   6.916   0.771   1.627
 4274SOL    HW213722   6.762   0.741   1.671
 4275SOL     OW13723   0.808   2.681   3.332
 4275SOL    HW113724   0.858   2.663   3.247
 4275SOL    HW213725   0.755   2.601   3.357
 4276SOL     OW13726   2.569   5.872   3.958
 4276SOL    HW113727   2.656   5.830   3.936
 4276SOL    HW213728   2.536   5.836   4.046
 4277SOL     OW13729   6.357   5.563   3.562
 4277SOL    HW113730   6.331   5.660   3.566
 4277SOL    HW213731   6.457   5.555   3.567
 4278SOL     OW13732   1.335   6.653   2.019
 4278SOL    HW113733   1.366   6.599   2.098
 4278SOL    HW213734   1.247   6.696   2.041
 4279SOL     OW13735   2.008   2.364   3.434
 4279SOL    HW113736   2.024   2.441   3.496
 4279SOL    HW213737   2.058   2.379   3.349
 4280SOL     OW13738   6.982   0.326   6.219
 4280SOL    HW113739   6.999   0.416   6.179
 4280SOL    HW213740   0.025   0.311   6.295
 4281SOL     OW13741   4.285   5.410   3.611
 4281SOL    HW113742   4.370   5.356   3.610
 4281SOL    HW213743   4.292   5.483   3.543
 4282SOL     OW13744   3.725   4.163   1.107
 4282SOL    HW113745   3.794   4.110   1.157
 4282SOL    HW213746   3.676   4.103   1.043
 4283SOL     OW13747   4.957   1.363   3.931
 4283SOL    HW113748   4.872   1.382   3.883
 4283SOL    HW213749   4.992   1.447   3.973
 4284SOL     OW13750   4.703   6.144   6.674
 4284SOL    HW113751   4.607   6.173   6.673
 4284SOL    HW213752   4.761   6.221   6.702
 4285SOL     OW13753   2.913   0.460   5.830
 4285SOL    HW113754   2.983   0.528   5.808
 4285SOL    HW213755   2.918   0.384   5.766
 4286SOL     OW13756   6.051   0.976   6.241
 4286SOL    HW113757   6.087   0.883   6.239
 4286SOL    HW213758   6.051   1.014   6.149
 4287SOL     OW13759   4.964   0.401   6.687
 4287SOL    HW113760   5.011   0.362   6.608
 4287SOL    HW213761   5.016   0.381   6.770
 4288SOL     OW13762   6.978   6.539   2.162
 4288SOL    HW113763   6.987   6.576   2.070
 4288SOL    HW213764   6.897   6.578   2.207
 4289SOL     OW13765   0.375   3.445   4.550
 4289SOL    HW113766   0.313   3.499   4.492
 4289SOL    HW213767   0.377   3.351   4.517
 4290SOL     OW13768   0.146   1.151   3.252
 4290SOL    HW113769   0.244   1.134   3.258
 4290SOL    HW213770   0.131   1.248   3.230
 4291SOL     OW13771   4.934   2.999   6.003
 4291SOL    HW113772   4.956   2.903   5.988
 4291SOL    HW213773   4.973   3.054   5.929
 4292SOL     OW13774   5.766   1.634   1.142
 4292SOL    HW113775   5.751   1.611   1.046
 4292SOL    HW213776   5.691   1.596   1.197
 4293SOL     OW13777   4.198   4.142   6.984
 4293SOL    HW113778   4.232   4.058   0.006
 4293SOL    HW213779   4.189   4.129   6.886
 4294SOL     OW13780   2.816   1.919   6.536
 4294SOL    HW113781   2.717   1.915   6.528
 4294SOL    HW213782   2.859   1.867   6.462
 4295SOL     OW13783   4.434   6.328   3.265
 4295SOL    HW113784   4.476   6.328   3.174
 4295SOL    HW213785   4.501   6.360   3.332
 4296SOL     OW13786   2.580   6.457   1.711
 4296SOL    HW113787   2.568   6.381   1.647
 4296SOL    HW213788   2.491   6.489   1.743
 4297SOL     OW13789   5.731   4.802   1.112
 4297SOL    HW113790   5.775   4.879   1.066
 4297SOL    HW213791   5.706   4.733   1.045
 4298SOL     OW13792   3.355   6.438   1.080
 4298SOL    HW113793   3.365   6.471   0.986
 4298SOL    HW213794   3.339   6.516   1.141
 4299SOL     OW13795   1.404   2.533   0.140
 4299SOL    HW113796   1.377   2.464   0.073
 4299SOL    HW213797   1.323   2.584   0.169
 4300SOL     OW13798   3.299   0.682   0.993
 4300SOL    HW113799   3.247   0.610   0.948
 4300SOL    HW213800   3.287   0.768   0.944
 4301SOL     OW13801   3.123   0.012   1.851
 4301SOL    HW113802   3.190   6.971   1.893
 4301SOL    HW213803   3.030   6.998   1.870
 4302SOL     OW13804   1.653   5.624   6.200
 4302SOL    HW113805   1.750   5.603   6.212
 4302SOL    HW213806   1.642   5.722   6.183
 4303SOL     OW13807   6.034   4.368   3.714
 4303SOL    HW113808   6.098   4.444   3.699
 4303SOL    HW213809   5.961   4.398   3.776
 4304SOL     OW13810   3.415   3.798   1.403
 4304SOL    HW113811   3.442   3.749   1.486
 4304SOL    HW213812   3.316   3.814   1.404
 4305SOL     OW13813   1.353   0.417   5.416
 4305SOL    HW113814   1.436   0.368   5.442
 4305SOL    HW213815   1.369   0.516   5.425
 4306SOL     OW13816   5.410   3.513   5.057
 4306SOL    HW113817   5.507   3.501   5.036
 4306SOL    HW213818   5.383   3.453   5.132
 4307SOL     OW13819   6.612   1.818   5.362
 4307SOL    HW113820   6.577   1.789   5.273
 4307SOL    HW213821   6.691   1.878   5.349
 4308SOL     OW13822   5.205   4.694   0.733
 4308SOL    HW113823   5.216   4.784   0.776
 4308SOL    HW213824   5.239   4.697   0.639
 4309SOL     OW13825   1.349   3.619   0.407
 4309SOL    HW113826   1.329   3.540   0.465
 4309SOL    HW213827   1.313   3.702   0.450
 4310SOL     OW13828   0.419   1.662   2.421
 4310SOL    HW113829   0.356   1.708   2.358
 4310SOL    HW213830   0.403   1.694   2.514
 4311SOL     OW13831   0.710   6.102   2.544
 4311SOL    HW113832   0.657   6.178   2.580
 4311SOL    HW213833   0.664   6.064   2.464
 4312SOL     OW13834   0.434   4.571   2.526
 4312SOL    HW113835   0.502   4.631   2.484
 4312SOL    HW213836   0.374   4.534   2.455
 4313SOL     OW13837   5.889   1.753   0.314
 4313SOL    HW113838   5.920   1.825   0.251
 4313SOL    HW213839   5.911   1.779   0.408
 4314SOL     OW13840   6.501   2.679   5.024
 4314SOL    HW113841   6.550   2.591   5.028
 4314SOL    HW213842   6.513   2.719   4.933
 4315SOL     OW13843   2.561   1.279   3.635
 4315SOL    HW113844   2.617   1.212   3.685
 4315SOL    HW213845   2.556   1.364   3.687
 4316SOL     OW13846   5.152   6.827   1.992
 4316SOL    HW113847   5.071   6.841   1.935
 4316SOL    HW213848   5.135   6.863   2.084
 4317SOL     OW13849   4.614   0.787   6.002
 4317SOL    HW113850   4.574   0.736   6.079
 4317SOL    HW213851   4.624   0.883   6.028
 4318SOL     OW13852   0.817   1.784   4.357
 4318SOL    HW113853   0.801   1.703   4.300
 4318SOL    HW213854   0.825   1.864   4.298
 4319SOL     OW13855   0.960   4.652   2.216
 4319SOL    HW113856   0.889   4.713   2.251
 4319SOL    HW213857   0.964   4.659   2.117
 4320SOL     OW13858   3.983   5.546   0.009
 4320SOL    HW113859   4.008   5.502   6.943
 4320SOL    HW213860   3.955   5.477   0.075
 4321SOL     OW13861   6.362   0.165   2.320
 4321SOL    HW113862   6.443   0.131   2.272
 4321SOL    HW213863   6.285   0.170   2.256
 4322SOL     OW13864   1.060   3.321   5.052
 4322SOL    HW113865   1.129   3.251   5.071
 4322SOL    HW213866   1.072   3.398   5.115
 4323SOL     OW13867   4.175   5.353   6.510
 4323SOL    HW113868   4.087   5.309   6.491
 4323SOL    HW213869   4.207   5.401   6.428
 4324SOL     OW13870   6.945   3.841   5.883
 4324SOL    HW113871   6.987   3.874   5.799
 4324SOL    HW213872   6.855   3.803   5.862
 4325SOL     OW13873   3.157   0.672   2.531
 4325SOL    HW113874   3.250   0.691   2.562
 4325SOL    HW213875   3.152   0.580   2.492
 4326SOL     OW13876   4.902   2.053   2.672
 4326SOL    HW113877   4.859   2.073   2.760
 4326SOL    HW213878   4.981   2.113   2.659
 4327SOL     OW13879   3.592   5.625   3.923
 4327SOL    HW113880   3.607   5.645   4.020
 4327SOL    HW213881   3.647   5.545   3.897
 4328SOL     OW13882   5.449   5.831   4.931
 4328SOL    HW113883   5.421   5.926   4.945
 4328SOL    HW213884   5.513   5.826   4.854
 4329SOL     OW13885   6.052   2.408   5.866
 4329SOL    HW113886   6.048   2.508   5.862
 4329SOL    HW213887   6.034   2.378   5.960
 4330SOL     OW13888   2.795   4.863   5.164
 4330SOL    HW113889   2.803   4.786   5.100
 4330SOL    HW213890   2.819   4.948   5.117
 4331SOL     OW13891   6.360   1.030   1.586
 4331SOL    HW113892   6.438   1.010   1.645
 4331SOL    HW213893   6.348   0.955   1.520
 4332SOL     OW13894   0.122   4.757   2.371
 4332SOL    HW113895   0.149   4.713   2.286
 4332SOL    HW213896   0.034   4.719   2.402
 4333SOL     OW13897   3.895   1.979   5.406
 4333SOL    HW113898   3.990   1.966   5.434
 4333SOL    HW213899   3.846   1.892   5.415
 4334SOL     OW13900   0.959   2.323   3.910
 4334SOL    HW113901   0.951   2.347   4.007
 4334SOL    HW213902   1.056   2.311   3.886
 4335SOL     OW13903   3.239   3.488   0.820
 4335SOL    HW113904   3.209   3.465   0.913
 4335SOL    HW213905   3.228   3.586   0.806
 4336SOL     OW13906   2.658   5.737   5.877
 4336SOL    HW113907   2.697   5.661   5.825
 4336SOL    HW213908   2.582   5.776   5.825
 4337SOL     OW13909   1.639   5.499   3.308
 4337SOL    HW113910   1.598   5.494   3.399
 4337SOL    HW213911   1.576   5.545   3.245
 4338SOL     OW13912   4.630   0.807   5.744
 4338SOL    HW113913   4.616   0.787   5.841
 4338SOL    HW213914   4.666   0.900   5.734
 4339SOL     OW13915   4.230   3.137   5.875
 4339SOL    HW113916   4.194   3.074   5.807
 4339SOL    HW213917   4.163   3.210   5.892
 4340SOL     OW13918   7.017   3.248   0.708
 4340SOL    HW113919   0.018   3.317   0.778
 4340SOL    HW213920   6.956   3.179   0.748
 4341SOL     OW13921   0.482   5.955   2.642
 4341SOL    HW113922   0.465   5.933   2.545
 4341SOL    HW213923   0.580   5.960   2.658
 4342SOL     OW13924   5.129   3.878   2.725
 4342SOL    HW113925   5.175   3.915   2.806
 4342SOL    HW213926   5.156   3.931   2.645
 4343SOL     OW13927   3.926   0.596   6.094
 4343SOL    HW113928   3.966   0.688   6.097
 4343SOL    HW213929   3.984   0.533   6.145
 4344SOL     OW13930   0.139   2.680   3.793
 4344SOL    HW113931   0.122   2.760   3.736
 4344SOL    HW213932   0.051   2.637   3.817
 4345SOL     OW13933   2.989   3.699   2.276
 4345SOL    HW113934   3.040   3.755   2.342
 4345SOL    HW213935   3.017   3.723   2.183
 4346SOL     OW13936   1.836   3.719   2.074
 4346SOL    HW113937   1.910   3.786   2.087
 4346SOL    HW213938   1.875   3.634   2.040
 4347SOL     OW13939   6.107   4.911   1.540
 4347SOL    HW113940   6.183   4.849   1.559
 4347SOL    HW213941   6.139   5.005   1.541
 4348SOL     OW13942   5.789   6.236   4.304
 4348SOL    HW113943   5.884   6.266   4.306
 4348SOL    HW213944   5.766   6.190   4.390
 4349SOL     OW13945   0.287   3.605   4.118
 4349SOL    HW113946   0.228   3.557   4.053
 4349SOL    HW213947   0.363   3.546   4.143
 4350SOL     OW13948   4.698   1.027   4.969
 4350SOL    HW113949   4.765   1.046   5.042
 4350SOL    HW213950   4.740   0.967   4.901
 4351SOL     OW13951   1.005   6.676   0.812
 4351SOL    HW113952   1.061   6.595   0.827
 4351SOL    HW213953   0.941   6.658   0.737
 4352SOL     OW13954   4.073   3.666   1.240
 4352SOL    HW113955   4.151   3.728   1.240
 4352SOL    HW213956   4.101   3.578   1.279
 4353SOL     OW13957   3.076   2.789   0.949
 4353SOL    HW113958   3.025   2.846   0.884
 4353SOL    HW213959   3.035   2.796   1.040
 4354SOL     OW13960   5.724   6.898   4.154
 4354SOL    HW113961   5.701   6.994   4.136
 4354SOL    HW213962   5.643   6.849   4.184
 4355SOL     OW13963   1.295   6.579   3.367
 4355SOL    HW113964   1.228   6.637   3.320
 4355SOL    HW213965   1.359   6.636   3.418
 4356SOL     OW13966   4.971   2.249   6.655
 4356SOL    HW113967   4.942   2.308   6.730
 4356SOL    HW213968   4.998   2.160   6.691
 4357SOL     OW13969   6.838   0.918   2.073
 4357SOL    HW113970   6.898   0.843   2.045
 4357SOL    HW213971   6.744   0.898   2.045
 4358SOL     OW13972   1.119   0.414   6.892
 4358SOL    HW113973   1.062   0.489   6.925
 4358SOL    HW213974   1.199   0.404   6.952
 4359SOL     OW13975   2.086   1.313   0.091
 4359SOL    HW113976   2.132   1.247   0.151
 4359SOL    HW213977   2.149   1.389   0.071
 4360SOL     OW13978   1.444   2.866   3.550
 4360SOL    HW113979   1.346   2.890   3.551
 4360SOL    HW213980   1.479   2.875   3.457
 4361SOL     OW13981   0.433   1.091   1.314
 4361SOL    HW113982   0.459   1.186   1.329
 4361SOL    HW213983   0.442   1.069   1.217
 4362SOL     OW13984   0.975   5.790   4.125
 4362SOL    HW113985   0.996   5.757   4.217
 4362SOL    HW213986   0.907   5.731   4.082
 4363SOL     OW13987   4.915   0.900   2.105
 4363SOL    HW113988   4.991   0.849   2.145
 4363SOL    HW213989   4.920   0.894   2.005
 4364SOL     OW13990   3.564   4.090   2.928
 4364SOL    HW113991   3.535   4.067   3.021
 4364SOL    HW213992   3.662   4.110   2.927
 4365SOL     OW13993   3.226   2.128   1.774
 4365SOL    HW113994   3.135   2.142   1.812
 4365SOL    HW213995   3.295   2.138   1.846
 4366SOL     OW13996   4.364   6.307   4.638
 4366SOL    HW113997   4.410   6.244   4.576
 4366SOL    HW213998   4.405   6.398   4.629
 4367SOL     OW13999   3.012   5.545   4.167
 4367SOL    HW114000   3.021   5.577   4.073
 4367SOL    HW214001   2.954   5.463   4.169
 4368SOL     OW14002   4.687   4.551   2.521
 4368SOL    HW114003   4.786   4.546   2.534
 4368SOL    HW214004   4.653   4.463   2.486
 4369SOL     OW14005   3.966   5.116   3.061
 4369SOL    HW114006   4.001   5.188   3.002
 4369SOL    HW214007   3.962   5.030   3.011
 4370SOL     OW14008   3.799   4.803   1.425
 4370SOL    HW114009   3.866   4.730   1.436
 4370SOL    HW214010   3.822   4.860   1.346
 4371SOL     OW14011   2.847   0.757   1.633
 4371SOL    HW114012   2.802   0.741   1.720
 4371SOL    HW214013   2.917   0.687   1.618
 4372SOL     OW14014   2.002   3.194   4.800
 4372SOL    HW114015   2.057   3.267   4.841
 4372SOL    HW214016   2.017   3.108   4.848
 4373SOL     OW14017   4.748   1.043   5.763
 4373SOL    HW114018   4.779   1.112   5.698
 4373SOL    HW214019   4.697   1.087   5.837
 4374SOL     OW14020   2.490   1.229   1.154
 4374SOL    HW114021   2.403   1.209   1.199
 4374SOL    HW214022   2.504   1.164   1.080
 4375SOL     OW14023   3.806   0.750   3.202
 4375SOL    HW114024   3.850   0.798   3.277
 4375SOL    HW214025   3.741   0.683   3.238
 4376SOL     OW14026   6.310   6.823   1.309
 4376SOL    HW114027   6.383   6.892   1.311
 4376SOL    HW214028   6.299   6.788   1.216
 4377SOL     OW14029   6.025   6.376   6.450
 4377SOL    HW114030   5.962   6.307   6.415
 4377SOL    HW214031   6.067   6.424   6.373
 4378SOL     OW14032   1.807   5.262   2.279
 4378SOL    HW114033   1.720   5.274   2.231
 4378SOL    HW214034   1.790   5.251   2.377
 4379SOL     OW14035   1.359   1.277   1.604
 4379SOL    HW114036   1.320   1.185   1.616
 4379SOL    HW214037   1.457   1.270   1.587
 4380SOL     OW14038   1.501   6.445   5.087
 4380SOL    HW114039   1.491   6.503   5.006
 4380SOL    HW214040   1.551   6.362   5.063
 4381SOL     OW14041   3.370   6.753   5.229
 4381SOL    HW114042   3.380   6.851   5.246
 4381SOL    HW214043   3.445   6.720   5.172
 4382SOL     OW14044   5.247   3.954   4.596
 4382SOL    HW114045   5.330   4.008   4.610
 4382SOL    HW214046   5.265   3.859   4.624
 4383SOL     OW14047   1.134   2.745   5.890
 4383SOL    HW114048   1.143   2.821   5.827
 4383SOL    HW214049   1.039   2.714   5.893
 4384SOL     OW14050   3.513   6.628   1.359
 4384SOL    HW114051   3.516   6.531   1.336
 4384SOL    HW214052   3.475   6.680   1.283
 4385SOL     OW14053   0.449   2.184   2.275
 4385SOL    HW114054   0.503   2.128   2.213
 4385SOL    HW214055   0.432   2.132   2.359
 4386SOL     OW14056   0.657   3.273   6.689
 4386SOL    HW114057   0.671   3.298   6.784
 4386SOL    HW214058   0.709   3.190   6.668
 4387SOL     OW14059   6.881   3.463   1.741
 4387SOL    HW114060   6.852   3.547   1.694
 4387SOL    HW214061   6.972   3.476   1.779
 4388SOL     OW14062   3.642   0.818   6.142
 4388SOL    HW114063   3.607   0.729   6.171
 4388SOL    HW214064   3.589   0.891   6.185
 4389SOL     OW14065   5.712   2.415   2.430
 4389SOL    HW114066   5.790   2.375   2.383
 4389SOL    HW214067   5.741   2.498   2.478
 4390SOL     OW14068   4.834   2.953   2.248
 4390SOL    HW114069   4.907   3.020   2.261
 4390SOL    HW214070   4.772   2.986   2.176
 4391SOL     OW14071   0.637   5.345   0.243
 4391SOL    HW114072   0.694   5.341   0.325
 4391SOL    HW214073   0.636   5.438   0.208
 4392SOL     OW14074   5.047   3.404   4.361
 4392SOL    HW114075   5.145   3.384   4.370
 4392SOL    HW214076   5.024   3.483   4.419
 4393SOL     OW14077   5.038   6.832   3.186
 4393SOL    HW114078   5.117   6.776   3.210
 4393SOL    HW214079   5.060   6.889   3.106
 4394SOL     OW14080   5.015   0.044   2.130
 4394SOL    HW114081   5.072   0.126   2.121
 4394SOL    HW214082   4.936   0.065   2.188
 4395SOL     OW14083   4.918   1.327   1.556
 4395SOL    HW114084   4.962   1.257   1.612
 4395SOL    HW214085   4.916   1.413   1.606
 4396SOL     OW14086   0.558   1.088   4.407
 4396SOL    HW114087   0.530   1.125   4.319
 4396SOL    HW214088   0.512   1.136   4.481
 4397SOL     OW14089   0.171   0.438   4.569
 4397SOL    HW114090   0.197   0.381   4.492
 4397SOL    HW214091   0.244   0.505   4.587
 4398SOL     OW14092   0.132   4.933   4.261
 4398SOL    HW114093   0.185   4.949   4.177
 4398SOL    HW214094   0.095   5.020   4.294
 4399SOL     OW14095   1.987   1.776   0.626
 4399SOL    HW114096   2.064   1.726   0.665
 4399SOL    HW214097   2.001   1.874   0.639
 4400SOL     OW14098   3.379   6.577   4.578
 4400SOL    HW114099   3.306   6.630   4.621
 4400SOL    HW214100   3.434   6.532   4.649
 4401SOL     OW14101   5.684   5.901   4.406
 4401SOL    HW114102   5.680   5.904   4.306
 4401SOL    HW214103   5.641   5.817   4.438
 4402SOL     OW14104   0.847   5.966   2.822
 4402SOL    HW114105   0.828   5.926   2.732
 4402SOL    HW214106   0.769   6.022   2.851
 4403SOL     OW14107   0.290   0.229   2.927
 4403SOL    HW114108   0.296   0.306   2.991
 4403SOL    HW214109   0.257   0.148   2.976
 4404SOL     OW14110   0.660   3.594   2.922
 4404SOL    HW114111   0.737   3.561   2.977
 4404SOL    HW214112   0.586   3.528   2.924
 4405SOL     OW14113   3.303   4.578   5.634
 4405SOL    HW114114   3.229   4.545   5.692
 4405SOL    HW214115   3.299   4.678   5.628
 4406SOL     OW14116   5.743   3.939   1.438
 4406SOL    HW114117   5.710   3.895   1.522
 4406SOL    HW214118   5.679   3.918   1.364
 4407SOL     OW14119   6.687   0.299   6.941
 4407SOL    HW114120   6.746   0.365   6.988
 4407SOL    HW214121   6.726   0.276   6.853
 4408SOL     OW14122   4.663   0.209   6.956
 4408SOL    HW114123   4.741   0.185   6.898
 4408SOL    HW214124   4.696   0.259   0.016
 4409SOL     OW14125   3.553   0.254   2.154
 4409SOL    HW114126   3.528   0.211   2.240
 4409SOL    HW214127   3.476   0.307   2.119
 4410SOL     OW14128   2.194   5.566   1.078
 4410SOL    HW114129   2.204   5.595   1.174
 4410SOL    HW214130   2.123   5.495   1.072
 4411SOL     OW14131   3.349   3.199   2.571
 4411SOL    HW114132   3.366   3.266   2.498
 4411SOL    HW214133   3.301   3.120   2.533
 4412SOL     OW14134   4.109   1.245   6.607
 4412SOL    HW114135   4.072   1.244   6.514
 4412SOL    HW214136   4.101   1.153   6.646
 4413SOL     OW14137   4.294   5.768   4.277
 4413SOL    HW114138   4.218   5.822   4.241
 4413SOL    HW214139   4.357   5.828   4.326
 4414SOL     OW14140   4.139   4.953   1.863
 4414SOL    HW114141   4.201   4.875   1.855
 4414SOL    HW214142   4.044   4.923   1.849
 4415SOL     OW14143   4.707   3.069   6.447
 4415SOL    HW114144   4.742   2.990   6.498
 4415SOL    HW214145   4.774   3.143   6.453
 4416SOL     OW14146   3.110   0.666   4.636
 4416SOL    HW114147   3.194   0.612   4.627
 4416SOL    HW214148   3.047   0.643   4.562
 4417SOL     OW14149   6.956   5.388   1.911
 4417SOL    HW114150   6.883   5.414   1.975
 4417SOL    HW214151   7.014   5.318   1.954
 4418SOL     OW14152   4.350   6.707   3.766
 4418SOL    HW114153   4.267   6.750   3.731
 4418SOL    HW214154   4.366   6.735   3.860
 4419SOL     OW14155   0.087   4.832   0.247
 4419SOL    HW114156   0.176   4.863   0.213
 4419SOL    HW214157   0.019   4.842   0.175
 4420SOL     OW14158   5.114   1.385   6.938
 4420SOL    HW114159   5.168   1.458   6.893
 4420SOL    HW214160   5.102   1.310   6.874
 4421SOL     OW14161   1.410   1.785   3.064
 4421SOL    HW114162   1.340   1.855   3.052
 4421SOL    HW214163   1.401   1.744   3.155
 4422SOL     OW14164   2.825   4.031   6.317
 4422SOL    HW114165   2.906   4.083   6.345
 4422SOL    HW214166   2.845   3.933   6.322
 4423SOL     OW14167   1.436   2.121   6.465
 4423SOL    HW114168   1.401   2.077   6.383
 4423SOL    HW214169   1.449   2.219   6.448
 4424SOL     OW14170   5.978   6.554   2.820
 4424SOL    HW114171   5.991   6.649   2.850
 4424SOL    HW214172   5.892   6.519   2.857
 4425SOL     OW14173   3.861   4.784   6.343
 4425SOL    HW114174   3.777   4.830   6.316
 4425SOL    HW214175   3.932   4.803   6.275
 4426SOL     OW14176   0.283   0.657   5.390
 4426SOL    HW114177   0.226   0.730   5.426
 4426SOL    HW214178   0.265   0.645   5.292
 4427SOL     OW14179   1.017   0.437   3.232
 4427SOL    HW114180   1.095   0.468   3.287
 4427SOL    HW214181   1.047   0.365   3.170
 4428SOL     OW14182   1.927   5.350   4.079
 4428SOL    HW114183   1.942   5.383   3.986
 4428SOL    HW214184   1.870   5.416   4.129
 4429SOL     OW14185   3.746   6.964   3.433
 4429SOL    HW114186   3.758   6.906   3.514
 4429SOL    HW214187   3.688   6.917   3.367
 4430SOL     OW14188   2.814   1.006   2.369
 4430SOL    HW114189   2.877   0.934   2.340
 4430SOL    HW214190   2.724   0.966   2.384
 4431SOL     OW14191   3.167   1.618   3.488
 4431SOL    HW114192   3.128   1.528   3.470
 4431SOL    HW214193   3.202   1.621   3.581
 4432SOL     OW14194   2.857   3.569   2.638
 4432SOL    HW114195   2.948   3.585   2.601
 4432SOL    HW214196   2.789   3.617   2.583
 4433SOL     OW14197   6.206   6.699   2.476
 4433SOL    HW114198   6.189   6.621   2.416
 4433SOL    HW214199   6.297   6.690   2.516
 4434SOL     OW14200   5.567   2.032   3.781
 4434SOL    HW114201   5.609   1.941   3.780
 4434SOL    HW214202   5.633   2.101   3.752
 4435SOL     OW14203   3.649   2.987   1.899
 4435SOL    HW114204   3.721   3.018   1.961
 4435SOL    HW214205   3.565   2.970   1.950
 4436SOL     OW14206   4.173   1.872   6.871
 4436SOL    HW114207   4.217   1.885   6.782
 4436SOL    HW214208   4.209   1.790   6.915
 4437SOL     OW14209   3.707   0.581   4.533
 4437SOL    HW114210   3.700   0.492   4.578
 4437SOL    HW214211   3.766   0.641   4.587
 4438SOL     OW14212   4.133   2.810   6.714
 4438SOL    HW114213   4.196   2.742   6.675
 4438SOL    HW214214   4.067   2.764   6.773
 4439SOL     OW14215   1.535   5.469   2.558
 4439SOL    HW114216   1.477   5.529   2.613
 4439SOL    HW214217   1.482   5.432   2.482
 4440SOL     OW14218   1.192   6.402   6.534
 4440SOL    HW114219   1.242   6.485   6.560
 4440SOL    HW214220   1.223   6.371   6.445
 4441SOL     OW14221   5.051   2.454   2.483
 4441SOL    HW114222   5.031   2.535   2.429
 4441SOL    HW214223   5.089   2.481   2.572
 4442SOL     OW14224   3.980   5.625   3.918
 4442SOL    HW114225   4.003   5.539   3.964
 4442SOL    HW214226   3.992   5.613   3.819
 4443SOL     OW14227   2.701   2.142   6.087
 4443SOL    HW114228   2.602   2.142   6.077
 4443SOL    HW214229   2.741   2.073   6.027
 4444SOL     OW14230   4.838   6.963   0.536
 4444SOL    HW114231   4.780   6.956   0.617
 4444SOL    HW214232   4.930   6.990   0.563
 4445SOL     OW14233   1.246   0.679   6.098
 4445SOL    HW114234   1.282   0.771   6.114
 4445SOL    HW214235   1.295   0.638   6.021
 4446SOL     OW14236   6.093   0.415   3.197
 4446SOL    HW114237   6.030   0.338   3.183
 4446SOL    HW214238   6.186   0.385   3.175
 4447SOL     OW14239   5.411   2.057   5.936
 4447SOL    HW114240   5.415   2.118   6.016
 4447SOL    HW214241   5.502   2.054   5.893
 4448SOL     OW14242   2.230   3.560   6.423
 4448SOL    HW114243   2.255   3.501   6.500
 4448SOL    HW214244   2.230   3.656   6.453
 4449SOL     OW14245   2.629   1.141   4.972
 4449SOL    HW114246   2.708   1.090   5.004
 4449SOL    HW214247   2.656   1.204   4.900
 4450SOL     OW14248   3.574   2.982   3.163
 4450SOL    HW114249   3.589   3.074   3.126
 4450SOL    HW214250   3.494   2.942   3.119
 4451SOL     OW14251   6.857   4.834   2.251
 4451SOL    HW114252   6.785   4.876   2.307
 4451SOL    HW214253   6.815   4.783   2.177
 4452SOL     OW14254   6.211   6.242   6.169
 4452SOL    HW114255   6.153   6.323   6.173
 4452SOL    HW214256   6.268   6.238   6.251
 4453SOL     OW14257   5.327   2.290   1.242
 4453SOL    HW114258   5.314   2.195   1.214
 4453SOL    HW214259   5.266   2.349   1.190
 4454SOL     OW14260   5.233   2.851   1.250
 4454SOL    HW114261   5.298   2.812   1.185
 4454SOL    HW214262   5.141   2.819   1.228
 4455SOL     OW14263   3.860   0.938   2.683
 4455SOL    HW114264   3.817   0.848   2.693
 4455SOL    HW214265   3.791   1.007   2.664
 4456SOL     OW14266   1.374   5.076   3.373
 4456SOL    HW114267   1.292   5.030   3.407
 4456SOL    HW214268   1.398   5.150   3.435
 4457SOL     OW14269   5.070   1.838   6.826
 4457SOL    HW114270   5.111   1.917   6.781
 4457SOL    HW214271   5.108   1.830   6.919
 4458SOL     OW14272   2.925   2.300   6.151
 4458SOL    HW114273   2.858   2.231   6.126
 4458SOL    HW214274   3.015   2.276   6.113
 4459SOL     OW14275   4.607   6.397   4.813
 4459SOL    HW114276   4.578   6.454   4.890
 4459SOL    HW214277   4.589   6.446   4.728
 4460SOL     OW14278   2.633   2.944   6.480
 4460SOL    HW114279   2.540   2.913   6.465
 4460SOL    HW214280   2.693   2.906   6.408
 4461SOL     OW14281   1.858   6.698   2.436
 4461SOL    HW114282   1.939   6.756   2.448
 4461SOL    HW214283   1.796   6.742   2.370
 4462SOL     OW14284   6.375   5.718   0.531
 4462SOL    HW114285   6.456   5.763   0.567
 4462SOL    HW214286   6.400   5.628   0.494
 4463SOL     OW14287   1.445   3.212   6.130
 4463SOL    HW114288   1.511   3.282   6.102
 4463SOL    HW214289   1.395   3.243   6.211
 4464SOL     OW14290   5.771   3.338   6.284
 4464SOL    HW114291   5.765   3.280   6.203
 4464SOL    HW214292   5.680   3.354   6.320
 4465SOL     OW14293   1.460   6.067   1.652
 4465SOL    HW114294   1.387   6.024   1.599
 4465SOL    HW214295   1.477   6.013   1.735
 4466SOL     OW14296   1.319   1.328   2.688
 4466SOL    HW114297   1.336   1.424   2.714
 4466SOL    HW214298   1.223   1.306   2.703
 4467SOL     OW14299   1.455   6.769   3.010
 4467SOL    HW114300   1.416   6.860   3.024
 4467SOL    HW214301   1.520   6.749   3.083
 4468SOL     OW14302   1.305   2.718   0.599
 4468SOL    HW114303   1.385   2.677   0.555
 4468SOL    HW214304   1.232   2.650   0.605
 4469SOL     OW14305   3.766   0.068   1.092
 4469SOL    HW114306   3.678   0.113   1.108
 4469SOL    HW214307   3.795   0.084   0.998
 4470SOL     OW14308   4.730   3.912   1.565
 4470SOL    HW114309   4.742   3.824   1.612
 4470SOL    HW214310   4.695   3.980   1.630
 4471SOL     OW14311   6.902   2.759   1.384
 4471SOL    HW114312   6.882   2.840   1.328
 4471SOL    HW214313   6.944   2.787   1.470
 4472SOL     OW14314   1.949   3.961   2.166
 4472SOL    HW114315   2.046   3.941   2.153
 4472SOL    HW214316   1.920   3.929   2.256
 4473SOL     OW14317   6.595   6.854   4.523
 4473SOL    HW114318   6.597   6.793   4.443
 4473SOL    HW214319   6.573   6.947   4.493
 4474SOL     OW14320   4.057   0.186   2.624
 4474SOL    HW114321   4.140   0.205   2.676
 4474SOL    HW214322   3.985   0.249   2.652
 4475SOL     OW14323   1.683   4.555   0.676
 4475SOL    HW114324   1.603   4.544   0.618
 4475SOL    HW214325   1.726   4.643   0.658
 4476SOL     OW14326   4.783   6.566   1.886
 4476SOL    HW114327   4.877   6.543   1.911
 4476SOL    HW214328   4.733   6.482   1.861
 4477SOL     OW14329   1.703   1.091   0.213
 4477SOL    HW114330   1.781   1.028   0.204
 4477SOL    HW214331   1.693   1.142   0.128
 4478SOL     OW14332   2.199   6.577   2.508
 4478SOL    HW114333   2.133   6.636   2.554
 4478SOL    HW214334   2.292   6.608   2.529
 4479SOL     OW14335   0.918   0.353   5.786
 4479SOL    HW114336   0.979   0.432   5.776
 4479SOL    HW214337   0.971   0.274   5.817
 4480SOL     OW14338   1.079   4.923   4.820
 4480SOL    HW114339   1.028   4.877   4.893
 4480SOL    HW214340   1.089   5.020   4.843
 4481SOL     OW14341   0.930   6.239   3.839
 4481SOL    HW114342   0.963   6.192   3.921
 4481SOL    HW214343   0.967   6.194   3.757
 4482SOL     OW14344   0.115   4.597   3.707
 4482SOL    HW114345   0.136   4.693   3.726
 4482SOL    HW214346   0.200   4.545   3.705
 4483SOL     OW14347   5.352   3.084   1.676
 4483SOL    HW114348   5.271   3.069   1.733
 4483SOL    HW214349   5.408   3.001   1.676
 4484SOL     OW14350   3.391   2.464   5.442
 4484SOL    HW114351   3.358   2.371   5.458
 4484SOL    HW214352   3.315   2.522   5.412
 4485SOL     OW14353   4.996   1.631   6.672
 4485SOL    HW114354   4.906   1.592   6.693
 4485SOL    HW214355   5.021   1.697   6.741
 4486SOL     OW14356   6.463   3.526   4.848
 4486SOL    HW114357   6.439   3.437   4.885
 4486SOL    HW214358   6.385   3.563   4.797
 4487SOL     OW14359   3.027   3.489   6.121
 4487SOL    HW114360   2.997   3.442   6.204
 4487SOL    HW214361   2.988   3.445   6.041
 4488SOL     OW14362   6.287   1.724   5.265
 4488SOL    HW114363   6.212   1.682   5.316
 4488SOL    HW214364   6.303   1.672   5.181
 4489SOL     OW14365   5.850   5.803   4.750
 4489SOL    HW114366   5.935   5.755   4.727
 4489SOL    HW214367   5.773   5.740   4.741
 4490SOL     OW14368   6.277   2.090   2.819
 4490SOL    HW114369   6.281   2.005   2.871
 4490SOL    HW214370   6.187   2.099   2.775
 4491SOL     OW14371   1.189   3.540   2.693
 4491SOL    HW114372   1.100   3.522   2.735
 4491SOL    HW214373   1.199   3.483   2.611
 4492SOL     OW14374   4.553   2.639   0.327
 4492SOL    HW114375   4.572   2.639   0.229
 4492SOL    HW214376   4.456   2.620   0.342
 4493SOL     OW14377   5.386   5.229   5.009
 4493SOL    HW114378   5.465   5.167   5.012
 4493SOL    HW214379   5.380   5.271   4.918
 4494SOL     OW14380   0.136   4.431   5.200
 4494SOL    HW114381   0.230   4.456   5.178
 4494SOL    HW214382   0.117   4.338   5.168
 4495SOL     OW14383   5.089   6.713   1.690
 4495SOL    HW114384   5.018   6.757   1.745
 4495SOL    HW214385   5.088   6.751   1.597
 4496SOL     OW14386   5.335   3.730   5.593
 4496SOL    HW114387   5.414   3.669   5.602
 4496SOL    HW214388   5.302   3.757   5.684
 4497SOL     OW14389   6.001   5.188   0.158
 4497SOL    HW114390   6.036   5.157   0.070
 4497SOL    HW214391   5.991   5.109   0.220
 4498SOL     OW14392   0.300   3.499   6.854
 4498SOL    HW114393   0.312   3.427   6.785
 4498SOL    HW214394   0.204   3.503   6.882
 4499SOL     OW14395   0.014   3.465   5.576
 4499SOL    HW114396   0.037   3.369   5.590
 4499SOL    HW214397   0.018   3.514   5.663
 4500SOL     OW14398   2.995   3.886   4.579
 4500SOL    HW114399   2.950   3.892   4.668
 4500SOL    HW214400   2.961   3.807   4.529
 4501SOL     OW14401   0.429   4.952   5.183
 4501SOL    HW114402   0.338   4.928   5.218
 4501SOL    HW214403   0.472   5.017   5.245
 4502SOL     OW14404   1.652   2.541   0.004
 4502SOL    HW114405   1.559   2.515   0.029
 4502SOL    HW214406   1.718   2.490   0.060
 4503SOL     OW14407   1.634   1.269   3.969
 4503SOL    HW114408   1.695   1.253   3.891
 4503SOL    HW214409   1.548   1.220   3.954
 4504SOL     OW14410   5.516   2.619   5.365
 4504SOL    HW114411   5.548   2.713   5.375
 4504SOL    HW214412   5.439   2.616   5.303
 4505SOL     OW14413   1.855   6.505   5.129
 4505SOL    HW114414   1.897   6.417   5.104
 4505SOL    HW214415   1.777   6.488   5.189
 4506SOL     OW14416   4.072   1.093   5.258
 4506SOL    HW114417   4.063   1.034   5.338
 4506SOL    HW214418   4.156   1.147   5.267
 4507SOL     OW14419   5.085   4.113   0.855
 4507SOL    HW114420   5.072   4.134   0.951
 4507SOL    HW214421   4.997   4.113   0.807
 4508SOL     OW14422   1.298   3.697   7.016
 4508SOL    HW114423   1.266   3.603   7.003
 4508SOL    HW214424   1.385   3.709   6.970
 4509SOL     OW14425   3.167   1.939   4.424
 4509SOL    HW114426   3.132   1.859   4.374
 4509SOL    HW214427   3.149   1.928   4.522
 4510SOL     OW14428   5.329   6.938   5.364
 4510SOL    HW114429   5.404   6.949   5.298
 4510SOL    HW214430   5.252   6.995   5.335
 4511SOL     OW14431   6.535   2.427   0.502
 4511SOL    HW114432   6.593   2.349   0.526
 4511SOL    HW214433   6.463   2.437   0.571
 4512SOL     OW14434   2.252   6.124   6.504
 4512SOL    HW114435   2.311   6.047   6.480
 4512SOL    HW214436   2.299   6.181   6.572
 4513SOL     OW14437   4.919   6.880   1.839
 4513SOL    HW114438   4.826   6.889   1.875
 4513SOL    HW214439   4.951   6.969   1.806
 4514SOL     OW14440   3.238   1.099   5.053
 4514SOL    HW114441   3.231   1.160   5.132
 4514SOL    HW214442   3.212   1.006   5.081
 4515SOL     OW14443   0.163   4.871   0.541
 4515SOL    HW114444   0.181   4.775   0.562
 4515SOL    HW214445   0.147   4.881   0.443
 4516SOL     OW14446   1.065   1.327   5.145
 4516SOL    HW114447   1.043   1.423   5.132
 4516SOL    HW214448   1.085   1.284   5.057
 4517SOL     OW14449   3.804   6.790   6.589
 4517SOL    HW114450   3.727   6.750   6.539
 4517SOL    HW214451   3.860   6.717   6.627
 4518SOL     OW14452   1.253   1.957   3.800
 4518SOL    HW114453   1.325   1.895   3.768
 4518SOL    HW214454   1.173   1.947   3.741
 4519SOL     OW14455   0.170   2.977   3.844
 4519SOL    HW114456   0.178   3.070   3.807
 4519SOL    HW214457   0.258   2.947   3.879
 4520SOL     OW14458   6.820   4.657   2.758
 4520SOL    HW114459   6.754   4.684   2.828
 4520SOL    HW214460   6.896   4.608   2.801
 4521SOL     OW14461   4.846   2.630   0.008
 4521SOL    HW114462   4.915   2.609   6.959
 4521SOL    HW214463   4.873   2.588   0.095
 4522SOL     OW14464   6.516   6.774   3.548
 4522SOL    HW114465   6.545   6.797   3.642
 4522SOL    HW214466   6.503   6.675   3.541
 4523SOL     OW14467   3.427   4.466   0.194
 4523SOL    HW114468   3.516   4.424   0.214
 4523SOL    HW214469   3.366   4.396   0.156
 4524SOL     OW14470   5.283   1.102   5.147
 4524SOL    HW114471   5.192   1.110   5.107
 4524SOL    HW214472   5.275   1.084   5.245
 4525SOL     OW14473   6.160   1.340   4.666
 4525SOL    HW114474   6.105   1.310   4.588
 4525SOL    HW214475   6.149   1.274   4.741
 4526SOL     OW14476   4.812   6.630   0.476
 4526SOL    HW114477   4.738   6.664   0.417
 4526SOL    HW214478   4.792   6.653   0.571
 4527SOL     OW14479   5.005   1.050   3.028
 4527SOL    HW114480   4.911   1.050   2.992
 4527SOL    HW214481   5.068   1.022   2.956
 4528SOL     OW14482   5.720   0.285   0.390
 4528SOL    HW114483   5.801   0.292   0.331
 4528SOL    HW214484   5.720   0.195   0.434
 4529SOL     OW14485   2.876   0.428   3.414
 4529SOL    HW114486   2.846   0.440   3.509
 4529SOL    HW214487   2.975   0.409   3.412
 4530SOL     OW14488   0.370   3.201   5.469
 4530SOL    HW114489   0.401   3.111   5.499
 4530SOL    HW214490   0.382   3.267   5.543
 4531SOL     OW14491   0.892   3.195   3.767
 4531SOL    HW114492   0.945   3.202   3.852
 4531SOL    HW214493   0.910   3.106   3.725
 4532SOL     OW14494   6.177   1.190   0.848
 4532SOL    HW114495   6.164   1.142   0.935
 4532SOL    HW214496   6.271   1.222   0.842
 4533SOL     OW14497   1.617   6.371   2.701
 4533SOL    HW114498   1.688   6.374   2.631
 4533SOL    HW214499   1.541   6.314   2.669
 4534SOL     OW14500   6.759   4.091   5.132
 4534SOL    HW114501   6.700   4.170   5.121
 4534SOL    HW214502   6.758   4.036   5.049
 4535SOL     OW14503   4.908   3.248   2.055
 4535SOL    HW114504   4.994   3.199   2.044
 4535SOL    HW214505   4.832   3.188   2.032
 4536SOL     OW14506   5.797   1.153   4.704
 4536SOL    HW114507   5.751   1.229   4.750
 4536SOL    HW214508   5.750   1.068   4.724
 4537SOL     OW14509   4.163   2.943   0.052
 4537SOL    HW114510   4.099   2.997   7.018
 4537SOL    HW214511   4.215   2.882   7.012
 4538SOL     OW14512   3.043   1.448   3.161
 4538SOL    HW114513   3.129   1.497   3.144
 4538SOL    HW214514   3.056   1.351   3.142
 4539SOL     OW14515   2.122   1.778   3.353
 4539SOL    HW114516   2.185   1.832   3.297
 4539SOL    HW214517   2.174   1.712   3.408
 4540SOL     OW14518   3.354   2.985   4.498
 4540SOL    HW114519   3.300   2.936   4.566
 4540SOL    HW214520   3.435   3.025   4.541
 4541SOL     OW14521   4.935   1.927   0.698
 4541SOL    HW114522   4.981   2.005   0.655
 4541SOL    HW214523   5.000   1.851   0.707
 4542SOL     OW14524   5.987   6.305   2.014
 4542SOL    HW114525   6.059   6.366   1.979
 4542SOL    HW214526   6.021   6.256   2.094
 4543SOL     OW14527   5.175   1.600   0.983
 4543SOL    HW114528   5.223   1.537   1.045
 4543SOL    HW214529   5.082   1.616   1.017
 4544SOL     OW14530   3.213   5.669   7.004
 4544SOL    HW114531   3.185   5.700   6.914
 4544SOL    HW214532   3.309   5.639   7.001
 4545SOL     OW14533   4.199   2.101   5.223
 4545SOL    HW114534   4.123   2.077   5.282
 4545SOL    HW214535   4.285   2.090   5.273
 4546SOL     OW14536   0.549   6.654   6.584
 4546SOL    HW114537   0.462   6.629   6.541
 4546SOL    HW214538   0.551   6.619   6.677
 4547SOL     OW14539   5.591   2.690   1.467
 4547SOL    HW114540   5.546   2.602   1.450
 4547SOL    HW214541   5.688   2.675   1.485
 4548SOL     OW14542   0.670   4.297   3.483
 4548SOL    HW114543   0.614   4.247   3.417
 4548SOL    HW214544   0.759   4.318   3.442
 4549SOL     OW14545   6.810   3.608   3.028
 4549SOL    HW114546   6.717   3.602   2.991
 4549SOL    HW214547   6.868   3.542   2.980
 4550SOL     OW14548   1.018   6.047   3.119
 4550SOL    HW114549   0.920   6.054   3.099
 4550SOL    HW214550   1.031   6.030   3.216
 4551SOL     OW14551   0.625   3.043   5.251
 4551SOL    HW114552   0.590   2.950   5.263
 4551SOL    HW214553   0.669   3.074   5.335
 4552SOL     OW14554   0.841   3.159   4.959
 4552SOL    HW114555   0.754   3.201   4.933
 4552SOL    HW214556   0.896   3.226   5.009
 4553SOL     OW14557   4.594   5.271   0.438
 4553SOL    HW114558   4.679   5.220   0.452
 4553SOL    HW214559   4.517   5.209   0.445
 4554SOL     OW14560   4.020   6.921   2.889
 4554SOL    HW114561   4.046   6.878   2.803
 4554SOL    HW214562   3.953   6.864   2.937
 4555SOL     OW14563   4.873   2.301   6.945
 4555SOL    HW114564   4.788   2.279   6.993
 4555SOL    HW214565   4.875   2.398   6.923
 4556SOL     OW14566   4.370   0.262   3.743
 4556SOL    HW114567   4.445   0.221   3.690
 4556SOL    HW214568   4.283   0.241   3.698
 4557SOL     OW14569   5.660   6.770   5.977
 4557SOL    HW114570   5.691   6.742   5.886
 4557SOL    HW214571   5.560   6.772   5.978
 4558SOL     OW14572   6.370   3.599   6.411
 4558SOL    HW114573   6.312   3.598   6.330
 4558SOL    HW214574   6.351   3.518   6.466
 4559SOL     OW14575   1.676   6.693   1.610
 4559SOL    HW114576   1.775   6.686   1.600
 4559SOL    HW214577   1.632   6.673   1.522
 4560SOL     OW14578   5.241   3.225   2.848
 4560SOL    HW114579   5.173   3.292   2.878
 4560SOL    HW214580   5.239   3.217   2.748
 4561SOL     OW14581   3.092   0.687   6.513
 4561SOL    HW114582   3.072   0.641   6.426
 4561SOL    HW214583   3.120   0.620   6.581
 4562SOL     OW14584   3.110   5.786   6.763
 4562SOL    HW114585   3.072   5.718   6.700
 4562SOL    HW214586   3.037   5.847   6.794
 4563SOL     OW14587   5.420   1.353   0.487
 4563SOL    HW114588   5.514   1.388   0.498
 4563SOL    HW214589   5.370   1.412   0.424
 4564SOL     OW14590   0.919   5.785   0.287
 4564SOL    HW114591   0.843   5.744   0.337
 4564SOL    HW214592   0.936   5.877   0.323
 4565SOL     OW14593   0.733   1.059   5.295
 4565SOL    HW114594   0.788   0.980   5.322
 4565SOL    HW214595   0.636   1.034   5.294
 4566SOL     OW14596   0.339   0.740   6.663
 4566SOL    HW114597   0.368   0.689   6.582
 4566SOL    HW214598   0.411   0.737   6.732
 4567SOL     OW14599   6.483   1.751   0.630
 4567SOL    HW114600   6.557   1.748   0.563
 4567SOL    HW214601   6.522   1.752   0.723
 4568SOL     OW14602   3.137   4.401   5.509
 4568SOL    HW114603   3.207   4.470   5.494
 4568SOL    HW214604   3.161   4.344   5.588
 4569SOL     OW14605   1.237   1.728   4.362
 4569SOL    HW114606   1.213   1.695   4.271
 4569SOL    HW214607   1.166   1.790   4.395
 4570SOL     OW14608   0.049   5.825   3.531
 4570SOL    HW114609   0.045   5.860   3.438
 4570SOL    HW214610   0.077   5.897   3.594
 4571SOL     OW14611   3.227   3.372   4.508
 4571SOL    HW114612   3.154   3.309   4.481
 4571SOL    HW214613   3.316   3.330   4.491
 4572SOL     OW14614   1.165   6.830   1.100
 4572SOL    HW114615   1.223   6.749   1.096
 4572SOL    HW214616   1.163   6.865   1.194
 4573SOL     OW14617   5.903   5.592   1.100
 4573SOL    HW114618   5.860   5.682   1.090
 4573SOL    HW214619   5.998   5.603   1.127
 4574SOL     OW14620   6.962   4.294   1.605
 4574SOL    HW114621   6.997   4.211   1.649
 4574SOL    HW214622   6.927   4.272   1.514
 4575SOL     OW14623   6.438   1.529   1.315
 4575SOL    HW114624   6.407   1.451   1.368
 4575SOL    HW214625   6.424   1.613   1.368
 4576SOL     OW14626   3.291   5.929   6.575
 4576SOL    HW114627   3.289   5.863   6.650
 4576SOL    HW214628   3.234   6.008   6.599
 4577SOL     OW14629   0.969   3.514   3.452
 4577SOL    HW114630   1.047   3.543   3.396
 4577SOL    HW214631   1.001   3.469   3.534
 4578SOL     OW14632   0.112   3.528   3.469
 4578SOL    HW114633   0.085   3.570   3.383
 4578SOL    HW214634   0.066   3.574   3.545
 4579SOL     OW14635   5.154   1.999   3.203
 4579SOL    HW114636   5.129   2.072   3.267
 4579SOL    HW214637   5.253   1.999   3.189
 4580SOL     OW14638   5.782   5.724   0.652
 4580SOL    HW114639   5.737   5.763   0.572
 4580SOL    HW214640   5.717   5.667   0.703
 4581SOL     OW14641   3.195   5.413   3.534
 4581SOL    HW114642   3.236   5.334   3.580
 4581SOL    HW214643   3.132   5.381   3.463
 4582SOL     OW14644   5.296   6.486   2.888
 4582SOL    HW114645   5.325   6.444   2.974
 4582SOL    HW214646   5.196   6.491   2.885
 4583SOL     OW14647   2.884   2.009   5.421
 4583SOL    HW114648   2.830   1.932   5.388
 4583SOL    HW214649   2.936   2.048   5.344
 4584SOL     OW14650   0.548   5.377   6.151
 4584SOL    HW114651   0.606   5.427   6.087
 4584SOL    HW214652   0.563   5.279   6.140
 4585SOL     OW14653   3.329   5.918   3.275
 4585SOL    HW114654   3.354   5.957   3.364
 4585SOL    HW214655   3.232   5.893   3.275
 4586SOL     OW14656   3.548   5.873   2.004
 4586SOL    HW114657   3.494   5.894   1.923
 4586SOL    HW214658   3.645   5.870   1.979
 4587SOL     OW14659   3.082   2.931   1.275
 4587SOL    HW114660   3.009   2.942   1.343
 4587SOL    HW214661   3.169   2.917   1.322
 4588SOL     OW14662   3.935   3.568   5.114
 4588SOL    HW114663   3.942   3.500   5.041
 4588SOL    HW214664   4.018   3.624   5.117
 4589SOL     OW14665   6.076   2.489   3.345
 4589SOL    HW114666   5.982   2.523   3.349
 4589SOL    HW214667   6.104   2.456   3.435
 4590SOL     OW14668   4.796   5.133   2.335
 4590SOL    HW114669   4.710   5.130   2.385
 4590SOL    HW214670   4.833   5.041   2.327
 4591SOL     OW14671   6.019   5.703   5.844
 4591SOL    HW114672   6.105   5.662   5.814
 4591SOL    HW214673   6.001   5.787   5.793
 4592SOL     OW14674   4.060   2.498   0.253
 4592SOL    HW114675   4.029   2.432   0.322
 4592SOL    HW214676   3.984   2.559   0.229
 4593SOL     OW14677   3.894   6.256   2.788
 4593SOL    HW114678   3.834   6.284   2.714
 4593SOL    HW214679   3.971   6.204   2.751
 4594SOL     OW14680   2.673   1.417   1.846
 4594SOL    HW114681   2.605   1.438   1.776
 4594SOL    HW214682   2.732   1.496   1.860
 4595SOL     OW14683   4.000   3.375   6.490
 4595SOL    HW114684   4.033   3.287   6.455
 4595SOL    HW214685   3.916   3.401   6.442
 4596SOL     OW14686   5.857   6.623   2.318
 4596SOL    HW114687   5.898   6.714   2.304
 4596SOL    HW214688   5.878   6.591   2.410
 4597SOL     OW14689   5.595   4.089   6.250
 4597SOL    HW114690   5.504   4.131   6.250
 4597SOL    HW214691   5.627   4.079   6.344
 4598SOL     OW14692   2.193   5.078   6.521
 4598SOL    HW114693   2.179   5.157   6.580
 4598SOL    HW214694   2.121   5.010   6.538
 4599SOL     OW14695   1.528   4.528   1.298
 4599SOL    HW114696   1.616   4.496   1.333
 4599SOL    HW214697   1.515   4.624   1.322
 4600SOL     OW14698   3.090   5.835   0.430
 4600SOL    HW114699   3.006   5.889   0.437
 4600SOL    HW214700   3.122   5.836   0.335
 4601SOL     OW14701   1.983   0.857   4.901
 4601SOL    HW114702   2.036   0.794   4.844
 4601SOL    HW214703   2.041   0.933   4.929
 4602SOL     OW14704   2.216   0.210   1.850
 4602SOL    HW114705   2.254   0.119   1.831
 4602SOL    HW214706   2.256   0.246   1.934
 4603SOL     OW14707   3.271   6.785   1.962
 4603SOL    HW114708   3.231   6.719   2.027
 4603SOL    HW214709   3.328   6.736   1.896
 4604SOL     OW14710   3.460   0.105   2.379
 4604SOL    HW114711   3.518   0.070   2.453
 4604SOL    HW214712   3.409   0.029   2.337
 4605SOL     OW14713   5.201   0.743   4.799
 4605SOL    HW114714   5.266   0.800   4.849
 4605SOL    HW214715   5.113   0.743   4.847
 4606SOL     OW14716   6.546   6.528   5.106
 4606SOL    HW114717   6.565   6.440   5.063
 4606SOL    HW214718   6.493   6.514   5.190
 4607SOL     OW14719   2.946   1.323   1.463
 4607SOL    HW114720   2.951   1.323   1.363
 4607SOL    HW214721   3.038   1.322   1.501
 4608SOL     OW14722   1.668   5.035   5.101
 4608SOL    HW114723   1.639   4.955   5.154
 4608SOL    HW214724   1.587   5.089   5.076
 4609SOL     OW14725   5.193   6.843   0.033
 4609SOL    HW114726   5.235   6.825   6.965
 4609SOL    HW214727   5.262   6.875   0.098
 4610SOL     OW14728   0.321   2.578   6.504
 4610SOL    HW114729   0.312   2.610   6.598
 4610SOL    HW214730   0.292   2.482   6.498
 4611SOL     OW14731   0.400   3.979   0.079
 4611SOL    HW114732   0.306   4.010   0.085
 4611SOL    HW214733   0.437   3.963   0.171
 4612SOL     OW14734   1.913   6.003   6.266
 4612SOL    HW114735   1.841   6.069   6.286
 4612SOL    HW214736   1.967   5.986   6.348
 4613SOL     OW14737   3.218   5.587   2.739
 4613SOL    HW114738   3.131   5.539   2.745
 4613SOL    HW214739   3.202   5.684   2.721
 4614SOL     OW14740   1.639   5.427   0.166
 4614SOL    HW114741   1.584   5.507   0.188
 4614SOL    HW214742   1.692   5.444   0.083
 4615SOL     OW14743   1.608   1.742   6.960
 4615SOL    HW114744   1.548   1.751   6.880
 4615SOL    HW214745   1.570   1.674   0.002
 4616SOL     OW14746   6.104   0.383   6.685
 4616SOL    HW114747   6.069   0.446   6.616
 4616SOL    HW214748   6.142   0.302   6.639
 4617SOL     OW14749   0.868   2.969   1.924
 4617SOL    HW114750   0.899   3.023   2.002
 4617SOL    HW214751   0.937   2.900   1.902
 4618SOL     OW14752   0.940   2.598   6.024
 4618SOL    HW114753   0.896   2.650   6.097
 4618SOL    HW214754   0.871   2.548   5.972
 4619SOL     OW14755   4.736   0.909   4.035
 4619SOL    HW114756   4.783   0.892   4.122
 4619SOL    HW214757   4.786   0.978   3.983
 4620SOL     OW14758   3.128   4.511   6.923
 4620SOL    HW114759   3.143   4.593   6.978
 4620SOL    HW214760   3.216   4.478   6.889
 4621SOL     OW14761   0.310   0.902   5.012
 4621SOL    HW114762   0.263   0.951   4.939
 4621SOL    HW214763   0.394   0.861   4.976
 4622SOL     OW14764   1.879   3.443   0.193
 4622SOL    HW114765   1.904   3.515   0.257
 4622SOL    HW214766   1.811   3.383   0.235
 4623SOL     OW14767   6.965   4.940   1.152
 4623SOL    HW114768   6.877   4.911   1.189
 4623SOL    HW214769   6.981   5.035   1.175
 4624SOL     OW14770   4.703   0.727   4.375
 4624SOL    HW114771   4.729   0.701   4.468
 4624SOL    HW214772   4.750   0.811   4.349
 4625SOL     OW14773   1.082   4.112   6.820
 4625SOL    HW114774   1.086   4.027   6.873
 4625SOL    HW214775   1.147   4.107   6.744
 4626SOL     OW14776   6.509   4.723   1.820
 4626SOL    HW114777   6.416   4.730   1.857
 4626SOL    HW214778   6.573   4.709   1.895
 4627SOL     OW14779   3.534   5.977   5.172
 4627SOL    HW114780   3.503   5.883   5.166
 4627SOL    HW214781   3.555   5.999   5.267
 4628SOL     OW14782   6.212   4.695   1.869
 4628SOL    HW114783   6.148   4.693   1.791
 4628SOL    HW214784   6.235   4.789   1.891
 4629SOL     OW14785   2.159   5.034   5.525
 4629SOL    HW114786   2.212   4.949   5.518
 4629SOL    HW214787   2.189   5.098   5.454
 4630SOL     OW14788   1.841   5.681   3.352
 4630SOL    HW114789   1.769   5.614   3.334
 4630SOL    HW214790   1.903   5.686   3.274
 4631SOL     OW14791   3.003   6.497   3.094
 4631SOL    HW114792   3.047   6.494   3.004
 4631SOL    HW214793   2.908   6.466   3.085
 4632SOL     OW14794   4.784   5.702   4.412
 4632SOL    HW114795   4.787   5.664   4.320
 4632SOL    HW214796   4.852   5.657   4.470
 4633SOL     OW14797   6.590   1.827   5.043
 4633SOL    HW114798   6.504   1.869   5.014
 4633SOL    HW214799   6.593   1.732   5.011
 4634SOL     OW14800   2.492   4.804   0.947
 4634SOL    HW114801   2.588   4.776   0.955
 4634SOL    HW214802   2.456   4.824   1.038
 4635SOL     OW14803   4.871   3.204   2.467
 4635SOL    HW114804   4.821   3.126   2.504
 4635SOL    HW214805   4.965   3.204   2.501
 4636SOL     OW14806   2.857   5.979   0.480
 4636SOL    HW114807   2.887   6.068   0.515
 4636SOL    HW214808   2.820   5.925   0.556
 4637SOL     OW14809   0.998   0.673   5.797
 4637SOL    HW114810   1.025   0.597   5.857
 4637SOL    HW214811   1.078   0.731   5.780
 4638SOL     OW14812   4.403   3.391   5.926
 4638SOL    HW114813   4.441   3.450   5.997
 4638SOL    HW214814   4.303   3.402   5.924
 4639SOL     OW14815   0.751   4.104   5.787
 4639SOL    HW114816   0.755   4.165   5.866
 4639SOL    HW214817   0.657   4.074   5.773
 4640SOL     OW14818   5.072   4.369   2.794
 4640SOL    HW114819   5.010   4.318   2.854
 4640SOL    HW214820   5.156   4.316   2.780
 4641SOL     OW14821   2.891   4.836   4.491
 4641SOL    HW114822   2.824   4.769   4.459
 4641SOL    HW214823   2.851   4.889   4.566
 4642SOL     OW14824   6.363   5.669   4.509
 4642SOL    HW114825   6.337   5.735   4.440
 4642SOL    HW214826   6.450   5.697   4.551
 4643SOL     OW14827   3.913   2.380   1.695
 4643SOL    HW114828   3.964   2.308   1.741
 4643SOL    HW214829   3.819   2.382   1.729
 4644SOL     OW14830   1.408   6.383   4.475
 4644SOL    HW114831   1.339   6.410   4.408
 4644SOL    HW214832   1.486   6.444   4.468
 4645SOL     OW14833   2.297   6.543   4.369
 4645SOL    HW114834   2.198   6.551   4.368
 4645SOL    HW214835   2.324   6.458   4.414
 4646SOL     OW14836   3.300   0.475   2.011
 4646SOL    HW114837   3.326   0.506   2.102
 4646SOL    HW214838   3.239   0.396   2.019
 4647SOL     OW14839   6.719   0.523   4.056
 4647SOL    HW114840   6.791   0.537   4.124
 4647SOL    HW214841   6.640   0.580   4.078
 4648SOL     OW14842   2.664   5.641   2.278
 4648SOL    HW114843   2.671   5.677   2.185
 4648SOL    HW214844   2.630   5.547   2.275
 4649SOL     OW14845   5.260   0.821   5.841
 4649SOL    HW114846   5.277   0.918   5.826
 4649SOL    HW214847   5.162   0.806   5.855
 4650SOL     OW14848   5.018   5.784   2.600
 4650SOL    HW114849   5.088   5.828   2.544
 4650SOL    HW214850   5.043   5.790   2.697
 4651SOL     OW14851   0.337   1.957   1.733
 4651SOL    HW114852   0.278   1.997   1.663
 4651SOL    HW214853   0.433   1.970   1.708
 4652SOL     OW14854   6.949   0.521   4.713
 4652SOL    HW114855   6.889   0.444   4.735
 4652SOL    HW214856   7.006   0.498   4.635
 4653SOL     OW14857   6.827   6.572   7.004
 4653SOL    HW114858   6.785   6.660   6.982
 4653SOL    HW214859   6.860   6.529   6.919
 4654SOL     OW14860   0.627   0.347   0.568
 4654SOL    HW114861   0.548   0.339   0.507
 4654SOL    HW214862   0.708   0.370   0.514
 4655SOL     OW14863   0.111   4.344   2.937
 4655SOL    HW114864   0.209   4.345   2.953
 4655SOL    HW214865   0.070   4.428   2.973
 4656SOL     OW14866   1.209   0.798   3.209
 4656SOL    HW114867   1.134   0.862   3.226
 4656SOL    HW214868   1.214   0.732   3.284
 4657SOL     OW14869   5.110   6.815   1.424
 4657SOL    HW114870   5.054   6.769   1.354
 4657SOL    HW214871   5.083   6.911   1.430
 4658SOL     OW14872   4.482   0.207   2.732
 4658SOL    HW114873   4.537   0.170   2.807
 4658SOL    HW214874   4.386   0.213   2.761
 4659SOL     OW14875   2.124   2.569   4.912
 4659SOL    HW114876   2.113   2.517   4.828
 4659SOL    HW214877   2.079   2.521   4.988
 4660SOL     OW14878   0.491   1.678   6.014
 4660SOL    HW114879   0.508   1.585   5.982
 4660SOL    HW214880   0.513   1.685   6.111
 4661SOL     OW14881   3.407   4.174   4.905
 4661SOL    HW114882   3.393   4.231   4.986
 4661SOL    HW214883   3.318   4.146   4.869
 4662SOL     OW14884   5.411   0.806   5.570
 4662SOL    HW114885   5.403   0.823   5.668
 4662SOL    HW214886   5.379   0.714   5.549
 4663SOL     OW14887   0.102   2.384   2.292
 4663SOL    HW114888   0.089   2.413   2.387
 4663SOL    HW214889   0.061   2.450   2.230
 4664SOL     OW14890   3.125   2.555   6.800
 4664SOL    HW114891   3.109   2.639   6.748
 4664SOL    HW214892   3.203   2.568   6.861
 4665SOL     OW14893   4.978   0.047   6.577
 4665SOL    HW114894   4.941   0.073   6.666
 4665SOL    HW214895   5.063   7.017   6.590
 4666SOL     OW14896   2.461   1.782   0.121
 4666SOL    HW114897   2.544   1.838   0.121
 4666SOL    HW214898   2.395   1.821   0.185
 4667SOL     OW14899   0.235   4.967   0.060
 4667SOL    HW114900   0.287   5.046   0.027
 4667SOL    HW214901   0.279   4.883   0.027
 4668SOL     OW14902   6.671   1.555   5.034
 4668SOL    HW114903   6.668   1.551   5.134
 4668SOL    HW214904   6.765   1.543   5.003
 4669SOL     OW14905   1.589   6.768   0.389
 4669SOL    HW114906   1.673   6.792   0.341
 4669SOL    HW214907   1.546   6.850   0.427
 4670SOL     OW14908   2.058   1.877   5.031
 4670SOL    HW114909   2.148   1.915   5.054
 4670SOL    HW214910   2.022   1.921   4.949
 4671SOL     OW14911   5.847   3.035   1.540
 4671SOL    HW114912   5.917   3.079   1.597
 4671SOL    HW214913   5.812   2.954   1.588
 4672SOL     OW14914   1.950   4.042   6.525
 4672SOL    HW114915   1.994   3.953   6.522
 4672SOL    HW214916   1.954   4.084   6.434
 4673SOL     OW14917   3.063   0.879   2.332
 4673SOL    HW114918   3.124   0.820   2.383
 4673SOL    HW214919   3.106   0.969   2.320
 4674SOL     OW14920   4.594   5.872   5.172
 4674SOL    HW114921   4.660   5.857   5.245
 4674SOL    HW214922   4.642   5.895   5.087
 4675SOL     OW14923   1.350   4.183   0.195
 4675SOL    HW114924   1.359   4.083   0.193
 4675SOL    HW214925   1.328   4.216   0.104
 4676SOL     OW14926   1.488   5.781   3.502
 4676SOL    HW114927   1.575   5.829   3.504
 4676SOL    HW214928   1.501   5.686   3.529
 4677SOL     OW14929   1.891   2.449   0.116
 4677SOL    HW114930   1.875   2.405   0.204
 4677SOL    HW214931   1.947   2.389   0.059
 4678SOL     OW14932   1.728   4.269   3.147
 4678SOL    HW114933   1.659   4.220   3.200
 4678SOL    HW214934   1.682   4.324   3.076
 4679SOL     OW14935   5.398   6.652   1.322
 4679SOL    HW114936   5.379   6.573   1.380
 4679SOL    HW214937   5.385   6.626   1.226
 4680SOL     OW14938   2.691   1.489   1.482
 4680SOL    HW114939   2.753   1.413   1.500
 4680SOL    HW214940   2.602   1.470   1.525
 4681SOL     OW14941   5.474   3.964   1.138
 4681SOL    HW114942   5.563   3.920   1.144
 4681SOL    HW214943   5.403   3.901   1.168
 4682SOL     OW14944   4.917   3.721   6.111
 4682SOL    HW114945   4.975   3.644   6.141
 4682SOL    HW214946   4.919   3.727   6.011
 4683SOL     OW14947   5.868   4.340   4.112
 4683SOL    HW114948   5.817   4.387   4.040
 4683SOL    HW214949   5.823   4.253   4.133
 4684SOL     OW14950   4.645   6.582   0.136
 4684SOL    HW114951   4.633   6.614   0.042
 4684SOL    HW214952   4.635   6.659   0.199
 4685SOL     OW14953   2.386   3.566   5.781
 4685SOL    HW114954   2.420   3.569   5.875
 4685SOL    HW214955   2.422   3.484   5.735
 4686SOL     OW14956   3.453   5.931   0.755
 4686SOL    HW114957   3.505   5.849   0.732
 4686SOL    HW214958   3.358   5.907   0.775
 4687SOL     OW14959   3.006   1.169   2.549
 4687SOL    HW114960   2.932   1.125   2.499
 4687SOL    HW214961   3.062   1.100   2.595
 4688SOL     OW14962   5.252   2.406   5.786
 4688SOL    HW114963   5.207   2.370   5.868
 4688SOL    HW214964   5.185   2.458   5.732
 4689SOL     OW14965   5.635   0.706   0.517
 4689SOL    HW114966   5.694   0.758   0.579
 4689SOL    HW214967   5.607   0.621   0.562
 4690SOL     OW14968   2.136   1.381   0.741
 4690SOL    HW114969   2.183   1.466   0.719
 4690SOL    HW214970   2.051   1.375   0.687
 4691SOL     OW14971   5.580   4.378   0.731
 4691SOL    HW114972   5.534   4.300   0.772
 4691SOL    HW214973   5.656   4.346   0.674
 4692SOL     OW14974   6.449   4.764   3.217
 4692SOL    HW114975   6.528   4.754   3.277
 4692SOL    HW214976   6.460   4.703   3.138
 4693SOL     OW14977   1.802   0.817   3.303
 4693SOL    HW114978   1.702   0.812   3.301
 4693SOL    HW214979   1.839   0.767   3.225
 4694SOL     OW14980   2.712   0.901   0.531
 4694SOL    HW114981   2.785   0.854   0.480
 4694SOL    HW214982   2.753   0.967   0.593
 4695SOL     OW14983   1.252   5.706   0.714
 4695SOL    HW114984   1.334   5.704   0.656
 4695SOL    HW214985   1.276   5.673   0.805
 4696SOL     OW14986   1.371   5.286   6.001
 4696SOL    HW114987   1.308   5.211   6.017
 4696SOL    HW214988   1.338   5.368   6.047
 4697SOL     OW14989   1.969   4.281   1.018
 4697SOL    HW114990   2.036   4.348   0.983
 4697SOL    HW214991   1.991   4.191   0.982
 4698SOL     OW14992   4.605   0.191   3.611
 4698SOL    HW114993   4.701   0.184   3.640
 4698SOL    HW214994   4.582   0.287   3.594
 4699SOL     OW14995   0.634   0.571   2.315
 4699SOL    HW114996   0.577   0.498   2.352
 4699SOL    HW214997   0.581   0.627   2.252
 4700SOL     OW14998   6.739   2.242   3.163
 4700SOL    HW114999   6.737   2.188   3.079
 4700SOL    HW215000   6.735   2.181   3.242
 4701SOL     OW15001   3.412   2.045   1.983
 4701SOL    HW115002   3.508   2.072   1.974
 4701SOL    HW215003   3.380   2.067   2.075
 4702SOL     OW15004   4.690   4.923   6.808
 4702SOL    HW115005   4.696   4.968   6.719
 4702SOL    HW215006   4.668   4.990   6.878
 4703SOL     OW15007   1.258   4.708   2.542
 4703SOL    HW115008   1.339   4.654   2.564
 4703SOL    HW215009   1.177   4.648   2.545
 4704SOL     OW15010   7.016   5.786   5.761
 4704SOL    HW115011   0.082   5.751   5.725
 4704SOL    HW215012   7.020   5.787   5.861
 4705SOL     OW15013   3.374   2.745   1.514
 4705SOL    HW115014   3.366   2.645   1.514
 4705SOL    HW215015   3.326   2.782   1.594
 4706SOL     OW15016   1.370   0.305   0.692
 4706SOL    HW115017   1.430   0.334   0.617
 4706SOL    HW215018   1.359   0.206   0.689
 4707SOL     OW15019   1.234   6.366   1.162
 4707SOL    HW115020   1.138   6.377   1.189
 4707SOL    HW215021   1.275   6.456   1.148
 4708SOL     OW15022   1.280   2.448   4.424
 4708SOL    HW115023   1.309   2.537   4.459
 4708SOL    HW215024   1.260   2.456   4.326
 4709SOL     OW15025   5.378   4.226   4.986
 4709SOL    HW115026   5.343   4.302   4.931
 4709SOL    HW215027   5.327   4.143   4.964
 4710SOL     OW15028   5.327   6.443   4.308
 4710SOL    HW115029   5.298   6.352   4.280
 4710SOL    HW215030   5.314   6.454   4.406
 4711SOL     OW15031   6.051   3.446   3.297
 4711SOL    HW115032   6.078   3.368   3.241
 4711SOL    HW215033   6.105   3.526   3.271
 4712SOL     OW15034   4.579   4.114   5.416
 4712SOL    HW115035   4.605   4.164   5.498
 4712SOL    HW215036   4.646   4.130   5.344
 4713SOL     OW15037   5.364   4.052   0.898
 4713SOL    HW115038   5.409   4.026   0.983
 4713SOL    HW215039   5.271   4.082   0.917
 4714SOL     OW15040   6.476   1.646   6.487
 4714SOL    HW115041   6.456   1.554   6.455
 4714SOL    HW215042   6.469   1.650   6.587
 4715SOL     OW15043   6.295   1.522   2.309
 4715SOL    HW115044   6.393   1.508   2.297
 4715SOL    HW215045   6.257   1.568   2.229
 4716SOL     OW15046   3.916   5.440   5.550
 4716SOL    HW115047   4.002   5.478   5.516
 4716SOL    HW215048   3.871   5.505   5.610
 4717SOL     OW15049   2.921   5.252   5.551
 4717SOL    HW115050   2.845   5.299   5.506
 4717SOL    HW215051   2.960   5.184   5.488
 4718SOL     OW15052   5.366   3.607   0.959
 4718SOL    HW115053   5.464   3.628   0.953
 4718SOL    HW215054   5.315   3.673   0.903
 4719SOL     OW15055   6.282   3.213   3.466
 4719SOL    HW115056   6.279   3.302   3.511
 4719SOL    HW215057   6.374   3.197   3.430
 4720SOL     OW15058   2.962   5.171   0.009
 4720SOL    HW115059   3.023   5.191   6.953
 4720SOL    HW215060   3.015   5.164   0.093
 4721SOL     OW15061   6.273   3.535   2.137
 4721SOL    HW115062   6.230   3.540   2.047
 4721SOL    HW215063   6.312   3.624   2.160
 4722SOL     OW15064   1.066   4.472   6.296
 4722SOL    HW115065   1.147   4.427   6.333
 4722SOL    HW215066   1.094   4.552   6.243
 4723SOL     OW15067   3.887   4.346   6.024
 4723SOL    HW115068   3.869   4.376   5.931
 4723SOL    HW215069   3.910   4.248   6.024
 4724SOL     OW15070   0.362   6.381   4.023
 4724SOL    HW115071   0.316   6.438   3.955
 4724SOL    HW215072   0.307   6.378   4.106
 4725SOL     OW15073   5.590   5.026   0.805
 4725SOL    HW115074   5.520   5.026   0.733
 4725SOL    HW215075   5.637   4.938   0.807
 4726SOL     OW15076   1.812   3.009   5.886
 4726SOL    HW115077   1.786   2.918   5.853
 4726SOL    HW215078   1.907   3.006   5.919
 4727SOL     OW15079   0.611   5.903   1.074
 4727SOL    HW115080   0.633   5.819   1.124
 4727SOL    HW215081   0.525   5.891   1.024
 4728SOL     OW15082   6.056   0.994   3.114
 4728SOL    HW115083   6.114   1.071   3.139
 4728SOL    HW215084   5.962   1.013   3.143
 4729SOL     OW15085   6.024   0.688   0.289
 4729SOL    HW115086   6.028   0.667   0.191
 4729SOL    HW215087   5.940   0.739   0.308
 4730SOL     OW15088   3.392   6.463   4.820
 4730SOL    HW115089   3.370   6.481   4.916
 4730SOL    HW215090   3.360   6.372   4.795
 4731SOL     OW15091   3.068   0.097   0.682
 4731SOL    HW115092   3.117   0.053   0.757
 4731SOL    HW215093   3.120   0.084   0.597
 4732SOL     OW15094   0.561   4.006   4.256
 4732SOL    HW115095   0.547   4.105   4.261
 4732SOL    HW215096   0.498   3.960   4.318
 4733SOL     OW15097   1.881   3.754   3.062
 4733SOL    HW115098   1.844   3.790   3.148
 4733SOL    HW215099   1.921   3.664   3.077
 4734SOL     OW15100   5.521   3.560   6.186
 4734SOL    HW115101   5.523   3.660   6.192
 4734SOL    HW215102   5.524   3.521   6.278
 4735SOL     OW15103   6.899   6.585   5.293
 4735SOL    HW115104   6.933   6.641   5.368
 4735SOL    HW215105   6.975   6.554   5.237
 4736SOL     OW15106   6.568   1.807   3.532
 4736SOL    HW115107   6.647   1.763   3.490
 4736SOL    HW215108   6.572   1.794   3.631
 4737SOL     OW15109   2.030   5.314   1.127
 4737SOL    HW115110   2.011   5.252   1.203
 4737SOL    HW215111   1.953   5.315   1.064
 4738SOL     OW15112   2.123   0.384   4.060
 4738SOL    HW115113   2.163   0.362   3.971
 4738SOL    HW215114   2.185   0.446   4.110
 4739SOL     OW15115   6.004   3.381   4.902
 4739SOL    HW115116   6.026   3.326   4.983
 4739SOL    HW215117   6.022   3.477   4.922
 4740SOL     OW15118   0.717   1.298   1.896
 4740SOL    HW115119   0.816   1.300   1.891
 4740SOL    HW215120   0.686   1.206   1.918
 4741SOL     OW15121   4.100   5.030   1.197
 4741SOL    HW115122   4.118   5.100   1.128
 4741SOL    HW215123   4.003   5.007   1.197
 4742SOL     OW15124   2.854   6.061   1.116
 4742SOL    HW115125   2.867   6.014   1.203
 4742SOL    HW215126   2.941   6.099   1.085
 4743SOL     OW15127   2.541   1.825   6.421
 4743SOL    HW115128   2.446   1.857   6.414
 4743SOL    HW215129   2.543   1.740   6.474
 4744SOL     OW15130   2.167   3.617   5.651
 4744SOL    HW115131   2.243   3.578   5.703
 4744SOL    HW215132   2.181   3.602   5.553
 4745SOL     OW15133   3.248   5.070   5.247
 4745SOL    HW115134   3.239   5.153   5.302
 4745SOL    HW215135   3.326   5.017   5.281
 4746SOL     OW15136   5.984   5.963   0.288
 4746SOL    HW115137   6.039   6.012   0.221
 4746SOL    HW215138   6.017   5.982   0.380
 4747SOL     OW15139   0.085   2.364   0.173
 4747SOL    HW115140   0.152   2.319   0.114
 4747SOL    HW215141   0.040   2.296   0.231
 4748SOL     OW15142   0.997   0.525   1.588
 4748SOL    HW115143   0.953   0.436   1.571
 4748SOL    HW215144   1.056   0.548   1.511
 4749SOL     OW15145   1.792   6.432   6.898
 4749SOL    HW115146   1.751   6.361   6.841
 4749SOL    HW215147   1.888   6.444   6.875
 4750SOL     OW15148   6.810   1.296   4.230
 4750SOL    HW115149   6.848   1.226   4.170
 4750SOL    HW215150   6.774   1.253   4.313
 4751SOL     OW15151   1.399   4.794   6.635
 4751SOL    HW115152   1.420   4.733   6.559
 4751SOL    HW215153   1.301   4.816   6.635
 4752SOL     OW15154   2.560   6.243   1.554
 4752SOL    HW115155   2.484   6.224   1.491
 4752SOL    HW215156   2.577   6.163   1.611
 4753SOL     OW15157   5.515   6.945   5.160
 4753SOL    HW115158   5.504   6.892   5.076
 4753SOL    HW215159   5.529   0.021   5.137
 4754SOL     OW15160   0.435   0.152   6.365
 4754SOL    HW115161   0.358   0.140   6.301
 4754SOL    HW215162   0.486   0.067   6.371
 4755SOL     OW15163   2.461   1.544   5.997
 4755SOL    HW115164   2.371   1.558   5.955
 4755SOL    HW215165   2.494   1.630   6.035
 4756SOL     OW15166   4.573   2.799   1.508
 4756SOL    HW115167   4.626   2.717   1.486
 4756SOL    HW215168   4.593   2.828   1.601
 4757SOL     OW15169   2.627   2.325   2.054
 4757SOL    HW115170   2.727   2.319   2.053
 4757SOL    HW215171   2.589   2.243   2.098
 4758SOL     OW15172   4.860   5.303   5.598
 4758SOL    HW115173   4.880   5.208   5.621
 4758SOL    HW215174   4.900   5.363   5.667
 4759SOL     OW15175   5.564   5.870   5.999
 4759SOL    HW115176   5.501   5.812   5.949
 4759SOL    HW215177   5.530   5.883   6.093
 4760SOL     OW15178   1.774   0.973   1.460
 4760SOL    HW115179   1.838   0.972   1.383
 4760SOL    HW215180   1.711   0.895   1.452
 4761SOL     OW15181   6.845   0.225   6.746
 4761SOL    HW115182   6.840   0.128   6.721
 4761SOL    HW215183   6.923   0.239   6.807
 4762SOL     OW15184   2.582   4.995   2.519
 4762SOL    HW115185   2.489   5.030   2.507
 4762SOL    HW215186   2.647   5.071   2.519
 4763SOL     OW15187   5.753   6.259   3.114
 4763SOL    HW115188   5.818   6.275   3.188
 4763SOL    HW215189   5.722   6.164   3.117
 4764SOL     OW15190   4.617   3.721   5.313
 4764SOL    HW115191   4.638   3.643   5.254
 4764SOL    HW215192   4.671   3.800   5.284
 4765SOL     OW15193   4.805   5.854   5.345
 4765SOL    HW115194   4.855   5.926   5.297
 4765SOL    HW215195   4.800   5.875   5.442
 4766SOL     OW15196   2.945   0.685   3.207
 4766SOL    HW115197   2.848   0.710   3.209
 4766SOL    HW215198   2.983   0.704   3.117
 4767SOL     OW15199   3.808   6.915   0.569
 4767SOL    HW115200   3.782   6.950   0.479
 4767SOL    HW215201   3.797   6.988   0.637
 4768SOL     OW15202   5.527   0.968   4.610
 4768SOL    HW115203   5.492   1.051   4.567
 4768SOL    HW215204   5.615   0.944   4.570
 4769SOL     OW15205   3.798   5.900   1.767
 4769SOL    HW115206   3.779   5.829   1.834
 4769SOL    HW215207   3.845   5.860   1.688
 4770SOL     OW15208   2.310   0.428   3.235
 4770SOL    HW115209   2.278   0.382   3.152
 4770SOL    HW215210   2.409   0.434   3.234
 4771SOL     OW15211   3.571   4.659   6.098
 4771SOL    HW115212   3.566   4.710   6.184
 4771SOL    HW215213   3.478   4.645   6.063
 4772SOL     OW15214   2.648   0.457   1.677
 4772SOL    HW115215   2.611   0.497   1.761
 4772SOL    HW215216   2.600   0.372   1.656
 4773SOL     OW15217   0.401   5.886   3.954
 4773SOL    HW115218   0.395   5.786   3.949
 4773SOL    HW215219   0.330   5.920   4.015
 4774SOL     OW15220   0.928   3.395   2.059
 4774SOL    HW115221   0.861   3.469   2.047
 4774SOL    HW215222   1.014   3.434   2.091
 4775SOL     OW15223   4.710   0.426   2.891
 4775SOL    HW115224   4.671   0.351   2.943
 4775SOL    HW215225   4.651   0.506   2.899
 4776SOL     OW15226   2.907   6.114   2.350
 4776SOL    HW115227   2.818   6.159   2.352
 4776SOL    HW215228   2.900   6.025   2.395
 4777SOL     OW15229   2.143   4.502   0.948
 4777SOL    HW115230   2.172   4.479   1.041
 4777SOL    HW215231   2.100   4.592   0.947
 4778SOL     OW15232   4.768   3.659   1.724
 4778SOL    HW115233   4.715   3.606   1.658
 4778SOL    HW215234   4.811   3.598   1.790
 4779SOL     OW15235   6.514   0.659   3.101
 4779SOL    HW115236   6.577   0.660   3.178
 4779SOL    HW215237   6.426   0.698   3.129
 4780SOL     OW15238   0.764   6.731   5.794
 4780SOL    HW115239   0.792   6.821   5.758
 4780SOL    HW215240   0.779   6.728   5.892
 4781SOL     OW15241   2.391   5.593   0.916
 4781SOL    HW115242   2.475   5.620   0.964
 4781SOL    HW215243   2.316   5.585   0.982
 4782SOL     OW15244   5.636   0.313   6.450
 4782SOL    HW115245   5.688   0.248   6.506
 4782SOL    HW215246   5.544   0.322   6.487
 4783SOL     OW15247   4.979   3.819   0.992
 4783SOL    HW115248   5.027   3.785   0.911
 4783SOL    HW215249   5.005   3.915   1.007
 4784SOL     OW15250   5.736   5.301   5.386
 4784SOL    HW115251   5.747   5.207   5.355
 4784SOL    HW215252   5.741   5.363   5.308
 4785SOL     OW15253   6.816   6.552   0.847
 4785SOL    HW115254   6.819   6.647   0.816
 4785SOL    HW215255   6.756   6.545   0.927
 4786SOL     OW15256   1.943   3.020   1.893
 4786SOL    HW115257   1.906   2.965   1.967
 4786SOL    HW215258   2.039   2.997   1.879
 4787SOL     OW15259   3.023   2.211   3.893
 4787SOL    HW115260   3.018   2.165   3.805
 4787SOL    HW215261   2.957   2.287   3.895
 4788SOL     OW15262   1.782   5.304   5.498
 4788SOL    HW115263   1.800   5.354   5.583
 4788SOL    HW215264   1.685   5.280   5.494
 4789SOL     OW15265   5.630   0.675   0.023
 4789SOL    HW115266   5.569   0.740   6.999
 4789SOL    HW215267   5.597   0.656   0.115
 4790SOL     OW15268   5.349   2.228   6.644
 4790SOL    HW115269   5.424   2.200   6.704
 4790SOL    HW215270   5.280   2.155   6.641
 4791SOL     OW15271   5.461   6.871   2.159
 4791SOL    HW115272   5.541   6.924   2.131
 4791SOL    HW215273   5.403   6.928   2.217
 4792SOL     OW15274   2.367   2.711   2.756
 4792SOL    HW115275   2.330   2.644   2.821
 4792SOL    HW215276   2.397   2.664   2.673
 4793SOL     OW15277   1.487   6.874   6.070
 4793SOL    HW115278   1.509   6.931   6.149
 4793SOL    HW215279   1.565   6.873   6.007
 4794SOL     OW15280   2.491   6.339   3.150
 4794SOL    HW115281   2.440   6.359   3.234
 4794SOL    HW215282   2.445   6.265   3.100
 4795SOL     OW15283   6.249   3.118   4.542
 4795SOL    HW115284   6.149   3.111   4.548
 4795SOL    HW215285   6.278   3.208   4.575
 4796SOL     OW15286   5.537   3.320   0.215
 4796SOL    HW115287   5.489   3.232   0.218
 4796SOL    HW215288   5.493   3.383   0.280
 4797SOL     OW15289   0.945   4.700   5.745
 4797SOL    HW115290   0.914   4.653   5.828
 4797SOL    HW215291   1.045   4.697   5.741
 4798SOL     OW15292   0.295   4.416   4.022
 4798SOL    HW115293   0.335   4.329   3.995
 4798SOL    HW215294   0.198   4.418   3.998
 4799SOL     OW15295   5.043   1.334   5.047
 4799SOL    HW115296   5.031   1.304   4.952
 4799SOL    HW215297   4.959   1.319   5.098
 4800SOL     OW15298   2.540   2.745   5.553
 4800SOL    HW115299   2.603   2.702   5.489
 4800SOL    HW215300   2.494   2.822   5.509
 4801SOL     OW15301   1.579   1.655   0.404
 4801SOL    HW115302   1.567   1.745   0.446
 4801SOL    HW215303   1.523   1.587   0.451
 4802SOL     OW15304   2.812   6.337   2.119
 4802SOL    HW115305   2.712   6.332   2.111
 4802SOL    HW215306   2.854   6.273   2.055
 4803SOL     OW15307   0.861   7.010   0.744
 4803SOL    HW115308   0.870   0.088   0.759
 4803SOL    HW215309   0.951   6.971   0.724
 4804SOL     OW15310   4.476   5.304   6.182
 4804SOL    HW115311   4.435   5.242   6.115
 4804SOL    HW215312   4.404   5.356   6.228
 4805SOL     OW15313   6.678   0.868   0.361
 4805SOL    HW115314   6.586   0.882   0.324
 4805SOL    HW215315   6.680   0.782   0.413
 4806SOL     OW15316   0.269   4.028   3.137
 4806SOL    HW115317   0.205   3.963   3.097
 4806SOL    HW215318   0.302   3.992   3.225
 4807SOL     OW15319   0.642   5.791   1.697
 4807SOL    HW115320   0.628   5.757   1.790
 4807SOL    HW215321   0.594   5.732   1.632
 4808SOL     OW15322   5.440   3.352   1.649
 4808SOL    HW115323   5.390   3.399   1.576
 4808SOL    HW215324   5.396   3.264   1.669
 4809SOL     OW15325   3.125   5.025   0.243
 4809SOL    HW115326   3.196   5.068   0.187
 4809SOL    HW215327   3.115   4.930   0.216
 4810SOL     OW15328   0.466   5.621   1.570
 4810SOL    HW115329   0.480   5.549   1.502
 4810SOL    HW215330   0.393   5.594   1.633
 4811SOL     OW15331   3.537   5.166   2.251
 4811SOL    HW115332   3.622   5.140   2.296
 4811SOL    HW215333   3.549   5.256   2.208
 4812SOL     OW15334   6.845   5.369   4.151
 4812SOL    HW115335   6.826   5.434   4.224
 4812SOL    HW215336   6.807   5.280   4.174
 4813SOL     OW15337   5.103   1.703   2.297
 4813SOL    HW115338   5.019   1.757   2.309
 4813SOL    HW215339   5.093   1.615   2.342
 4814SOL     OW15340   6.839   3.623   0.752
 4814SOL    HW115341   6.775   3.648   0.680
 4814SOL    HW215342   6.797   3.638   0.841
 4815SOL     OW15343   4.565   5.482   1.493
 4815SOL    HW115344   4.588   5.385   1.488
 4815SOL    HW215345   4.620   5.526   1.564
 4816SOL     OW15346   5.603   5.575   2.358
 4816SOL    HW115347   5.571   5.553   2.266
 4816SOL    HW215348   5.701   5.593   2.355
 4817SOL     OW15349   1.192   2.504   5.644
 4817SOL    HW115350   1.120   2.435   5.645
 4817SOL    HW215351   1.232   2.512   5.735
 4818SOL     OW15352   6.907   0.135   3.963
 4818SOL    HW115353   6.970   0.210   3.943
 4818SOL    HW215354   6.825   0.172   4.007
 4819SOL     OW15355   1.307   3.293   6.804
 4819SOL    HW115356   1.296   3.194   6.812
 4819SOL    HW215357   1.405   3.316   6.803
 4820SOL     OW15358   0.039   3.423   1.957
 4820SOL    HW115359   6.966   3.411   1.990
 4820SOL    HW215360   0.099   3.358   2.004
 4821SOL     OW15361   6.919   6.190   2.134
 4821SOL    HW115362   6.885   6.203   2.041
 4821SOL    HW215363   7.002   6.243   2.147
 4822SOL     OW15364   0.841   3.745   4.401
 4822SOL    HW115365   0.806   3.764   4.309
 4822SOL    HW215366   0.767   3.754   4.467
 4823SOL     OW15367   1.581   2.984   1.951
 4823SOL    HW115368   1.628   3.050   1.893
 4823SOL    HW215369   1.553   2.904   1.897
 4824SOL     OW15370   5.569   0.184   5.222
 4824SOL    HW115371   5.600   0.154   5.312
 4824SOL    HW215372   5.488   0.242   5.233
 4825SOL     OW15373   1.404   0.479   4.692
 4825SOL    HW115374   1.376   0.464   4.597
 4825SOL    HW215375   1.423   0.391   4.736
 4826SOL     OW15376   4.445   7.000   1.386
 4826SOL    HW115377   4.450   0.003   1.483
 4826SOL    HW215378   4.350   6.991   1.358
 4827SOL     OW15379   0.238   2.043   0.851
 4827SOL    HW115380   0.199   2.103   0.780
 4827SOL    HW215381   0.262   2.098   0.931
 4828SOL     OW15382   4.570   0.429   2.592
 4828SOL    HW115383   4.639   0.476   2.647
 4828SOL    HW215384   4.556   0.337   2.629
 4829SOL     OW15385   3.967   0.240   5.587
 4829SOL    HW115386   3.975   0.227   5.686
 4829SOL    HW215387   3.897   0.177   5.552
 4830SOL     OW15388   3.172   5.663   3.606
 4830SOL    HW115389   3.177   5.568   3.577
 4830SOL    HW215390   3.077   5.689   3.622
 4831SOL     OW15391   3.481   5.285   6.210
 4831SOL    HW115392   3.404   5.336   6.172
 4831SOL    HW215393   3.473   5.189   6.185
 4832SOL     OW15394   3.034   3.527   4.602
 4832SOL    HW115395   3.116   3.490   4.560
 4832SOL    HW215396   2.980   3.576   4.532
 4833SOL     OW15397   5.885   2.903   4.740
 4833SOL    HW115398   5.929   2.864   4.821
 4833SOL    HW215399   5.904   3.001   4.737
 4834SOL     OW15400   2.041   5.328   1.965
 4834SOL    HW115401   2.043   5.239   2.009
 4834SOL    HW215402   2.128   5.346   1.920
 4835SOL     OW15403   6.831   3.082   5.303
 4835SOL    HW115404   6.831   3.006   5.368
 4835SOL    HW215405   6.911   3.139   5.319
 4836SOL     OW15406   5.007   1.020   5.018
 4836SOL    HW115407   5.030   0.923   5.013
 4836SOL    HW215408   5.045   1.067   4.938
 4837SOL     OW15409   6.943   3.400   4.258
 4837SOL    HW115410   6.933   3.353   4.345
 4837SOL    HW215411   0.002   3.363   4.209
 4838SOL     OW15412   1.243   4.694   6.255
 4838SOL    HW115413   1.184   4.767   6.289
 4838SOL    HW215414   1.337   4.710   6.284
 4839SOL     OW15415   2.091   2.270   0.715
 4839SOL    HW115416   2.022   2.306   0.777
 4839SOL    HW215417   2.180   2.270   0.760
 4840SOL     OW15418   5.543   3.301   5.360
 4840SOL    HW115419   5.447   3.281   5.339
 4840SOL    HW215420   5.573   3.380   5.307
 4841SOL     OW15421   2.990   5.315   3.344
 4841SOL    HW115422   2.895   5.297   3.321
 4841SOL    HW215423   3.025   5.390   3.288
 4842SOL     OW15424   2.736   5.124   3.268
 4842SOL    HW115425   2.676   5.121   3.347
 4842SOL    HW215426   2.717   5.207   3.215
 4843SOL     OW15427   0.080   2.492   2.534
 4843SOL    HW115428   0.163   2.505   2.589
 4843SOL    HW215429   0.017   2.568   2.551
 4844SOL     OW15430   1.309   5.420   4.981
 4844SOL    HW115431   1.347   5.331   5.007
 4844SOL    HW215432   1.301   5.424   4.881
 4845SOL     OW15433   4.776   4.198   5.242
 4845SOL    HW115434   4.728   4.267   5.187
 4845SOL    HW215435   4.874   4.219   5.244
 4846SOL     OW15436   6.902   3.586   4.905
 4846SOL    HW115437   6.958   3.659   4.867
 4846SOL    HW215438   6.954   3.501   4.906
 4847SOL     OW15439   2.654   6.575   6.143
 4847SOL    HW115440   2.587   6.520   6.093
 4847SOL    HW215441   2.638   6.566   6.241
 4848SOL     OW15442   2.847   0.676   4.115
 4848SOL    HW115443   2.754   0.667   4.079
 4848SOL    HW215444   2.882   0.768   4.094
 4849SOL     OW15445   1.982   6.792   1.309
 4849SOL    HW115446   1.956   6.887   1.327
 4849SOL    HW215447   2.081   6.785   1.303
 4850SOL     OW15448   4.723   0.943   0.466
 4850SOL    HW115449   4.722   0.853   0.422
 4850SOL    HW215450   4.794   0.945   0.536
 4851SOL     OW15451   3.492   5.715   7.018
 4851SOL    HW115452   3.560   5.724   0.071
 4851SOL    HW215453   3.476   5.805   6.978
 4852SOL     OW15454   4.563   5.268   5.005
 4852SOL    HW115455   4.507   5.188   4.984
 4852SOL    HW215456   4.644   5.269   4.947
 4853SOL     OW15457   4.063   1.040   3.074
 4853SOL    HW115458   4.102   0.952   3.047
 4853SOL    HW215459   3.967   1.028   3.098
 4854SOL     OW15460   6.190   6.188   1.484
 4854SOL    HW115461   6.166   6.171   1.580
 4854SOL    HW215462   6.198   6.287   1.469
 4855SOL     OW15463   6.259   4.960   4.554
 4855SOL    HW115464   6.243   4.988   4.648
 4855SOL    HW215465   6.355   4.937   4.541
 4856SOL     OW15466   0.288   3.690   3.111
 4856SOL    HW115467   0.234   3.735   3.040
 4856SOL    HW215468   0.359   3.634   3.068
 4857SOL     OW15469   2.725   2.375   4.122
 4857SOL    HW115470   2.815   2.337   4.145
 4857SOL    HW215471   2.691   2.430   4.198
 4858SOL     OW15472   0.278   6.184   4.430
 4858SOL    HW115473   0.345   6.253   4.457
 4858SOL    HW215474   0.324   6.096   4.419
 4859SOL     OW15475   0.607   5.875   2.097
 4859SOL    HW115476   0.586   5.786   2.058
 4859SOL    HW215477   0.583   5.947   2.032
 4860SOL     OW15478   5.253   5.893   0.686
 4860SOL    HW115479   5.184   5.912   0.756
 4860SOL    HW215480   5.344   5.892   0.728
 4861SOL     OW15481   0.372   4.822   6.625
 4861SOL    HW115482   0.441   4.802   6.694
 4861SOL    HW215483   0.389   4.765   6.544
 4862SOL     OW15484   2.615   4.562   5.210
 4862SOL    HW115485   2.705   4.597   5.182
 4862SOL    HW215486   2.628   4.476   5.260
 4863SOL     OW15487   4.553   2.563   3.160
 4863SOL    HW115488   4.514   2.475   3.186
 4863SOL    HW215489   4.547   2.575   3.061
 4864SOL     OW15490   2.884   1.220   1.829
 4864SOL    HW115491   2.912   1.177   1.743
 4864SOL    HW215492   2.810   1.284   1.811
 4865SOL     OW15493   3.950   5.771   5.144
 4865SOL    HW115494   3.870   5.724   5.107
 4865SOL    HW215495   3.970   5.736   5.236
 4866SOL     OW15496   5.752   4.566   1.370
 4866SOL    HW115497   5.846   4.555   1.401
 4866SOL    HW215498   5.752   4.600   1.276
 4867SOL     OW15499   5.091   5.506   2.540
 4867SOL    HW115500   5.042   5.586   2.576
 4867SOL    HW215501   5.153   5.536   2.467
 4868SOL     OW15502   0.004   5.741   1.138
 4868SOL    HW115503   0.025   5.829   1.180
 4868SOL    HW215504   0.086   5.704   1.095
 4869SOL     OW15505   0.263   1.413   0.116
 4869SOL    HW115506   0.195   1.477   0.153
 4869SOL    HW215507   0.326   1.463   0.057
 4870SOL     OW15508   5.181   6.363   2.187
 4870SOL    HW115509   5.156   6.458   2.204
 4870SOL    HW215510   5.194   6.316   2.274
 4871SOL     OW15511   1.270   2.600   3.915
 4871SOL    HW115512   1.367   2.621   3.905
 4871SOL    HW215513   1.243   2.534   3.845
 4872SOL     OW15514   1.365   0.157   2.357
 4872SOL    HW115515   1.376   0.240   2.303
 4872SOL    HW215516   1.268   0.130   2.358
 4873SOL     OW15517   0.028   5.666   5.158
 4873SOL    HW115518   0.106   5.613   5.124
 4873SOL    HW215519   0.026   5.662   5.258
 4874SOL     OW15520   5.246   3.598   2.936
 4874SOL    HW115521   5.342   3.608   2.909
 4874SOL    HW215522   5.188   3.645   2.870
 4875SOL     OW15523   5.476   1.781   1.131
 4875SOL    HW115524   5.498   1.795   1.035
 4875SOL    HW215525   5.501   1.688   1.158
 4876SOL     OW15526   0.250   1.625   0.398
 4876SOL    HW115527   0.341   1.644   0.363
 4876SOL    HW215528   0.185   1.619   0.322
 4877SOL     OW15529   6.378   0.807   1.424
 4877SOL    HW115530   6.345   0.845   1.337
 4877SOL    HW215531   6.345   0.713   1.434
 4878SOL     OW15532   6.657   1.782   1.555
 4878SOL    HW115533   6.670   1.738   1.467
 4878SOL    HW215534   6.739   1.769   1.611
 4879SOL     OW15535   4.520   5.170   3.357
 4879SOL    HW115536   4.490   5.163   3.262
 4879SOL    HW215537   4.585   5.096   3.377
 4880SOL     OW15538   5.713   1.737   6.636
 4880SOL    HW115539   5.692   1.753   6.539
 4880SOL    HW215540   5.743   1.643   6.649
 4881SOL     OW15541   3.661   6.366   6.188
 4881SOL    HW115542   3.665   6.459   6.151
 4881SOL    HW215543   3.645   6.301   6.113
 4882SOL     OW15544   6.056   0.811   5.283
 4882SOL    HW115545   6.111   0.820   5.366
 4882SOL    HW215546   6.072   0.722   5.241
 4883SOL     OW15547   6.747   4.685   2.015
 4883SOL    HW115548   6.800   4.692   1.931
 4883SOL    HW215549   6.687   4.605   2.010
 4884SOL     OW15550   3.414   6.446   2.023
 4884SOL    HW115551   3.331   6.405   1.987
 4884SOL    HW215552   3.409   6.449   2.123
 4885SOL     OW15553   1.925   0.023   1.394
 4885SOL    HW115554   1.899   0.111   1.435
 4885SOL    HW215555   2.010   0.035   1.342
 4886SOL     OW15556   6.481   0.661   7.002
 4886SOL    HW115557   6.471   0.740   6.942
 4886SOL    HW215558   6.532   0.688   0.063
 4887SOL     OW15559   0.237   2.280   3.868
 4887SOL    HW115560   0.237   2.197   3.812
 4887SOL    HW215561   0.328   2.321   3.868
 4888SOL     OW15562   2.362   5.691   2.637
 4888SOL    HW115563   2.287   5.677   2.572
 4888SOL    HW215564   2.373   5.609   2.693
 4889SOL     OW15565   1.292   1.880   0.517
 4889SOL    HW115566   1.311   1.785   0.545
 4889SOL    HW215567   1.271   1.882   0.420
 4890SOL     OW15568   1.268   0.911   4.647
 4890SOL    HW115569   1.186   0.873   4.691
 4890SOL    HW215570   1.277   1.007   4.673
 4891SOL     OW15571   0.822   4.725   0.190
 4891SOL    HW115572   0.733   4.681   0.202
 4891SOL    HW215573   0.875   4.718   0.274
 4892SOL     OW15574   0.245   5.656   1.332
 4892SOL    HW115575   0.310   5.716   1.379
 4892SOL    HW215576   0.262   5.659   1.233
 4893SOL     OW15577   0.799   3.478   6.554
 4893SOL    HW115578   0.878   3.461   6.613
 4893SOL    HW215579   0.722   3.423   6.586
 4894SOL     OW15580   2.112   1.024   3.516
 4894SOL    HW115581   2.099   1.072   3.430
 4894SOL    HW215582   2.191   1.063   3.564
 4895SOL     OW15583   1.192   2.710   0.189
 4895SOL    HW115584   1.131   2.672   0.259
 4895SOL    HW215585   1.159   2.801   0.163
 4896SOL     OW15586   3.753   5.014   5.077
 4896SOL    HW115587   3.728   5.111   5.084
 4896SOL    HW215588   3.699   4.970   5.006
 4897SOL     OW15589   3.784   5.749   0.094
 4897SOL    HW115590   3.838   5.768   0.013
 4897SOL    HW215591   3.811   5.660   0.132
 4898SOL     OW15592   5.149   1.539   5.635
 4898SOL    HW115593   5.107   1.543   5.726
 4898SOL    HW215594   5.220   1.468   5.633
 4899SOL     OW15595   5.832   4.510   3.841
 4899SOL    HW115596   5.876   4.577   3.782
 4899SOL    HW215597   5.746   4.481   3.799
 4900SOL     OW15598   0.791   6.984   5.523
 4900SOL    HW115599   0.868   6.923   5.540
 4900SOL    HW215600   0.824   0.058   5.520
 4901SOL     OW15601   0.602   6.585   3.820
 4901SOL    HW115602   0.562   6.518   3.758
 4901SOL    HW215603   0.541   6.664   3.827
 4902SOL     OW15604   2.532   4.851   1.566
 4902SOL    HW115605   2.499   4.925   1.625
 4902SOL    HW215606   2.610   4.806   1.610
 4903SOL     OW15607   4.654   0.200   6.603
 4903SOL    HW115608   4.649   0.284   6.657
 4903SOL    HW215609   4.738   0.150   6.626
 4904SOL     OW15610   2.738   5.956   4.428
 4904SOL    HW115611   2.647   5.940   4.468
 4904SOL    HW215612   2.763   6.052   4.440
 4905SOL     OW15613   4.802   3.141   1.645
 4905SOL    HW115614   4.770   3.123   1.738
 4905SOL    HW215615   4.727   3.125   1.580
 4906SOL     OW15616   4.921   0.483   0.258
 4906SOL    HW115617   4.902   0.527   0.345
 4906SOL    HW215618   5.017   0.456   0.254
 4907SOL     OW15619   3.664   0.645   3.712
 4907SOL    HW115620   3.723   0.725   3.729
 4907SOL    HW215621   3.722   0.565   3.697
 4908SOL     OW15622   3.641   6.212   6.697
 4908SOL    HW115623   3.655   6.307   6.668
 4908SOL    HW215624   3.544   6.198   6.720
 4909SOL     OW15625   6.403   6.474   5.325
 4909SOL    HW115626   6.482   6.471   5.386
 4909SOL    HW215627   6.321   6.443   5.373
 4910SOL     OW15628   5.486   0.509   5.004
 4910SOL    HW115629   5.470   0.556   4.917
 4910SOL    HW215630   5.569   0.454   4.996
 4911SOL     OW15631   6.618   2.500   6.117
 4911SOL    HW115632   6.670   2.416   6.124
 4911SOL    HW215633   6.681   2.578   6.109
 4912SOL     OW15634   3.675   1.890   2.402
 4912SOL    HW115635   3.726   1.804   2.395
 4912SOL    HW215636   3.711   1.955   2.336
 4913SOL     OW15637   3.787   3.963   3.443
 4913SOL    HW115638   3.737   4.048   3.430
 4913SOL    HW215639   3.792   3.942   3.540
 4914SOL     OW15640   2.593   6.721   3.373
 4914SOL    HW115641   2.604   6.624   3.395
 4914SOL    HW215642   2.660   6.747   3.303
 4915SOL     OW15643   3.672   5.957   4.119
 4915SOL    HW115644   3.611   5.897   4.171
 4915SOL    HW215645   3.760   5.912   4.105
 4916SOL     OW15646   2.309   1.519   2.970
 4916SOL    HW115647   2.269   1.611   2.968
 4916SOL    HW215648   2.392   1.518   2.915
 4917SOL     OW15649   1.953   4.741   0.976
 4917SOL    HW115650   1.854   4.737   0.990
 4917SOL    HW215651   1.993   4.808   1.039
 4918SOL     OW15652   2.176   0.249   2.247
 4918SOL    HW115653   2.223   0.167   2.213
 4918SOL    HW215654   2.223   0.331   2.215
 4919SOL     OW15655   2.389   2.741   1.901
 4919SOL    HW115656   2.313   2.802   1.876
 4919SOL    HW215657   2.417   2.760   1.995
 4920SOL     OW15658   4.142   0.645   0.544
 4920SOL    HW115659   4.089   0.710   0.490
 4920SOL    HW215660   4.086   0.612   0.620
 4921SOL     OW15661   1.676   4.431   1.679
 4921SOL    HW115662   1.762   4.467   1.713
 4921SOL    HW215663   1.604   4.499   1.692
 4922SOL     OW15664   1.714   2.901   5.321
 4922SOL    HW115665   1.767   2.881   5.403
 4922SOL    HW215666   1.776   2.923   5.246
 4923SOL     OW15667   5.006   0.702   1.365
 4923SOL    HW115668   5.087   0.691   1.422
 4923SOL    HW215669   4.924   0.683   1.419
 4924SOL     OW15670   0.668   4.131   4.874
 4924SOL    HW115671   0.723   4.061   4.827
 4924SOL    HW215672   0.580   4.092   4.901
 4925SOL     OW15673   5.407   6.389   0.169
 4925SOL    HW115674   5.429   6.318   0.102
 4925SOL    HW215675   5.328   6.360   0.223
 4926SOL     OW15676   4.807   2.705   1.894
 4926SOL    HW115677   4.809   2.628   1.830
 4926SOL    HW215678   4.863   2.685   1.974
 4927SOL     OW15679   2.969   3.216   3.103
 4927SOL    HW115680   2.989   3.296   3.160
 4927SOL    HW215681   3.018   3.137   3.139
 4928SOL     OW15682   0.339   5.937   0.100
 4928SOL    HW115683   0.239   5.944   0.096
 4928SOL    HW215684   0.373   5.901   0.013
 4929SOL     OW15685   1.004   5.118   4.199
 4929SOL    HW115686   0.953   5.043   4.242
 4929SOL    HW215687   1.056   5.083   4.122
 4930SOL     OW15688   0.572   1.879   0.846
 4930SOL    HW115689   0.488   1.833   0.817
 4930SOL    HW215690   0.586   1.864   0.944
 4931SOL     OW15691   0.367   1.120   0.058
 4931SOL    HW115692   0.304   1.062   0.006
 4931SOL    HW215693   0.321   1.206   0.082
 4932SOL     OW15694   2.565   2.260   1.016
 4932SOL    HW115695   2.634   2.308   1.069
 4932SOL    HW215696   2.545   2.172   1.059
 4933SOL     OW15697   2.690   1.149   3.867
 4933SOL    HW115698   2.595   1.133   3.893
 4933SOL    HW215699   2.712   1.246   3.879
 4934SOL     OW15700   0.840   6.023   4.465
 4934SOL    HW115701   0.805   6.031   4.372
 4934SOL    HW215702   0.859   6.114   4.502
 4935SOL     OW15703   1.271   1.117   6.913
 4935SOL    HW115704   1.370   1.115   6.903
 4935SOL    HW215705   1.234   1.197   6.864
 4936SOL     OW15706   4.018   5.570   1.165
 4936SOL    HW115707   4.106   5.566   1.213
 4936SOL    HW215708   3.974   5.658   1.184
 4937SOL     OW15709   0.772   2.578   5.788
 4937SOL    HW115710   0.813   2.637   5.718
 4937SOL    HW215711   0.685   2.615   5.818
 4938SOL     OW15712   3.466   4.475   1.642
 4938SOL    HW115713   3.520   4.533   1.703
 4938SOL    HW215714   3.466   4.514   1.550
 4939SOL     OW15715   1.762   1.977   1.422
 4939SOL    HW115716   1.846   2.029   1.408
 4939SOL    HW215717   1.683   2.033   1.396
 4940SOL     OW15718   0.236   2.925   4.233
 4940SOL    HW115719   0.225   2.860   4.158
 4940SOL    HW215720   0.334   2.939   4.250
 4941SOL     OW15721   3.871   2.339   5.292
 4941SOL    HW115722   3.800   2.387   5.343
 4941SOL    HW215723   3.961   2.373   5.321
 4942SOL     OW15724   5.828   2.231   3.454
 4942SOL    HW115725   5.804   2.227   3.551
 4942SOL    HW215726   5.821   2.325   3.422
 4943SOL     OW15727   5.611   2.925   6.416
 4943SOL    HW115728   5.605   2.946   6.513
 4943SOL    HW215729   5.526   2.953   6.371
 4944SOL     OW15730   1.715   5.419   1.456
 4944SOL    HW115731   1.724   5.493   1.390
 4944SOL    HW215732   1.735   5.454   1.548
 4945SOL     OW15733   2.157   1.264   5.283
 4945SOL    HW115734   2.234   1.201   5.287
 4945SOL    HW215735   2.190   1.355   5.259
 4946SOL     OW15736   1.749   5.357   0.411
 4946SOL    HW115737   1.697   5.390   0.332
 4946SOL    HW215738   1.823   5.297   0.380
 4947SOL     OW15739   1.706   0.706   1.537
 4947SOL    HW115740   1.769   0.688   1.462
 4947SOL    HW215741   1.756   0.736   1.618
 4948SOL     OW15742   1.804   2.574   1.915
 4948SOL    HW115743   1.846   2.489   1.944
 4948SOL    HW215744   1.809   2.582   1.816
 4949SOL     OW15745   6.844   3.473   6.585
 4949SOL    HW115746   6.932   3.454   6.628
 4949SOL    HW215747   6.781   3.397   6.604
 4950SOL     OW15748   2.165   4.495   5.384
 4950SOL    HW115749   2.227   4.501   5.306
 4950SOL    HW215750   2.137   4.400   5.398
 4951SOL     OW15751   5.313   5.573   3.768
 4951SOL    HW115752   5.369   5.522   3.833
 4951SOL    HW215753   5.320   5.530   3.677
 4952SOL     OW15754   0.507   6.572   5.596
 4952SOL    HW115755   0.577   6.619   5.649
 4952SOL    HW215756   0.509   6.604   5.502
 4953SOL     OW15757   1.469   2.121   5.111
 4953SOL    HW115758   1.510   2.107   5.021
 4953SOL    HW215759   1.528   2.181   5.166
 4954SOL     OW15760   3.044   4.082   5.082
 4954SOL    HW115761   2.955   4.037   5.076
 4954SOL    HW215762   3.038   4.161   5.143
 4955SOL     OW15763   3.047   6.260   0.083
 4955SOL    HW115764   2.976   6.225   0.145
 4955SOL    HW215765   3.084   6.184   0.029
 4956SOL     OW15766   2.301   0.260   4.949
 4956SOL    HW115767   2.302   0.283   5.046
 4956SOL    HW215768   2.395   0.248   4.917
 4957SOL     OW15769   6.420   4.293   6.983
 4957SOL    HW115770   6.475   4.216   6.951
 4957SOL    HW215771   6.473   4.377   6.979
 4958SOL     OW15772   2.593   6.691   0.050
 4958SOL    HW115773   2.564   6.629   6.997
 4958SOL    HW215774   2.544   6.778   0.041
 4959SOL     OW15775   0.391   3.198   1.784
 4959SOL    HW115776   0.398   3.155   1.874
 4959SOL    HW215777   0.459   3.158   1.722
 4960SOL     OW15778   4.192   5.280   4.486
 4960SOL    HW115779   4.147   5.294   4.574
 4960SOL    HW215780   4.212   5.368   4.444
 4961SOL     OW15781   3.381   0.823   0.426
 4961SOL    HW115782   3.286   0.839   0.452
 4961SOL    HW215783   3.440   0.830   0.507
 4962SOL     OW15784   0.924   4.179   1.298
 4962SOL    HW115785   0.846   4.240   1.311
 4962SOL    HW215786   0.933   4.119   1.377
 4963SOL     OW15787   1.118   4.118   6.457
 4963SOL    HW115788   1.156   4.176   6.386
 4963SOL    HW215789   1.020   4.135   6.466
 4964SOL     OW15790   2.581   6.708   4.653
 4964SOL    HW115791   2.623   6.791   4.617
 4964SOL    HW215792   2.644   6.663   4.716
 4965SOL     OW15793   1.297   6.475   2.587
 4965SOL    HW115794   1.251   6.502   2.671
 4965SOL    HW215795   1.370   6.540   2.566
 4966SOL     OW15796   3.291   5.932   4.130
 4966SOL    HW115797   3.255   5.839   4.136
 4966SOL    HW215798   3.221   5.997   4.161
 4967SOL     OW15799   3.991   4.616   5.727
 4967SOL    HW115800   3.978   4.685   5.655
 4967SOL    HW215801   3.912   4.554   5.727
 4968SOL     OW15802   0.338   1.743   3.960
 4968SOL    HW115803   0.374   1.835   3.973
 4968SOL    HW215804   0.262   1.727   4.023
 4969SOL     OW15805   0.612   6.113   2.913
 4969SOL    HW115806   0.517   6.107   2.945
 4969SOL    HW215807   0.637   6.209   2.899
 4970SOL     OW15808   1.598   1.198   1.502
 4970SOL    HW115809   1.616   1.265   1.429
 4970SOL    HW215810   1.646   1.113   1.481
 4971SOL     OW15811   6.321   6.229   2.703
 4971SOL    HW115812   6.314   6.291   2.625
 4971SOL    HW215813   6.413   6.190   2.706
 4972SOL     OW15814   1.684   3.861   1.221
 4972SOL    HW115815   1.662   3.951   1.260
 4972SOL    HW215816   1.770   3.828   1.260
 4973SOL     OW15817   6.948   0.882   1.017
 4973SOL    HW115818   0.008   0.846   1.065
 4973SOL    HW215819   6.915   0.813   0.951
 4974SOL     OW15820   3.765   4.935   5.552
 4974SOL    HW115821   3.793   5.018   5.504
 4974SOL    HW215822   3.817   4.857   5.517
 4975SOL     OW15823   6.120   3.346   0.363
 4975SOL    HW115824   6.034   3.362   0.412
 4975SOL    HW215825   6.159   3.259   0.392
 4976SOL     OW15826   1.412   6.381   4.076
 4976SOL    HW115827   1.332   6.348   4.027
 4976SOL    HW215828   1.492   6.378   4.016
 4977SOL     OW15829   2.598   5.290   6.614
 4977SOL    HW115830   2.688   5.331   6.628
 4977SOL    HW215831   2.607   5.209   6.557
 4978SOL     OW15832   5.396   4.370   5.220
 4978SOL    HW115833   5.422   4.466   5.211
 4978SOL    HW215834   5.373   4.333   5.130
 4979SOL     OW15835   1.755   6.636   6.385
 4979SOL    HW115836   1.711   6.676   6.304
 4979SOL    HW215837   1.684   6.612   6.452
 4980SOL     OW15838   6.203   4.263   2.759
 4980SOL    HW115839   6.124   4.278   2.700
 4980SOL    HW215840   6.206   4.167   2.787
 4981SOL     OW15841   3.614   4.993   1.822
 4981SOL    HW115842   3.540   5.013   1.758
 4981SOL    HW215843   3.596   4.906   1.868
 4982SOL     OW15844   4.437   1.203   6.737
 4982SOL    HW115845   4.414   1.137   6.666
 4982SOL    HW215846   4.473   1.287   6.695
 4983SOL     OW15847   6.884   5.666   3.071
 4983SOL    HW115848   6.920   5.659   2.978
 4983SOL    HW215849   6.899   5.758   3.106
 4984SOL     OW15850   5.076   4.797   2.675
 4984SOL    HW115851   5.171   4.817   2.699
 4984SOL    HW215852   5.030   4.882   2.648
 4985SOL     OW15853   5.727   5.238   2.995
 4985SOL    HW115854   5.765   5.269   3.082
 4985SOL    HW215855   5.665   5.306   2.958
 4986SOL     OW15856   0.948   4.957   2.143
 4986SOL    HW115857   1.026   4.973   2.082
 4986SOL    HW215858   0.976   4.976   2.237
 4987SOL     OW15859   0.956   0.105   2.261
 4987SOL    HW115860   0.857   0.119   2.265
 4987SOL    HW215861   0.990   0.134   2.172
 4988SOL     OW15862   5.844   6.879   3.137
 4988SOL    HW115863   5.843   6.782   3.162
 4988SOL    HW215864   5.862   6.934   3.218
 4989SOL     OW15865   4.601   1.075   2.315
 4989SOL    HW115866   4.618   1.080   2.217
 4989SOL    HW215867   4.662   1.008   2.356
 4990SOL     OW15868   4.820   1.535   5.646
 4990SOL    HW115869   4.865   1.582   5.569
 4990SOL    HW215870   4.750   1.595   5.684
 4991SOL     OW15871   0.604   6.004   5.115
 4991SOL    HW115872   0.609   5.922   5.172
 4991SOL    HW215873   0.630   6.084   5.169
 4992SOL     OW15874   0.118   1.657   3.582
 4992SOL    HW115875   0.072   1.580   3.538
 4992SOL    HW215876   0.051   1.713   3.630
 4993SOL     OW15877   4.538   6.107   4.813
 4993SOL    HW115878   4.564   6.204   4.813
 4993SOL    HW215879   4.441   6.098   4.833
 4994SOL     OW15880   2.898   5.043   5.726
 4994SOL    HW115881   2.895   5.120   5.662
 4994SOL    HW215882   2.808   4.999   5.729
 4995SOL     OW15883   0.361   0.646   4.630
 4995SOL    HW115884   0.421   0.667   4.553
 4995SOL    HW215885   0.396   0.691   4.712
 4996SOL     OW15886   6.955   1.488   4.347
 4996SOL    HW115887   6.955   1.586   4.330
 4996SOL    HW215888   6.890   1.444   4.284
 4997SOL     OW15889   3.116   2.249   1.333
 4997SOL    HW115890   3.115   2.182   1.259
 4997SOL    HW215891   3.187   2.224   1.399
 4998SOL     OW15892   1.030   3.206   4.015
 4998SOL    HW115893   1.002   3.286   4.067
 4998SOL    HW215894   1.068   3.137   4.077
 4999SOL     OW15895   0.792   3.901   4.776
 4999SOL    HW115896   0.881   3.946   4.769
 4999SOL    HW215897   0.797   3.813   4.729
 5000SOL     OW15898   2.766   5.896   3.556
 5000SOL    HW115899   2.743   5.928   3.648
 5000SOL    HW215900   2.820   5.966   3.509
 5001SOL     OW15901   1.068   5.516   2.889
 5001SOL    HW115902   1.109   5.474   2.970
 5001SOL    HW215903   1.072   5.615   2.897
 5002SOL     OW15904   0.817   3.730   2.760
 5002SOL    HW115905   0.746   3.685   2.814
 5002SOL    HW215906   0.827   3.685   2.671
 5003SOL     OW15907   4.350   5.951   3.451
 5003SOL    HW115908   4.285   5.889   3.495
 5003SOL    HW215909   4.328   6.046   3.475
 5004SOL     OW15910   3.107   5.935   6.377
 5004SOL    HW115911   3.104   5.935   6.277
 5004SOL    HW215912   3.185   5.881   6.408
 5005SOL     OW15913   2.697   3.078   6.033
 5005SOL    HW115914   2.633   3.014   6.076
 5005SOL    HW215915   2.694   3.166   6.080
 5006SOL     OW15916   5.448   1.443   1.740
 5006SOL    HW115917   5.399   1.424   1.655
 5006SOL    HW215918   5.421   1.533   1.775
 5007SOL     OW15919   6.216   0.576   1.489
 5007SOL    HW115920   6.118   0.555   1.486
 5007SOL    HW215921   6.257   0.531   1.569
 5008SOL     OW15922   6.312   0.217   1.884
 5008SOL    HW115923   6.226   0.202   1.932
 5008SOL    HW215924   6.350   0.128   1.856
 5009SOL     OW15925   1.066   2.532   0.687
 5009SOL    HW115926   1.126   2.454   0.666
 5009SOL    HW215927   1.082   2.563   0.781
 5010SOL     OW15928   3.512   2.736   0.227
 5010SOL    HW115929   3.540   2.659   0.285
 5010SOL    HW215930   3.506   2.819   0.283
 5011SOL     OW15931   1.978   3.792   6.945
 5011SOL    HW115932   2.074   3.820   6.947
 5011SOL    HW215933   1.924   3.854   7.001
 5012SOL     OW15934   5.800   1.766   5.320
 5012SOL    HW115935   5.816   1.842   5.382
 5012SOL    HW215936   5.731   1.706   5.358
 5013SOL     OW15937   6.407   0.050   5.261
 5013SOL    HW115938   6.453   6.992   5.219
 5013SOL    HW215939   6.395   0.032   5.359
 5014SOL     OW15940   6.579   3.263   1.000
 5014SOL    HW115941   6.573   3.210   0.915
 5014SOL    HW215942   6.661   3.236   1.051
 5015SOL     OW15943   5.909   0.501   4.217
 5015SOL    HW115944   5.953   0.588   4.192
 5015SOL    HW215945   5.846   0.517   4.293
 5016SOL     OW15946   1.056   3.408   4.787
 5016SOL    HW115947   0.973   3.404   4.732
 5016SOL    HW215948   1.043   3.355   4.871
 5017SOL     OW15949   0.660   2.309   1.079
 5017SOL    HW115950   0.622   2.249   1.008
 5017SOL    HW215951   0.585   2.352   1.130
 5018SOL     OW15952   0.612   5.087   1.786
 5018SOL    HW115953   0.567   5.173   1.761
 5018SOL    HW215954   0.547   5.027   1.832
 5019SOL     OW15955   1.632   5.656   5.171
 5019SOL    HW115956   1.534   5.647   5.158
 5019SOL    HW215957   1.681   5.613   5.095
 5020SOL     OW15958   0.265   6.794   4.681
 5020SOL    HW115959   0.231   6.705   4.653
 5020SOL    HW215960   0.343   6.820   4.625
 5021SOL     OW15961   2.119   0.763   1.017
 5021SOL    HW115962   2.056   0.765   0.939
 5021SOL    HW215963   2.162   0.853   1.027
 5022SOL     OW15964   0.596   2.869   1.298
 5022SOL    HW115965   0.595   2.871   1.398
 5022SOL    HW215966   0.682   2.907   1.264
 5023SOL     OW15967   0.716   4.044   1.650
 5023SOL    HW115968   0.667   4.119   1.694
 5023SOL    HW215969   0.803   4.028   1.697
 5024SOL     OW15970   5.307   3.561   1.205
 5024SOL    HW115971   5.288   3.656   1.228
 5024SOL    HW215972   5.322   3.553   1.106
 5025SOL     OW15973   4.086   1.999   3.980
 5025SOL    HW115974   4.176   2.041   3.993
 5025SOL    HW215975   4.015   2.065   4.006
 5026SOL     OW15976   5.937   5.712   5.098
 5026SOL    HW115977   5.927   5.626   5.048
 5026SOL    HW215978   6.014   5.705   5.162
 5027SOL     OW15979   4.670   0.665   0.339
 5027SOL    HW115980   4.590   0.633   0.288
 5027SOL    HW215981   4.715   0.587   0.383
 5028SOL     OW15982   0.116   2.439   2.897
 5028SOL    HW115983   0.154   2.509   2.836
 5028SOL    HW215984   0.016   2.445   2.895
 5029SOL     OW15985   6.668   2.408   2.029
 5029SOL    HW115986   6.620   2.493   2.049
 5029SOL    HW215987   6.714   2.374   2.111
 5030SOL     OW15988   0.057   5.462   6.323
 5030SOL    HW115989   0.130   5.520   6.286
 5030SOL    HW215990   6.989   5.493   6.287
 5031SOL     OW15991   0.082   1.340   5.156
 5031SOL    HW115992   0.038   1.312   5.242
 5031SOL    HW215993   0.146   1.269   5.127
 5032SOL     OW15994   3.479   2.621   5.662
 5032SOL    HW115995   3.434   2.560   5.597
 5032SOL    HW215996   3.492   2.711   5.620
 5033SOL     OW15997   2.217   1.642   0.715
 5033SOL    HW115998   2.246   1.680   0.803
 5033SOL    HW215999   2.276   1.676   0.642
 5034SOL     OW16000   4.244   6.451   4.053
 5034SOL    HW116001   4.313   6.390   4.012
 5034SOL    HW216002   4.168   6.397   4.088
 5035SOL     OW16003   0.029   4.851   4.780
 5035SOL    HW116004   0.083   4.837   4.863
 5035SOL    HW216005   0.055   4.783   4.712
 5036SOL     OW16006   6.693   3.778   5.369
 5036SOL    HW116007   6.767   3.757   5.306
 5036SOL    HW216008   6.732   3.808   5.457
 5037SOL     OW16009   3.990   4.613   1.389
 5037SOL    HW116010   4.050   4.588   1.465
 5037SOL    HW216011   3.986   4.538   1.323
 5038SOL     OW16012   3.455   3.569   4.286
 5038SOL    HW116013   3.526   3.572   4.357
 5038SOL    HW216014   3.437   3.474   4.261
 5039SOL     OW16015   1.822   3.468   6.205
 5039SOL    HW116016   1.899   3.531   6.214
 5039SOL    HW216017   1.832   3.414   6.122
 5040SOL     OW16018   1.411   5.206   5.296
 5040SOL    HW116019   1.471   5.153   5.356
 5040SOL    HW216020   1.456   5.291   5.271
 5041SOL     OW16021   0.664   3.180   1.574
 5041SOL    HW116022   0.733   3.252   1.584
 5041SOL    HW216023   0.573   3.221   1.568
 5042SOL     OW16024   0.120   4.107   6.258
 5042SOL    HW116025   0.095   4.196   6.296
 5042SOL    HW216026   0.085   4.099   6.165
 5043SOL     OW16027   3.758   0.620   0.526
 5043SOL    HW116028   3.792   0.667   0.445
 5043SOL    HW216029   3.834   0.599   0.587
 5044SOL     OW16030   6.887   5.868   0.553
 5044SOL    HW116031   6.832   5.806   0.610
 5044SOL    HW216032   6.905   5.952   0.603
 5045SOL     OW16033   6.235   4.320   6.375
 5045SOL    HW116034   6.178   4.375   6.313
 5045SOL    HW216035   6.323   4.366   6.388
 5046SOL     OW16036   3.479   3.789   4.140
 5046SOL    HW116037   3.461   3.867   4.199
 5046SOL    HW216038   3.466   3.704   4.191
 5047SOL     OW16039   1.928   3.387   3.049
 5047SOL    HW116040   1.877   3.302   3.038
 5047SOL    HW216041   1.996   3.395   2.976
 5048SOL     OW16042   1.746   0.985   5.292
 5048SOL    HW116043   1.772   0.889   5.296
 5048SOL    HW216044   1.648   0.992   5.273
 5049SOL     OW16045   6.222   0.694   5.946
 5049SOL    HW116046   6.265   0.784   5.955
 5049SOL    HW216047   6.261   0.632   6.014
 5050SOL     OW16048   1.771   1.299   6.721
 5050SOL    HW116049   1.792   1.204   6.742
 5050SOL    HW216050   1.856   1.350   6.711
 5051SOL     OW16051   3.570   4.573   1.411
 5051SOL    HW116052   3.658   4.599   1.451
 5051SOL    HW216053   3.559   4.619   1.323
 5052SOL     OW16054   3.353   2.157   5.617
 5052SOL    HW116055   3.280   2.210   5.572
 5052SOL    HW216056   3.366   2.071   5.568
 5053SOL     OW16057   0.748   5.046   2.661
 5053SOL    HW116058   0.674   4.978   2.667
 5053SOL    HW216059   0.836   5.000   2.671
 5054SOL     OW16060   3.298   4.676   5.343
 5054SOL    HW116061   3.211   4.701   5.299
 5054SOL    HW216062   3.325   4.749   5.407
 5055SOL     OW16063   0.180   3.253   6.060
 5055SOL    HW116064   0.226   3.341   6.072
 5055SOL    HW216065   0.210   3.212   5.974
 5056SOL     OW16066   5.168   4.040   4.884
 5056SOL    HW116067   5.129   4.081   4.802
 5056SOL    HW216068   5.100   3.980   4.927
 5057SOL     OW16069   1.125   6.975   2.437
 5057SOL    HW116070   1.066   6.895   2.453
 5057SOL    HW216071   1.087   0.009   2.363
 5058SOL     OW16072   3.365   4.878   6.643
 5058SOL    HW116073   3.407   4.817   6.711
 5058SOL    HW216074   3.416   4.964   6.639
 5059SOL     OW16075   6.628   6.967   2.831
 5059SOL    HW116076   6.536   6.928   2.839
 5059SOL    HW216077   6.696   6.895   2.837
 5060SOL     OW16078   6.703   2.184   6.095
 5060SOL    HW116079   6.618   2.192   6.148
 5060SOL    HW216080   6.699   2.104   6.036
 5061SOL     OW16081   4.748   2.950   0.190
 5061SOL    HW116082   4.657   2.945   0.149
 5061SOL    HW216083   4.741   2.941   0.289
 5062SOL     OW16084   0.608   0.280   1.822
 5062SOL    HW116085   0.679   0.245   1.883
 5062SOL    HW216086   0.547   0.340   1.872
 5063SOL     OW16087   0.548   6.687   1.710
 5063SOL    HW116088   0.492   6.761   1.746
 5063SOL    HW216089   0.631   6.724   1.669
 5064SOL     OW16090   4.635   3.178   0.471
 5064SOL    HW116091   4.580   3.185   0.554
 5064SOL    HW216092   4.655   3.082   0.452
 5065SOL     OW16093   2.968   0.248   5.691
 5065SOL    HW116094   3.026   0.217   5.766
 5065SOL    HW216095   2.999   0.206   5.606
 5066SOL     OW16096   5.774   4.238   1.867
 5066SOL    HW116097   5.807   4.282   1.784
 5066SOL    HW216098   5.682   4.271   1.888
 5067SOL     OW16099   5.463   1.240   6.935
 5067SOL    HW116100   5.557   1.223   6.963
 5067SOL    HW216101   5.413   1.282   7.010
 5068SOL     OW16102   3.005   4.516   0.831
 5068SOL    HW116103   2.908   4.503   0.847
 5068SOL    HW216104   3.036   4.599   0.877
 5069SOL     OW16105   1.056   4.445   2.841
 5069SOL    HW116106   1.069   4.358   2.794
 5069SOL    HW216107   0.958   4.464   2.849
 5070SOL     OW16108   5.109   3.563   4.008
 5070SOL    HW116109   5.030   3.539   4.066
 5070SOL    HW216110   5.077   3.588   3.917
 5071SOL     OW16111   4.266   1.995   4.997
 5071SOL    HW116112   4.233   1.902   4.985
 5071SOL    HW216113   4.234   2.031   5.084
 5072SOL     OW16114   6.996   4.776   0.928
 5072SOL    HW116115   7.016   4.829   1.011
 5072SOL    HW216116   6.912   4.810   0.887
 5073SOL     OW16117   6.744   0.153   2.231
 5073SOL    HW116118   6.826   0.123   2.183
 5073SOL    HW216119   6.749   0.125   2.327
 5074SOL     OW16120   3.205   4.126   6.808
 5074SOL    HW116121   3.214   4.182   6.726
 5074SOL    HW216122   3.286   4.069   6.819
 5075SOL     OW16123   0.057   7.008   5.444
 5075SOL    HW116124   7.001   6.977   5.388
 5075SOL    HW216125   0.144   6.984   5.400
 5076SOL     OW16126   3.173   0.392   0.606
 5076SOL    HW116127   3.191   0.425   0.513
 5076SOL    HW216128   3.162   0.292   0.604
 5077SOL     OW16129   1.290   2.212   3.935
 5077SOL    HW116130   1.273   2.119   3.905
 5077SOL    HW216131   1.307   2.271   3.856
 5078SOL     OW16132   1.733   1.869   3.844
 5078SOL    HW116133   1.706   1.879   3.940
 5078SOL    HW216134   1.740   1.959   3.802
 5079SOL     OW16135   3.053   4.912   5.959
 5079SOL    HW116136   3.143   4.909   5.916
 5079SOL    HW216137   2.988   4.956   5.897
 5080SOL     OW16138   6.016   6.657   5.554
 5080SOL    HW116139   5.972   6.572   5.583
 5080SOL    HW216140   6.032   6.654   5.456
 5081SOL     OW16141   3.287   3.694   3.503
 5081SOL    HW116142   3.304   3.657   3.412
 5081SOL    HW216143   3.375   3.715   3.548
 5082SOL     OW16144   5.292   6.016   5.656
 5082SOL    HW116145   5.345   5.933   5.640
 5082SOL    HW216146   5.253   6.014   5.748
 5083SOL     OW16147   1.705   6.758   2.001
 5083SOL    HW116148   1.662   6.813   1.930
 5083SOL    HW216149   1.787   6.714   1.963
 5084SOL     OW16150   1.138   5.324   3.623
 5084SOL    HW116151   1.050   5.279   3.641
 5084SOL    HW216152   1.166   5.375   3.704
 5085SOL     OW16153   5.667   1.210   6.577
 5085SOL    HW116154   5.706   1.118   6.585
 5085SOL    HW216155   5.584   1.207   6.521
 5086SOL     OW16156   6.715   4.759   3.334
 5086SOL    HW116157   6.773   4.840   3.327
 5086SOL    HW216158   6.737   4.709   3.417
 5087SOL     OW16159   6.580   5.754   4.698
 5087SOL    HW116160   6.562   5.749   4.796
 5087SOL    HW216161   6.600   5.849   4.673
 5088SOL     OW16162   6.586   0.785   5.929
 5088SOL    HW116163   6.624   0.792   6.021
 5088SOL    HW216164   6.518   0.857   5.915
 5089SOL     OW16165   6.412   3.003   2.399
 5089SOL    HW116166   6.414   3.010   2.499
 5089SOL    HW216167   6.389   3.092   2.360
 5090SOL     OW16168   2.063   4.878   1.187
 5090SOL    HW116169   2.038   4.817   1.263
 5090SOL    HW216170   2.158   4.862   1.162
 5091SOL     OW16171   1.220   5.926   2.730
 5091SOL    HW116172   1.233   5.959   2.636
 5091SOL    HW216173   1.217   6.005   2.792
 5092SOL     OW16174   3.513   2.054   1.034
 5092SOL    HW116175   3.481   2.139   1.074
 5092SOL    HW216176   3.478   1.977   1.087
 5093SOL     OW16177   1.245   2.065   2.200
 5093SOL    HW116178   1.320   2.000   2.195
 5093SOL    HW216179   1.247   2.112   2.289
 5094SOL     OW16180   1.168   6.385   5.474
 5094SOL    HW116181   1.247   6.425   5.428
 5094SOL    HW216182   1.105   6.348   5.406
 5095SOL     OW16183   1.936   0.621   4.508
 5095SOL    HW116184   1.843   0.633   4.543
 5095SOL    HW216185   1.954   0.524   4.495
 5096SOL     OW16186   5.122   3.449   0.598
 5096SOL    HW116187   5.144   3.516   0.528
 5096SOL    HW216188   5.030   3.412   0.582
 5097SOL     OW16189   1.611   0.238   5.416
 5097SOL    HW116190   1.637   0.321   5.466
 5097SOL    HW216191   1.585   0.262   5.323
 5098SOL     OW16192   0.816   1.291   2.514
 5098SOL    HW116193   0.720   1.313   2.500
 5098SOL    HW216194   0.843   1.217   2.452
 5099SOL     OW16195   1.158   0.154   5.161
 5099SOL    HW116196   1.089   0.153   5.234
 5099SOL    HW216197   1.134   0.085   5.092
 5100SOL     OW16198   5.749   6.679   6.760
 5100SOL    HW116199   5.666   6.668   6.814
 5100SOL    HW216200   5.821   6.716   6.817
 5101SOL     OW16201   4.267   6.590   0.016
 5101SOL    HW116202   4.229   6.649   0.088
 5101SOL    HW216203   4.354   6.627   7.005
 5102SOL     OW16204   5.265   0.568   5.583
 5102SOL    HW116205   5.257   0.527   5.674
 5102SOL    HW216206   5.179   0.612   5.558
 5103SOL     OW16207   0.404   1.039   3.723
 5103SOL    HW116208   0.366   1.129   3.741
 5103SOL    HW216209   0.467   1.044   3.645
 5104SOL     OW16210   1.965   0.982   1.885
 5104SOL    HW116211   1.908   1.043   1.830
 5104SOL    HW216212   2.011   1.036   1.956
 5105SOL     OW16213   3.836   4.153   6.379
 5105SOL    HW116214   3.917   4.182   6.429
 5105SOL    HW216215   3.810   4.223   6.312
 5106SOL     OW16216   3.179   0.091   2.737
 5106SOL    HW116217   3.191   0.049   2.827
 5106SOL    HW216218   3.081   0.102   2.718
 5107SOL     OW16219   2.847   6.854   6.546
 5107SOL    HW116220   2.903   6.930   6.511
 5107SOL    HW216221   2.866   6.772   6.492
 5108SOL     OW16222   2.911   3.694   4.013
 5108SOL    HW116223   2.937   3.738   3.927
 5108SOL    HW216224   2.962   3.736   4.089
 5109SOL     OW16225   0.259   0.984   1.051
 5109SOL    HW116226   0.204   1.066   1.067
 5109SOL    HW216227   0.356   1.007   1.059
 5110SOL     OW16228   1.719   6.477   5.357
 5110SOL    HW116229   1.739   6.458   5.453
 5110SOL    HW216230   1.624   6.454   5.337
 5111SOL     OW16231   1.424   1.405   6.405
 5111SOL    HW116232   1.459   1.497   6.386
 5111SOL    HW216233   1.347   1.410   6.468
 5112SOL     OW16234   0.440   6.173   3.879
 5112SOL    HW116235   0.431   6.246   3.947
 5112SOL    HW216236   0.424   6.085   3.922
 5113SOL     OW16237   1.222   0.847   6.889
 5113SOL    HW116238   1.236   0.946   6.881
 5113SOL    HW216239   1.252   0.816   6.979
 5114SOL     OW16240   3.540   4.919   0.102
 5114SOL    HW116241   3.553   4.834   0.050
 5114SOL    HW216242   3.543   4.899   0.200
 5115SOL     OW16243   1.516   3.849   6.160
 5115SOL    HW116244   1.445   3.882   6.222
 5115SOL    HW216245   1.473   3.816   6.076
 5116SOL     OW16246   5.731   4.773   0.435
 5116SOL    HW116247   5.645   4.810   0.402
 5116SOL    HW216248   5.737   4.676   0.412
 5117SOL     OW16249   2.646   4.709   4.377
 5117SOL    HW116250   2.603   4.654   4.449
 5117SOL    HW216251   2.632   4.664   4.289
 5118SOL     OW16252   4.592   5.658   0.229
 5118SOL    HW116253   4.498   5.676   0.258
 5118SOL    HW216254   4.597   5.568   0.187
 5119SOL     OW16255   5.774   1.114   2.420
 5119SOL    HW116256   5.824   1.103   2.334
 5119SOL    HW216257   5.774   1.028   2.470
 5120SOL     OW16258   5.199   1.217   2.645
 5120SOL    HW116259   5.112   1.230   2.692
 5120SOL    HW216260   5.205   1.281   2.568
 5121SOL     OW16261   0.391   3.399   5.652
 5121SOL    HW116262   0.464   3.427   5.714
 5121SOL    HW216263   0.374   3.471   5.585
 5122SOL     OW16264   2.214   0.133   3.148
 5122SOL    HW116265   2.290   0.145   3.213
 5122SOL    HW216266   2.134   0.098   3.196
 5123SOL     OW16267   4.636   4.281   2.763
 5123SOL    HW116268   4.677   4.204   2.812
 5123SOL    HW216269   4.605   4.350   2.828
 5124SOL     OW16270   3.348   6.382   6.984
 5124SOL    HW116271   3.416   6.455   6.992
 5124SOL    HW216272   3.348   6.327   0.047
 5125SOL     OW16273   0.122   3.481   3.937
 5125SOL    HW116274   0.045   3.503   3.877
 5125SOL    HW216275   0.121   3.383   3.958
 5126SOL     OW16276   6.273   4.761   5.952
 5126SOL    HW116277   6.176   4.781   5.937
 5126SOL    HW216278   6.301   4.684   5.895
 5127SOL     OW16279   5.094   3.080   6.630
 5127SOL    HW116280   5.093   3.064   6.729
 5127SOL    HW216281   5.177   3.128   6.605
 5128SOL     OW16282   0.556   0.958   6.548
 5128SOL    HW116283   0.552   1.050   6.587
 5128SOL    HW216284   0.476   0.906   6.577
 5129SOL     OW16285   4.899   1.231   2.182
 5129SOL    HW116286   4.960   1.262   2.109
 5129SOL    HW216287   4.814   1.197   2.142
 5130SOL     OW16288   0.979   4.841   4.357
 5130SOL    HW116289   0.991   4.761   4.298
 5130SOL    HW216290   1.047   4.838   4.430
 5131SOL     OW16291   3.207   4.926   3.324
 5131SOL    HW116292   3.246   4.944   3.234
 5131SOL    HW216293   3.109   4.913   3.315
 5132SOL     OW16294   3.335   1.863   6.793
 5132SOL    HW116295   3.412   1.801   6.781
 5132SOL    HW216296   3.252   1.811   6.814
 5133SOL     OW16297   4.111   5.024   6.469
 5133SOL    HW116298   4.052   5.102   6.492
 5133SOL    HW216299   4.093   4.996   6.374
 5134SOL     OW16300   6.648   6.963   1.512
 5134SOL    HW116301   6.563   7.014   1.496
 5134SOL    HW216302   6.719   6.996   1.450
 5135SOL     OW16303   6.498   2.944   2.001
 5135SOL    HW116304   6.458   2.879   2.065
 5135SOL    HW216305   6.446   2.944   1.916
 5136SOL     OW16306   0.577   0.747   6.067
 5136SOL    HW116307   0.632   0.696   6.001
 5136SOL    HW216308   0.512   0.685   6.111
 5137SOL     OW16309   5.402   1.775   5.296
 5137SOL    HW116310   5.408   1.838   5.373
 5137SOL    HW216311   5.373   1.685   5.328
 5138SOL     OW16312   3.450   3.296   4.260
 5138SOL    HW116313   3.485   3.216   4.212
 5138SOL    HW216314   3.466   3.287   4.358
 5139SOL     OW16315   1.874   0.429   4.755
 5139SOL    HW116316   1.838   0.508   4.803
 5139SOL    HW216317   1.900   0.358   4.821
 5140SOL     OW16318   4.103   2.276   6.115
 5140SOL    HW116319   4.025   2.311   6.062
 5140SOL    HW216320   4.123   2.339   6.190
 5141SOL     OW16321   6.824   2.847   2.019
 5141SOL    HW116322   6.834   2.772   2.084
 5141SOL    HW216323   6.731   2.884   2.025
 5142SOL     OW16324   6.686   0.010   3.225
 5142SOL    HW116325   6.687   6.930   3.219
 5142SOL    HW216326   6.768   0.046   3.181
 5143SOL     OW16327   0.762   4.978   4.319
 5143SOL    HW116328   0.687   4.976   4.385
 5143SOL    HW216329   0.840   4.927   4.355
 5144SOL     OW16330   1.641   3.642   6.330
 5144SOL    HW116331   1.690   3.570   6.280
 5144SOL    HW216332   1.598   3.704   6.264
 5145SOL     OW16333   2.570   6.170   6.692
 5145SOL    HW116334   2.505   6.235   6.652
 5145SOL    HW216335   2.556   6.165   6.791
 5146SOL     OW16336   5.403   5.054   5.998
 5146SOL    HW116337   5.343   5.014   5.928
 5146SOL    HW216338   5.352   5.122   6.050
 5147SOL     OW16339   4.791   2.902   3.390
 5147SOL    HW116340   4.781   2.919   3.292
 5147SOL    HW216341   4.740   2.819   3.414
 5148SOL     OW16342   0.648   0.031   1.479
 5148SOL    HW116343   0.588   0.107   1.505
 5148SOL    HW216344   0.735   0.040   1.529
 5149SOL     OW16345   5.559   4.364   3.224
 5149SOL    HW116346   5.539   4.424   3.147
 5149SOL    HW216347   5.636   4.401   3.277
 5150SOL     OW16348   0.632   5.371   3.932
 5150SOL    HW116349   0.628   5.320   4.019
 5150SOL    HW216350   0.545   5.359   3.884
 5151SOL     OW16351   6.030   4.583   1.482
 5151SOL    HW116352   6.008   4.670   1.438
 5151SOL    HW216353   6.016   4.591   1.581
 5152SOL     OW16354   1.343   0.853   6.374
 5152SOL    HW116355   1.438   0.873   6.401
 5152SOL    HW216356   1.328   0.884   6.280
 5153SOL     OW16357   1.345   2.016   0.759
 5153SOL    HW116358   1.329   1.980   0.667
 5153SOL    HW216359   1.257   2.036   0.802
 5154SOL     OW16360   0.452   2.532   6.776
 5154SOL    HW116361   0.546   2.565   6.765
 5154SOL    HW216362   0.424   2.544   6.871
 5155SOL     OW16363   1.865   1.306   0.656
 5155SOL    HW116364   1.811   1.381   0.694
 5155SOL    HW216365   1.847   1.298   0.558
 5156SOL     OW16366   5.286   5.153   5.693
 5156SOL    HW116367   5.267   5.189   5.601
 5156SOL    HW216368   5.329   5.225   5.748
 5157SOL     OW16369   4.370   0.483   2.053
 5157SOL    HW116370   4.310   0.561   2.069
 5157SOL    HW216371   4.340   0.434   1.971
 5158SOL     OW16372   3.433   1.446   2.725
 5158SOL    HW116373   3.517   1.468   2.774
 5158SOL    HW216374   3.451   1.441   2.627
 5159SOL     OW16375   5.998   3.206   5.657
 5159SOL    HW116376   5.914   3.210   5.604
 5159SOL    HW216377   6.063   3.273   5.622
 5160SOL     OW16378   6.672   6.227   3.171
 5160SOL    HW116379   6.761   6.193   3.202
 5160SOL    HW216380   6.679   6.260   3.077
 5161SOL     OW16381   1.090   3.170   0.322
 5161SOL    HW116382   1.165   3.236   0.312
 5161SOL    HW216383   1.111   3.107   0.397
 5162SOL     OW16384   6.736   6.333   2.951
 5162SOL    HW116385   6.669   6.403   2.974
 5162SOL    HW216386   6.828   6.372   2.953
 5163SOL     OW16387   3.102   6.586   2.462
 5163SOL    HW116388   3.083   6.640   2.545
 5163SOL    HW216389   3.019   6.581   2.406
 5164SOL     OW16390   3.152   3.758   0.820
 5164SOL    HW116391   3.080   3.784   0.755
 5164SOL    HW216392   3.128   3.790   0.911
 5165SOL     OW16393   1.261   4.627   6.940
 5165SOL    HW116394   1.201   4.595   6.867
 5165SOL    HW216395   1.356   4.630   6.907
 5166SOL     OW16396   1.441   5.432   1.610
 5166SOL    HW116397   1.348   5.463   1.631
 5166SOL    HW216398   1.470   5.472   1.523
 5167SOL     OW16399   4.879   2.432   4.962
 5167SOL    HW116400   4.924   2.510   5.007
 5167SOL    HW216401   4.816   2.466   4.893
 5168SOL     OW16402   4.229   2.166   2.136
 5168SOL    HW116403   4.204   2.228   2.062
 5168SOL    HW216404   4.328   2.154   2.138
 5169SOL     OW16405   4.019   6.934   3.310
 5169SOL    HW116406   4.020   6.835   3.294
 5169SOL    HW216407   3.933   6.960   3.355
 5170SOL     OW16408   1.096   2.926   6.271
 5170SOL    HW116409   1.103   3.025   6.256
 5170SOL    HW216410   1.060   2.908   6.362
 5171SOL     OW16411   1.913   5.932   5.056
 5171SOL    HW116412   1.840   5.917   4.989
 5171SOL    HW216413   1.994   5.970   5.009
 5172SOL     OW16414   0.158   5.488   3.425
 5172SOL    HW116415   0.251   5.520   3.407
 5172SOL    HW216416   0.134   5.505   3.520
 5173SOL     OW16417   5.023   4.174   5.835
 5173SOL    HW116418   5.076   4.108   5.888
 5173SOL    HW216419   4.968   4.125   5.766
 5174SOL     OW16420   2.758   6.357   3.077
 5174SOL    HW116421   2.773   6.265   3.042
 5174SOL    HW216422   2.661   6.368   3.101
 5175SOL     OW16423   2.916   4.351   6.978
 5175SOL    HW116424   2.878   4.369   0.048
 5175SOL    HW216425   3.003   4.399   6.968
 5176SOL     OW16426   5.451   5.457   0.476
 5176SOL    HW116427   5.485   5.487   0.565
 5176SOL    HW216428   5.491   5.368   0.454
 5177SOL     OW16429   4.872   1.074   0.102
 5177SOL    HW116430   4.896   0.980   0.125
 5177SOL    HW216431   4.777   1.092   0.130
 5178SOL     OW16432   1.140   3.834   1.824
 5178SOL    HW116433   1.239   3.839   1.834
 5178SOL    HW216434   1.117   3.808   1.731
 5179SOL     OW16435   6.181   4.509   2.921
 5179SOL    HW116436   6.204   4.420   2.882
 5179SOL    HW216437   6.136   4.565   2.851
 5180SOL     OW16438   2.458   0.010   1.923
 5180SOL    HW116439   2.428   6.939   1.896
 5180SOL    HW216440   2.524   0.045   1.856
 5181SOL     OW16441   0.564   0.344   6.091
 5181SOL    HW116442   0.612   0.265   6.053
 5181SOL    HW216443   0.508   0.386   6.020
 5182SOL     OW16444   3.944   5.422   3.122
 5182SOL    HW116445   3.905   5.335   3.092
 5182SOL    HW216446   4.037   5.406   3.156
 5183SOL     OW16447   4.128   1.879   3.729
 5183SOL    HW116448   4.115   1.921   3.819
 5183SOL    HW216449   4.112   1.948   3.658
 5184SOL     OW16450   2.530   0.979   4.110
 5184SOL    HW116451   2.542   1.069   4.152
 5184SOL    HW216452   2.474   0.922   4.169
 5185SOL     OW16453   5.933   1.062   1.792
 5185SOL    HW116454   6.031   1.046   1.795
 5185SOL    HW216455   5.916   1.161   1.783
 5186SOL     OW16456   6.979   3.398   6.061
 5186SOL    HW116457   0.027   3.327   6.045
 5186SOL    HW216458   6.972   3.415   6.160
 5187SOL     OW16459   1.966   4.680   5.306
 5187SOL    HW116460   1.916   4.718   5.384
 5187SOL    HW216461   2.044   4.627   5.339
 5188SOL     OW16462   6.808   6.820   2.367
 5188SOL    HW116463   6.787   6.746   2.303
 5188SOL    HW216464   6.859   6.891   2.319
 5189SOL     OW16465   5.478   0.433   5.946
 5189SOL    HW116466   5.522   0.437   5.856
 5189SOL    HW216467   5.382   0.459   5.937
 5190SOL     OW16468   1.725   3.709   1.575
 5190SOL    HW116469   1.635   3.682   1.541
 5190SOL    HW216470   1.760   3.784   1.519
 5191SOL     OW16471   3.357   5.205   2.444
 5191SOL    HW116472   3.403   5.179   2.359
 5191SOL    HW216473   3.353   5.305   2.450
 5192SOL     OW16474   2.191   5.032   2.140
 5192SOL    HW116475   2.214   5.118   2.185
 5192SOL    HW216476   2.273   4.994   2.098
 5193SOL     OW16477   6.054   0.626   6.528
 5193SOL    HW116478   6.036   0.623   6.430
 5193SOL    HW216479   6.144   0.666   6.544
 5194SOL     OW16480   4.469   2.358   6.804
 5194SOL    HW116481   4.455   2.444   6.755
 5194SOL    HW216482   4.487   2.378   6.900
 5195SOL     OW16483   6.693   0.896   4.572
 5195SOL    HW116484   6.607   0.863   4.531
 5195SOL    HW216485   6.769   0.841   4.538
 5196SOL     OW16486   5.277   6.032   3.073
 5196SOL    HW116487   5.256   6.107   3.010
 5196SOL    HW216488   5.341   6.065   3.142
 5197SOL     OW16489   1.333   4.301   5.830
 5197SOL    HW116490   1.258   4.300   5.764
 5197SOL    HW216491   1.365   4.208   5.846
 5198SOL     OW16492   5.423   5.870   2.753
 5198SOL    HW116493   5.335   5.822   2.760
 5198SOL    HW216494   5.469   5.842   2.669
 5199SOL     OW16495   6.497   5.141   1.242
 5199SOL    HW116496   6.551   5.110   1.321
 5199SOL    HW216497   6.423   5.075   1.224
 5200SOL     OW16498   0.358   3.619   5.478
 5200SOL    HW116499   0.307   3.626   5.392
 5200SOL    HW216500   0.316   3.678   5.547
 5201SOL     OW16501   1.657   5.097   3.989
 5201SOL    HW116502   1.709   5.030   4.043
 5201SOL    HW216503   1.614   5.162   4.051
 5202SOL     OW16504   6.534   3.716   0.473
 5202SOL    HW116505   6.631   3.737   0.482
 5202SOL    HW216506   6.487   3.792   0.427
 5203SOL     OW16507   0.952   2.157   6.809
 5203SOL    HW116508   1.036   2.198   6.773
 5203SOL    HW216509   0.887   2.145   6.734
 5204SOL     OW16510   4.088   5.052   0.184
 5204SOL    HW116511   3.991   5.069   0.169
 5204SOL    HW216512   4.128   5.010   0.102
 5205SOL     OW16513   1.870   0.242   1.535
 5205SOL    HW116514   1.908   0.319   1.483
 5205SOL    HW216515   1.916   0.236   1.623
 5206SOL     OW16516   0.577   4.141   6.966
 5206SOL    HW116517   0.522   4.064   6.996
 5206SOL    HW216518   0.562   4.157   6.868
 5207SOL     OW16519   1.364   5.056   4.135
 5207SOL    HW116520   1.338   5.000   4.056
 5207SOL    HW216521   1.381   5.149   4.105
 5208SOL     OW16522   3.604   0.780   0.202
 5208SOL    HW116523   3.673   0.708   0.212
 5208SOL    HW216524   3.526   0.760   0.261
 5209SOL     OW16525   6.056   5.831   3.481
 5209SOL    HW116526   6.119   5.800   3.553
 5209SOL    HW216527   5.972   5.777   3.485
 5210SOL     OW16528   5.011   4.368   3.815
 5210SOL    HW116529   5.036   4.285   3.765
 5210SOL    HW216530   5.031   4.449   3.759
 5211SOL     OW16531   3.065   3.145   3.553
 5211SOL    HW116532   3.093   3.232   3.513
 5211SOL    HW216533   3.004   3.097   3.490
 5212SOL     OW16534   0.589   2.184   0.845
 5212SOL    HW116535   0.506   2.132   0.827
 5212SOL    HW216536   0.639   2.197   0.759
 5213SOL     OW16537   5.034   2.495   5.650
 5213SOL    HW116538   5.014   2.406   5.610
 5213SOL    HW216539   4.948   2.542   5.671
 5214SOL     OW16540   5.676   1.381   5.618
 5214SOL    HW116541   5.765   1.375   5.663
 5214SOL    HW216542   5.609   1.420   5.681
 5215SOL     OW16543   4.994   4.544   3.221
 5215SOL    HW116544   5.053   4.464   3.214
 5215SOL    HW216545   5.002   4.600   3.139
 5216SOL     OW16546   5.034   4.970   0.929
 5216SOL    HW116547   5.038   4.940   1.024
 5216SOL    HW216548   4.938   4.973   0.899
 5217SOL     OW16549   3.353   5.293   3.879
 5217SOL    HW116550   3.365   5.270   3.976
 5217SOL    HW216551   3.318   5.387   3.871
 5218SOL     OW16552   1.569   6.644   3.553
 5218SOL    HW116553   1.622   6.729   3.563
 5218SOL    HW216554   1.473   6.662   3.571
 5219SOL     OW16555   3.307   6.867   6.627
 5219SOL    HW116556   3.280   6.771   6.624
 5219SOL    HW216557   3.249   6.915   6.693
 5220SOL     OW16558   0.495   6.002   2.334
 5220SOL    HW116559   0.413   6.058   2.320
 5220SOL    HW216560   0.530   5.972   2.245
 5221SOL     OW16561   5.436   1.193   4.479
 5221SOL    HW116562   5.474   1.284   4.498
 5221SOL    HW216563   5.337   1.199   4.465
 5222SOL     OW16564   1.611   0.360   3.345
 5222SOL    HW116565   1.688   0.423   3.341
 5222SOL    HW216566   1.631   0.279   3.290
 5223SOL     OW16567   4.784   0.646   1.535
 5223SOL    HW116568   4.694   0.689   1.525
 5223SOL    HW216569   4.773   0.554   1.572
 5224SOL     OW16570   6.724   2.057   2.543
 5224SOL    HW116571   6.733   1.965   2.582
 5224SOL    HW216572   6.631   2.090   2.559
 5225SOL     OW16573   6.400   6.622   4.418
 5225SOL    HW116574   6.354   6.709   4.431
 5225SOL    HW216575   6.421   6.581   4.507
 5226SOL     OW16576   0.775   6.394   3.995
 5226SOL    HW116577   0.830   6.347   3.926
 5226SOL    HW216578   0.728   6.472   3.953
 5227SOL     OW16579   6.482   5.158   3.751
 5227SOL    HW116580   6.565   5.117   3.791
 5227SOL    HW216581   6.504   5.248   3.713
 5228SOL     OW16582   5.445   1.672   0.848
 5228SOL    HW116583   5.493   1.585   0.859
 5228SOL    HW216584   5.349   1.660   0.875
 5229SOL     OW16585   1.282   3.924   6.314
 5229SOL    HW116586   1.188   3.958   6.316
 5229SOL    HW216587   1.341   3.986   6.367
 5230SOL     OW16588   6.983   0.388   0.685
 5230SOL    HW116589   0.055   0.350   0.679
 5230SOL    HW216590   6.974   0.439   0.771
 5231SOL     OW16591   4.020   3.214   4.110
 5231SOL    HW116592   3.931   3.169   4.105
 5231SOL    HW216593   4.048   3.242   4.018
 5232SOL     OW16594   4.499   2.373   0.061
 5232SOL    HW116595   4.559   2.295   0.077
 5232SOL    HW216596   4.423   2.370   0.126
 5233SOL     OW16597   6.794   5.941   1.763
 5233SOL    HW116598   6.875   5.947   1.821
 5233SOL    HW216599   6.738   6.023   1.775
 5234SOL     OW16600   3.079   6.806   0.432
 5234SOL    HW116601   3.140   6.836   0.506
 5234SOL    HW216602   3.134   6.786   0.351
 5235SOL     OW16603   2.035   3.561   0.774
 5235SOL    HW116604   2.009   3.639   0.831
 5235SOL    HW216605   2.133   3.542   0.786
 5236SOL     OW16606   5.003   3.822   1.271
 5236SOL    HW116607   4.907   3.830   1.299
 5236SOL    HW216608   5.008   3.787   1.178
 5237SOL     OW16609   2.349   1.826   5.327
 5237SOL    HW116610   2.259   1.865   5.348
 5237SOL    HW216611   2.397   1.807   5.413
 5238SOL     OW16612   1.441   4.944   0.396
 5238SOL    HW116613   1.404   4.883   0.466
 5238SOL    HW216614   1.461   5.033   0.437
 5239SOL     OW16615   3.159   3.093   4.146
 5239SOL    HW116616   3.072   3.076   4.191
 5239SOL    HW216617   3.143   3.136   4.057
 5240SOL     OW16618   3.354   2.176   5.216
 5240SOL    HW116619   3.340   2.103   5.149
 5240SOL    HW216620   3.281   2.244   5.205
 5241SOL     OW16621   1.003   6.109   6.356
 5241SOL    HW116622   1.023   6.059   6.272
 5241SOL    HW216623   1.019   6.207   6.340
 5242SOL     OW16624   6.014   1.225   6.010
 5242SOL    HW116625   6.043   1.321   6.013
 5242SOL    HW216626   5.914   1.220   6.011
 5243SOL     OW16627   0.893   5.656   1.019
 5243SOL    HW116628   0.869   5.666   0.923
 5243SOL    HW216629   0.972   5.715   1.040
 5244SOL     OW16630   4.356   4.119   5.916
 5244SOL    HW116631   4.266   4.091   5.881
 5244SOL    HW216632   4.352   4.128   6.015
 5245SOL     OW16633   4.213   4.313   6.080
 5245SOL    HW116634   4.150   4.377   6.126
 5245SOL    HW216635   4.165   4.228   6.061
 5246SOL     OW16636   0.701   3.163   2.502
 5246SOL    HW116637   0.682   3.135   2.408
 5246SOL    HW216638   0.783   3.221   2.504
 5247SOL     OW16639   0.020   5.036   0.715
 5247SOL    HW116640   0.078   4.976   0.660
 5247SOL    HW216641   6.964   4.985   0.751
 5248SOL     OW16642   5.240   1.041   6.166
 5248SOL    HW116643   5.236   1.069   6.262
 5248SOL    HW216644   5.240   1.122   6.107
 5249SOL     OW16645   0.727   5.029   4.886
 5249SOL    HW116646   0.758   5.109   4.938
 5249SOL    HW216647   0.806   4.970   4.867
 5250SOL     OW16648   0.242   2.077   5.986
 5250SOL    HW116649   0.193   2.088   6.073
 5250SOL    HW216650   0.335   2.046   6.005
 5251SOL     OW16651   6.321   3.504   1.185
 5251SOL    HW116652   6.338   3.438   1.113
 5251SOL    HW216653   6.273   3.460   1.261
 5252SOL     OW16654   3.051   6.107   0.903
 5252SOL    HW116655   3.031   6.185   0.844
 5252SOL    HW216656   3.138   6.122   0.950
 5253SOL     OW16657   5.940   3.748   4.607
 5253SOL    HW116658   5.986   3.743   4.696
 5253SOL    HW216659   5.843   3.727   4.619
 5254SOL     OW16660   4.620   1.160   4.255
 5254SOL    HW116661   4.662   1.093   4.194
 5254SOL    HW216662   4.688   1.227   4.283
 5255SOL     OW16663   3.217   0.069   5.000
 5255SOL    HW116664   3.203   0.114   4.912
 5255SOL    HW216665   3.313   0.044   5.010
 5256SOL     OW16666   4.894   0.837   3.714
 5256SOL    HW116667   4.946   0.898   3.775
 5256SOL    HW216668   4.828   0.890   3.661
 5257SOL     OW16669   3.697   6.665   0.717
 5257SOL    HW116670   3.742   6.737   0.665
 5257SOL    HW216671   3.746   6.579   0.705
 5258SOL     OW16672   4.954   4.581   2.554
 5258SOL    HW116673   4.979   4.493   2.593
 5258SOL    HW216674   4.993   4.654   2.610
 5259SOL     OW16675   4.536   6.291   2.635
 5259SOL    HW116676   4.535   6.381   2.678
 5259SOL    HW216677   4.630   6.266   2.612
 5260SOL     OW16678   5.809   3.463   0.935
 5260SOL    HW116679   5.824   3.399   0.859
 5260SOL    HW216680   5.788   3.411   1.018
 5261SOL     OW16681   0.084   2.782   4.722
 5261SOL    HW116682   0.102   2.864   4.667
 5261SOL    HW216683   7.011   2.751   4.707
 5262SOL     OW16684   2.590   6.516   2.288
 5262SOL    HW116685   2.513   6.551   2.342
 5262SOL    HW216686   2.569   6.527   2.191
 5263SOL     OW16687   1.569   0.375   5.926
 5263SOL    HW116688   1.627   0.294   5.923
 5263SOL    HW216689   1.554   0.402   6.021
 5264SOL     OW16690   6.256   1.412   1.620
 5264SOL    HW116691   6.214   1.498   1.591
 5264SOL    HW216692   6.321   1.382   1.550
 5265SOL     OW16693   5.596   4.722   2.062
 5265SOL    HW116694   5.544   4.807   2.051
 5265SOL    HW216695   5.550   4.663   2.127
 5266SOL     OW16696   1.219   6.500   1.686
 5266SOL    HW116697   1.279   6.499   1.766
 5266SOL    HW216698   1.269   6.536   1.607
 5267SOL     OW16699   4.768   5.250   5.345
 5267SOL    HW116700   4.844   5.249   5.281
 5267SOL    HW216701   4.803   5.259   5.438
 5268SOL     OW16702   6.528   5.198   5.001
 5268SOL    HW116703   6.470   5.279   4.995
 5268SOL    HW216704   6.528   5.164   5.096
 5269SOL     OW16705   1.601   5.207   4.353
 5269SOL    HW116706   1.511   5.179   4.319
 5269SOL    HW216707   1.670   5.143   4.320
 5270SOL     OW16708   5.752   2.849   1.707
 5270SOL    HW116709   5.810   2.767   1.707
 5270SOL    HW216710   5.656   2.822   1.700
 5271SOL     OW16711   4.699   4.831   5.275
 5271SOL    HW116712   4.683   4.849   5.372
 5271SOL    HW216713   4.623   4.866   5.221
 5272SOL     OW16714   0.045   6.174   4.681
 5272SOL    HW116715   0.134   6.140   4.713
 5272SOL    HW216716   0.004   6.106   4.621
 5273SOL     OW16717   0.690   2.175   4.097
 5273SOL    HW116718   0.705   2.233   4.017
 5273SOL    HW216719   0.663   2.232   4.175
 5274SOL     OW16720   0.107   4.878   3.811
 5274SOL    HW116721   0.105   4.944   3.735
 5274SOL    HW216722   0.015   4.872   3.851
 5275SOL     OW16723   2.624   6.895   6.347
 5275SOL    HW116724   2.634   6.907   6.446
 5275SOL    HW216725   2.656   6.977   6.300
 5276SOL     OW16726   0.035   0.011   1.749
 5276SOL    HW116727   0.017   6.934   1.750
 5276SOL    HW216728   0.058   0.040   1.656
 5277SOL     OW16729   1.290   1.497   3.481
 5277SOL    HW116730   1.377   1.532   3.447
 5277SOL    HW216731   1.215   1.554   3.445
 5278SOL     OW16732   0.367   6.541   5.832
 5278SOL    HW116733   0.420   6.560   5.749
 5278SOL    HW216734   0.328   6.449   5.826
 5279SOL     OW16735   1.157   5.649   6.480
 5279SOL    HW116736   1.135   5.552   6.480
 5279SOL    HW216737   1.081   5.700   6.520
 5280SOL     OW16738   3.752   6.559   4.505
 5280SOL    HW116739   3.767   6.504   4.587
 5280SOL    HW216740   3.701   6.642   4.529
 5281SOL     OW16741   1.257   0.802   4.362
 5281SOL    HW116742   1.257   0.843   4.454
 5281SOL    HW216743   1.180   0.738   4.355
 5282SOL     OW16744   1.822   0.247   2.928
 5282SOL    HW116745   1.755   0.172   2.923
 5282SOL    HW216746   1.795   0.319   2.864
 5283SOL     OW16747   0.109   0.660   3.410
 5283SOL    HW116748   0.177   0.624   3.474
 5283SOL    HW216749   0.038   0.709   3.460
 5284SOL     OW16750   4.968   2.057   2.084
 5284SOL    HW116751   4.946   2.011   2.170
 5284SOL    HW216752   5.007   2.147   2.103
 5285SOL     OW16753   1.149   2.881   3.101
 5285SOL    HW116754   1.176   2.952   3.166
 5285SOL    HW216755   1.092   2.921   3.030
 5286SOL     OW16756   6.548   2.892   0.367
 5286SOL    HW116757   6.643   2.916   0.348
 5286SOL    HW216758   6.544   2.836   0.450
 5287SOL     OW16759   3.492   5.400   2.127
 5287SOL    HW116760   3.543   5.477   2.164
 5287SOL    HW216761   3.400   5.431   2.100
 5288SOL     OW16762   5.064   0.335   1.650
 5288SOL    HW116763   5.108   0.372   1.732
 5288SOL    HW216764   5.129   0.336   1.574
 5289SOL     OW16765   1.968   5.515   6.524
 5289SOL    HW116766   1.967   5.418   6.549
 5289SOL    HW216767   2.056   5.538   6.483
 5290SOL     OW16768   2.051   4.455   5.901
 5290SOL    HW116769   2.074   4.511   5.981
 5290SOL    HW216770   1.962   4.413   5.914
 5291SOL     OW16771   2.929   4.606   5.445
 5291SOL    HW116772   2.892   4.571   5.358
 5291SOL    HW216773   3.018   4.564   5.462
 5292SOL     OW16774   0.009   4.370   6.602
 5292SOL    HW116775   0.093   4.418   6.628
 5292SOL    HW216776   6.957   4.395   6.666
 5293SOL     OW16777   2.527   5.434   4.501
 5293SOL    HW116778   2.567   5.525   4.510
 5293SOL    HW216779   2.577   5.370   4.559
 5294SOL     OW16780   4.571   0.583   5.240
 5294SOL    HW116781   4.538   0.676   5.226
 5294SOL    HW216782   4.504   0.532   5.294
 5295SOL     OW16783   3.451   1.163   3.258
 5295SOL    HW116784   3.520   1.092   3.242
 5295SOL    HW216785   3.365   1.120   3.286
 5296SOL     OW16786   4.107   4.263   0.914
 5296SOL    HW116787   4.095   4.176   0.961
 5296SOL    HW216788   4.137   4.247   0.820
 5297SOL     OW16789   2.546   3.648   0.081
 5297SOL    HW116790   2.641   3.680   0.075
 5297SOL    HW216791   2.545   3.553   0.112
 5298SOL     OW16792   2.223   6.183   6.863
 5298SOL    HW116793   2.301   6.241   6.885
 5298SOL    HW216794   2.165   6.227   6.795
 5299SOL     OW16795   2.780   2.392   0.701
 5299SOL    HW116796   2.761   2.409   0.604
 5299SOL    HW216797   2.862   2.443   0.728
 5300SOL     OW16798   1.112   4.760   0.693
 5300SOL    HW116799   1.026   4.812   0.694
 5300SOL    HW216800   1.092   4.662   0.686
 5301SOL     OW16801   4.139   0.575   0.186
 5301SOL    HW116802   4.106   0.619   0.269
 5301SOL    HW216803   4.112   0.629   0.106
 5302SOL     OW16804   4.749   5.664   3.494
 5302SOL    HW116805   4.681   5.611   3.444
 5302SOL    HW216806   4.738   5.761   3.474
 5303SOL     OW16807   6.735   5.045   6.272
 5303SOL    HW116808   6.789   5.029   6.354
 5303SOL    HW216809   6.789   5.019   6.191
 5304SOL     OW16810   5.826   1.140   1.086
 5304SOL    HW116811   5.855   1.173   1.176
 5304SOL    HW216812   5.727   1.154   1.076
 5305SOL     OW16813   1.305   5.268   2.939
 5305SOL    HW116814   1.304   5.360   2.979
 5305SOL    HW216815   1.378   5.262   2.871
 5306SOL     OW16816   0.230   4.192   5.822
 5306SOL    HW116817   0.306   4.148   5.775
 5306SOL    HW216818   0.176   4.245   5.757
 5307SOL     OW16819   4.648   2.211   0.398
 5307SOL    HW116820   4.632   2.290   0.458
 5307SOL    HW216821   4.566   2.154   0.397
 5308SOL     OW16822   1.455   4.561   2.674
 5308SOL    HW116823   1.545   4.600   2.658
 5308SOL    HW216824   1.451   4.468   2.636
 5309SOL     OW16825   4.044   6.072   2.647
 5309SOL    HW116826   4.139   6.090   2.671
 5309SOL    HW216827   4.022   5.976   2.667
 5310SOL     OW16828   6.318   3.258   2.199
 5310SOL    HW116829   6.297   3.347   2.158
 5310SOL    HW216830   6.278   3.186   2.143
 5311SOL     OW16831   6.064   0.862   6.879
 5311SOL    HW116832   6.090   0.772   6.914
 5311SOL    HW216833   6.002   0.908   6.942
 5312SOL     OW16834   0.015   5.995   1.319
 5312SOL    HW116835   7.018   6.083   1.274
 5312SOL    HW216836   6.956   5.971   1.375
 5313SOL     OW16837   0.344   4.904   5.512
 5313SOL    HW116838   0.266   4.926   5.571
 5313SOL    HW216839   0.381   4.988   5.473
 5314SOL     OW16840   5.248   6.836   0.579
 5314SOL    HW116841   5.267   6.780   0.499
 5314SOL    HW216842   5.305   6.806   0.655
 5315SOL     OW16843   4.802   2.431   3.444
 5315SOL    HW116844   4.728   2.384   3.396
 5315SOL    HW216845   4.880   2.442   3.382
 5316SOL     OW16846   0.922   3.793   5.463
 5316SOL    HW116847   0.993   3.829   5.403
 5316SOL    HW216848   0.838   3.780   5.410
 5317SOL     OW16849   6.936   1.268   5.401
 5317SOL    HW116850   6.867   1.213   5.354
 5317SOL    HW216851   6.930   1.253   5.500
 5318SOL     OW16852   0.404   3.149   0.746
 5318SOL    HW116853   0.332   3.110   0.689
 5318SOL    HW216854   0.435   3.236   0.706
 5319SOL     OW16855   4.726   6.342   0.921
 5319SOL    HW116856   4.792   6.409   0.954
 5319SOL    HW216857   4.757   6.305   0.834
 5320SOL     OW16858   4.471   5.850   1.315
 5320SOL    HW116859   4.463   5.852   1.415
 5320SOL    HW216860   4.525   5.771   1.288
 5321SOL     OW16861   2.171   4.754   5.091
 5321SOL    HW116862   2.091   4.773   5.148
 5321SOL    HW216863   2.146   4.688   5.020
 5322SOL     OW16864   5.540   0.039   0.592
 5322SOL    HW116865   5.629   0.004   0.563
 5322SOL    HW216866   5.550   0.087   0.679
 5323SOL     OW16867   4.377   1.458   5.898
 5323SOL    HW116868   4.354   1.555   5.910
 5323SOL    HW216869   4.365   1.433   5.802
 5324SOL     OW16870   2.826   2.192   6.942
 5324SOL    HW116871   2.854   2.280   6.904
 5324SOL    HW216872   2.729   2.196   6.968
 5325SOL     OW16873   2.506   1.584   4.764
 5325SOL    HW116874   2.409   1.559   4.774
 5325SOL    HW216875   2.563   1.514   4.806
 5326SOL     OW16876   6.125   6.072   3.351
 5326SOL    HW116877   6.193   6.032   3.290
 5326SOL    HW216878   6.085   6.000   3.408
 5327SOL     OW16879   5.721   2.467   4.678
 5327SOL    HW116880   5.769   2.496   4.761
 5327SOL    HW216881   5.720   2.541   4.611
 5328SOL     OW16882   3.582   3.635   5.935
 5328SOL    HW116883   3.502   3.690   5.913
 5328SOL    HW216884   3.663   3.677   5.894
 5329SOL     OW16885   1.063   5.383   6.478
 5329SOL    HW116886   1.135   5.317   6.497
 5329SOL    HW216887   0.983   5.364   6.535
 5330SOL     OW16888   3.981   4.297   6.970
 5330SOL    HW116889   4.011   4.376   6.916
 5330SOL    HW216890   4.057   4.233   6.980
 5331SOL     OW16891   6.187   1.890   6.650
 5331SOL    HW116892   6.093   1.918   6.665
 5331SOL    HW216893   6.195   1.791   6.662
 5332SOL     OW16894   1.780   4.197   1.573
 5332SOL    HW116895   1.738   4.280   1.609
 5332SOL    HW216896   1.813   4.214   1.480
 5333SOL     OW16897   1.540   0.733   3.336
 5333SOL    HW116898   1.510   0.819   3.293
 5333SOL    HW216899   1.506   0.656   3.282
 5334SOL     OW16900   3.089   0.765   5.263
 5334SOL    HW116901   3.088   0.857   5.300
 5334SOL    HW216902   3.131   0.766   5.172
 5335SOL     OW16903   6.350   6.126   0.955
 5335SOL    HW116904   6.331   6.139   1.052
 5335SOL    HW216905   6.265   6.126   0.903
 5336SOL     OW16906   1.597   3.382   2.378
 5336SOL    HW116907   1.655   3.321   2.433
 5336SOL    HW216908   1.638   3.393   2.287
 5337SOL     OW16909   4.462   3.870   1.485
 5337SOL    HW116910   4.561   3.881   1.487
 5337SOL    HW216911   4.419   3.938   1.544
 5338SOL     OW16912   5.912   1.924   6.669
 5338SOL    HW116913   5.826   1.874   6.656
 5338SOL    HW216914   5.905   1.982   6.751
 5339SOL     OW16915   6.357   1.552   3.800
 5339SOL    HW116916   6.381   1.564   3.704
 5339SOL    HW216917   6.407   1.620   3.855
 5340SOL     OW16918   5.905   2.905   0.314
 5340SOL    HW116919   5.837   2.944   0.376
 5340SOL    HW216920   5.986   2.878   0.366
 5341SOL     OW16921   3.813   2.291   5.755
 5341SOL    HW116922   3.714   2.284   5.770
 5341SOL    HW216923   3.834   2.379   5.713
 5342SOL     OW16924   3.920   0.689   4.956
 5342SOL    HW116925   3.921   0.731   4.865
 5342SOL    HW216926   3.882   0.752   5.023
 5343SOL     OW16927   3.513   3.477   3.438
 5343SOL    HW116928   3.431   3.470   3.381
 5343SOL    HW216929   3.561   3.562   3.417
 5344SOL     OW16930   1.461   2.597   2.709
 5344SOL    HW116931   1.426   2.503   2.712
 5344SOL    HW216932   1.544   2.604   2.765
 5345SOL     OW16933   4.354   5.720   0.783
 5345SOL    HW116934   4.271   5.775   0.773
 5345SOL    HW216935   4.434   5.779   0.776
 5346SOL     OW16936   3.214   6.330   3.511
 5346SOL    HW116937   3.239   6.293   3.600
 5346SOL    HW216938   3.119   6.307   3.491
 5347SOL     OW16939   0.115   2.063   2.442
 5347SOL    HW116940   0.101   2.123   2.363
 5347SOL    HW216941   0.119   2.118   2.525
 5348SOL     OW16942   0.913   1.533   0.512
 5348SOL    HW116943   0.972   1.550   0.591
 5348SOL    HW216944   0.908   1.434   0.495
 5349SOL     OW16945   0.932   2.338   0.332
 5349SOL    HW116946   1.005   2.307   0.270
 5349SOL    HW216947   0.925   2.437   0.328
 5350SOL     OW16948   2.556   0.321   6.172
 5350SOL    HW116949   2.472   0.292   6.126
 5350SOL    HW216950   2.627   0.341   6.104
 5351SOL     OW16951   4.869   5.700   1.394
 5351SOL    HW116952   4.798   5.761   1.359
 5351SOL    HW216953   4.900   5.732   1.483
 5352SOL     OW16954   2.188   6.011   3.884
 5352SOL    HW116955   2.281   6.043   3.866
 5352SOL    HW216956   2.125   6.050   3.818
 5353SOL     OW16957   4.213   5.958   4.586
 5353SOL    HW116958   4.150   6.032   4.609
 5353SOL    HW216959   4.273   5.987   4.511
 5354SOL     OW16960   2.291   4.455   2.516
 5354SOL    HW116961   2.382   4.443   2.554
 5354SOL    HW216962   2.249   4.538   2.553
 5355SOL     OW16963   4.910   2.377   3.697
 5355SOL    HW116964   4.962   2.292   3.682
 5355SOL    HW216965   4.865   2.404   3.612
 5356SOL     OW16966   6.045   4.278   1.690
 5356SOL    HW116967   6.122   4.342   1.681
 5356SOL    HW216968   5.964   4.319   1.648
 5357SOL     OW16969   3.331   0.930   1.245
 5357SOL    HW116970   3.336   1.030   1.250
 5357SOL    HW216971   3.248   0.904   1.196
 5358SOL     OW16972   4.269   2.342   0.760
 5358SOL    HW116973   4.250   2.358   0.857
 5358SOL    HW216974   4.244   2.422   0.707
 5359SOL     OW16975   2.372   1.734   0.514
 5359SOL    HW116976   2.316   1.750   0.433
 5359SOL    HW216977   2.452   1.794   0.512
 5360SOL     OW16978   3.653   6.654   4.846
 5360SOL    HW116979   3.625   6.567   4.806
 5360SOL    HW216980   3.678   6.640   4.942
 5361SOL     OW16981   2.690   0.691   4.792
 5361SOL    HW116982   2.595   0.683   4.821
 5361SOL    HW216983   2.733   0.769   4.839
 5362SOL     OW16984   5.115   4.625   3.666
 5362SOL    HW116985   5.108   4.714   3.709
 5362SOL    HW216986   5.061   4.624   3.582
 5363SOL     OW16987   1.075   5.974   5.770
 5363SOL    HW116988   1.027   5.887   5.778
 5363SOL    HW216989   1.118   5.996   5.858
 5364SOL     OW16990   6.557   5.409   0.871
 5364SOL    HW116991   6.594   5.446   0.956
 5364SOL    HW216992   6.480   5.464   0.840
 5365SOL     OW16993   4.427   3.059   6.510
 5365SOL    HW116994   4.351   3.124   6.505
 5365SOL    HW216995   4.512   3.105   6.484
 5366SOL     OW16996   5.048   4.917   1.189
 5366SOL    HW116997   5.049   4.995   1.252
 5366SOL    HW216998   4.963   4.866   1.201
 5367SOL     OW16999   0.364   5.122   0.572
 5367SOL    HW117000   0.327   5.029   0.573
 5367SOL    HW217001   0.416   5.138   0.656
 5368SOL     OW17002   5.296   1.376   2.858
 5368SOL    HW117003   5.269   1.313   2.785
 5368SOL    HW217004   5.267   1.338   2.947
 5369SOL     OW17005   2.501   5.829   3.415
 5369SOL    HW117006   2.561   5.817   3.494
 5369SOL    HW217007   2.463   5.921   3.415
 5370SOL     OW17008   4.032   3.088   1.733
 5370SOL    HW117009   4.046   3.151   1.810
 5370SOL    HW217010   3.952   3.118   1.680
 5371SOL     OW17011   1.968   4.212   4.417
 5371SOL    HW117012   2.060   4.203   4.378
 5371SOL    HW217013   1.972   4.272   4.496
 5372SOL     OW17014   2.592   5.364   2.283
 5372SOL    HW117015   2.650   5.327   2.356
 5372SOL    HW217016   2.519   5.299   2.262
 5373SOL     OW17017   3.102   4.937   4.356
 5373SOL    HW117018   3.074   4.950   4.261
 5373SOL    HW217019   3.034   4.881   4.403
 5374SOL     OW17020   1.196   3.428   0.000
 5374SOL    HW117021   1.213   3.364   6.946
 5374SOL    HW217022   1.101   3.461   7.015
 5375SOL     OW17023   0.942   4.816   5.011
 5375SOL    HW117024   0.899   4.726   5.013
 5375SOL    HW217025   0.992   4.831   5.097
 5376SOL     OW17026   1.816   3.242   1.289
 5376SOL    HW117027   1.913   3.222   1.276
 5376SOL    HW217028   1.805   3.308   1.363
 5377SOL     OW17029   6.991   0.251   1.905
 5377SOL    HW117030   0.014   0.248   1.995
 5377SOL    HW217031   7.019   0.171   1.851
 5378SOL     OW17032   6.881   0.570   1.253
 5378SOL    HW117033   6.937   0.639   1.207
 5378SOL    HW217034   6.784   0.592   1.240
 5379SOL     OW17035   0.203   5.361   4.220
 5379SOL    HW117036   0.156   5.352   4.132
 5379SOL    HW217037   0.244   5.452   4.227
 5380SOL     OW17038   2.107   0.756   3.605
 5380SOL    HW117039   2.123   0.840   3.553
 5380SOL    HW217040   2.026   0.709   3.569
 5381SOL     OW17041   6.448   3.497   0.679
 5381SOL    HW117042   6.443   3.562   0.603
 5381SOL    HW217043   6.455   3.404   0.644
 5382SOL     OW17044   3.053   0.158   1.613
 5382SOL    HW117045   3.087   0.117   1.698
 5382SOL    HW217046   3.003   0.089   1.561
 5383SOL     OW17047   2.897   2.316   5.250
 5383SOL    HW117048   2.890   2.342   5.347
 5383SOL    HW217049   2.992   2.322   5.221
 5384SOL     OW17050   6.033   0.351   3.883
 5384SOL    HW117051   6.123   0.388   3.858
 5384SOL    HW217052   6.045   0.277   3.949
 5385SOL     OW17053   3.217   4.100   3.125
 5385SOL    HW117054   3.231   4.167   3.052
 5385SOL    HW217055   3.175   4.017   3.087
 5386SOL     OW17056   4.788   6.182   4.276
 5386SOL    HW117057   4.830   6.094   4.254
 5386SOL    HW217058   4.717   6.203   4.210
 5387SOL     OW17059   1.995   5.898   3.092
 5387SOL    HW117060   1.993   5.954   3.010
 5387SOL    HW217061   2.048   5.944   3.163
 5388SOL     OW17062   5.600   6.294   2.806
 5388SOL    HW117063   5.641   6.384   2.798
 5388SOL    HW217064   5.529   6.283   2.736
 5389SOL     OW17065   5.338   0.872   1.607
 5389SOL    HW117066   5.305   0.812   1.534
 5389SOL    HW217067   5.390   0.819   1.673
 5390SOL     OW17068   4.473   5.411   4.060
 5390SOL    HW117069   4.545   5.341   4.065
 5390SOL    HW217070   4.508   5.492   4.014
 5391SOL     OW17071   2.419   3.067   0.477
 5391SOL    HW117072   2.364   3.044   0.397
 5391SOL    HW217073   2.370   3.039   0.560
 5392SOL     OW17074   6.233   3.678   0.785
 5392SOL    HW117075   6.165   3.664   0.857
 5392SOL    HW217076   6.304   3.607   0.793
 5393SOL     OW17077   6.450   0.111   6.690
 5393SOL    HW117078   6.437   0.046   6.765
 5393SOL    HW217079   6.413   0.200   6.716
 5394SOL     OW17080   0.547   3.836   6.298
 5394SOL    HW117081   0.566   3.765   6.366
 5394SOL    HW217082   0.566   3.800   6.207
 5395SOL     OW17083   4.516   0.745   1.460
 5395SOL    HW117084   4.506   0.811   1.386
 5395SOL    HW217085   4.448   0.763   1.531
 5396SOL     OW17086   5.122   3.254   2.573
 5396SOL    HW117087   5.147   3.273   2.478
 5396SOL    HW217088   5.092   3.338   2.618
 5397SOL     OW17089   0.170   2.865   2.174
 5397SOL    HW117090   0.221   2.939   2.130
 5397SOL    HW217091   0.090   2.903   2.220
 5398SOL     OW17092   3.312   2.215   1.517
 5398SOL    HW117093   3.359   2.303   1.529
 5398SOL    HW217094   3.270   2.188   1.604
 5399SOL     OW17095   2.383   6.520   0.739
 5399SOL    HW117096   2.407   6.594   0.676
 5399SOL    HW217097   2.451   6.515   0.812
 5400SOL     OW17098   3.043   4.235   0.820
 5400SOL    HW117099   3.138   4.206   0.835
 5400SOL    HW217100   3.041   4.307   0.751
 5401SOL     OW17101   5.699   3.369   1.741
 5401SOL    HW117102   5.701   3.274   1.774
 5401SOL    HW217103   5.608   3.389   1.704
 5402SOL     OW17104   2.425   5.798   2.025
 5402SOL    HW117105   2.404   5.782   2.122
 5402SOL    HW217106   2.520   5.771   2.007
 5403SOL     OW17107   6.754   3.210   6.374
 5403SOL    HW117108   6.794   3.146   6.309
 5403SOL    HW217109   6.773   3.304   6.346
 5404SOL     OW17110   1.005   1.913   3.664
 5404SOL    HW117111   0.998   1.996   3.608
 5404SOL    HW217112   0.925   1.855   3.646
 5405SOL     OW17113   6.575   5.460   0.104
 5405SOL    HW117114   6.586   5.448   0.203
 5405SOL    HW217115   6.513   5.390   0.069
 5406SOL     OW17116   2.520   1.562   6.507
 5406SOL    HW117117   2.587   1.523   6.570
 5406SOL    HW217118   2.510   1.502   6.428
 5407SOL     OW17119   4.339   3.358   0.327
 5407SOL    HW117120   4.342   3.290   0.400
 5407SOL    HW217121   4.421   3.351   0.270
 5408SOL     OW17122   2.634   1.185   5.349
 5408SOL    HW117123   2.587   1.130   5.418
 5408SOL    HW217124   2.572   1.204   5.273
 5409SOL     OW17125   5.236   0.077   3.044
 5409SOL    HW117126   5.274   0.164   3.012
 5409SOL    HW217127   5.298   0.003   3.019
 5410SOL     OW17128   2.714   2.439   1.679
 5410SOL    HW117129   2.630   2.428   1.730
 5410SOL    HW217130   2.786   2.473   1.739
 5411SOL     OW17131   6.298   5.226   6.201
 5411SOL    HW117132   6.278   5.157   6.270
 5411SOL    HW217133   6.231   5.220   6.127
 5412SOL     OW17134   4.523   2.414   0.581
 5412SOL    HW117135   4.623   2.425   0.582
 5412SOL    HW217136   4.493   2.377   0.669
 5413SOL     OW17137   2.758   1.116   1.161
 5413SOL    HW117138   2.742   1.213   1.178
 5413SOL    HW217139   2.675   1.064   1.181
 5414SOL     OW17140   5.261   1.933   4.663
 5414SOL    HW117141   5.182   1.986   4.633
 5414SOL    HW217142   5.305   1.981   4.739
 5415SOL     OW17143   0.296   5.933   1.370
 5415SOL    HW117144   0.207   5.941   1.325
 5415SOL    HW217145   0.356   6.007   1.339
 5416SOL     OW17146   4.534   5.389   5.464
 5416SOL    HW117147   4.598   5.367   5.391
 5416SOL    HW217148   4.564   5.472   5.511
 5417SOL     OW17149   3.501   6.535   5.789
 5417SOL    HW117150   3.414   6.536   5.838
 5417SOL    HW217151   3.554   6.616   5.814
 5418SOL     OW17152   3.522   0.162   3.373
 5418SOL    HW117153   3.453   0.097   3.404
 5418SOL    HW217154   3.488   0.210   3.292
 5419SOL     OW17155   3.799   5.075   0.207
 5419SOL    HW117156   3.769   5.022   0.286
 5419SOL    HW217157   3.776   5.026   0.123
 5420SOL     OW17158   1.840   3.504   3.282
 5420SOL    HW117159   1.898   3.468   3.209
 5420SOL    HW217160   1.846   3.444   3.362
 5421SOL     OW17161   1.722   3.544   1.816
 5421SOL    HW117162   1.690   3.597   1.738
 5421SOL    HW217163   1.815   3.573   1.840
 5422SOL     OW17164   0.408   4.769   0.763
 5422SOL    HW117165   0.365   4.821   0.837
 5422SOL    HW217166   0.338   4.722   0.710
 5423SOL     OW17167   6.897   2.787   6.948
 5423SOL    HW117168   6.800   2.806   6.967
 5423SOL    HW217169   6.910   2.780   6.849
 5424SOL     OW17170   5.287   3.015   3.916
 5424SOL    HW117171   5.235   2.931   3.903
 5424SOL    HW217172   5.240   3.073   3.983
 5425SOL     OW17173   4.266   1.011   4.857
 5425SOL    HW117174   4.234   1.072   4.930
 5425SOL    HW217175   4.312   1.064   4.787
 5426SOL     OW17176   6.035   6.071   4.641
 5426SOL    HW117177   5.961   6.103   4.582
 5426SOL    HW217178   6.016   6.095   4.736
 5427SOL     OW17179   5.057   5.834   6.321
 5427SOL    HW117180   5.143   5.783   6.325
 5427SOL    HW217181   5.019   5.842   6.413
 5428SOL     OW17182   6.839   0.089   1.372
 5428SOL    HW117183   6.810   0.174   1.415
 5428SOL    HW217184   6.936   0.073   1.390
 5429SOL     OW17185   2.289   1.920   6.440
 5429SOL    HW117186   2.225   1.863   6.389
 5429SOL    HW217187   2.250   1.941   6.530
 5430SOL     OW17188   0.067   2.443   5.542
 5430SOL    HW117189   0.138   2.511   5.561
 5430SOL    HW217190   0.042   2.448   5.445
 5431SOL     OW17191   3.386   6.119   0.559
 5431SOL    HW117192   3.457   6.113   0.489
 5431SOL    HW217193   3.408   6.057   0.634
 5432SOL     OW17194   5.577   0.463   6.842
 5432SOL    HW117195   5.664   0.440   6.799
 5432SOL    HW217196   5.589   0.539   6.906
 5433SOL     OW17197   0.362   1.917   4.695
 5433SOL    HW117198   0.294   1.846   4.678
 5433SOL    HW217199   0.450   1.875   4.719
 5434SOL     OW17200   3.243   0.633   6.019
 5434SOL    HW117201   3.161   0.576   6.025
 5434SOL    HW217202   3.218   0.729   6.032
 5435SOL     OW17203   5.959   0.072   1.884
 5435SOL    HW117204   5.937   7.000   1.914
 5435SOL    HW217205   5.950   0.078   1.784
 5436SOL     OW17206   5.113   3.921   3.998
 5436SOL    HW117207   5.039   3.874   4.045
 5436SOL    HW217208   5.098   3.919   3.899
 5437SOL     OW17209   2.873   3.797   0.007
 5437SOL    HW117210   2.784   3.837   0.028
 5437SOL    HW217211   2.930   3.800   0.089
 5438SOL     OW17212   6.932   2.230   1.566
 5438SOL    HW117213   6.910   2.248   1.662
 5438SOL    HW217214   6.948   2.316   1.519
 5439SOL     OW17215   1.519   1.678   1.258
 5439SOL    HW117216   1.553   1.766   1.225
 5439SOL    HW217217   1.514   1.614   1.182
 5440SOL     OW17218   0.935   1.066   0.952
 5440SOL    HW117219   0.870   1.030   1.020
 5440SOL    HW217220   1.025   1.075   0.994
 5441SOL     OW17221   3.959   2.030   3.440
 5441SOL    HW117222   3.904   1.979   3.505
 5441SOL    HW217223   3.903   2.058   3.363
 5442SOL     OW17224   4.335   6.665   2.920
 5442SOL    HW117225   4.389   6.656   3.003
 5442SOL    HW217226   4.241   6.636   2.938
 5443SOL     OW17227   3.580   6.885   4.739
 5443SOL    HW117228   3.625   6.871   4.651
 5443SOL    HW217229   3.597   6.806   4.798
 5444SOL     OW17230   0.953   0.761   4.050
 5444SOL    HW117231   0.981   0.819   4.127
 5444SOL    HW217232   0.857   0.778   4.029
 5445SOL     OW17233   6.298   4.145   3.125
 5445SOL    HW117234   6.276   4.105   3.036
 5445SOL    HW217235   6.398   4.156   3.132
 5446SOL     OW17236   6.302   5.483   4.748
 5446SOL    HW117237   6.312   5.551   4.674
 5446SOL    HW217238   6.262   5.400   4.710
 5447SOL     OW17239   2.897   2.399   6.773
 5447SOL    HW117240   2.987   2.443   6.778
 5447SOL    HW217241   2.826   2.469   6.765
 5448SOL     OW17242   4.175   2.637   5.585
 5448SOL    HW117243   4.145   2.691   5.507
 5448SOL    HW217244   4.275   2.625   5.582
 5449SOL     OW17245   1.522   2.838   6.197
 5449SOL    HW117246   1.600   2.897   6.220
 5449SOL    HW217247   1.458   2.836   6.274
 5450SOL     OW17248   2.291   0.531   1.636
 5450SOL    HW117249   2.359   0.595   1.599
 5450SOL    HW217250   2.325   0.438   1.628
 5451SOL     OW17251   1.870   6.398   3.462
 5451SOL    HW117252   1.871   6.488   3.417
 5451SOL    HW217253   1.920   6.403   3.548
 5452SOL     OW17254   2.260   4.697   6.911
 5452SOL    HW117255   2.227   4.603   6.910
 5452SOL    HW217256   2.339   4.704   6.973
 5453SOL     OW17257   6.129   4.143   0.566
 5453SOL    HW117258   6.111   4.224   0.622
 5453SOL    HW217259   6.127   4.169   0.469
 5454SOL     OW17260   6.775   3.955   7.015
 5454SOL    HW117261   6.825   3.903   6.946
 5454SOL    HW217262   6.833   3.966   0.076
 5455SOL     OW17263   6.691   2.959   6.740
 5455SOL    HW117264   6.760   3.011   6.691
 5455SOL    HW217265   6.650   2.892   6.678
 5456SOL     OW17266   3.527   6.816   6.807
 5456SOL    HW117267   3.453   6.879   6.781
 5456SOL    HW217268   3.614   6.866   6.808
 5457SOL     OW17269   5.241   2.064   1.065
 5457SOL    HW117270   5.340   2.075   1.076
 5457SOL    HW217271   5.211   1.982   1.113
 5458SOL     OW17272   0.956   4.475   6.901
 5458SOL    HW117273   1.042   4.475   6.851
 5458SOL    HW217274   0.970   4.440   6.993
 5459SOL     OW17275   1.652   5.429   0.682
 5459SOL    HW117276   1.669   5.386   0.593
 5459SOL    HW217277   1.727   5.406   0.744
 5460SOL     OW17278   3.235   0.240   2.170
 5460SOL    HW117279   3.177   0.234   2.089
 5460SOL    HW217280   3.189   0.197   2.248
 5461SOL     OW17281   5.999   6.218   4.935
 5461SOL    HW117282   5.927   6.151   4.955
 5461SOL    HW217283   5.957   6.308   4.919
 5462SOL     OW17284   1.808   0.645   0.596
 5462SOL    HW117285   1.862   0.574   0.551
 5462SOL    HW217286   1.716   0.610   0.613
 5463SOL     OW17287   5.999   2.026   0.251
 5463SOL    HW117288   6.094   2.058   0.246
 5463SOL    HW217289   5.948   2.061   0.173
 5464SOL     OW17290   1.387   0.560   4.201
 5464SOL    HW117291   1.353   0.654   4.203
 5464SOL    HW217292   1.485   0.559   4.218
 5465SOL     OW17293   3.417   6.485   3.381
 5465SOL    HW117294   3.349   6.421   3.418
 5465SOL    HW217295   3.370   6.569   3.351
 5466SOL     OW17296   5.975   4.535   4.775
 5466SOL    HW117297   5.983   4.490   4.686
 5466SOL    HW217298   6.046   4.500   4.836
 5467SOL     OW17299   5.161   2.068   2.933
 5467SOL    HW117300   5.214   1.997   2.887
 5467SOL    HW217301   5.141   2.039   3.027
 5468SOL     OW17302   5.011   1.500   4.420
 5468SOL    HW117303   5.008   1.412   4.372
 5468SOL    HW217304   5.016   1.483   4.518
 5469SOL     OW17305   3.921   5.213   6.520
 5469SOL    HW117306   3.884   5.226   6.612
 5469SOL    HW217307   3.846   5.203   6.455
 5470SOL     OW17308   2.067   5.397   3.130
 5470SOL    HW117309   2.069   5.490   3.167
 5470SOL    HW217310   1.983   5.352   3.158
 5471SOL     OW17311   5.824   6.783   1.061
 5471SOL    HW117312   5.891   6.713   1.038
 5471SOL    HW217313   5.848   6.825   1.148
 5472SOL     OW17314   4.471   4.398   6.159
 5472SOL    HW117315   4.503   4.429   6.249
 5472SOL    HW217316   4.389   4.341   6.171
 5473SOL     OW17317   0.731   3.415   3.353
 5473SOL    HW117318   0.667   3.400   3.429
 5473SOL    HW217319   0.823   3.429   3.390
 5474SOL     OW17320   1.604   4.503   4.558
 5474SOL    HW117321   1.675   4.490   4.627
 5474SOL    HW217322   1.624   4.446   4.479
 5475SOL     OW17323   3.634   2.623   1.263
 5475SOL    HW117324   3.581   2.695   1.307
 5475SOL    HW217325   3.651   2.648   1.168
 5476SOL     OW17326   2.048   3.642   6.225
 5476SOL    HW117327   2.110   3.624   6.301
 5476SOL    HW217328   2.101   3.653   6.141
 5477SOL     OW17329   2.185   3.944   3.678
 5477SOL    HW117330   2.252   3.996   3.624
 5477SOL    HW217331   2.127   4.008   3.729
 5478SOL     OW17332   5.557   5.627   5.621
 5478SOL    HW117333   5.538   5.713   5.575
 5478SOL    HW217334   5.480   5.564   5.608
 5479SOL     OW17335   4.777   0.860   5.424
 5479SOL    HW117336   4.800   0.842   5.520
 5479SOL    HW217337   4.679   0.846   5.410
 5480SOL     OW17338   0.900   3.645   3.803
 5480SOL    HW117339   0.969   3.592   3.852
 5480SOL    HW217340   0.941   3.730   3.769
 5481SOL     OW17341   3.158   0.275   4.459
 5481SOL    HW117342   3.068   0.312   4.434
 5481SOL    HW217343   3.197   0.229   4.379
 5482SOL     OW17344   3.837   4.417   1.579
 5482SOL    HW117345   3.795   4.504   1.608
 5482SOL    HW217346   3.820   4.403   1.481
 5483SOL     OW17347   0.534   3.303   5.245
 5483SOL    HW117348   0.589   3.221   5.233
 5483SOL    HW217349   0.479   3.294   5.328
 5484SOL     OW17350   4.728   0.265   5.056
 5484SOL    HW117351   4.736   0.269   5.155
 5484SOL    HW217352   4.633   0.282   5.029
 5485SOL     OW17353   2.714   6.829   5.465
 5485SOL    HW117354   2.736   6.847   5.561
 5485SOL    HW217355   2.662   6.744   5.458
 5486SOL     OW17356   2.440   5.870   5.056
 5486SOL    HW117357   2.536   5.868   5.085
 5486SOL    HW217358   2.384   5.822   5.124
 5487SOL     OW17359   3.108   4.535   5.811
 5487SOL    HW117360   3.068   4.444   5.797
 5487SOL    HW217361   3.041   4.605   5.787
 5488SOL     OW17362   6.658   1.208   0.551
 5488SOL    HW117363   6.688   1.149   0.626
 5488SOL    HW217364   6.629   1.297   0.588
 5489SOL     OW17365   6.725   3.098   2.224
 5489SOL    HW117366   6.695   3.148   2.143
 5489SOL    HW217367   6.707   3.152   2.306
 5490SOL     OW17368   1.518   6.677   2.497
 5490SOL    HW117369   1.447   6.716   2.439
 5490SOL    HW217370   1.512   6.716   2.589
 5491SOL     OW17371   6.812   3.029   0.259
 5491SOL    HW117372   6.805   3.108   0.321
 5491SOL    HW217373   6.754   3.044   0.180
 5492SOL     OW17374   0.792   3.172   5.452
 5492SOL    HW117375   0.890   3.150   5.457
 5492SOL    HW217376   0.746   3.139   5.535
 5493SOL     OW17377   4.168   3.588   2.191
 5493SOL    HW117378   4.095   3.608   2.257
 5493SOL    HW217379   4.253   3.567   2.240
 5494SOL     OW17380   5.951   4.437   5.406
 5494SOL    HW117381   6.021   4.386   5.456
 5494SOL    HW217382   5.969   4.535   5.414
 5495SOL     OW17383   6.040   0.673   0.570
 5495SOL    HW117384   6.104   0.608   0.611
 5495SOL    HW217385   6.065   0.689   0.474
 5496SOL     OW17386   4.427   0.556   4.387
 5496SOL    HW117387   4.419   0.462   4.353
 5496SOL    HW217388   4.520   0.589   4.370
 5497SOL     OW17389   0.310   0.699   5.839
 5497SOL    HW117390   0.278   0.765   5.906
 5497SOL    HW217391   0.232   0.662   5.789
 5498SOL     OW17392   0.280   4.914   1.520
 5498SOL    HW117393   0.214   4.843   1.496
 5498SOL    HW217394   0.278   4.928   1.620
 5499SOL     OW17395   0.196   0.760   4.050
 5499SOL    HW117396   0.198   0.776   3.952
 5499SOL    HW217397   0.285   0.783   4.090
 5500SOL     OW17398   1.838   0.731   0.111
 5500SOL    HW117399   1.743   0.760   0.095
 5500SOL    HW217400   1.840   0.636   0.140
 5501SOL     OW17401   3.995   2.029   0.402
 5501SOL    HW117402   4.046   1.976   0.471
 5501SOL    HW217403   3.907   1.986   0.385
 5502SOL     OW17404   5.234   3.554   6.122
 5502SOL    HW117405   5.325   3.571   6.084
 5502SOL    HW217406   5.197   3.469   6.084
 5503SOL     OW17407   0.176   3.644   0.248
 5503SOL    HW117408   0.176   3.605   0.340
 5503SOL    HW217409   0.269   3.648   0.214
 5504SOL     OW17410   3.848   1.038   6.755
 5504SOL    HW117411   3.872   1.099   6.830
 5504SOL    HW217412   3.931   0.994   6.720
 5505SOL     OW17413   2.252   4.076   4.068
 5505SOL    HW117414   2.205   3.991   4.046
 5505SOL    HW217415   2.301   4.109   3.987
 5506SOL     OW17416   0.647   3.668   6.112
 5506SOL    HW117417   0.675   3.709   6.024
 5506SOL    HW217418   0.710   3.594   6.135
 5507SOL     OW17419   3.040   0.277   6.241
 5507SOL    HW117420   3.129   0.236   6.258
 5507SOL    HW217421   2.996   0.230   6.164
 5508SOL     OW17422   1.074   1.099   6.682
 5508SOL    HW117423   1.169   1.108   6.712
 5508SOL    HW217424   1.071   1.093   6.582
 5509SOL     OW17425   7.013   5.336   1.043
 5509SOL    HW117426   6.968   5.390   1.114
 5509SOL    HW217427   6.944   5.297   0.982
 5510SOL     OW17428   4.604   5.629   6.952
 5510SOL    HW117429   4.627   5.579   6.868
 5510SOL    HW217430   4.683   5.682   6.982
 5511SOL     OW17431   0.301   1.770   5.043
 5511SOL    HW117432   0.238   1.758   4.967
 5511SOL    HW217433   0.303   1.688   5.099
 5512SOL     OW17434   3.466   1.262   2.112
 5512SOL    HW117435   3.377   1.215   2.112
 5512SOL    HW217436   3.536   1.201   2.151
 5513SOL     OW17437   4.457   4.710   6.474
 5513SOL    HW117438   4.386   4.685   6.540
 5513SOL    HW217439   4.470   4.809   6.476
 5514SOL     OW17440   2.943   6.539   5.495
 5514SOL    HW117441   2.983   6.449   5.509
 5514SOL    HW217442   3.012   6.600   5.455
 5515SOL     OW17443   1.924   5.808   1.856
 5515SOL    HW117444   1.968   5.728   1.897
 5515SOL    HW217445   1.990   5.857   1.799
 5516SOL     OW17446   2.407   2.875   5.361
 5516SOL    HW117447   2.430   2.804   5.295
 5516SOL    HW217448   2.407   2.964   5.316
 5517SOL     OW17449   1.811   3.802   2.802
 5517SOL    HW117450   1.895   3.779   2.753
 5517SOL    HW217451   1.813   3.761   2.893
 5518SOL     OW17452   4.924   4.497   5.470
 5518SOL    HW117453   4.857   4.508   5.544
 5518SOL    HW217454   4.999   4.562   5.484
 5519SOL     OW17455   4.550   2.605   3.662
 5519SOL    HW117456   4.584   2.659   3.585
 5519SOL    HW217457   4.467   2.557   3.635
 5520SOL     OW17458   5.522   6.589   2.214
 5520SOL    HW117459   5.544   6.533   2.294
 5520SOL    HW217460   5.501   6.682   2.243
 5521SOL     OW17461   5.776   5.160   1.997
 5521SOL    HW117462   5.839   5.084   1.983
 5521SOL    HW217463   5.822   5.233   2.048
 5522SOL     OW17464   5.669   5.239   1.223
 5522SOL    HW117465   5.640   5.299   1.297
 5522SOL    HW217466   5.594   5.227   1.158
 5523SOL     OW17467   6.006   1.431   2.486
 5523SOL    HW117468   5.906   1.437   2.490
 5523SOL    HW217469   6.033   1.374   2.409
 5524SOL     OW17470   3.103   0.428   4.911
 5524SOL    HW117471   3.007   0.439   4.884
 5524SOL    HW217472   3.162   0.459   4.836
 5525SOL     OW17473   6.844   2.973   1.221
 5525SOL    HW117474   6.914   3.021   1.167
 5525SOL    HW217475   6.820   3.029   1.300
 5526SOL     OW17476   4.751   4.438   3.265
 5526SOL    HW117477   4.832   4.496   3.257
 5526SOL    HW217478   4.675   4.492   3.302
 5527SOL     OW17479   5.015   2.822   4.295
 5527SOL    HW117480   5.073   2.831   4.376
 5527SOL    HW217481   4.925   2.861   4.314
 5528SOL     OW17482   1.269   1.682   1.394
 5528SOL    HW117483   1.244   1.767   1.347
 5528SOL    HW217484   1.354   1.647   1.356
 5529SOL     OW17485   3.114   0.421   2.835
 5529SOL    HW117486   3.036   0.483   2.831
 5529SOL    HW217487   3.086   0.330   2.803
 5530SOL     OW17488   6.722   2.139   1.384
 5530SOL    HW117489   6.804   2.157   1.439
 5530SOL    HW217490   6.729   2.187   1.297
 5531SOL     OW17491   3.868   3.746   1.423
 5531SOL    HW117492   3.939   3.719   1.358
 5531SOL    HW217493   3.884   3.701   1.510
 5532SOL     OW17494   1.809   2.586   1.630
 5532SOL    HW117495   1.902   2.553   1.645
 5532SOL    HW217496   1.805   2.639   1.545
 5533SOL     OW17497   4.288   1.788   4.230
 5533SOL    HW117498   4.239   1.875   4.226
 5533SOL    HW217499   4.224   1.714   4.207
 5534SOL     OW17500   0.781   1.517   5.351
 5534SOL    HW117501   0.705   1.525   5.287
 5534SOL    HW217502   0.827   1.606   5.360
 5535SOL     OW17503   1.109   1.535   3.073
 5535SOL    HW117504   1.201   1.509   3.102
 5535SOL    HW217505   1.063   1.456   3.034
 5536SOL     OW17506   3.002   1.078   4.912
 5536SOL    HW117507   3.092   1.082   4.954
 5536SOL    HW217508   2.934   1.053   4.982
 5537SOL     OW17509   3.152   1.037   2.803
 5537SOL    HW117510   3.142   0.951   2.852
 5537SOL    HW217511   3.154   1.113   2.868
 5538SOL     OW17512   4.772   5.552   4.728
 5538SOL    HW117513   4.848   5.566   4.665
 5538SOL    HW217514   4.686   5.550   4.677
 5539SOL     OW17515   2.372   2.649   0.932
 5539SOL    HW117516   2.454   2.602   0.900
 5539SOL    HW217517   2.290   2.602   0.899
 5540SOL     OW17518   5.198   5.281   2.848
 5540SOL    HW117519   5.119   5.220   2.849
 5540SOL    HW217520   5.176   5.366   2.896
 5541SOL     OW17521   5.030   1.247   5.760
 5541SOL    HW117522   5.044   1.245   5.661
 5541SOL    HW217523   5.009   1.341   5.788
 5542SOL     OW17524   4.104   4.891   6.181
 5542SOL    HW117525   4.194   4.854   6.204
 5542SOL    HW217526   4.073   4.851   6.094
 5543SOL     OW17527   6.338   2.971   6.242
 5543SOL    HW117528   6.250   2.972   6.194
 5543SOL    HW217529   6.334   2.905   6.317
 5544SOL     OW17530   5.846   0.732   5.646
 5544SOL    HW117531   5.860   0.830   5.658
 5544SOL    HW217532   5.755   0.707   5.678
 5545SOL     OW17533   3.788   2.039   2.193
 5545SOL    HW117534   3.780   2.120   2.135
 5545SOL    HW217535   3.801   1.958   2.135
 5546SOL     OW17536   2.046   5.047   5.767
 5546SOL    HW117537   2.077   5.048   5.672
 5546SOL    HW217538   1.964   5.104   5.775
 5547SOL     OW17539   3.009   5.012   5.359
 5547SOL    HW117540   2.941   4.958   5.310
 5547SOL    HW217541   3.089   5.026   5.300
 5548SOL     OW17542   6.635   3.499   5.407
 5548SOL    HW117543   6.679   3.457   5.327
 5548SOL    HW217544   6.634   3.598   5.396
 5549SOL     OW17545   2.675   5.045   0.299
 5549SOL    HW117546   2.579   5.021   0.312
 5549SOL    HW217547   2.689   5.080   0.206
 5550SOL     OW17548   3.965   6.319   1.255
 5550SOL    HW117549   4.059   6.349   1.269
 5550SOL    HW217550   3.905   6.398   1.247
 5551SOL     OW17551   0.921   1.175   3.250
 5551SOL    HW117552   1.000   1.231   3.276
 5551SOL    HW217553   0.931   1.084   3.289
 5552SOL     OW17554   0.228   2.504   1.333
 5552SOL    HW117555   0.165   2.470   1.262
 5552SOL    HW217556   0.175   2.534   1.412
 5553SOL     OW17557   5.608   6.107   0.664
 5553SOL    HW117558   5.615   6.011   0.693
 5553SOL    HW217559   5.691   6.134   0.616
 5554SOL     OW17560   2.926   2.181   4.889
 5554SOL    HW117561   3.009   2.223   4.924
 5554SOL    HW217562   2.859   2.174   4.962
 5555SOL     OW17563   0.420   5.337   3.509
 5555SOL    HW117564   0.393   5.250   3.551
 5555SOL    HW217565   0.452   5.320   3.416
 5556SOL     OW17566   0.512   2.135   5.043
 5556SOL    HW117567   0.510   2.175   4.952
 5556SOL    HW217568   0.524   2.036   5.035
 5557SOL     OW17569   1.819   0.082   3.880
 5557SOL    HW117570   1.813   0.182   3.882
 5557SOL    HW217571   1.896   0.054   3.822
 5558SOL     OW17572   5.120   3.060   5.299
 5558SOL    HW117573   5.079   2.985   5.350
 5558SOL    HW217574   5.089   3.148   5.336
 5559SOL     OW17575   2.149   0.444   0.897
 5559SOL    HW117576   2.172   0.500   0.977
 5559SOL    HW217577   2.063   0.476   0.858
 5560SOL     OW17578   0.217   0.827   3.790
 5560SOL    HW117579   0.129   0.873   3.804
 5560SOL    HW217580   0.284   0.893   3.757
 5561SOL     OW17581   1.458   2.436   3.630
 5561SOL    HW117582   1.469   2.464   3.535
 5561SOL    HW217583   1.540   2.385   3.659
 5562SOL     OW17584   2.492   2.946   6.193
 5562SOL    HW117585   2.455   3.017   6.254
 5562SOL    HW217586   2.422   2.876   6.179
 5563SOL     OW17587   4.556   5.940   1.690
 5563SOL    HW117588   4.621   6.000   1.642
 5563SOL    HW217589   4.463   5.960   1.659
 5564SOL     OW17590   5.377   4.100   1.857
 5564SOL    HW117591   5.311   4.154   1.910
 5564SOL    HW217592   5.424   4.036   1.918
 5565SOL     OW17593   3.431   3.118   5.543
 5565SOL    HW117594   3.527   3.137   5.520
 5565SOL    HW217595   3.371   3.165   5.479
 5566SOL     OW17596   1.803   4.954   1.191
 5566SOL    HW117597   1.771   4.936   1.284
 5566SOL    HW217598   1.894   4.993   1.194
 5567SOL     OW17599   1.366   5.437   1.919
 5567SOL    HW117600   1.306   5.455   1.840
 5567SOL    HW217601   1.460   5.425   1.887
 5568SOL     OW17602   3.298   1.894   1.355
 5568SOL    HW117603   3.330   1.832   1.283
 5568SOL    HW217604   3.359   1.888   1.434
 5569SOL     OW17605   4.996   1.419   0.153
 5569SOL    HW117606   4.954   1.336   0.189
 5569SOL    HW217607   5.046   1.397   0.069
 5570SOL     OW17608   7.007   4.147   5.983
 5570SOL    HW117609   6.926   4.104   5.943
 5570SOL    HW217610   0.064   4.136   5.920
 5571SOL     OW17611   6.914   4.915   6.807
 5571SOL    HW117612   6.825   4.869   6.805
 5571SOL    HW217613   6.911   4.989   6.874
 5572SOL     OW17614   4.948   2.334   6.406
 5572SOL    HW117615   4.873   2.400   6.394
 5572SOL    HW217616   4.954   2.307   6.502
 5573SOL     OW17617   1.230   3.784   0.599
 5573SOL    HW117618   1.218   3.883   0.601
 5573SOL    HW217619   1.142   3.740   0.616
 5574SOL     OW17620   0.663   6.217   4.679
 5574SOL    HW117621   0.748   6.268   4.666
 5574SOL    HW217622   0.685   6.123   4.708
 5575SOL     OW17623   1.483   0.945   0.804
 5575SOL    HW117624   1.422   0.995   0.742
 5575SOL    HW217625   1.549   0.893   0.750
 5576SOL     OW17626   5.968   6.122   7.009
 5576SOL    HW117627   5.897   6.167   6.955
 5576SOL    HW217628   5.958   6.023   7.003
 5577SOL     OW17629   2.287   4.175   5.513
 5577SOL    HW117630   2.209   4.122   5.480
 5577SOL    HW217631   2.339   4.119   5.578
 5578SOL     OW17632   4.325   2.785   6.948
 5578SOL    HW117633   4.318   2.819   6.855
 5578SOL    HW217634   4.407   2.727   6.957
 5579SOL     OW17635   5.025   4.181   6.758
 5579SOL    HW117636   4.955   4.117   6.727
 5579SOL    HW217637   5.016   4.195   6.857
 5580SOL     OW17638   5.918   1.429   0.731
 5580SOL    HW117639   5.918   1.330   0.743
 5580SOL    HW217640   6.010   1.464   0.749
 5581SOL     OW17641   2.527   2.043   6.703
 5581SOL    HW117642   2.476   2.106   6.644
 5581SOL    HW217643   2.590   2.095   6.761
 5582SOL     OW17644   3.980   3.385   3.495
 5582SOL    HW117645   3.916   3.436   3.551
 5582SOL    HW217646   3.991   3.293   3.531
 5583SOL     OW17647   4.149   6.828   1.334
 5583SOL    HW117648   4.089   6.901   1.303
 5583SOL    HW217649   4.130   6.808   1.430
 5584SOL     OW17650   6.599   2.968   3.255
 5584SOL    HW117651   6.598   2.869   3.269
 5584SOL    HW217652   6.690   2.997   3.223
 5585SOL     OW17653   6.091   0.338   4.318
 5585SOL    HW117654   6.030   0.412   4.291
 5585SOL    HW217655   6.172   0.337   4.260
 5586SOL     OW17656   2.074   0.940   6.175
 5586SOL    HW117657   1.984   0.904   6.200
 5586SOL    HW217658   2.064   1.008   6.103
 5587SOL     OW17659   3.464   0.336   4.029
 5587SOL    HW117660   3.454   0.276   3.949
 5587SOL    HW217661   3.483   0.430   3.998
 5588SOL     OW17662   3.740   0.037   6.284
 5588SOL    HW117663   3.718   0.002   6.193
 5588SOL    HW217664   3.675   0.000   6.350
 5589SOL     OW17665   4.506   2.948   0.070
 5589SOL    HW117666   4.456   2.980   0.151
 5589SOL    HW217667   4.469   2.860   0.041
 5590SOL     OW17668   6.927   6.071   3.763
 5590SOL    HW117669   7.015   6.055   3.807
 5590SOL    HW217670   6.868   5.991   3.776
 5591SOL     OW17671   4.718   1.219   0.443
 5591SOL    HW117672   4.674   1.218   0.533
 5591SOL    HW217673   4.745   1.126   0.418
 5592SOL     OW17674   1.899   2.607   2.734
 5592SOL    HW117675   1.887   2.647   2.825
 5592SOL    HW217676   1.834   2.533   2.721
 5593SOL     OW17677   1.589   3.111   5.771
 5593SOL    HW117678   1.526   3.058   5.827
 5593SOL    HW217679   1.683   3.091   5.798
 5594SOL     OW17680   2.009   0.749   6.905
 5594SOL    HW117681   1.963   0.765   6.993
 5594SOL    HW217682   1.983   0.660   6.869
 5595SOL     OW17683   6.449   2.417   5.927
 5595SOL    HW117684   6.474   2.429   6.023
 5595SOL    HW217685   6.492   2.334   5.892
 5596SOL     OW17686   4.599   1.188   3.442
 5596SOL    HW117687   4.537   1.145   3.377
 5596SOL    HW217688   4.578   1.286   3.449
 5597SOL     OW17689   6.982   1.168   6.085
 5597SOL    HW117690   6.989   1.077   6.044
 5597SOL    HW217691   6.929   1.163   6.169
 5598SOL     OW17692   6.824   2.561   4.218
 5598SOL    HW117693   6.895   2.491   4.212
 5598SOL    HW217694   6.774   2.565   4.131
 5599SOL     OW17695   5.105   2.942   3.285
 5599SOL    HW117696   5.054   2.993   3.215
 5599SOL    HW217697   5.151   3.006   3.346
 5600SOL     OW17698   2.646   1.530   2.550
 5600SOL    HW117699   2.717   1.543   2.620
 5600SOL    HW217700   2.664   1.591   2.473
 5601SOL     OW17701   5.600   2.468   5.574
 5601SOL    HW117702   5.602   2.369   5.559
 5601SOL    HW217703   5.568   2.514   5.491
 5602SOL     OW17704   6.886   2.297   2.539
 5602SOL    HW117705   6.972   2.306   2.590
 5602SOL    HW217706   6.832   2.222   2.577
 5603SOL     OW17707   4.105   1.704   5.039
 5603SOL    HW117708   4.197   1.707   5.078
 5603SOL    HW217709   4.095   1.622   4.983
 5604SOL     OW17710   1.052   0.617   4.386
 5604SOL    HW117711   0.999   0.566   4.318
 5604SOL    HW217712   1.008   0.608   4.475
 5605SOL     OW17713   3.209   6.337   4.463
 5605SOL    HW117714   3.284   6.385   4.508
 5605SOL    HW217715   3.197   6.373   4.370
 5606SOL     OW17716   4.362   2.612   0.636
 5606SOL    HW117717   4.434   2.546   0.615
 5606SOL    HW217718   4.309   2.630   0.553
 5607SOL     OW17719   6.354   2.434   2.728
 5607SOL    HW117720   6.445   2.413   2.692
 5607SOL    HW217721   6.300   2.478   2.656
 5608SOL     OW17722   5.018   0.631   3.596
 5608SOL    HW117723   5.026   0.637   3.496
 5608SOL    HW217724   4.951   0.698   3.628
 5609SOL     OW17725   6.900   0.087   0.736
 5609SOL    HW117726   6.929   0.145   0.812
 5609SOL    HW217727   6.936   0.124   0.650
 5610SOL     OW17728   5.388   4.405   0.458
 5610SOL    HW117729   5.452   4.441   0.526
 5610SOL    HW217730   5.376   4.471   0.384
 5611SOL     OW17731   6.602   4.632   1.392
 5611SOL    HW117732   6.608   4.545   1.343
 5611SOL    HW217733   6.613   4.615   1.490
 5612SOL     OW17734   2.980   1.441   0.353
 5612SOL    HW117735   2.993   1.359   0.296
 5612SOL    HW217736   2.949   1.517   0.296
 5613SOL     OW17737   6.405   5.123   5.710
 5613SOL    HW117738   6.457   5.181   5.774
 5613SOL    HW217739   6.466   5.086   5.641
 5614SOL     OW17740   5.596   2.557   4.020
 5614SOL    HW117741   5.509   2.556   4.069
 5614SOL    HW217742   5.633   2.465   4.014
 5615SOL     OW17743   0.199   2.981   2.911
 5615SOL    HW117744   0.136   2.914   2.951
 5615SOL    HW217745   0.157   3.071   2.914
 5616SOL     OW17746   1.265   3.160   2.394
 5616SOL    HW117747   1.241   3.135   2.300
 5616SOL    HW217748   1.242   3.085   2.456
 5617SOL     OW17749   2.129   5.077   6.036
 5617SOL    HW117750   2.111   5.053   5.941
 5617SOL    HW217751   2.228   5.073   6.054
 5618SOL     OW17752   6.310   6.032   3.159
 5618SOL    HW117753   6.336   6.106   3.096
 5618SOL    HW217754   6.391   5.979   3.183
 5619SOL     OW17755   3.700   2.922   3.849
 5619SOL    HW117756   3.603   2.914   3.874
 5619SOL    HW217757   3.754   2.858   3.903
 5620SOL     OW17758   5.082   4.500   5.061
 5620SOL    HW117759   5.076   4.401   5.075
 5620SOL    HW217760   5.003   4.544   5.104
 5621SOL     OW17761   1.507   2.346   5.512
 5621SOL    HW117762   1.425   2.340   5.456
 5621SOL    HW217763   1.580   2.389   5.460
 5622SOL     OW17764   4.588   6.199   4.472
 5622SOL    HW117765   4.639   6.155   4.545
 5622SOL    HW217766   4.648   6.216   4.394
 5623SOL     OW17767   4.973   5.521   3.450
 5623SOL    HW117768   5.029   5.600   3.426
 5623SOL    HW217769   4.877   5.549   3.456
 5624SOL     OW17770   6.519   5.537   4.189
 5624SOL    HW117771   6.544   5.465   4.124
 5624SOL    HW217772   6.477   5.495   4.270
 5625SOL     OW17773   0.845   6.374   5.080
 5625SOL    HW117774   0.860   6.282   5.043
 5625SOL    HW217775   0.894   6.384   5.166
 5626SOL     OW17776   0.960   4.494   5.926
 5626SOL    HW117777   0.965   4.451   5.836
 5626SOL    HW217778   1.052   4.502   5.964
 5627SOL     OW17779   0.844   5.920   0.061
 5627SOL    HW117780   0.860   5.863   7.001
 5627SOL    HW217781   0.864   5.867   0.144
 5628SOL     OW17782   2.498   2.465   1.847
 5628SOL    HW117783   2.532   2.404   1.919
 5628SOL    HW217784   2.516   2.560   1.873
 5629SOL     OW17785   5.366   3.443   1.981
 5629SOL    HW117786   5.307   3.514   2.020
 5629SOL    HW217787   5.452   3.484   1.952
 5630SOL     OW17788   1.467   4.353   6.839
 5630SOL    HW117789   1.422   4.374   6.752
 5630SOL    HW217790   1.399   4.332   6.909
 5631SOL     OW17791   4.236   1.561   1.688
 5631SOL    HW117792   4.218   1.617   1.769
 5631SOL    HW217793   4.228   1.617   1.606
 5632SOL     OW17794   5.280   6.930   5.797
 5632SOL    HW117795   5.331   7.000   5.746
 5632SOL    HW217796   5.234   6.972   5.875
 5633SOL     OW17797   0.726   4.935   5.929
 5633SOL    HW117798   0.715   5.016   5.986
 5633SOL    HW217799   0.678   4.949   5.842
 5634SOL     OW17800   2.421   0.049   1.206
 5634SOL    HW117801   2.480   7.007   1.156
 5634SOL    HW217802   2.457   0.142   1.198
 5635SOL     OW17803   2.092   0.895   6.651
 5635SOL    HW117804   2.135   0.902   6.740
 5635SOL    HW217805   2.150   0.938   6.582
 5636SOL     OW17806   5.999   1.651   5.675
 5636SOL    HW117807   6.068   1.706   5.722
 5636SOL    HW217808   6.011   1.658   5.576
 5637SOL     OW17809   4.534   6.540   4.588
 5637SOL    HW117810   4.598   6.607   4.626
 5637SOL    HW217811   4.569   6.506   4.501
 5638SOL     OW17812   6.142   5.636   1.215
 5638SOL    HW117813   6.209   5.566   1.190
 5638SOL    HW217814   6.188   5.724   1.223
 5639SOL     OW17815   1.496   0.345   0.948
 5639SOL    HW117816   1.433   0.296   1.008
 5639SOL    HW217817   1.473   0.325   0.852
 5640SOL     OW17818   2.790   5.764   2.835
 5640SOL    HW117819   2.699   5.806   2.845
 5640SOL    HW217820   2.784   5.687   2.772
 5641SOL     OW17821   1.170   4.207   4.295
 5641SOL    HW117822   1.162   4.127   4.235
 5641SOL    HW217823   1.096   4.205   4.363
 5642SOL     OW17824   1.653   4.912   6.967
 5642SOL    HW117825   1.715   4.834   6.973
 5642SOL    HW217826   1.662   4.968   0.029
 5643SOL     OW17827   4.437   2.221   5.030
 5643SOL    HW117828   4.364   2.288   5.013
 5643SOL    HW217829   4.397   2.131   5.041
 5644SOL     OW17830   4.444   0.781   4.838
 5644SOL    HW117831   4.391   0.863   4.819
 5644SOL    HW217832   4.381   0.704   4.855
 5645SOL     OW17833   5.453   5.489   4.609
 5645SOL    HW117834   5.379   5.468   4.673
 5645SOL    HW217835   5.500   5.572   4.639
 5646SOL     OW17836   0.377   5.949   4.523
 5646SOL    HW117837   0.349   5.986   4.611
 5646SOL    HW217838   0.464   5.901   4.533
 5647SOL     OW17839   5.649   5.167   5.953
 5647SOL    HW117840   5.679   5.158   6.048
 5647SOL    HW217841   5.570   5.109   5.937
 5648SOL     OW17842   1.731   1.782   4.494
 5648SOL    HW117843   1.739   1.684   4.477
 5648SOL    HW217844   1.658   1.820   4.438
 5649SOL     OW17845   0.348   0.984   5.522
 5649SOL    HW117846   0.417   0.979   5.450
 5649SOL    HW217847   0.392   0.983   5.611
 5650SOL     OW17848   6.289   4.946   6.760
 5650SOL    HW117849   6.276   5.026   6.703
 5650SOL    HW217850   6.259   4.864   6.711
 5651SOL     OW17851   6.795   0.408   3.136
 5651SOL    HW117852   6.766   0.320   3.099
 5651SOL    HW217853   6.892   0.422   3.117
 5652SOL     OW17854   4.748   4.888   0.851
 5652SOL    HW117855   4.686   4.950   0.900
 5652SOL    HW217856   4.727   4.794   0.877
 5653SOL     OW17857   1.146   6.007   6.120
 5653SOL    HW117858   1.218   6.070   6.148
 5653SOL    HW217859   1.180   5.913   6.123
 5654SOL     OW17860   6.765   6.256   5.700
 5654SOL    HW117861   6.679   6.306   5.699
 5654SOL    HW217862   6.788   6.227   5.607
 5655SOL     OW17863   6.835   3.300   3.971
 5655SOL    HW117864   6.797   3.309   3.878
 5655SOL    HW217865   6.934   3.299   3.967
 5656SOL     OW17866   3.603   4.644   0.499
 5656SOL    HW117867   3.527   4.633   0.564
 5656SOL    HW217868   3.688   4.615   0.543
 5657SOL     OW17869   3.779   6.942   1.911
 5657SOL    HW117870   3.686   6.980   1.917
 5657SOL    HW217871   3.807   6.908   2.000
 5658SOL     OW17872   4.103   6.864   5.807
 5658SOL    HW117873   4.147   6.800   5.744
 5658SOL    HW217874   4.152   6.951   5.807
 5659SOL     OW17875   3.077   3.995   2.882
 5659SOL    HW117876   3.023   3.989   2.798
 5659SOL    HW217877   3.151   4.061   2.870
 5660SOL     OW17878   5.951   6.779   6.916
 5660SOL    HW117879   5.903   6.856   6.958
 5660SOL    HW217880   6.021   6.746   6.978
 5661SOL     OW17881   6.032   5.690   4.205
 5661SOL    HW117882   6.132   5.692   4.197
 5661SOL    HW217883   6.004   5.739   4.287
 5662SOL     OW17884   2.184   4.673   4.321
 5662SOL    HW117885   2.227   4.681   4.231
 5662SOL    HW217886   2.105   4.612   4.315
 5663SOL     OW17887   1.426   4.515   0.575
 5663SOL    HW117888   1.395   4.462   0.496
 5663SOL    HW217889   1.422   4.458   0.657
 5664SOL     OW17890   0.496   4.334   2.652
 5664SOL    HW117891   0.438   4.266   2.607
 5664SOL    HW217892   0.472   4.426   2.619
 5665SOL     OW17893   2.541   2.804   5.890
 5665SOL    HW117894   2.559   2.777   5.985
 5665SOL    HW217895   2.583   2.738   5.828
 5666SOL     OW17896   5.655   4.166   1.014
 5666SOL    HW117897   5.630   4.071   1.033
 5666SOL    HW217898   5.720   4.198   1.084
 5667SOL     OW17899   0.031   4.849   3.450
 5667SOL    HW117900   0.077   4.831   3.363
 5667SOL    HW217901   6.969   4.902   3.434
 5668SOL     OW17902   5.638   2.203   6.169
 5668SOL    HW117903   5.697   2.267   6.220
 5668SOL    HW217904   5.694   2.139   6.117
 5669SOL     OW17905   0.441   4.497   6.183
 5669SOL    HW117906   0.535   4.497   6.149
 5669SOL    HW217907   0.379   4.475   6.108
 5670SOL     OW17908   0.599   3.892   3.766
 5670SOL    HW117909   0.640   3.983   3.772
 5670SOL    HW217910   0.549   3.884   3.680
 5671SOL     OW17911   1.454   0.906   5.895
 5671SOL    HW117912   1.456   0.998   5.858
 5671SOL    HW217913   1.545   0.866   5.891
 5672SOL     OW17914   4.737   4.830   5.725
 5672SOL    HW117915   4.739   4.810   5.823
 5672SOL    HW217916   4.796   4.908   5.705
 5673SOL     OW17917   0.483   0.406   2.470
 5673SOL    HW117918   0.452   0.395   2.565
 5673SOL    HW217919   0.404   0.404   2.410
 5674SOL     OW17920   6.790   3.226   1.841
 5674SOL    HW117921   6.825   3.308   1.796
 5674SOL    HW217922   6.756   3.162   1.772
 5675SOL     OW17923   4.492   2.304   5.374
 5675SOL    HW117924   4.400   2.332   5.398
 5675SOL    HW217925   4.533   2.371   5.312
 5676SOL     OW17926   2.336   0.399   2.039
 5676SOL    HW117927   2.417   0.383   1.982
 5676SOL    HW217928   2.282   0.473   1.999
 5677SOL     OW17929   6.166   0.722   3.601
 5677SOL    HW117930   6.209   0.676   3.523
 5677SOL    HW217931   6.087   0.667   3.632
 5678SOL     OW17932   2.711   6.590   2.915
 5678SOL    HW117933   2.711   6.533   2.997
 5678SOL    HW217934   2.686   6.533   2.836
 5679SOL     OW17935   2.151   6.910   5.009
 5679SOL    HW117936   2.105   6.940   5.093
 5679SOL    HW217937   2.118   6.820   4.983
 5680SOL     OW17938   1.871   5.754   6.562
 5680SOL    HW117939   1.930   5.824   6.522
 5680SOL    HW217940   1.899   5.664   6.528
 5681SOL     OW17941   1.188   3.038   6.782
 5681SOL    HW117942   1.166   2.945   6.810
 5681SOL    HW217943   1.269   3.037   6.724
 5682SOL     OW17944   1.412   3.673   5.130
 5682SOL    HW117945   1.471   3.651   5.052
 5682SOL    HW217946   1.370   3.763   5.115
 5683SOL     OW17947   3.256   2.493   5.788
 5683SOL    HW117948   3.320   2.569   5.800
 5683SOL    HW217949   3.285   2.416   5.845
 5684SOL     OW17950   3.569   3.910   3.909
 5684SOL    HW117951   3.497   3.897   3.841
 5684SOL    HW217952   3.549   3.855   3.990
 5685SOL     OW17953   6.992   5.054   1.828
 5685SOL    HW117954   6.892   5.059   1.828
 5685SOL    HW217955   0.007   5.118   1.896
 5686SOL     OW17956   3.422   0.155   0.552
 5686SOL    HW117957   3.392   0.062   0.574
 5686SOL    HW217958   3.422   0.167   0.452
 5687SOL     OW17959   4.972   4.866   5.261
 5687SOL    HW117960   4.975   4.942   5.197
 5687SOL    HW217961   4.877   4.842   5.279
 5688SOL     OW17962   5.671   1.824   1.571
 5688SOL    HW117963   5.612   1.760   1.522
 5688SOL    HW217964   5.648   1.918   1.543
 5689SOL     OW17965   3.629   2.158   0.480
 5689SOL    HW117966   3.678   2.149   0.567
 5689SOL    HW217967   3.539   2.199   0.495
 5690SOL     OW17968   5.030   6.291   0.892
 5690SOL    HW117969   5.004   6.345   0.812
 5690SOL    HW217970   5.047   6.351   0.970
 5691SOL     OW17971   1.952   0.261   1.792
 5691SOL    HW117972   1.964   0.359   1.774
 5691SOL    HW217973   2.041   0.220   1.811
 5692SOL     OW17974   6.430   2.710   6.766
 5692SOL    HW117975   6.499   2.672   6.705
 5692SOL    HW217976   6.462   2.798   6.802
 5693SOL     OW17977   4.787   2.422   2.542
 5693SOL    HW117978   4.886   2.422   2.524
 5693SOL    HW217979   4.768   2.482   2.620
 5694SOL     OW17980   0.377   1.661   3.652
 5694SOL    HW117981   0.295   1.662   3.594
 5694SOL    HW217982   0.350   1.658   3.748
 5695SOL     OW17983   1.880   3.346   3.499
 5695SOL    HW117984   1.874   3.303   3.589
 5695SOL    HW217985   1.945   3.422   3.502
 5696SOL     OW17986   2.829   0.435   4.820
 5696SOL    HW117987   2.827   0.423   4.919
 5696SOL    HW217988   2.784   0.521   4.796
 5697SOL     OW17989   6.349   2.368   0.278
 5697SOL    HW117990   6.426   2.367   0.342
 5697SOL    HW217991   6.302   2.456   0.283
 5698SOL     OW17992   0.921   3.585   1.790
 5698SOL    HW117993   0.965   3.653   1.849
 5698SOL    HW217994   0.984   3.558   1.717
 5699SOL     OW17995   5.859   0.715   5.092
 5699SOL    HW117996   5.944   0.685   5.049
 5699SOL    HW217997   5.793   0.640   5.093
 5700SOL     OW17998   1.841   5.985   4.337
 5700SOL    HW117999   1.743   5.991   4.356
 5700SOL    HW218000   1.892   6.037   4.406
 5701SOL     OW18001   6.440   5.165   1.775
 5701SOL    HW118002   6.368   5.197   1.713
 5701SOL    HW218003   6.446   5.065   1.770
 5702SOL     OW18004   2.490   0.446   6.408
 5702SOL    HW118005   2.543   0.390   6.344
 5702SOL    HW218006   2.504   0.411   6.501
 5703SOL     OW18007   4.353   4.957   0.298
 5703SOL    HW118008   4.364   4.963   0.199
 5703SOL    HW218009   4.274   5.012   0.326
 5704SOL     OW18010   4.706   5.301   3.784
 5704SOL    HW118011   4.635   5.299   3.713
 5704SOL    HW218012   4.758   5.386   3.776
 5705SOL     OW18013   5.918   0.328   1.443
 5705SOL    HW118014   5.925   0.423   1.473
 5705SOL    HW218015   5.823   0.307   1.419
 5706SOL     OW18016   0.883   1.252   6.821
 5706SOL    HW118017   0.956   1.195   6.782
 5706SOL    HW218018   0.868   1.226   6.916
 5707SOL     OW18019   2.266   1.605   6.620
 5707SOL    HW118020   2.362   1.620   6.596
 5707SOL    HW218021   2.224   1.692   6.647
 5708SOL     OW18022   4.698   6.835   2.683
 5708SOL    HW118023   4.688   6.909   2.749
 5708SOL    HW218024   4.636   6.850   2.606
 5709SOL     OW18025   0.241   6.857   2.849
 5709SOL    HW118026   0.239   6.840   2.948
 5709SOL    HW218027   0.169   6.805   2.804
 5710SOL     OW18028   3.233   3.047   6.093
 5710SOL    HW118029   3.281   3.034   6.007
 5710SOL    HW218030   3.276   3.122   6.144
 5711SOL     OW18031   4.492   0.979   4.404
 5711SOL    HW118032   4.549   1.040   4.349
 5711SOL    HW218033   4.519   0.884   4.386
 5712SOL     OW18034   0.173   6.120   6.233
 5712SOL    HW118035   0.092   6.130   6.174
 5712SOL    HW218036   0.250   6.086   6.179
 5713SOL     OW18037   6.977   2.723   2.572
 5713SOL    HW118038   0.013   2.801   2.596
 5713SOL    HW218039   6.901   2.715   2.637
 5714SOL     OW18040   1.399   1.193   5.860
 5714SOL    HW118041   1.324   1.167   5.799
 5714SOL    HW218042   1.364   1.253   5.932
 5715SOL     OW18043   1.694   6.472   2.435
 5715SOL    HW118044   1.627   6.420   2.381
 5715SOL    HW218045   1.650   6.552   2.475
 5716SOL     OW18046   1.803   3.751   6.012
 5716SOL    HW118047   1.837   3.709   6.096
 5716SOL    HW218048   1.879   3.766   5.949
 5717SOL     OW18049   1.165   4.186   0.451
 5717SOL    HW118050   1.210   4.273   0.432
 5717SOL    HW218051   1.200   4.147   0.536
 5718SOL     OW18052   3.110   4.805   6.723
 5718SOL    HW118053   3.041   4.876   6.707
 5718SOL    HW218054   3.199   4.838   6.693
 5719SOL     OW18055   3.149   0.552   6.747
 5719SOL    HW118056   3.197   0.637   6.765
 5719SOL    HW218057   3.067   0.547   6.804
 5720SOL     OW18058   1.744   5.283   5.225
 5720SOL    HW118059   1.751   5.286   5.325
 5720SOL    HW218060   1.749   5.188   5.194
 5721SOL     OW18061   0.611   3.565   1.523
 5721SOL    HW118062   0.683   3.498   1.538
 5721SOL    HW218063   0.630   3.647   1.577
 5722SOL     OW18064   5.437   6.783   4.630
 5722SOL    HW118065   5.348   6.745   4.656
 5722SOL    HW218066   5.448   6.776   4.531
 5723SOL     OW18067   3.476   5.434   0.388
 5723SOL    HW118068   3.423   5.387   0.318
 5723SOL    HW218069   3.447   5.530   0.393
 5724SOL     OW18070   5.326   1.845   6.181
 5724SOL    HW118071   5.316   1.797   6.268
 5724SOL    HW218072   5.364   1.936   6.198
 5725SOL     OW18073   5.759   5.041   5.301
 5725SOL    HW118074   5.824   5.022   5.374
 5725SOL    HW218075   5.780   4.984   5.222
 5726SOL     OW18076   5.885   3.537   6.132
 5726SOL    HW118077   5.954   3.484   6.083
 5726SOL    HW218078   5.841   3.478   6.201
 5727SOL     OW18079   5.741   1.863   3.453
 5727SOL    HW118080   5.716   1.954   3.419
 5727SOL    HW218081   5.658   1.810   3.470
 5728SOL     OW18082   6.157   0.461   4.790
 5728SOL    HW118083   6.237   0.481   4.848
 5728SOL    HW218084   6.178   0.482   4.695
 5729SOL     OW18085   0.344   2.090   6.479
 5729SOL    HW118086   0.372   2.155   6.550
 5729SOL    HW218087   0.268   2.129   6.427
 5730SOL     OW18088   3.994   4.756   5.962
 5730SOL    HW118089   4.014   4.697   5.884
 5730SOL    HW218090   3.898   4.783   5.959
 5731SOL     OW18091   2.851   0.944   4.006
 5731SOL    HW118092   2.918   0.916   3.938
 5731SOL    HW218093   2.782   1.002   3.964
 5732SOL     OW18094   5.924   5.305   5.124
 5732SOL    HW118095   5.985   5.232   5.093
 5732SOL    HW218096   5.977   5.374   5.173
 5733SOL     OW18097   3.348   0.994   0.181
 5733SOL    HW118098   3.305   0.911   0.216
 5733SOL    HW218099   3.408   1.033   0.251
 5734SOL     OW18100   1.570   6.366   5.893
 5734SOL    HW118101   1.479   6.336   5.865
 5734SOL    HW218102   1.639   6.310   5.848
 5735SOL     OW18103   4.154   0.559   2.361
 5735SOL    HW118104   4.169   0.461   2.345
 5735SOL    HW218105   4.222   0.592   2.426
 5736SOL     OW18106   4.506   3.950   6.874
 5736SOL    HW118107   4.430   3.907   6.923
 5736SOL    HW218108   4.493   3.937   6.775
 5737SOL     OW18109   4.745   5.490   1.036
 5737SOL    HW118110   4.757   5.392   1.049
 5737SOL    HW218111   4.740   5.511   0.938
 5738SOL     OW18112   3.423   1.052   6.575
 5738SOL    HW118113   3.486   1.077   6.500
 5738SOL    HW218114   3.476   1.026   6.655
 5739SOL     OW18115   3.087   0.638   5.739
 5739SOL    HW118116   3.170   0.582   5.748
 5739SOL    HW218117   3.060   0.643   5.643
 5740SOL     OW18118   5.394   3.800   1.905
 5740SOL    HW118119   5.320   3.807   1.837
 5740SOL    HW218120   5.461   3.733   1.874
 5741SOL     OW18121   0.595   3.717   4.225
 5741SOL    HW118122   0.565   3.808   4.253
 5741SOL    HW218123   0.626   3.721   4.130
 5742SOL     OW18124   4.077   0.342   3.374
 5742SOL    HW118125   4.094   0.283   3.295
 5742SOL    HW218126   4.151   0.408   3.383
 5743SOL     OW18127   3.503   3.845   5.276
 5743SOL    HW118128   3.503   3.919   5.343
 5743SOL    HW218129   3.598   3.825   5.249
 5744SOL     OW18130   5.865   5.999   2.800
 5744SOL    HW118131   5.806   5.948   2.864
 5744SOL    HW218132   5.929   6.055   2.853
 5745SOL     OW18133   2.366   2.698   3.534
 5745SOL    HW118134   2.405   2.723   3.623
 5745SOL    HW218135   2.284   2.643   3.548
 5746SOL     OW18136   4.081   0.259   3.635
 5746SOL    HW118137   3.993   0.213   3.635
 5746SOL    HW218138   4.101   0.294   3.544
 5747SOL     OW18139   0.880   5.885   1.780
 5747SOL    HW118140   0.811   5.885   1.708
 5747SOL    HW218141   0.857   5.816   1.849
 5748SOL     OW18142   0.531   6.132   0.835
 5748SOL    HW118143   0.561   6.055   0.891
 5748SOL    HW218144   0.442   6.112   0.795
 5749SOL     OW18145   1.838   6.484   4.812
 5749SOL    HW118146   1.778   6.410   4.840
 5749SOL    HW218147   1.790   6.544   4.748
 5750SOL     OW18148   6.988   4.535   4.157
 5750SOL    HW118149   6.899   4.490   4.166
 5750SOL    HW218150   0.004   4.518   4.065
 5751SOL     OW18151   2.093   3.781   4.235
 5751SOL    HW118152   2.083   3.682   4.249
 5751SOL    HW218153   2.162   3.816   4.298
 5752SOL     OW18154   5.285   0.472   0.959
 5752SOL    HW118155   5.211   0.408   0.939
 5752SOL    HW218156   5.368   0.422   0.983
 5753SOL     OW18157   3.159   4.100   4.823
 5753SOL    HW118158   3.158   4.093   4.923
 5753SOL    HW218159   3.066   4.097   4.788
 5754SOL     OW18160   0.716   6.213   1.720
 5754SOL    HW118161   0.729   6.182   1.626
 5754SOL    HW218162   0.805   6.222   1.765
 5755SOL     OW18163   2.328   2.128   7.013
 5755SOL    HW118164   2.279   2.055   0.041
 5755SOL    HW218165   2.270   2.208   7.007
 5756SOL     OW18166   5.765   5.975   1.677
 5756SOL    HW118167   5.756   5.890   1.625
 5756SOL    HW218168   5.674   6.017   1.687
 5757SOL     OW18169   6.964   6.981   3.630
 5757SOL    HW118170   6.878   6.955   3.588
 5757SOL    HW218171   6.947   0.019   3.710
 5758SOL     OW18172   1.043   6.684   3.231
 5758SOL    HW118173   1.019   6.588   3.220
 5758SOL    HW218174   1.027   6.733   3.146
 5759SOL     OW18175   3.875   6.501   1.735
 5759SOL    HW118176   3.954   6.562   1.737
 5759SOL    HW218177   3.812   6.530   1.662
 5760SOL     OW18178   6.977   3.080   1.986
 5760SOL    HW118179   6.932   2.993   2.005
 5760SOL    HW218180   6.917   3.137   1.929
 5761SOL     OW18181   5.143   5.721   4.817
 5761SOL    HW118182   5.242   5.734   4.820
 5761SOL    HW218183   5.120   5.629   4.850
 5762SOL     OW18184   5.180   3.942   6.879
 5762SOL    HW118185   5.085   3.959   6.853
 5762SOL    HW218186   5.225   4.030   6.898
 5763SOL     OW18187   5.589   0.176   0.829
 5763SOL    HW118188   5.638   0.243   0.884
 5763SOL    HW218189   5.620   0.084   0.853
 5764SOL     OW18190   4.493   5.250   3.067
 5764SOL    HW118191   4.473   5.164   3.020
 5764SOL    HW218192   4.591   5.266   3.068
 5765SOL     OW18193   6.444   4.711   1.172
 5765SOL    HW118194   6.510   4.737   1.102
 5765SOL    HW218195   6.492   4.687   1.257
 5766SOL     OW18196   0.857   1.665   4.606
 5766SOL    HW118197   0.845   1.691   4.510
 5766SOL    HW218198   0.891   1.744   4.657
 5767SOL     OW18199   2.154   0.076   1.246
 5767SOL    HW118200   2.118   0.107   1.158
 5767SOL    HW218201   2.250   0.051   1.235
 5768SOL     OW18202   6.733   6.559   4.169
 5768SOL    HW118203   6.784   6.598   4.245
 5768SOL    HW218204   6.745   6.459   4.169
 5769SOL     OW18205   1.471   5.075   6.238
 5769SOL    HW118206   1.528   5.005   6.194
 5769SOL    HW218207   1.508   5.166   6.217
 5770SOL     OW18208   0.805   5.757   1.467
 5770SOL    HW118209   0.724   5.793   1.512
 5770SOL    HW218210   0.876   5.828   1.464
 5771SOL     OW18211   2.099   4.973   4.126
 5771SOL    HW118212   2.077   4.885   4.085
 5771SOL    HW218213   2.021   5.035   4.116
 5772SOL     OW18214   4.679   6.977   1.941
 5772SOL    HW118215   4.600   0.017   1.936
 5772SOL    HW218216   4.687   6.939   2.033
 5773SOL     OW18217   4.603   2.335   1.968
 5773SOL    HW118218   4.528   2.270   1.980
 5773SOL    HW218219   4.593   2.382   1.881
 5774SOL     OW18220   0.701   6.511   3.224
 5774SOL    HW118221   0.710   6.500   3.323
 5774SOL    HW218222   0.786   6.485   3.179
 5775SOL     OW18223   0.518   5.412   2.442
 5775SOL    HW118224   0.521   5.314   2.420
 5775SOL    HW218225   0.424   5.444   2.437
 5776SOL     OW18226   2.092   0.318   2.957
 5776SOL    HW118227   2.140   0.256   3.020
 5776SOL    HW218228   1.994   0.306   2.967
 5777SOL     OW18229   1.011   0.103   3.135
 5777SOL    HW118230   1.093   0.125   3.188
 5777SOL    HW218231   0.930   0.133   3.185
 5778SOL     OW18232   1.142   1.390   6.464
 5778SOL    HW118233   1.102   1.470   6.420
 5778SOL    HW218234   1.123   1.308   6.409
 5779SOL     OW18235   4.626   2.370   6.566
 5779SOL    HW118236   4.530   2.352   6.584
 5779SOL    HW218237   4.647   2.466   6.584
 5780SOL     OW18238   5.269   4.802   4.232
 5780SOL    HW118239   5.278   4.703   4.234
 5780SOL    HW218240   5.358   4.843   4.212
 5781SOL     OW18241   0.202   4.364   4.867
 5781SOL    HW118242   0.262   4.397   4.939
 5781SOL    HW218243   0.256   4.315   4.798
 5782SOL     OW18244   0.873   1.250   0.444
 5782SOL    HW118245   0.929   1.170   0.468
 5782SOL    HW218246   0.776   1.224   0.446
 5783SOL     OW18247   1.758   1.394   1.784
 5783SOL    HW118248   1.745   1.433   1.875
 5783SOL    HW218249   1.732   1.462   1.715
 5784SOL     OW18250   0.276   6.444   0.079
 5784SOL    HW118251   0.178   6.422   0.085
 5784SOL    HW218252   0.329   6.361   0.093
 5785SOL     OW18253   2.526   1.561   0.850
 5785SOL    HW118254   2.512   1.660   0.850
 5785SOL    HW218255   2.563   1.533   0.762
 5786SOL     OW18256   6.789   3.779   0.413
 5786SOL    HW118257   6.869   3.770   0.474
 5786SOL    HW218258   6.793   3.866   0.365
 5787SOL     OW18259   2.767   2.266   5.791
 5787SOL    HW118260   2.672   2.248   5.817
 5787SOL    HW218261   2.787   2.363   5.804
 5788SOL     OW18262   2.435   0.635   2.967
 5788SOL    HW118263   2.373   0.575   2.916
 5788SOL    HW218264   2.397   0.650   3.059
 5789SOL     OW18265   3.780   5.517   6.747
 5789SOL    HW118266   3.778   5.512   6.647
 5789SOL    HW218267   3.875   5.530   6.778
 5790SOL     OW18268   0.435   3.163   4.402
 5790SOL    HW118269   0.375   3.086   4.422
 5790SOL    HW218270   0.530   3.131   4.397
 5791SOL     OW18271   2.846   0.136   2.725
 5791SOL    HW118272   2.802   0.221   2.696
 5791SOL    HW218273   2.907   0.154   2.802
 5792SOL     OW18274   0.244   1.972   3.151
 5792SOL    HW118275   0.187   2.044   3.112
 5792SOL    HW218276   0.231   1.887   3.100
 5793SOL     OW18277   6.685   1.287   3.886
 5793SOL    HW118278   6.597   1.292   3.839
 5793SOL    HW218279   6.704   1.374   3.931
 5794SOL     OW18280   3.539   2.975   0.339
 5794SOL    HW118281   3.637   2.978   0.358
 5794SOL    HW218282   3.511   3.058   0.291
 5795SOL     OW18283   5.550   4.997   5.554
 5795SOL    HW118284   5.585   5.024   5.464
 5795SOL    HW218285   5.501   5.073   5.594
 5796SOL     OW18286   3.046   1.212   0.224
 5796SOL    HW118287   3.071   1.177   0.314
 5796SOL    HW218288   3.007   1.138   0.169
 5797SOL     OW18289   3.719   2.122   4.740
 5797SOL    HW118290   3.681   2.130   4.648
 5797SOL    HW218291   3.653   2.077   4.800
 5798SOL     OW18292   0.399   4.699   4.912
 5798SOL    HW118293   0.485   4.746   4.935
 5798SOL    HW218294   0.398   4.677   4.815
 5799SOL     OW18295   5.397   0.212   3.549
 5799SOL    HW118296   5.336   0.149   3.500
 5799SOL    HW218297   5.438   0.276   3.484
 5800SOL     OW18298   5.483   4.575   1.477
 5800SOL    HW118299   5.475   4.656   1.534
 5800SOL    HW218300   5.569   4.578   1.426
 5801SOL     OW18301   0.552   1.851   3.703
 5801SOL    HW118302   0.594   1.829   3.791
 5801SOL    HW218303   0.483   1.782   3.681
 5802SOL     OW18304   0.369   4.267   6.351
 5802SOL    HW118305   0.284   4.218   6.367
 5802SOL    HW218306   0.354   4.339   6.283
 5803SOL     OW18307   1.543   4.806   1.344
 5803SOL    HW118308   1.460   4.861   1.350
 5803SOL    HW218309   1.618   4.854   1.390
 5804SOL     OW18310   6.433   3.996   4.266
 5804SOL    HW118311   6.464   4.086   4.295
 5804SOL    HW218312   6.369   3.959   4.333
 5805SOL     OW18313   4.128   4.500   6.414
 5805SOL    HW118314   4.098   4.501   6.319
 5805SOL    HW218315   4.137   4.593   6.448
 5806SOL     OW18316   1.112   6.912   0.649
 5806SOL    HW118317   1.123   6.888   0.553
 5806SOL    HW218318   1.096   6.828   0.702
 5807SOL     OW18319   1.442   3.827   1.104
 5807SOL    HW118320   1.399   3.745   1.066
 5807SOL    HW218321   1.527   3.801   1.150
 5808SOL     OW18322   5.341   4.253   2.875
 5808SOL    HW118323   5.360   4.192   2.952
 5808SOL    HW218324   5.420   4.257   2.815
 5809SOL     OW18325   6.865   3.310   4.509
 5809SOL    HW118326   6.862   3.242   4.583
 5809SOL    HW218327   6.775   3.352   4.500
 5810SOL     OW18328   2.822   1.178   4.148
 5810SOL    HW118329   2.833   1.247   4.077
 5810SOL    HW218330   2.819   1.087   4.106
 5811SOL     OW18331   3.015   0.224   5.184
 5811SOL    HW118332   3.070   0.306   5.202
 5811SOL    HW218333   3.038   0.187   5.094
 5812SOL     OW18334   4.977   6.748   4.167
 5812SOL    HW118335   4.928   6.772   4.083
 5812SOL    HW218336   5.048   6.681   4.147
 5813SOL     OW18337   1.106   1.233   6.077
 5813SOL    HW118338   1.018   1.233   6.030
 5813SOL    HW218339   1.150   1.322   6.068
 5814SOL     OW18340   6.431   3.967   0.435
 5814SOL    HW118341   6.483   4.052   0.420
 5814SOL    HW218342   6.390   3.969   0.527
 5815SOL     OW18343   4.430   2.403   2.897
 5815SOL    HW118344   4.352   2.398   2.960
 5815SOL    HW218345   4.484   2.319   2.906
 5816SOL     OW18346   5.466   0.285   0.257
 5816SOL    HW118347   5.559   0.314   0.280
 5816SOL    HW218348   5.469   0.206   0.196
 5817SOL     OW18349   6.030   2.998   5.810
 5817SOL    HW118350   6.035   3.068   5.739
 5817SOL    HW218351   5.933   2.981   5.832
 5818SOL     OW18352   6.055   6.217   5.227
 5818SOL    HW118353   5.996   6.139   5.245
 5818SOL    HW218354   6.062   6.231   5.128
 5819SOL     OW18355   4.335   0.444   0.833
 5819SOL    HW118356   4.385   0.485   0.757
 5819SOL    HW218357   4.250   0.495   0.849
 5820SOL     OW18358   5.079   6.884   3.495
 5820SOL    HW118359   5.036   6.974   3.485
 5820SOL    HW218360   5.110   6.851   3.406
 5821SOL     OW18361   2.494   0.697   1.888
 5821SOL    HW118362   2.498   0.689   1.988
 5821SOL    HW218363   2.449   0.783   1.863
 5822SOL     OW18364   0.919   2.566   1.522
 5822SOL    HW118365   0.858   2.581   1.444
 5822SOL    HW218366   0.876   2.601   1.605
 5823SOL     OW18367   0.946   0.523   5.296
 5823SOL    HW118368   1.036   0.517   5.253
 5823SOL    HW218369   0.956   0.532   5.395
 5824SOL     OW18370   6.511   6.491   2.989
 5824SOL    HW118371   6.452   6.412   3.004
 5824SOL    HW218372   6.498   6.557   3.063
 5825SOL     OW18373   2.574   1.765   6.134
 5825SOL    HW118374   2.540   1.813   6.214
 5825SOL    HW218375   2.670   1.739   6.149
 5826SOL     OW18376   6.534   6.091   5.388
 5826SOL    HW118377   6.496   6.122   5.474
 5826SOL    HW218378   6.461   6.080   5.320
 5827SOL     OW18379   1.023   5.299   5.093
 5827SOL    HW118380   1.056   5.394   5.101
 5827SOL    HW218381   1.060   5.245   5.169
 5828SOL     OW18382   0.684   3.487   1.859
 5828SOL    HW118383   0.766   3.499   1.803
 5828SOL    HW218384   0.603   3.500   1.802
 5829SOL     OW18385   2.884   1.227   2.253
 5829SOL    HW118386   2.867   1.135   2.288
 5829SOL    HW218387   2.810   1.254   2.192
 5830SOL     OW18388   4.058   0.814   5.952
 5830SOL    HW118389   4.071   0.782   5.858
 5830SOL    HW218390   3.967   0.856   5.961
 5831SOL     OW18391   5.870   6.606   3.204
 5831SOL    HW118392   5.832   6.570   3.290
 5831SOL    HW218393   5.836   6.552   3.127
 5832SOL     OW18394   4.592   3.872   5.579
 5832SOL    HW118395   4.673   3.834   5.535
 5832SOL    HW218396   4.560   3.951   5.527
 5833SOL     OW18397   3.155   3.667   4.251
 5833SOL    HW118398   3.233   3.673   4.313
 5833SOL    HW218399   3.169   3.591   4.187
 5834SOL     OW18400   6.170   1.630   0.375
 5834SOL    HW118401   6.181   1.663   0.468
 5834SOL    HW218402   6.080   1.657   0.340
 5835SOL     OW18403   5.236   2.455   3.872
 5835SOL    HW118404   5.216   2.508   3.790
 5835SOL    HW218405   5.150   2.427   3.915
 5836SOL     OW18406   3.039   5.787   3.046
 5836SOL    HW118407   2.994   5.777   2.957
 5836SOL    HW218408   3.136   5.804   3.033
 5837SOL     OW18409   4.757   4.467   0.260
 5837SOL    HW118410   4.734   4.395   0.325
 5837SOL    HW218411   4.718   4.446   0.171
 5838SOL     OW18412   1.872   1.592   6.242
 5838SOL    HW118413   1.855   1.690   6.239
 5838SOL    HW218414   1.842   1.550   6.157
 5839SOL     OW18415   6.963   2.958   2.290
 5839SOL    HW118416   6.966   2.951   2.390
 5839SOL    HW218417   6.885   3.014   2.263
 5840SOL     OW18418   1.085   5.744   7.010
 5840SOL    HW118419   1.142   5.816   0.027
 5840SOL    HW218420   1.076   5.670   0.056
 5841SOL     OW18421   6.074   3.318   2.568
 5841SOL    HW118422   6.103   3.346   2.477
 5841SOL    HW218423   6.052   3.220   2.568
 5842SOL     OW18424   3.737   3.264   0.660
 5842SOL    HW118425   3.765   3.313   0.743
 5842SOL    HW218426   3.805   3.278   0.588
 5843SOL     OW18427   2.188   3.751   2.469
 5843SOL    HW118428   2.104   3.699   2.449
 5843SOL    HW218429   2.252   3.741   2.393
 5844SOL     OW18430   0.353   5.982   6.458
 5844SOL    HW118431   0.355   6.081   6.447
 5844SOL    HW218432   0.427   5.941   6.403
 5845SOL     OW18433   0.833   1.916   3.310
 5845SOL    HW118434   0.749   1.904   3.364
 5845SOL    HW218435   0.870   1.826   3.286
 5846SOL     OW18436   6.731   2.958   5.075
 5846SOL    HW118437   6.769   2.866   5.079
 5846SOL    HW218438   6.747   3.005   5.162
 5847SOL     OW18439   2.286   2.277   2.301
 5847SOL    HW118440   2.194   2.296   2.337
 5847SOL    HW218441   2.313   2.184   2.327
 5848SOL     OW18442   2.112   4.987   3.388
 5848SOL    HW118443   2.064   4.934   3.318
 5848SOL    HW218444   2.134   4.927   3.465
 5849SOL     OW18445   1.173   0.260   5.557
 5849SOL    HW118446   1.227   0.194   5.505
 5849SOL    HW218447   1.212   0.351   5.546
 5850SOL     OW18448   1.150   3.503   2.130
 5850SOL    HW118449   1.232   3.475   2.181
 5850SOL    HW218450   1.178   3.547   2.045
 5851SOL     OW18451   6.100   3.699   2.504
 5851SOL    HW118452   6.003   3.715   2.522
 5851SOL    HW218453   6.142   3.783   2.471
 5852SOL     OW18454   4.127   6.214   2.973
 5852SOL    HW118455   4.197   6.199   2.904
 5852SOL    HW218456   4.054   6.271   2.936
 5853SOL     OW18457   2.795   5.565   6.076
 5853SOL    HW118458   2.783   5.622   6.157
 5853SOL    HW218459   2.715   5.575   6.017
 5854SOL     OW18460   6.727   3.309   5.903
 5854SOL    HW118461   6.753   3.345   5.814
 5854SOL    HW218462   6.794   3.337   5.972
 5855SOL     OW18463   1.298   1.191   4.684
 5855SOL    HW118464   1.250   1.232   4.761
 5855SOL    HW218465   1.396   1.187   4.704
 5856SOL     OW18466   2.110   5.740   3.645
 5856SOL    HW118467   2.087   5.646   3.619
 5856SOL    HW218468   2.097   5.751   3.744
 5857SOL     OW18469   6.283   2.885   5.274
 5857SOL    HW118470   6.253   2.968   5.321
 5857SOL    HW218471   6.295   2.811   5.341
 5858SOL     OW18472   3.070   1.719   2.331
 5858SOL    HW118473   3.073   1.621   2.350
 5858SOL    HW218474   3.065   1.770   2.416
 5859SOL     OW18475   6.117   6.615   0.499
 5859SOL    HW118476   6.172   6.626   0.416
 5859SOL    HW218477   6.135   6.526   0.539
 5860SOL     OW18478   1.908   4.573   1.788
 5860SOL    HW118479   1.964   4.622   1.854
 5860SOL    HW218480   1.921   4.474   1.799
 5861SOL     OW18481   5.371   1.855   3.907
 5861SOL    HW118482   5.271   1.854   3.910
 5861SOL    HW218483   5.402   1.939   3.862
 5862SOL     OW18484   3.756   5.403   3.386
 5862SOL    HW118485   3.799   5.346   3.317
 5862SOL    HW218486   3.797   5.495   3.383
 5863SOL     OW18487   2.421   0.675   6.309
 5863SOL    HW118488   2.464   0.741   6.370
 5863SOL    HW218489   2.442   0.582   6.341
 5864SOL     OW18490   4.378   4.106   1.647
 5864SOL    HW118491   4.311   4.041   1.683
 5864SOL    HW218492   4.423   4.153   1.723
 5865SOL     OW18493   5.181   0.645   3.882
 5865SOL    HW118494   5.145   0.556   3.854
 5865SOL    HW218495   5.161   0.712   3.810
 5866SOL     OW18496   4.472   6.387   6.191
 5866SOL    HW118497   4.543   6.376   6.261
 5866SOL    HW218498   4.399   6.445   6.226
 5867SOL     OW18499   0.454   2.596   0.912
 5867SOL    HW118500   0.430   2.677   0.857
 5867SOL    HW218501   0.469   2.623   1.007
 5868SOL     OW18502   0.369   0.377   5.120
 5868SOL    HW118503   0.324   0.444   5.179
 5868SOL    HW218504   0.406   0.424   5.039
 5869SOL     OW18505   2.061   4.493   3.894
 5869SOL    HW118506   2.015   4.488   3.805
 5869SOL    HW218507   1.994   4.474   3.966
 5870SOL     OW18508   5.022   4.913   4.762
 5870SOL    HW118509   5.030   4.833   4.702
 5870SOL    HW218510   4.943   4.967   4.733
 5871SOL     OW18511   3.649   3.815   0.236
 5871SOL    HW118512   3.572   3.797   0.297
 5871SOL    HW218513   3.724   3.856   0.289
 5872SOL     OW18514   4.245   5.672   6.759
 5872SOL    HW118515   4.298   5.637   6.836
 5872SOL    HW218516   4.302   5.731   6.702
 5873SOL     OW18517   1.974   3.176   0.271
 5873SOL    HW118518   2.008   3.268   0.255
 5873SOL    HW218519   1.922   3.173   0.357
 5874SOL     OW18520   2.671   3.152   1.416
 5874SOL    HW118521   2.686   3.251   1.413
 5874SOL    HW218522   2.756   3.107   1.442
 5875SOL     OW18523   3.501   1.581   0.237
 5875SOL    HW118524   3.545   1.606   0.151
 5875SOL    HW218525   3.421   1.639   0.252
 5876SOL     OW18526   3.226   3.236   6.368
 5876SOL    HW118527   3.206   3.296   6.445
 5876SOL    HW218528   3.148   3.177   6.350
 5877SOL     OW18529   6.482   0.037   1.296
 5877SOL    HW118530   6.473   0.077   1.205
 5877SOL    HW218531   6.466   0.108   1.365
 5878SOL     OW18532   4.821   5.755   2.294
 5878SOL    HW118533   4.779   5.735   2.383
 5878SOL    HW218534   4.772   5.831   2.251
 5879SOL     OW18535   3.689   3.152   6.182
 5879SOL    HW118536   3.644   3.190   6.102
 5879SOL    HW218537   3.647   3.064   6.205
 5880SOL     OW18538   4.940   3.215   5.730
 5880SOL    HW118539   4.960   3.301   5.778
 5880SOL    HW218540   4.848   3.219   5.691
 5881SOL     OW18541   0.957   6.244   2.567
 5881SOL    HW118542   1.002   6.238   2.477
 5881SOL    HW218543   0.885   6.175   2.572
 5882SOL     OW18544   1.341   6.380   5.715
 5882SOL    HW118545   1.267   6.409   5.654
 5882SOL    HW218546   1.387   6.300   5.676
 5883SOL     OW18547   0.225   3.700   0.927
 5883SOL    HW118548   0.185   3.715   0.837
 5883SOL    HW218549   0.304   3.639   0.918
 5884SOL     OW18550   5.947   1.266   3.815
 5884SOL    HW118551   5.990   1.182   3.849
 5884SOL    HW218552   5.998   1.345   3.849
 5885SOL     OW18553   0.387   5.259   0.339
 5885SOL    HW118554   0.395   5.210   0.425
 5885SOL    HW218555   0.463   5.233   0.279
 5886SOL     OW18556   1.205   3.286   3.201
 5886SOL    HW118557   1.235   3.328   3.115
 5886SOL    HW218558   1.284   3.256   3.253
 5887SOL     OW18559   2.403   1.847   1.378
 5887SOL    HW118560   2.430   1.875   1.471
 5887SOL    HW218561   2.485   1.821   1.327
 5888SOL     OW18562   2.619   0.046   1.712
 5888SOL    HW118563   2.652   6.978   1.678
 5888SOL    HW218564   2.697   0.108   1.725
 5889SOL     OW18565   0.187   1.044   1.459
 5889SOL    HW118566   0.264   1.071   1.402
 5889SOL    HW218567   0.103   1.082   1.422
 5890SOL     OW18568   2.528   6.039   2.352
 5890SOL    HW118569   2.555   5.962   2.409
 5890SOL    HW218570   2.562   6.026   2.258
 5891SOL     OW18571   3.073   3.179   0.824
 5891SOL    HW118572   3.131   3.163   0.904
 5891SOL    HW218573   3.103   3.263   0.777
 5892SOL     OW18574   0.460   3.916   0.548
 5892SOL    HW118575   0.488   4.009   0.572
 5892SOL    HW218576   0.496   3.892   0.458
 5893SOL     OW18577   0.983   5.624   2.225
 5893SOL    HW118578   1.053   5.601   2.293
 5893SOL    HW218579   0.895   5.586   2.253
 5894SOL     OW18580   0.853   5.763   5.473
 5894SOL    HW118581   0.807   5.751   5.385
 5894SOL    HW218582   0.859   5.674   5.520
 5895SOL     OW18583   5.807   3.154   5.097
 5895SOL    HW118584   5.822   3.055   5.091
 5895SOL    HW218585   5.891   3.199   5.128
 5896SOL     OW18586   5.913   1.599   1.619
 5896SOL    HW118587   5.999   1.598   1.568
 5896SOL    HW218588   5.858   1.676   1.589
 5897SOL     OW18589   4.491   1.722   1.729
 5897SOL    HW118590   4.558   1.697   1.658
 5897SOL    HW218591   4.422   1.782   1.690
 5898SOL     OW18592   1.656   1.242   5.629
 5898SOL    HW118593   1.672   1.188   5.712
 5898SOL    HW218594   1.741   1.248   5.577
 5899SOL     OW18595   6.833   5.509   6.203
 5899SOL    HW118596   6.809   5.560   6.121
 5899SOL    HW218597   6.755   5.505   6.265
 5900SOL     OW18598   6.952   5.903   3.198
 5900SOL    HW118599   6.947   5.917   3.099
 5900SOL    HW218600   0.025   5.880   3.224
 5901SOL     OW18601   1.565   0.082   6.473
 5901SOL    HW118602   1.625   0.108   6.397
 5901SOL    HW218603   1.519   7.016   6.451
 5902SOL     OW18604   5.903   4.076   4.662
 5902SOL    HW118605   5.933   4.172   4.659
 5902SOL    HW218606   5.908   4.037   4.570
 5903SOL     OW18607   6.064   2.626   6.396
 5903SOL    HW118608   6.107   2.551   6.446
 5903SOL    HW218609   5.976   2.595   6.359
 5904SOL     OW18610   1.919   4.979   2.891
 5904SOL    HW118611   1.857   5.016   2.961
 5904SOL    HW218612   1.897   4.882   2.875
 5905SOL     OW18613   5.728   0.966   4.004
 5905SOL    HW118614   5.723   1.065   3.996
 5905SOL    HW218615   5.635   0.928   4.007
 5906SOL     OW18616   5.391   1.282   5.600
 5906SOL    HW118617   5.414   1.301   5.504
 5906SOL    HW218618   5.413   1.361   5.656
 5907SOL     OW18619   1.159   1.424   6.734
 5907SOL    HW118620   1.068   1.463   6.752
 5907SOL    HW218621   1.162   1.392   6.640
 5908SOL     OW18622   4.460   3.756   6.435
 5908SOL    HW118623   4.379   3.769   6.378
 5908SOL    HW218624   4.510   3.675   6.403
 5909SOL     OW18625   0.181   4.912   5.267
 5909SOL    HW118626   0.222   4.835   5.315
 5909SOL    HW218627   0.109   4.952   5.323
 5910SOL     OW18628   2.198   3.975   1.389
 5910SOL    HW118629   2.154   4.002   1.475
 5910SOL    HW218630   2.208   4.055   1.330
 5911SOL     OW18631   6.241   5.106   6.480
 5911SOL    HW118632   6.142   5.123   6.482
 5911SOL    HW218633   6.289   5.193   6.492
 5912SOL     OW18634   6.203   3.346   6.969
 5912SOL    HW118635   6.139   3.292   6.913
 5912SOL    HW218636   6.269   3.391   6.909
 5913SOL     OW18637   2.284   2.086   5.875
 5913SOL    HW118638   2.191   2.075   5.909
 5913SOL    HW218639   2.282   2.107   5.778
 5914SOL     OW18640   2.417   5.605   0.512
 5914SOL    HW118641   2.494   5.653   0.554
 5914SOL    HW218642   2.387   5.530   0.570
 5915SOL     OW18643   4.740   2.857   2.823
 5915SOL    HW118644   4.758   2.794   2.898
 5915SOL    HW218645   4.750   2.951   2.856
 5916SOL     OW18646   3.805   0.017   5.435
 5916SOL    HW118647   3.769   6.987   5.513
 5916SOL    HW218648   3.743   0.093   5.413
 5917SOL     OW18649   3.549   3.323   3.189
 5917SOL    HW118650   3.637   3.330   3.237
 5917SOL    HW218651   3.526   3.412   3.149
 5918SOL     OW18652   1.629   3.171   4.274
 5918SOL    HW118653   1.697   3.197   4.206
 5918SOL    HW218654   1.621   3.242   4.343
 5919SOL     OW18655   2.571   2.626   0.441
 5919SOL    HW118656   2.608   2.719   0.447
 5919SOL    HW218657   2.640   2.565   0.400
 5920SOL     OW18658   3.758   0.222   6.588
 5920SOL    HW118659   3.828   0.151   6.574
 5920SOL    HW218660   3.789   0.308   6.547
 5921SOL     OW18661   3.599   5.369   5.604
 5921SOL    HW118662   3.580   5.306   5.528
 5921SOL    HW218663   3.667   5.329   5.665
 5922SOL     OW18664   6.364   4.727   2.729
 5922SOL    HW118665   6.357   4.666   2.807
 5922SOL    HW218666   6.405   4.814   2.757
 5923SOL     OW18667   6.486   0.448   3.392
 5923SOL    HW118668   6.507   0.370   3.451
 5923SOL    HW218669   6.457   0.414   3.303
 5924SOL     OW18670   5.104   2.139   4.563
 5924SOL    HW118671   5.153   2.189   4.491
 5924SOL    HW218672   5.008   2.130   4.538
 5925SOL     OW18673   5.764   5.722   1.573
 5925SOL    HW118674   5.774   5.642   1.633
 5925SOL    HW218675   5.672   5.723   1.534
 5926SOL     OW18676   3.602   5.267   1.894
 5926SOL    HW118677   3.598   5.168   1.878
 5926SOL    HW218678   3.556   5.289   1.980
 5927SOL     OW18679   2.854   5.475   1.667
 5927SOL    HW118680   2.939   5.426   1.688
 5927SOL    HW218681   2.809   5.432   1.589
 5928SOL     OW18682   1.681   0.261   2.556
 5928SOL    HW118683   1.690   0.260   2.457
 5928SOL    HW218684   1.758   0.311   2.597
 5929SOL     OW18685   0.971   6.609   5.623
 5929SOL    HW118686   0.880   6.611   5.664
 5929SOL    HW218687   1.008   6.517   5.630
 5930SOL     OW18688   6.365   1.147   4.804
 5930SOL    HW118689   6.273   1.166   4.839
 5930SOL    HW218690   6.397   1.060   4.841
 5931SOL     OW18691   6.031   5.489   1.632
 5931SOL    HW118692   5.955   5.521   1.688
 5931SOL    HW218693   6.090   5.567   1.609
 5932SOL     OW18694   2.047   6.636   1.060
 5932SOL    HW118695   1.985   6.704   1.099
 5932SOL    HW218696   2.098   6.676   0.984
 5933SOL     OW18697   0.067   4.194   2.658
 5933SOL    HW118698   0.097   4.235   2.743
 5933SOL    HW218699   0.128   4.119   2.633
 5934SOL     OW18700   3.764   3.591   2.904
 5934SOL    HW118701   3.834   3.604   2.974
 5934SOL    HW218702   3.783   3.508   2.852
 5935SOL     OW18703   3.867   4.041   5.127
 5935SOL    HW118704   3.924   3.988   5.064
 5935SOL    HW218705   3.798   4.090   5.076
 5936SOL     OW18706   4.976   4.646   6.981
 5936SOL    HW118707   4.946   4.590   6.904
 5936SOL    HW218708   4.976   4.743   6.954
 5937SOL     OW18709   1.152   3.999   0.865
 5937SOL    HW118710   1.228   3.983   0.802
 5937SOL    HW218711   1.083   3.927   0.853
 5938SOL     OW18712   2.118   4.556   2.992
 5938SOL    HW118713   2.168   4.469   2.986
 5938SOL    HW218714   2.076   4.577   2.904
 5939SOL     OW18715   3.379   0.804   3.016
 5939SOL    HW118716   3.371   0.718   2.966
 5939SOL    HW218717   3.385   0.784   3.114
 5940SOL     OW18718   3.492   6.870   3.004
 5940SOL    HW118719   3.564   6.860   2.936
 5940SOL    HW218720   3.524   6.833   3.092
 5941SOL     OW18721   6.258   4.887   2.315
 5941SOL    HW118722   6.217   4.836   2.390
 5941SOL    HW218723   6.189   4.904   2.244
 5942SOL     OW18724   3.868   3.475   6.035
 5942SOL    HW118725   3.824   3.518   5.956
 5942SOL    HW218726   3.797   3.442   6.098
 5943SOL     OW18727   1.963   5.732   0.141
 5943SOL    HW118728   2.063   5.730   0.135
 5943SOL    HW218729   1.936   5.709   0.235
 5944SOL     OW18730   5.027   1.481   2.437
 5944SOL    HW118731   5.063   1.512   2.525
 5944SOL    HW218732   5.024   1.381   2.436
 5945SOL     OW18733   6.511   5.192   5.283
 5945SOL    HW118734   6.535   5.126   5.355
 5945SOL    HW218735   6.430   5.243   5.311
 5946SOL     OW18736   4.310   3.813   5.970
 5946SOL    HW118737   4.343   3.733   6.020
 5946SOL    HW218738   4.362   3.894   5.999
 5947SOL     OW18739   4.272   3.429   1.823
 5947SOL    HW118740   4.355   3.388   1.786
 5947SOL    HW218741   4.212   3.357   1.857
 5948SOL     OW18742   3.514   4.941   2.957
 5948SOL    HW118743   3.587   4.938   2.888
 5948SOL    HW218744   3.553   4.923   3.047
 5949SOL     OW18745   4.222   4.912   0.906
 5949SOL    HW118746   4.253   4.845   0.839
 5949SOL    HW218747   4.146   4.964   0.868
 5950SOL     OW18748   5.954   1.971   4.331
 5950SOL    HW118749   5.916   1.878   4.328
 5950SOL    HW218750   5.893   2.031   4.382
 5951SOL     OW18751   1.952   6.491   4.061
 5951SOL    HW118752   2.025   6.448   4.008
 5951SOL    HW218753   1.938   6.585   4.028
 5952SOL     OW18754   6.365   6.141   3.586
 5952SOL    HW118755   6.324   6.124   3.676
 5952SOL    HW218756   6.293   6.146   3.517
 5953SOL     OW18757   6.776   3.420   5.645
 5953SOL    HW118758   6.706   3.451   5.580
 5953SOL    HW218759   6.866   3.428   5.602
 5954SOL     OW18760   6.870   4.633   6.494
 5954SOL    HW118761   6.816   4.718   6.488
 5954SOL    HW218762   6.864   4.597   6.587
 5955SOL     OW18763   5.108   5.131   1.756
 5955SOL    HW118764   5.084   5.228   1.746
 5955SOL    HW218765   5.148   5.117   1.847
 5956SOL     OW18766   3.975   2.408   6.783
 5956SOL    HW118767   4.054   2.375   6.732
 5956SOL    HW218768   3.978   2.372   6.876
 5957SOL     OW18769   5.329   6.409   5.809
 5957SOL    HW118770   5.246   6.416   5.754
 5957SOL    HW218771   5.369   6.500   5.821
 5958SOL     OW18772   6.574   6.537   1.452
 5958SOL    HW118773   6.620   6.614   1.498
 5958SOL    HW218774   6.643   6.473   1.419
 5959SOL     OW18775   2.699   1.809   5.839
 5959SOL    HW118776   2.601   1.825   5.853
 5959SOL    HW218777   2.750   1.839   5.920
 5960SOL     OW18778   2.748   0.095   3.559
 5960SOL    HW118779   2.723   0.181   3.604
 5960SOL    HW218780   2.744   0.106   3.460
 5961SOL     OW18781   3.679   0.472   5.113
 5961SOL    HW118782   3.654   0.563   5.080
 5961SOL    HW218783   3.658   0.404   5.043
 5962SOL     OW18784   5.104   5.754   2.271
 5962SOL    HW118785   5.127   5.742   2.174
 5962SOL    HW218786   5.010   5.723   2.287
 5963SOL     OW18787   3.971   3.414   2.855
 5963SOL    HW118788   3.974   3.367   2.943
 5963SOL    HW218789   3.978   3.347   2.781
 5964SOL     OW18790   0.292   5.172   6.902
 5964SOL    HW118791   0.374   5.218   6.935
 5964SOL    HW218792   0.213   5.232   6.917
 5965SOL     OW18793   1.595   2.367   6.489
 5965SOL    HW118794   1.566   2.458   6.519
 5965SOL    HW218795   1.682   2.344   6.532
 5966SOL     OW18796   3.036   6.024   4.885
 5966SOL    HW118797   3.121   6.023   4.938
 5966SOL    HW218798   3.027   6.111   4.837
 5967SOL     OW18799   4.479   6.924   2.903
 5967SOL    HW118800   4.450   6.834   2.935
 5967SOL    HW218801   4.476   6.989   2.978
 5968SOL     OW18802   6.559   2.101   3.379
 5968SOL    HW118803   6.552   2.061   3.471
 5968SOL    HW218804   6.549   2.029   3.311
 5969SOL     OW18805   6.215   3.315   4.044
 5969SOL    HW118806   6.213   3.409   4.078
 5969SOL    HW218807   6.169   3.255   4.109
 5970SOL     OW18808   1.258   3.414   2.976
 5970SOL    HW118809   1.187   3.399   2.908
 5970SOL    HW218810   1.326   3.478   2.939
 5971SOL     OW18811   1.934   6.938   2.966
 5971SOL    HW118812   1.890   0.008   2.967
 5971SOL    HW218813   1.869   6.870   2.931
 5972SOL     OW18814   5.156   0.209   6.892
 5972SOL    HW118815   5.153   0.183   6.988
 5972SOL    HW218816   5.240   0.175   6.850
 5973SOL     OW18817   1.664   4.144   2.807
 5973SOL    HW118818   1.753   4.189   2.814
 5973SOL    HW218819   1.659   4.069   2.872
 5974SOL     OW18820   6.876   3.770   6.552
 5974SOL    HW118821   6.888   3.826   6.470
 5974SOL    HW218822   6.817   3.691   6.531
 5975SOL     OW18823   3.832   2.409   1.143
 5975SOL    HW118824   3.822   2.473   1.219
 5975SOL    HW218825   3.877   2.325   1.175
 5976SOL     OW18826   2.967   3.267   4.691
 5976SOL    HW118827   2.971   3.215   4.606
 5976SOL    HW218828   2.955   3.364   4.671
 5977SOL     OW18829   2.094   4.672   2.121
 5977SOL    HW118830   2.177   4.616   2.125
 5977SOL    HW218831   2.038   4.653   2.201
 5978SOL     OW18832   5.374   4.744   2.475
 5978SOL    HW118833   5.291   4.745   2.419
 5978SOL    HW218834   5.352   4.775   2.567
 5979SOL     OW18835   6.300   0.830   3.828
 5979SOL    HW118836   6.244   0.797   3.752
 5979SOL    HW218837   6.306   0.930   3.823
 5980SOL     OW18838   4.858   4.447   0.610
 5980SOL    HW118839   4.929   4.416   0.673
 5980SOL    HW218840   4.806   4.369   0.576
 5981SOL     OW18841   6.234   1.526   2.571
 5981SOL    HW118842   6.277   1.511   2.482
 5981SOL    HW218843   6.135   1.517   2.562
 5982SOL     OW18844   7.001   2.002   6.938
 5982SOL    HW118845   6.932   2.075   6.940
 5982SOL    HW218846   6.996   1.955   6.850
 5983SOL     OW18847   1.957   2.291   4.171
 5983SOL    HW118848   1.859   2.277   4.155
 5983SOL    HW218849   2.007   2.276   4.086
 5984SOL     OW18850   6.686   6.205   4.395
 5984SOL    HW118851   6.638   6.269   4.455
 5984SOL    HW218852   6.784   6.213   4.409
 5985SOL     OW18853   5.387   2.088   3.473
 5985SOL    HW118854   5.378   2.122   3.566
 5985SOL    HW218855   5.299   2.098   3.426
 5986SOL     OW18856   3.310   2.946   3.055
 5986SOL    HW118857   3.232   2.972   3.112
 5986SOL    HW218858   3.354   3.029   3.019
 5987SOL     OW18859   4.490   6.938   4.870
 5987SOL    HW118860   4.483   0.011   4.835
 5987SOL    HW218861   4.504   6.875   4.794
 5988SOL     OW18862   4.496   6.825   4.354
 5988SOL    HW118863   4.476   6.729   4.335
 5988SOL    HW218864   4.418   6.882   4.328
 5989SOL     OW18865   2.731   0.111   6.242
 5989SOL    HW118866   2.651   0.170   6.251
 5989SOL    HW218867   2.772   0.123   6.151
 5990SOL     OW18868   3.841   4.525   0.542
 5990SOL    HW118869   3.812   4.431   0.563
 5990SOL    HW218870   3.911   4.523   0.471
 5991SOL     OW18871   3.544   5.300   4.514
 5991SOL    HW118872   3.564   5.395   4.490
 5991SOL    HW218873   3.622   5.243   4.489
 5992SOL     OW18874   3.526   0.591   3.951
 5992SOL    HW118875   3.558   0.621   3.861
 5992SOL    HW218876   3.587   0.625   4.022
 5993SOL     OW18877   2.434   6.515   5.942
 5993SOL    HW118878   2.386   6.464   5.870
 5993SOL    HW218879   2.464   6.603   5.906
 5994SOL     OW18880   6.480   2.406   2.456
 5994SOL    HW118881   6.573   2.367   2.461
 5994SOL    HW218882   6.414   2.332   2.445
 5995SOL     OW18883   6.676   5.444   1.380
 5995SOL    HW118884   6.682   5.437   1.479
 5995SOL    HW218885   6.768   5.459   1.342
 5996SOL     OW18886   0.347   5.698   6.435
 5996SOL    HW118887   0.349   5.797   6.417
 5996SOL    HW218888   0.439   5.661   6.425
 5997SOL     OW18889   0.313   6.981   1.686
 5997SOL    HW118890   0.370   6.945   1.760
 5997SOL    HW218891   0.267   0.044   1.717
 5998SOL     OW18892   5.403   1.957   2.744
 5998SOL    HW118893   5.318   1.982   2.698
 5998SOL    HW218894   5.480   2.002   2.699
 5999SOL     OW18895   1.628   1.511   3.486
 5999SOL    HW118896   1.587   1.431   3.531
 5999SOL    HW218897   1.673   1.568   3.555
 6000SOL     OW18898   3.944   4.782   2.507
 6000SOL    HW118899   3.989   4.713   2.452
 6000SOL    HW218900   4.000   4.805   2.586
 6001SOL     OW18901   0.047   3.007   6.984
 6001SOL    HW118902   0.094   2.960   6.908
 6001SOL    HW218903   6.970   2.986   6.981
 6002SOL     OW18904   1.577   0.507   1.660
 6002SOL    HW118905   1.625   0.476   1.742
 6002SOL    HW218906   1.616   0.594   1.629
 6003SOL     OW18907   5.683   4.080   4.808
 6003SOL    HW118908   5.767   4.081   4.755
 6003SOL    HW218909   5.650   3.986   4.817
 6004SOL     OW18910   0.856   3.285   2.891
 6004SOL    HW118911   0.831   3.328   2.977
 6004SOL    HW218912   0.844   3.350   2.816
 6005SOL     OW18913   3.893   5.666   4.197
 6005SOL    HW118914   3.930   5.648   4.106
 6005SOL    HW218915   3.883   5.579   4.247
 6006SOL     OW18916   2.773   6.651   6.716
 6006SOL    HW118917   2.825   6.568   6.700
 6006SOL    HW218918   2.792   6.718   6.644
 6007SOL     OW18919   5.354   2.221   3.757
 6007SOL    HW118920   5.432   2.165   3.782
 6007SOL    HW218921   5.366   2.313   3.793
 6008SOL     OW18922   3.293   4.966   5.881
 6008SOL    HW118923   3.350   4.884   5.872
 6008SOL    HW218924   3.294   5.017   5.795
 6009SOL     OW18925   2.444   1.888   4.354
 6009SOL    HW118926   2.499   1.941   4.289
 6009SOL    HW218927   2.398   1.950   4.417
 6010SOL     OW18928   1.921   4.239   2.330
 6010SOL    HW118929   1.937   4.316   2.269
 6010SOL    HW218930   1.960   4.156   2.290
 6011SOL     OW18931   5.047   2.729   2.372
 6011SOL    HW118932   5.057   2.789   2.452
 6011SOL    HW218933   5.075   2.778   2.290
 6012SOL     OW18934   6.942   2.517   6.790
 6012SOL    HW118935   6.887   2.518   6.874
 6012SOL    HW218936   6.926   2.602   6.739
 6013SOL     OW18937   6.318   0.740   2.002
 6013SOL    HW118938   6.315   0.682   2.083
 6013SOL    HW218939   6.283   0.689   1.923
 6014SOL     OW18940   5.836   0.896   0.332
 6014SOL    HW118941   5.742   0.904   0.366
 6014SOL    HW218942   5.896   0.954   0.387
 6015SOL     OW18943   6.004   2.316   4.699
 6015SOL    HW118944   5.940   2.364   4.640
 6015SOL    HW218945   5.991   2.217   4.688
 6016SOL     OW18946   1.198   0.450   5.195
 6016SOL    HW118947   1.255   0.426   5.274
 6016SOL    HW218948   1.156   0.368   5.159
 6017SOL     OW18949   6.065   5.207   3.096
 6017SOL    HW118950   6.114   5.286   3.058
 6017SOL    HW218951   5.983   5.238   3.143
 6018SOL     OW18952   2.790   3.389   0.556
 6018SOL    HW118953   2.708   3.358   0.508
 6018SOL    HW218954   2.768   3.404   0.652
 6019SOL     OW18955   4.261   1.055   3.990
 6019SOL    HW118956   4.204   0.986   3.946
 6019SOL    HW218957   4.319   1.011   4.059
 6020SOL     OW18958   3.722   0.677   2.700
 6020SOL    HW118959   3.765   0.681   2.791
 6020SOL    HW218960   3.774   0.615   2.642
 6021SOL     OW18961   4.354   1.126   2.424
 6021SOL    HW118962   4.433   1.084   2.379
 6021SOL    HW218963   4.371   1.130   2.523
 6022SOL     OW18964   4.912   1.478   3.061
 6022SOL    HW118965   4.826   1.482   3.010
 6022SOL    HW218966   4.892   1.469   3.158
 6023SOL     OW18967   0.230   1.391   3.172
 6023SOL    HW118968   0.158   1.454   3.143
 6023SOL    HW218969   0.305   1.443   3.212
 6024SOL     OW18970   0.577   4.614   2.047
 6024SOL    HW118971   0.530   4.702   2.045
 6024SOL    HW218972   0.588   4.580   1.953
 6025SOL     OW18973   4.689   1.064   2.073
 6025SOL    HW118974   4.752   0.987   2.076
 6025SOL    HW218975   4.606   1.038   2.024
 6026SOL     OW18976   6.893   5.300   4.946
 6026SOL    HW118977   6.894   5.330   5.042
 6026SOL    HW218978   6.798   5.284   4.918
 6027SOL     OW18979   2.873   3.395   6.662
 6027SOL    HW118980   2.859   3.494   6.651
 6027SOL    HW218981   2.785   3.350   6.679
 6028SOL     OW18982   1.705   4.581   0.358
 6028SOL    HW118983   1.769   4.544   0.426
 6028SOL    HW218984   1.667   4.505   0.305
 6029SOL     OW18985   1.641   6.044   0.602
 6029SOL    HW118986   1.706   6.116   0.629
 6029SOL    HW218987   1.690   5.973   0.552
 6030SOL     OW18988   2.175   0.633   1.902
 6030SOL    HW118989   2.199   0.588   1.816
 6030SOL    HW218990   2.225   0.719   1.910
 6031SOL     OW18991   4.715   6.927   5.982
 6031SOL    HW118992   4.643   6.858   5.991
 6031SOL    HW218993   4.786   6.893   5.920
 6032SOL     OW18994   1.595   3.925   2.459
 6032SOL    HW118995   1.592   4.021   2.435
 6032SOL    HW218996   1.515   3.901   2.514
 6033SOL     OW18997   1.635   2.092   2.724
 6033SOL    HW118998   1.624   2.110   2.822
 6033SOL    HW218999   1.608   1.997   2.704
 6034SOL     OW19000   2.590   4.649   4.723
 6034SOL    HW119001   2.575   4.577   4.791
 6034SOL    HW219002   2.508   4.658   4.666
 6035SOL     OW19003   5.181   0.580   4.568
 6035SOL    HW119004   5.155   0.641   4.643
 6035SOL    HW219005   5.210   0.635   4.489
 6036SOL     OW19006   0.225   0.157   5.065
 6036SOL    HW119007   0.285   0.236   5.075
 6036SOL    HW219008   0.190   0.153   4.972
 6037SOL     OW19009   4.556   4.864   5.493
 6037SOL    HW119010   4.617   4.855   5.571
 6037SOL    HW219011   4.517   4.956   5.492
 6038SOL     OW19012   6.831   3.769   6.126
 6038SOL    HW119013   6.841   3.802   6.032
 6038SOL    HW219014   6.749   3.712   6.133
 6039SOL     OW19015   3.329   3.381   2.366
 6039SOL    HW119016   3.337   3.475   2.332
 6039SOL    HW219017   3.232   3.356   2.370
 6040SOL     OW19018   0.510   1.849   6.500
 6040SOL    HW119019   0.594   1.862   6.448
 6040SOL    HW219020   0.461   1.937   6.507
 6041SOL     OW19021   1.213   1.435   0.178
 6041SOL    HW119022   1.146   1.362   0.171
 6041SOL    HW219023   1.170   1.517   0.216
 6042SOL     OW19024   5.169   5.051   2.461
 6042SOL    HW119025   5.093   5.005   2.507
 6042SOL    HW219026   5.172   5.023   2.365
 6043SOL     OW19027   1.151   4.773   4.561
 6043SOL    HW119028   1.104   4.825   4.632
 6043SOL    HW219029   1.250   4.786   4.570
 6044SOL     OW19030   0.435   0.655   1.165
 6044SOL    HW119031   0.428   0.578   1.228
 6044SOL    HW219032   0.456   0.738   1.217
 6045SOL     OW19033   5.795   5.211   0.838
 6045SOL    HW119034   5.717   5.148   0.831
 6045SOL    HW219035   5.876   5.168   0.799
 6046SOL     OW19036   2.573   2.234   0.004
 6046SOL    HW119037   2.486   2.196   6.995
 6046SOL    HW219038   2.564   2.266   0.098
 6047SOL     OW19039   6.081   0.035   3.933
 6047SOL    HW119040   6.029   0.069   4.012
 6047SOL    HW219041   6.163   7.008   3.965
 6048SOL     OW19042   4.050   0.523   3.701
 6048SOL    HW119043   4.123   0.576   3.657
 6048SOL    HW219044   4.082   0.429   3.716
 6049SOL     OW19045   4.778   3.800   6.520
 6049SOL    HW119046   4.699   3.741   6.506
 6049SOL    HW219047   4.782   3.869   6.447
 6050SOL     OW19048   3.842   4.664   5.433
 6050SOL    HW119049   3.816   4.716   5.352
 6050SOL    HW219050   3.931   4.620   5.418
 6051SOL     OW19051   2.514   2.530   2.265
 6051SOL    HW119052   2.470   2.440   2.274
 6051SOL    HW219053   2.589   2.524   2.200
 6052SOL     OW19054   6.614   1.641   0.431
 6052SOL    HW119055   6.535   1.607   0.381
 6052SOL    HW219056   6.680   1.567   0.445
 6053SOL     OW19057   2.989   6.758   6.895
 6053SOL    HW119058   3.062   6.691   6.881
 6053SOL    HW219059   2.920   6.747   6.824
 6054SOL     OW19060   1.537   5.338   1.092
 6054SOL    HW119061   1.518   5.316   1.188
 6054SOL    HW219062   1.460   5.308   1.035
 6055SOL     OW19063   4.831   1.050   5.240
 6055SOL    HW119064   4.807   0.985   5.313
 6055SOL    HW219065   4.911   1.016   5.190
 6056SOL     OW19066   3.751   1.354   6.232
 6056SOL    HW119067   3.673   1.392   6.282
 6056SOL    HW219068   3.718   1.307   6.150
 6057SOL     OW19069   4.051   1.383   5.332
 6057SOL    HW119070   4.016   1.329   5.408
 6057SOL    HW219071   3.990   1.374   5.253
 6058SOL     OW19072   5.288   3.092   4.449
 6058SOL    HW119073   5.227   3.013   4.452
 6058SOL    HW219074   5.364   3.072   4.388
 6059SOL     OW19075   4.907   4.609   6.374
 6059SOL    HW119076   4.826   4.555   6.350
 6059SOL    HW219077   4.878   4.695   6.415
 6060SOL     OW19078   4.507   5.126   5.573
 6060SOL    HW119079   4.537   5.217   5.546
 6060SOL    HW219080   4.529   5.111   5.670
 6061SOL     OW19081   3.509   1.861   6.342
 6061SOL    HW119082   3.455   1.875   6.425
 6061SOL    HW219083   3.566   1.942   6.325
 6062SOL     OW19084   1.869   1.140   4.405
 6062SOL    HW119085   1.898   1.087   4.485
 6062SOL    HW219086   1.945   1.150   4.341
 6063SOL     OW19087   4.082   0.931   6.617
 6063SOL    HW119088   4.180   0.950   6.626
 6063SOL    HW219089   4.069   0.836   6.590
 6064SOL     OW19090   1.214   5.744   3.121
 6064SOL    HW119091   1.152   5.761   3.043
 6064SOL    HW219092   1.182   5.797   3.200
 6065SOL     OW19093   5.985   6.611   0.865
 6065SOL    HW119094   6.013   6.517   0.884
 6065SOL    HW219095   6.058   6.658   0.815
 6066SOL     OW19096   4.346   2.050   1.326
 6066SOL    HW119097   4.285   2.003   1.262
 6066SOL    HW219098   4.292   2.094   1.398
 6067SOL     OW19099   6.332   1.420   5.759
 6067SOL    HW119100   6.368   1.490   5.696
 6067SOL    HW219101   6.408   1.366   5.796
 6068SOL     OW19102   4.869   2.895   5.023
 6068SOL    HW119103   4.798   2.836   4.984
 6068SOL    HW219104   4.830   2.951   5.095
 6069SOL     OW19105   6.941   4.118   5.688
 6069SOL    HW119106   6.976   4.208   5.665
 6069SOL    HW219107   7.008   4.048   5.662
 6070SOL     OW19108   4.180   2.455   6.339
 6070SOL    HW119109   4.138   2.450   6.430
 6070SOL    HW219110   4.257   2.392   6.333
 6071SOL     OW19111   4.217   6.149   5.255
 6071SOL    HW119112   4.238   6.241   5.221
 6071SOL    HW219113   4.121   6.128   5.239
 6072SOL     OW19114   1.313   2.117   1.865
 6072SOL    HW119115   1.312   2.145   1.961
 6072SOL    HW219116   1.291   2.020   1.857
 6073SOL     OW19117   6.510   2.718   0.567
 6073SOL    HW119118   6.419   2.740   0.600
 6073SOL    HW219119   6.515   2.620   0.544
 6074SOL     OW19120   0.918   6.600   4.559
 6074SOL    HW119121   0.957   6.595   4.651
 6074SOL    HW219122   0.831   6.649   4.563
 6075SOL     OW19123   6.221   3.531   0.187
 6075SOL    HW119124   6.204   3.462   0.116
 6075SOL    HW219125   6.194   3.494   0.276
 6076SOL     OW19126   2.217   6.854   4.031
 6076SOL    HW119127   2.187   6.898   3.946
 6076SOL    HW219128   2.301   6.897   4.063
 6077SOL     OW19129   5.949   5.941   2.080
 6077SOL    HW119130   5.998   6.019   2.118
 6077SOL    HW219131   5.885   5.906   2.148
 6078SOL     OW19132   3.089   5.170   3.973
 6078SOL    HW119133   3.133   5.252   4.007
 6078SOL    HW219134   3.020   5.195   3.904
 6079SOL     OW19135   2.475   2.557   0.003
 6079SOL    HW119136   2.445   2.481   6.965
 6079SOL    HW219137   2.569   2.582   6.999
 6080SOL     OW19138   6.123   2.271   1.354
 6080SOL    HW119139   6.179   2.196   1.389
 6080SOL    HW219140   6.182   2.338   1.308
 6081SOL     OW19141   6.529   3.562   3.628
 6081SOL    HW119142   6.531   3.661   3.616
 6081SOL    HW219143   6.489   3.540   3.717
 6082SOL     OW19144   4.246   0.290   2.799
 6082SOL    HW119145   4.277   0.367   2.744
 6082SOL    HW219146   4.236   0.319   2.894
 6083SOL     OW19147   0.925   5.813   6.799
 6083SOL    HW119148   0.996   5.799   6.868
 6083SOL    HW219149   0.966   5.841   6.713
 6084SOL     OW19150   6.216   5.203   5.005
 6084SOL    HW119151   6.253   5.295   5.020
 6084SOL    HW219152   6.224   5.150   5.089
 6085SOL     OW19153   6.719   3.115   0.015
 6085SOL    HW119154   6.652   3.084   6.968
 6085SOL    HW219155   6.704   3.212   0.035
 6086SOL     OW19156   4.293   1.235   4.685
 6086SOL    HW119157   4.322   1.330   4.698
 6086SOL    HW219158   4.256   1.224   4.592
 6087SOL     OW19159   5.485   6.643   6.818
 6087SOL    HW119160   5.429   6.668   6.739
 6087SOL    HW219161   5.485   6.543   6.827
 6088SOL     OW19162   0.603   6.932   4.811
 6088SOL    HW119163   0.671   6.938   4.884
 6088SOL    HW219164   0.640   6.880   4.735
 6089SOL     OW19165   0.794   3.405   0.797
 6089SOL    HW119166   0.864   3.371   0.860
 6089SOL    HW219167   0.739   3.475   0.843
 6090SOL     OW19168   0.719   5.991   5.550
 6090SOL    HW119169   0.791   5.935   5.509
 6090SOL    HW219170   0.756   6.081   5.574
 6091SOL     OW19171   6.551   1.716   2.113
 6091SOL    HW119172   6.510   1.725   2.023
 6091SOL    HW219173   6.552   1.805   2.159
 6092SOL     OW19174   2.359   0.950   2.141
 6092SOL    HW119175   2.363   0.947   2.041
 6092SOL    HW219176   2.268   0.922   2.171
 6093SOL     OW19177   1.421   2.920   1.263
 6093SOL    HW119178   1.465   2.941   1.351
 6093SOL    HW219179   1.477   2.856   1.212
 6094SOL     OW19180   1.631   1.443   1.391
 6094SOL    HW119181   1.654   1.463   1.487
 6094SOL    HW219182   1.621   1.529   1.342
 6095SOL     OW19183   5.526   3.080   6.909
 6095SOL    HW119184   5.552   3.169   6.946
 6095SOL    HW219185   5.532   3.083   6.809
 6096SOL     OW19186   4.434   1.386   4.243
 6096SOL    HW119187   4.502   1.315   4.223
 6096SOL    HW219188   4.475   1.455   4.302
 6097SOL     OW19189   2.379   0.803   2.464
 6097SOL    HW119190   2.324   0.872   2.513
 6097SOL    HW219191   2.320   0.727   2.438
 6098SOL     OW19192   2.381   2.496   6.060
 6098SOL    HW119193   2.301   2.439   6.074
 6098SOL    HW219194   2.387   2.522   5.963
 6099SOL     OW19195   6.262   5.722   4.889
 6099SOL    HW119196   6.178   5.761   4.851
 6099SOL    HW219197   6.267   5.625   4.865
 6100SOL     OW19198   6.421   2.951   0.001
 6100SOL    HW119199   6.352   3.001   0.053
 6100SOL    HW219200   6.425   2.986   6.928
 6101SOL     OW19201   6.741   2.080   5.604
 6101SOL    HW119202   6.774   2.043   5.517
 6101SOL    HW219203   6.791   2.038   5.680
 6102SOL     OW19204   3.190   0.812   5.019
 6102SOL    HW119205   3.111   0.817   4.957
 6102SOL    HW219206   3.274   0.811   4.965
 6103SOL     OW19207   6.829   0.687   4.429
 6103SOL    HW119208   6.905   0.738   4.469
 6103SOL    HW219209   6.865   0.612   4.374
 6104SOL     OW19210   5.783   1.619   6.936
 6104SOL    HW119211   5.706   1.628   6.873
 6104SOL    HW219212   5.748   1.598   0.007
 6105SOL     OW19213   3.717   5.642   6.014
 6105SOL    HW119214   3.657   5.688   5.948
 6105SOL    HW219215   3.725   5.698   6.097
 6106SOL     OW19216   2.999   5.184   6.502
 6106SOL    HW119217   3.034   5.185   6.408
 6106SOL    HW219218   2.977   5.090   6.528
 6107SOL     OW19219   2.207   5.066   4.636
 6107SOL    HW119220   2.301   5.048   4.604
 6107SOL    HW219221   2.143   5.013   4.580
 6108SOL     OW19222   1.010   2.689   4.256
 6108SOL    HW119223   1.044   2.644   4.173
 6108SOL    HW219224   1.087   2.722   4.310
 6109SOL     OW19225   5.773   3.251   0.357
 6109SOL    HW119226   5.710   3.289   0.289
 6109SOL    HW219227   5.787   3.317   0.430
 6110SOL     OW19228   3.331   1.953   5.429
 6110SOL    HW119229   3.335   2.010   5.348
 6110SOL    HW219230   3.238   1.918   5.441
 6111SOL     OW19231   1.142   4.714   2.854
 6111SOL    HW119232   1.140   4.615   2.841
 6111SOL    HW219233   1.102   4.736   2.943
 6112SOL     OW19234   1.603   1.381   2.983
 6112SOL    HW119235   1.637   1.459   2.931
 6112SOL    HW219236   1.672   1.351   3.049
 6113SOL     OW19237   1.505   0.969   5.590
 6113SOL    HW119238   1.474   1.064   5.590
 6113SOL    HW219239   1.433   0.911   5.553
 6114SOL     OW19240   4.725   5.955   0.447
 6114SOL    HW119241   4.810   5.981   0.492
 6114SOL    HW219242   4.745   5.906   0.362
 6115SOL     OW19243   4.822   5.275   2.786
 6115SOL    HW119244   4.863   5.291   2.696
 6115SOL    HW219245   4.723   5.288   2.781
 6116SOL     OW19246   3.034   1.413   1.980
 6116SOL    HW119247   3.087   1.474   1.921
 6116SOL    HW219248   2.970   1.360   1.924
 6117SOL     OW19249   6.098   6.730   4.482
 6117SOL    HW119250   6.184   6.781   4.490
 6117SOL    HW219251   6.046   6.763   4.403
 6118SOL     OW19252   6.415   1.163   3.234
 6118SOL    HW119253   6.469   1.128   3.158
 6118SOL    HW219254   6.424   1.100   3.312
 6119SOL     OW19255   0.715   5.601   4.899
 6119SOL    HW119256   0.685   5.696   4.889
 6119SOL    HW219257   0.656   5.541   4.845
 6120SOL     OW19258   3.033   7.013   3.155
 6120SOL    HW119259   3.007   6.918   3.175
 6120SOL    HW219260   2.975   0.055   3.207
 6121SOL     OW19261   0.472   2.523   3.412
 6121SOL    HW119262   0.448   2.589   3.483
 6121SOL    HW219263   0.567   2.494   3.425
 6122SOL     OW19264   4.005   6.077   3.415
 6122SOL    HW119265   4.048   6.083   3.506
 6122SOL    HW219266   4.060   6.128   3.349
 6123SOL     OW19267   6.552   0.921   1.738
 6123SOL    HW119268   6.537   0.889   1.831
 6123SOL    HW219269   6.578   0.844   1.680
 6124SOL     OW19270   3.398   0.355   6.011
 6124SOL    HW119271   3.349   0.414   5.948
 6124SOL    HW219272   3.471   0.407   6.056
 6125SOL     OW19273   1.627   5.710   1.618
 6125SOL    HW119274   1.566   5.774   1.664
 6125SOL    HW219275   1.578   5.665   1.544
 6126SOL     OW19276   4.958   4.797   3.396
 6126SOL    HW119277   4.978   4.719   3.337
 6126SOL    HW219278   5.007   4.877   3.363
 6127SOL     OW19279   2.115   6.078   1.273
 6127SOL    HW119280   2.122   5.981   1.294
 6127SOL    HW219281   2.036   6.117   1.320
 6128SOL     OW19282   0.021   2.556   0.406
 6128SOL    HW119283   0.063   2.507   0.329
 6128SOL    HW219284   6.998   2.640   0.372
 6129SOL     OW19285   6.156   3.971   2.393
 6129SOL    HW119286   6.067   4.011   2.370
 6129SOL    HW219287   6.223   4.044   2.407
 6130SOL     OW19288   5.079   2.585   3.679
 6130SOL    HW119289   5.037   2.670   3.649
 6130SOL    HW219290   5.008   2.515   3.692
 6131SOL     OW19291   6.601   1.348   5.815
 6131SOL    HW119292   6.646   1.412   5.753
 6131SOL    HW219293   6.667   1.316   5.883
 6132SOL     OW19294   3.685   2.901   0.655
 6132SOL    HW119295   3.746   2.958   0.601
 6132SOL    HW219296   3.684   2.933   0.750
 6133SOL     OW19297   0.884   3.775   1.081
 6133SOL    HW119298   0.968   3.788   1.132
 6133SOL    HW219299   0.853   3.680   1.090
 6134SOL     OW19300   3.788   3.898   6.749
 6134SOL    HW119301   3.795   3.998   6.760
 6134SOL    HW219302   3.756   3.877   6.657
 6135SOL     OW19303   6.693   6.923   1.024
 6135SOL    HW119304   6.717   6.889   0.933
 6135SOL    HW219305   6.762   6.988   1.055
 6136SOL     OW19306   0.982   2.006   2.177
 6136SOL    HW119307   0.941   2.093   2.149
 6136SOL    HW219308   1.077   2.021   2.205
 6137SOL     OW19309   3.166   6.524   6.248
 6137SOL    HW119310   3.093   6.515   6.180
 6137SOL    HW219311   3.252   6.490   6.210
 6138SOL     OW19312   4.179   6.297   2.307
 6138SOL    HW119313   4.229   6.333   2.386
 6138SOL    HW219314   4.156   6.372   2.246
 6139SOL     OW19315   1.627   4.222   5.141
 6139SOL    HW119316   1.626   4.149   5.209
 6139SOL    HW219317   1.706   4.210   5.081
 6140SOL     OW19318   1.302   6.848   1.805
 6140SOL    HW119319   1.401   6.860   1.795
 6140SOL    HW219320   1.283   6.758   1.842
 6141SOL     OW19321   6.679   5.324   5.870
 6141SOL    HW119322   6.680   5.423   5.859
 6141SOL    HW219323   6.635   5.300   5.956
 6142SOL     OW19324   6.531   3.534   0.931
 6142SOL    HW119325   6.544   3.437   0.951
 6142SOL    HW219326   6.516   3.545   0.833
 6143SOL     OW19327   5.980   5.155   6.502
 6143SOL    HW119328   5.946   5.071   6.543
 6143SOL    HW219329   5.992   5.224   6.574
 6144SOL     OW19330   0.054   4.192   3.280
 6144SOL    HW119331   0.074   4.115   3.341
 6144SOL    HW219332   0.139   4.240   3.258
 6145SOL     OW19333   5.096   5.521   2.964
 6145SOL    HW119334   5.002   5.487   2.961
 6145SOL    HW219335   5.099   5.614   2.927
 6146SOL     OW19336   5.174   1.278   3.088
 6146SOL    HW119337   5.210   1.285   3.180
 6146SOL    HW219338   5.103   1.207   3.084
 6147SOL     OW19339   2.046   3.967   2.890
 6147SOL    HW119340   2.010   3.923   2.972
 6147SOL    HW219341   1.978   4.033   2.855
 6148SOL     OW19342   5.539   6.634   4.213
 6148SOL    HW119343   5.556   6.694   4.291
 6148SOL    HW219344   5.494   6.550   4.244
 6149SOL     OW19345   3.224   5.217   3.096
 6149SOL    HW119346   3.215   5.120   3.073
 6149SOL    HW219347   3.295   5.227   3.167
 6150SOL     OW19348   5.092   6.109   6.252
 6150SOL    HW119349   5.019   6.164   6.211
 6150SOL    HW219350   5.056   6.019   6.275
 6151SOL     OW19351   4.989   2.281   5.258
 6151SOL    HW119352   4.914   2.333   5.298
 6151SOL    HW219353   4.971   2.265   5.161
 6152SOL     OW19354   5.707   4.663   6.335
 6152SOL    HW119355   5.624   4.710   6.304
 6152SOL    HW219356   5.706   4.569   6.299
 6153SOL     OW19357   4.605   4.020   1.263
 6153SOL    HW119358   4.583   3.945   1.325
 6153SOL    HW219359   4.700   4.048   1.277
 6154SOL     OW19360   6.024   2.329   2.475
 6154SOL    HW119361   6.021   2.357   2.571
 6154SOL    HW219362   6.009   2.409   2.416
 6155SOL     OW19363   0.315   3.675   4.702
 6155SOL    HW119364   0.349   3.593   4.656
 6155SOL    HW219365   0.244   3.718   4.645
 6156SOL     OW19366   5.651   6.769   2.959
 6156SOL    HW119367   5.671   6.750   2.863
 6156SOL    HW219368   5.734   6.801   3.005
 6157SOL     OW19369   1.691   1.891   4.111
 6157SOL    HW119370   1.621   1.937   4.165
 6157SOL    HW219371   1.780   1.934   4.128
 6158SOL     OW19372   4.427   0.750   6.854
 6158SOL    HW119373   4.499   0.699   6.901
 6158SOL    HW219374   4.384   0.691   6.786
 6159SOL     OW19375   5.414   2.453   0.590
 6159SOL    HW119376   5.496   2.397   0.604
 6159SOL    HW219377   5.433   2.525   0.523
 6160SOL     OW19378   5.815   5.839   1.021
 6160SOL    HW119379   5.855   5.878   1.104
 6160SOL    HW219380   5.829   5.902   0.944
 6161SOL     OW19381   5.447   0.158   6.068
 6161SOL    HW119382   5.523   0.216   6.099
 6161SOL    HW219383   5.366   0.215   6.054
 6162SOL     OW19384   0.953   5.512   4.702
 6162SOL    HW119385   1.042   5.467   4.708
 6162SOL    HW219386   0.885   5.459   4.753
 6163SOL     OW19387   5.998   3.904   0.579
 6163SOL    HW119388   6.005   3.836   0.505
 6163SOL    HW219389   6.058   3.981   0.558
 6164SOL     OW19390   3.051   1.261   0.725
 6164SOL    HW119391   3.074   1.208   0.807
 6164SOL    HW219392   3.018   1.351   0.753
 6165SOL     OW19393   4.170   6.147   0.469
 6165SOL    HW119394   4.246   6.180   0.413
 6165SOL    HW219395   4.159   6.207   0.548
 6166SOL     OW19396   2.635   1.111   5.938
 6166SOL    HW119397   2.644   1.206   5.910
 6166SOL    HW219398   2.538   1.089   5.952
 6167SOL     OW19399   0.473   4.157   3.029
 6167SOL    HW119400   0.431   4.234   2.982
 6167SOL    HW219401   0.403   4.096   3.064
 6168SOL     OW19402   0.391   3.931   2.062
 6168SOL    HW119403   0.338   3.951   2.144
 6168SOL    HW219404   0.483   3.899   2.087
 6169SOL     OW19405   2.112   4.326   2.011
 6169SOL    HW119406   2.195   4.378   2.029
 6169SOL    HW219407   2.038   4.361   2.068
 6170SOL     OW19408   0.032   3.412   5.259
 6170SOL    HW119409   0.063   3.345   5.327
 6170SOL    HW219410   6.955   3.401   5.243
 6171SOL     OW19411   0.373   0.715   0.115
 6171SOL    HW119412   0.366   0.729   0.214
 6171SOL    HW219413   0.391   0.618   0.096
 6172SOL     OW19414   0.552   2.641   2.719
 6172SOL    HW119415   0.640   2.618   2.760
 6172SOL    HW219416   0.498   2.694   2.784
 6173SOL     OW19417   6.372   6.861   2.691
 6173SOL    HW119418   6.391   6.772   2.733
 6173SOL    HW219419   6.435   6.877   2.616
 6174SOL     OW19420   5.629   4.007   2.903
 6174SOL    HW119421   5.633   3.912   2.874
 6174SOL    HW219422   5.710   4.029   2.958
 6175SOL     OW19423   2.297   1.034   5.144
 6175SOL    HW119424   2.369   1.103   5.147
 6175SOL    HW219425   2.249   1.040   5.056
 6176SOL     OW19426   4.351   4.199   5.316
 6176SOL    HW119427   4.371   4.274   5.252
 6176SOL    HW219428   4.437   4.165   5.354
 6177SOL     OW19429   6.097   1.455   1.939
 6177SOL    HW119430   6.152   1.527   1.983
 6177SOL    HW219431   6.158   1.386   1.900
 6178SOL     OW19432   5.192   4.271   2.211
 6178SOL    HW119433   5.118   4.338   2.214
 6178SOL    HW219434   5.208   4.234   2.303
 6179SOL     OW19435   6.225   5.035   2.609
 6179SOL    HW119436   6.325   5.030   2.614
 6179SOL    HW219437   6.198   5.105   2.544
 6180SOL     OW19438   2.730   4.755   0.348
 6180SOL    HW119439   2.797   4.737   0.419
 6180SOL    HW219440   2.727   4.854   0.330
 6181SOL     OW19441   4.780   5.234   6.352
 6181SOL    HW119442   4.846   5.238   6.427
 6181SOL    HW219443   4.784   5.320   6.300
 6182SOL     OW19444   3.308   3.311   0.081
 6182SOL    HW119445   3.287   3.394   0.029
 6182SOL    HW219446   3.267   3.232   0.036
 6183SOL     OW19447   1.117   2.063   0.930
 6183SOL    HW119448   1.191   2.105   0.983
 6183SOL    HW219449   1.029   2.101   0.960
 6184SOL     OW19450   2.965   0.801   5.938
 6184SOL    HW119451   2.901   0.863   5.892
 6184SOL    HW219452   3.011   0.745   5.870
 6185SOL     OW19453   3.383   2.744   5.267
 6185SOL    HW119454   3.475   2.704   5.275
 6185SOL    HW219455   3.387   2.826   5.210
 6186SOL     OW19456   6.199   2.143   2.108
 6186SOL    HW119457   6.141   2.063   2.122
 6186SOL    HW219458   6.242   2.138   2.018
 6187SOL     OW19459   5.234   2.183   5.222
 6187SOL    HW119460   5.231   2.234   5.136
 6187SOL    HW219461   5.158   2.213   5.281
 6188SOL     OW19462   1.661   2.009   4.944
 6188SOL    HW119463   1.602   1.931   4.921
 6188SOL    HW219464   1.708   1.990   5.030
 6189SOL     OW19465   5.452   6.249   2.578
 6189SOL    HW119466   5.523   6.263   2.509
 6189SOL    HW219467   5.367   6.220   2.532
 6190SOL     OW19468   6.629   2.208   5.256
 6190SOL    HW119469   6.696   2.133   5.264
 6190SOL    HW219470   6.615   2.230   5.160
 6191SOL     OW19471   3.641   3.654   6.808
 6191SOL    HW119472   3.705   3.700   6.870
 6191SOL    HW219473   3.547   3.667   6.842
 6192SOL     OW19474   2.564   1.935   0.442
 6192SOL    HW119475   2.540   2.013   0.501
 6192SOL    HW219476   2.550   1.961   0.346
 6193SOL     OW19477   5.116   5.383   0.181
 6193SOL    HW119478   5.163   5.445   0.244
 6193SOL    HW219479   5.019   5.380   0.203
 6194SOL     OW19480   6.623   0.424   6.138
 6194SOL    HW119481   6.683   0.398   6.063
 6194SOL    HW219482   6.529   0.435   6.104
 6195SOL     OW19483   6.082   6.603   5.256
 6195SOL    HW119484   6.098   6.506   5.274
 6195SOL    HW219485   6.171   6.649   5.246
 6196SOL     OW19486   5.248   3.520   3.215
 6196SOL    HW119487   5.226   3.423   3.213
 6196SOL    HW219488   5.250   3.556   3.122
 6197SOL     OW19489   2.907   5.194   2.243
 6197SOL    HW119490   2.993   5.145   2.229
 6197SOL    HW219491   2.921   5.267   2.311
 6198SOL     OW19492   6.341   6.488   6.349
 6198SOL    HW119493   6.406   6.498   6.274
 6198SOL    HW219494   6.369   6.413   6.408
 6199SOL     OW19495   1.334   0.041   0.715
 6199SOL    HW119496   1.262   7.008   0.670
 6199SOL    HW219497   1.358   7.018   0.802
 6200SOL     OW19498   2.094   2.194   2.534
 6200SOL    HW119499   2.038   2.158   2.609
 6200SOL    HW219500   2.124   2.287   2.556
 6201SOL     OW19501   6.792   3.516   3.737
 6201SOL    HW119502   6.707   3.539   3.689
 6201SOL    HW219503   6.796   3.566   3.824
 6202SOL     OW19504   6.253   1.298   2.771
 6202SOL    HW119505   6.223   1.331   2.681
 6202SOL    HW219506   6.246   1.199   2.774
 6203SOL     OW19507   6.417   5.613   1.936
 6203SOL    HW119508   6.383   5.557   1.860
 6203SOL    HW219509   6.341   5.659   1.981
 6204SOL     OW19510   1.721   0.108   5.151
 6204SOL    HW119511   1.699   0.202   5.124
 6204SOL    HW219512   1.743   0.055   5.069
 6205SOL     OW19513   4.938   4.232   2.557
 6205SOL    HW119514   4.903   4.200   2.644
 6205SOL    HW219515   4.876   4.301   2.519
 6206SOL     OW19516   5.007   2.079   3.884
 6206SOL    HW119517   5.045   2.137   3.956
 6206SOL    HW219518   4.915   2.050   3.908
 6207SOL     OW19519   2.065   5.801   4.324
 6207SOL    HW119520   2.091   5.819   4.419
 6207SOL    HW219521   1.970   5.829   4.310
 6208SOL     OW19522   3.757   2.796   5.596
 6208SOL    HW119523   3.829   2.866   5.604
 6208SOL    HW219524   3.669   2.836   5.621
 6209SOL     OW19525   4.028   3.806   0.897
 6209SOL    HW119526   4.022   3.723   0.954
 6209SOL    HW219527   4.109   3.799   0.839
 6210SOL     OW19528   4.631   2.685   3.397
 6210SOL    HW119529   4.603   2.683   3.301
 6210SOL    HW219530   4.676   2.598   3.420
 6211SOL     OW19531   4.756   5.274   4.810
 6211SOL    HW119532   4.770   5.201   4.744
 6211SOL    HW219533   4.751   5.362   4.763
 6212SOL     OW19534   4.248   4.530   5.821
 6212SOL    HW119535   4.244   4.447   5.876
 6212SOL    HW219536   4.159   4.544   5.776
 6213SOL     OW19537   4.415   5.950   0.428
 6213SOL    HW119538   4.364   6.016   0.373
 6213SOL    HW219539   4.500   5.991   0.459
 6214SOL     OW19540   6.227   5.900   5.484
 6214SOL    HW119541   6.257   5.834   5.553
 6214SOL    HW219542   6.255   5.870   5.393
 6215SOL     OW19543   5.143   2.328   6.027
 6215SOL    HW119544   5.199   2.324   6.110
 6215SOL    HW219545   5.047   2.331   6.052
 6216SOL     OW19546   4.796   2.735   3.071
 6216SOL    HW119547   4.738   2.657   3.094
 6216SOL    HW219548   4.891   2.706   3.066
 6217SOL     OW19549   1.042   4.506   2.460
 6217SOL    HW119550   1.086   4.416   2.462
 6217SOL    HW219551   1.016   4.529   2.366
 6218SOL     OW19552   4.641   6.803   0.324
 6218SOL    HW119553   4.704   6.831   0.397
 6218SOL    HW219554   4.622   6.882   0.265
 6219SOL     OW19555   1.207   1.055   5.486
 6219SOL    HW119556   1.286   1.113   5.462
 6219SOL    HW219557   1.128   1.082   5.431
 6220SOL     OW19558   4.164   0.802   1.015
 6220SOL    HW119559   4.187   0.881   0.959
 6220SOL    HW219560   4.120   0.832   1.099
 6221SOL     OW19561   6.220   5.929   6.398
 6221SOL    HW119562   6.248   5.928   6.302
 6221SOL    HW219563   6.120   5.934   6.404
 6222SOL     OW19564   6.462   1.576   2.739
 6222SOL    HW119565   6.394   1.585   2.666
 6222SOL    HW219566   6.531   1.508   2.712
 6223SOL     OW19567   0.342   5.362   3.944
 6223SOL    HW119568   0.363   5.272   3.907
 6223SOL    HW219569   0.263   5.400   3.897
 6224SOL     OW19570   4.260   1.883   6.605
 6224SOL    HW119571   4.217   1.859   6.518
 6224SOL    HW219572   4.307   1.971   6.596
 6225SOL     OW19573   4.169   6.907   6.521
 6225SOL    HW119574   4.179   6.968   6.442
 6225SOL    HW219575   4.078   6.866   6.521
 6226SOL     OW19576   0.774   1.541   4.232
 6226SOL    HW119577   0.822   1.462   4.272
 6226SOL    HW219578   0.764   1.528   4.134
 6227SOL     OW19579   3.163   3.808   5.099
 6227SOL    HW119580   3.253   3.834   5.064
 6227SOL    HW219581   3.106   3.890   5.106
 6228SOL     OW19582   2.047   2.735   3.916
 6228SOL    HW119583   1.977   2.796   3.953
 6228SOL    HW219584   2.084   2.678   3.989
 6229SOL     OW19585   0.632   3.700   3.955
 6229SOL    HW119586   0.571   3.627   3.924
 6229SOL    HW219587   0.625   3.778   3.893
 6230SOL     OW19588   0.840   0.892   2.010
 6230SOL    HW119589   0.824   0.970   1.951
 6230SOL    HW219590   0.936   0.863   2.002
 6231SOL     OW19591   7.003   4.578   0.364
 6231SOL    HW119592   7.020   4.490   0.319
 6231SOL    HW219593   0.042   4.648   0.325
 6232SOL     OW19594   4.634   1.353   0.235
 6232SOL    HW119595   4.536   1.347   0.214
 6232SOL    HW219596   4.658   1.281   0.299
 6233SOL     OW19597   0.115   3.699   1.385
 6233SOL    HW119598   0.185   3.713   1.455
 6233SOL    HW219599   0.145   3.742   1.299
 6234SOL     OW19600   5.953   0.253   4.547
 6234SOL    HW119601   5.966   0.155   4.563
 6234SOL    HW219602   5.997   0.278   4.461
 6235SOL     OW19603   6.878   1.170   2.198
 6235SOL    HW119604   6.785   1.188   2.230
 6235SOL    HW219605   6.881   1.082   2.150
 6236SOL     OW19606   0.543   4.655   0.991
 6236SOL    HW119607   0.561   4.701   1.078
 6236SOL    HW219608   0.509   4.722   0.925
 6237SOL     OW19609   3.546   0.899   1.057
 6237SOL    HW119610   3.478   0.903   1.130
 6237SOL    HW219611   3.586   0.808   1.054
 6238SOL     OW19612   2.364   6.557   4.715
 6238SOL    HW119613   2.280   6.563   4.662
 6238SOL    HW219614   2.431   6.623   4.680
 6239SOL     OW19615   4.755   0.992   2.922
 6239SOL    HW119616   4.785   0.897   2.932
 6239SOL    HW219617   4.753   1.015   2.825
 6240SOL     OW19618   4.132   3.411   4.291
 6240SOL    HW119619   4.128   3.502   4.249
 6240SOL    HW219620   4.117   3.342   4.221
 6241SOL     OW19621   3.001   6.689   3.920
 6241SOL    HW119622   3.037   6.596   3.930
 6241SOL    HW219623   2.929   6.689   3.851
 6242SOL     OW19624   3.143   1.894   3.512
 6242SOL    HW119625   3.106   1.809   3.473
 6242SOL    HW219626   3.226   1.919   3.464
 6243SOL     OW19627   5.565   1.567   6.246
 6243SOL    HW119628   5.644   1.512   6.271
 6243SOL    HW219629   5.576   1.659   6.284
 6244SOL     OW19630   4.201   4.683   2.958
 6244SOL    HW119631   4.233   4.652   3.047
 6244SOL    HW219632   4.257   4.640   2.886
 6245SOL     OW19633   0.742   4.292   2.586
 6245SOL    HW119634   0.764   4.311   2.491
 6245SOL    HW219635   0.650   4.325   2.607
 6246SOL     OW19636   6.972   6.626   4.613
 6246SOL    HW119637   6.959   6.681   4.695
 6246SOL    HW219638   0.033   6.569   4.624
 6247SOL     OW19639   6.011   6.150   2.989
 6247SOL    HW119640   6.056   6.237   3.011
 6247SOL    HW219641   5.952   6.124   3.064
 6248SOL     OW19642   3.756   3.162   6.575
 6248SOL    HW119643   3.809   3.078   6.586
 6248SOL    HW219644   3.672   3.142   6.525
 6249SOL     OW19645   6.247   2.837   1.042
 6249SOL    HW119646   6.286   2.925   1.015
 6249SOL    HW219647   6.148   2.846   1.052
 6250SOL     OW19648   0.260   0.779   0.353
 6250SOL    HW119649   0.221   0.698   0.397
 6250SOL    HW219650   0.187   0.845   0.334
 6251SOL     OW19651   2.878   6.469   4.399
 6251SOL    HW119652   2.790   6.515   4.406
 6251SOL    HW219653   2.917   6.456   4.490
 6252SOL     OW19654   2.533   5.643   0.268
 6252SOL    HW119655   2.544   5.584   0.188
 6252SOL    HW219656   2.471   5.598   0.333
 6253SOL     OW19657   3.398   5.123   4.675
 6253SOL    HW119658   3.455   5.201   4.647
 6253SOL    HW219659   3.327   5.107   4.606
 6254SOL     OW19660   6.795   6.115   0.397
 6254SOL    HW119661   6.701   6.149   0.399
 6254SOL    HW219662   6.795   6.016   0.408
 6255SOL     OW19663   0.048   1.312   1.548
 6255SOL    HW119664   0.129   1.310   1.607
 6255SOL    HW219665   7.013   1.391   1.571
 6256SOL     OW19666   4.745   5.783   2.559
 6256SOL    HW119667   4.685   5.720   2.609
 6256SOL    HW219668   4.840   5.764   2.584
 6257SOL     OW19669   4.199   4.203   1.455
 6257SOL    HW119670   4.278   4.176   1.510
 6257SOL    HW219671   4.145   4.121   1.431
 6258SOL     OW19672   4.450   6.163   5.389
 6258SOL    HW119673   4.385   6.142   5.316
 6258SOL    HW219674   4.416   6.240   5.442
 6259SOL     OW19675   2.559   0.706   5.160
 6259SOL    HW119676   2.652   0.741   5.170
 6259SOL    HW219677   2.562   0.613   5.125
 6260SOL     OW19678   2.410   1.397   0.194
 6260SOL    HW119679   2.401   1.369   0.290
 6260SOL    HW219680   2.506   1.386   0.166
 6261SOL     OW19681   3.698   6.095   1.535
 6261SOL    HW119682   3.760   6.042   1.593
 6261SOL    HW219683   3.646   6.032   1.476
 6262SOL     OW19684   6.932   6.966   2.185
 6262SOL    HW119685   6.990   0.017   2.225
 6262SOL    HW219686   6.979   6.926   2.106
 6263SOL     OW19687   6.153   6.392   5.435
 6263SOL    HW119688   6.153   6.376   5.534
 6263SOL    HW219689   6.114   6.312   5.389
 6264SOL     OW19690   1.666   6.686   1.313
 6264SOL    HW119691   1.650   6.782   1.333
 6264SOL    HW219692   1.706   6.676   1.222
 6265SOL     OW19693   4.874   1.656   0.091
 6265SOL    HW119694   4.930   1.574   0.104
 6265SOL    HW219695   4.874   1.680   7.014
 6266SOL     OW19696   2.522   5.461   3.691
 6266SOL    HW119697   2.503   5.545   3.741
 6266SOL    HW219698   2.484   5.468   3.598
 6267SOL     OW19699   1.323   6.794   5.058
 6267SOL    HW119700   1.246   6.833   5.107
 6267SOL    HW219701   1.408   6.834   5.092
 6268SOL     OW19702   3.494   0.364   1.753
 6268SOL    HW119703   3.429   0.407   1.816
 6268SOL    HW219704   3.584   0.360   1.797
 6269SOL     OW19705   5.704   5.454   0.931
 6269SOL    HW119706   5.730   5.370   0.885
 6269SOL    HW219707   5.782   5.490   0.982
 6270SOL     OW19708   1.609   6.385   0.489
 6270SOL    HW119709   1.669   6.329   0.546
 6270SOL    HW219710   1.663   6.456   0.443
 6271SOL     OW19711   6.086   3.254   6.639
 6271SOL    HW119712   6.097   3.166   6.592
 6271SOL    HW219713   6.030   3.240   6.722
 6272SOL     OW19714   6.798   6.879   0.151
 6272SOL    HW119715   6.890   6.844   0.132
 6272SOL    HW219716   6.801   6.979   0.155
 6273SOL     OW19717   7.017   0.482   1.706
 6273SOL    HW119718   6.938   0.532   1.742
 6273SOL    HW219719   0.004   0.394   1.752
 6274SOL     OW19720   3.203   5.516   5.140
 6274SOL    HW119721   3.287   5.466   5.162
 6274SOL    HW219722   3.162   5.477   5.058
 6275SOL     OW19723   1.818   5.153   6.828
 6275SOL    HW119724   1.891   5.086   6.841
 6275SOL    HW219725   1.729   5.108   6.835
 6276SOL     OW19726   1.689   6.048   2.894
 6276SOL    HW119727   1.616   6.117   2.891
 6276SOL    HW219728   1.698   6.013   2.987
 6277SOL     OW19729   5.598   3.128   1.480
 6277SOL    HW119730   5.546   3.171   1.553
 6277SOL    HW219731   5.676   3.078   1.518
 6278SOL     OW19732   2.909   0.172   6.456
 6278SOL    HW119733   2.825   0.141   6.411
 6278SOL    HW219734   2.984   0.171   6.391
 6279SOL     OW19735   2.599   6.820   1.533
 6279SOL    HW119736   2.671   6.806   1.464
 6279SOL    HW219737   2.630   6.785   1.621
 6280SOL     OW19738   6.775   1.767   6.960
 6280SOL    HW119739   6.791   1.696   0.007
 6280SOL    HW219740   6.862   1.802   6.926
 6281SOL     OW19741   6.180   4.202   5.472
 6281SOL    HW119742   6.243   4.140   5.519
 6281SOL    HW219743   6.178   4.290   5.519
 6282SOL     OW19744   0.594   3.476   5.793
 6282SOL    HW119745   0.626   3.440   5.880
 6282SOL    HW219746   0.671   3.517   5.744
 6283SOL     OW19747   0.996   6.185   5.280
 6283SOL    HW119748   0.965   6.108   5.226
 6283SOL    HW219749   0.986   6.164   5.378
 6284SOL     OW19750   2.312   4.686   6.649
 6284SOL    HW119751   2.408   4.696   6.626
 6284SOL    HW219752   2.302   4.683   6.749
 6285SOL     OW19753   1.114   3.369   3.659
 6285SOL    HW119754   1.201   3.328   3.631
 6285SOL    HW219755   1.046   3.297   3.670
 6286SOL     OW19756   1.130   2.958   5.238
 6286SOL    HW119757   1.190   3.036   5.222
 6286SOL    HW219758   1.035   2.987   5.232
 6287SOL     OW19759   4.472   4.799   5.025
 6287SOL    HW119760   4.452   4.722   4.964
 6287SOL    HW219761   4.544   4.855   4.985
 6288SOL     OW19762   4.056   3.227   6.788
 6288SOL    HW119763   4.137   3.274   6.823
 6288SOL    HW219764   4.082   3.135   6.759
 6289SOL     OW19765   2.789   4.566   5.976
 6289SOL    HW119766   2.694   4.558   5.947
 6289SOL    HW219767   2.839   4.623   5.910
 6290SOL     OW19768   5.217   5.406   5.151
 6290SOL    HW119769   5.268   5.334   5.104
 6290SOL    HW219770   5.240   5.495   5.111
 6291SOL     OW19771   2.994   3.184   2.832
 6291SOL    HW119772   3.056   3.106   2.821
 6291SOL    HW219773   2.970   3.194   2.929
 6292SOL     OW19774   1.866   3.318   4.567
 6292SOL    HW119775   1.933   3.285   4.634
 6292SOL    HW219776   1.778   3.332   4.613
 6293SOL     OW19777   4.365   1.299   6.357
 6293SOL    HW119778   4.330   1.205   6.351
 6293SOL    HW219779   4.295   1.358   6.397
 6294SOL     OW19780   2.053   1.364   3.064
 6294SOL    HW119781   2.145   1.371   3.025
 6294SOL    HW219782   1.985   1.382   2.992
 6295SOL     OW19783   5.647   3.883   5.626
 6295SOL    HW119784   5.638   3.972   5.582
 6295SOL    HW219785   5.626   3.892   5.724
 6296SOL     OW19786   0.397   2.360   6.336
 6296SOL    HW119787   0.305   2.332   6.363
 6296SOL    HW219788   0.391   2.449   6.288
 6297SOL     OW19789   5.988   0.755   4.167
 6297SOL    HW119790   6.075   0.771   4.120
 6297SOL    HW219791   5.950   0.843   4.196
 6298SOL     OW19792   6.046   5.117   0.754
 6298SOL    HW119793   6.029   5.019   0.743
 6298SOL    HW219794   6.097   5.151   0.675
 6299SOL     OW19795   4.977   1.818   2.560
 6299SOL    HW119796   4.915   1.889   2.593
 6299SOL    HW219797   5.037   1.856   2.489
 6300SOL     OW19798   3.247   0.084   6.152
 6300SOL    HW119799   3.319   0.102   6.218
 6300SOL    HW219800   3.173   0.033   6.197
 6301SOL     OW19801   3.354   6.396   0.623
 6301SOL    HW119802   3.302   6.419   0.705
 6301SOL    HW219803   3.297   6.343   0.561
 6302SOL     OW19804   2.853   1.008   5.793
 6302SOL    HW119805   2.789   1.057   5.852
 6302SOL    HW219806   2.938   1.060   5.786
 6303SOL     OW19807   1.162   5.710   5.630
 6303SOL    HW119808   1.165   5.806   5.601
 6303SOL    HW219809   1.176   5.651   5.550
 6304SOL     OW19810   4.172   1.135   3.338
 6304SOL    HW119811   4.168   1.235   3.342
 6304SOL    HW219812   4.122   1.103   3.258
 6305SOL     OW19813   0.649   6.379   5.925
 6305SOL    HW119814   0.600   6.291   5.925
 6305SOL    HW219815   0.617   6.434   6.003
 6306SOL     OW19816   0.034   4.426   3.886
 6306SOL    HW119817   7.013   4.347   3.842
 6306SOL    HW219818   0.063   4.492   3.816
 6307SOL     OW19819   4.044   3.336   3.119
 6307SOL    HW119820   4.095   3.422   3.118
 6307SOL    HW219821   3.968   3.342   3.184
 6308SOL     OW19822   0.644   2.730   0.009
 6308SOL    HW119823   0.601   2.777   0.086
 6308SOL    HW219824   0.582   2.659   6.996
 6309SOL     OW19825   1.976   6.065   4.051
 6309SOL    HW119826   2.060   6.028   4.012
 6309SOL    HW219827   1.929   5.995   4.104
 6310SOL     OW19828   1.580   6.463   3.240
 6310SOL    HW119829   1.487   6.483   3.271
 6310SOL    HW219830   1.643   6.533   3.274
 6311SOL     OW19831   5.056   0.579   6.376
 6311SOL    HW119832   5.144   0.615   6.407
 6311SOL    HW219833   4.983   0.617   6.432
 6312SOL     OW19834   3.685   6.498   6.687
 6312SOL    HW119835   3.755   6.459   6.747
 6312SOL    HW219836   3.610   6.533   6.743
 6313SOL     OW19837   5.421   6.091   3.690
 6313SOL    HW119838   5.324   6.117   3.695
 6313SOL    HW219839   5.428   5.994   3.668
 6314SOL     OW19840   2.039   6.882   1.884
 6314SOL    HW119841   1.974   6.807   1.897
 6314SOL    HW219842   2.060   6.923   1.972
 6315SOL     OW19843   2.435   2.708   3.816
 6315SOL    HW119844   2.373   2.785   3.831
 6315SOL    HW219845   2.461   2.669   3.905
 6316SOL     OW19846   5.647   1.329   4.848
 6316SOL    HW119847   5.593   1.275   4.912
 6316SOL    HW219848   5.608   1.421   4.841
 6317SOL     OW19849   4.717   5.055   1.876
 6317SOL    HW119850   4.695   5.041   1.780
 6317SOL    HW219851   4.743   5.150   1.891
 6318SOL     OW19852   6.439   0.110   6.113
 6318SOL    HW119853   6.362   0.124   6.175
 6318SOL    HW219854   6.503   0.044   6.153
 6319SOL     OW19855   5.692   1.886   4.582
 6319SOL    HW119856   5.635   1.876   4.663
 6319SOL    HW219857   5.635   1.907   4.503
 6320SOL     OW19858   6.698   0.677   4.765
 6320SOL    HW119859   6.764   0.620   4.717
 6320SOL    HW219860   6.620   0.696   4.706
 6321SOL     OW19861   5.589   2.113   0.347
 6321SOL    HW119862   5.538   2.199   0.338
 6321SOL    HW219863   5.540   2.052   0.410
 6322SOL     OW19864   1.449   0.706   1.429
 6322SOL    HW119865   1.534   0.696   1.482
 6322SOL    HW219866   1.460   0.781   1.364
 6323SOL     OW19867   2.993   3.268   1.511
 6323SOL    HW119868   3.084   3.309   1.510
 6323SOL    HW219869   2.933   3.319   1.450
 6324SOL     OW19870   4.329   1.728   0.852
 6324SOL    HW119871   4.304   1.737   0.756
 6324SOL    HW219872   4.252   1.689   0.903
 6325SOL     OW19873   1.719   2.358   3.322
 6325SOL    HW119874   1.635   2.407   3.346
 6325SOL    HW219875   1.798   2.411   3.352
 6326SOL     OW19876   5.246   4.627   5.882
 6326SOL    HW119877   5.147   4.614   5.878
 6326SOL    HW219878   5.274   4.689   5.809
 6327SOL     OW19879   0.125   0.152   3.225
 6327SOL    HW119880   0.213   0.104   3.224
 6327SOL    HW219881   0.111   0.193   3.315
 6328SOL     OW19882   4.743   3.806   5.819
 6328SOL    HW119883   4.814   3.805   5.748
 6328SOL    HW219884   4.659   3.843   5.780
 6329SOL     OW19885   1.444   2.762   5.623
 6329SOL    HW119886   1.420   2.671   5.587
 6329SOL    HW219887   1.542   2.778   5.609
 6330SOL     OW19888   5.307   1.241   3.344
 6330SOL    HW119889   5.242   1.288   3.405
 6330SOL    HW219890   5.397   1.283   3.353
 6331SOL     OW19891   0.121   3.234   2.887
 6331SOL    HW119892   0.044   3.295   2.904
 6331SOL    HW219893   0.197   3.285   2.849
 6332SOL     OW19894   2.705   1.260   0.309
 6332SOL    HW119895   2.740   1.296   0.396
 6332SOL    HW219896   2.631   1.195   0.328
 6333SOL     OW19897   4.407   1.387   0.725
 6333SOL    HW119898   4.324   1.381   0.670
 6333SOL    HW219899   4.464   1.463   0.692
 6334SOL     OW19900   1.787   1.115   1.746
 6334SOL    HW119901   1.769   1.057   1.667
 6334SOL    HW219902   1.742   1.203   1.734
 6335SOL     OW19903   6.152   1.519   0.820
 6335SOL    HW119904   6.132   1.603   0.871
 6335SOL    HW219905   6.171   1.444   0.884
 6336SOL     OW19906   0.850   3.135   6.078
 6336SOL    HW119907   0.816   3.046   6.048
 6336SOL    HW219908   0.949   3.140   6.062
 6337SOL     OW19909   4.272   5.648   4.883
 6337SOL    HW119910   4.237   5.703   4.960
 6337SOL    HW219911   4.372   5.649   4.884
 6338SOL     OW19912   2.907   1.897   4.149
 6338SOL    HW119913   2.864   1.928   4.064
 6338SOL    HW219914   2.905   1.797   4.153
 6339SOL     OW19915   1.102   4.639   3.282
 6339SOL    HW119916   1.160   4.599   3.211
 6339SOL    HW219917   1.007   4.612   3.266
 6340SOL     OW19918   2.188   4.273   1.579
 6340SOL    HW119919   2.238   4.358   1.599
 6340SOL    HW219920   2.135   4.246   1.659
 6341SOL     OW19921   0.869   4.479   3.536
 6341SOL    HW119922   0.893   4.561   3.589
 6341SOL    HW219923   0.790   4.434   3.578
 6342SOL     OW19924   1.928   1.951   1.989
 6342SOL    HW119925   1.868   2.030   2.000
 6342SOL    HW219926   1.901   1.899   1.908
 6343SOL     OW19927   2.445   5.905   1.182
 6343SOL    HW119928   2.515   5.975   1.167
 6343SOL    HW219929   2.474   5.820   1.139
 6344SOL     OW19930   6.586   1.427   3.569
 6344SOL    HW119931   6.500   1.380   3.588
 6344SOL    HW219932   6.634   1.381   3.494
 6345SOL     OW19933   5.958   3.768   1.715
 6345SOL    HW119934   6.001   3.857   1.725
 6345SOL    HW219935   5.891   3.771   1.641
 6346SOL     OW19936   0.066   4.338   5.670
 6346SOL    HW119937   0.095   4.382   5.585
 6346SOL    HW219938   7.005   4.383   5.705
 6347SOL     OW19939   2.166   1.749   2.907
 6347SOL    HW119940   2.080   1.789   2.937
 6347SOL    HW219941   2.198   1.797   2.825
 6348SOL     OW19942   6.733   2.498   5.792
 6348SOL    HW119943   6.752   2.415   5.739
 6348SOL    HW219944   6.780   2.493   5.880
 6349SOL     OW19945   6.871   1.275   6.978
 6349SOL    HW119946   6.843   1.190   0.003
 6349SOL    HW219947   6.955   1.259   6.927
 6350SOL     OW19948   1.833   4.996   1.862
 6350SOL    HW119949   1.836   5.069   1.794
 6350SOL    HW219950   1.862   5.033   1.951
 6351SOL     OW19951   5.692   3.292   2.498
 6351SOL    HW119952   5.722   3.261   2.408
 6351SOL    HW219953   5.670   3.213   2.555
 6352SOL     OW19954   2.539   0.459   5.022
 6352SOL    HW119955   2.457   0.435   5.074
 6352SOL    HW219956   2.553   0.391   4.950
 6353SOL     OW19957   3.472   5.980   6.368
 6353SOL    HW119958   3.400   5.953   6.431
 6353SOL    HW219959   3.507   6.070   6.394
 6354SOL     OW19960   4.457   5.020   2.328
 6354SOL    HW119961   4.518   4.948   2.361
 6354SOL    HW219962   4.390   4.981   2.265
 6355SOL     OW19963   2.472   5.064   1.185
 6355SOL    HW119964   2.513   5.106   1.266
 6355SOL    HW219965   2.473   4.964   1.196
 6356SOL     OW19966   6.072   4.099   6.584
 6356SOL    HW119967   6.150   4.158   6.600
 6356SOL    HW219968   6.044   4.106   6.488
 6357SOL     OW19969   5.323   1.372   1.183
 6357SOL    HW119970   5.224   1.358   1.188
 6357SOL    HW219971   5.358   1.332   1.098
 6358SOL     OW19972   1.276   2.053   6.971
 6358SOL    HW119973   1.198   2.025   0.006
 6358SOL    HW219974   1.244   2.083   6.881
 6359SOL     OW19975   5.834   6.144   0.512
 6359SOL    HW119976   5.747   6.163   0.467
 6359SOL    HW219977   5.905   6.201   0.471
 6360SOL     OW19978   1.053   2.786   1.815
 6360SOL    HW119979   1.051   2.693   1.852
 6360SOL    HW219980   1.109   2.787   1.732
 6361SOL     OW19981   0.813   0.693   6.710
 6361SOL    HW119982   0.758   0.611   6.695
 6361SOL    HW219983   0.868   0.710   6.628
 6362SOL     OW19984   1.154   5.358   0.076
 6362SOL    HW119985   1.096   5.355   7.015
 6362SOL    HW219986   1.147   5.449   0.118
 6363SOL     OW19987   2.700   4.845   3.759
 6363SOL    HW119988   2.751   4.834   3.845
 6363SOL    HW219989   2.763   4.869   3.686
 6364SOL     OW19990   2.408   2.543   4.673
 6364SOL    HW119991   2.373   2.620   4.726
 6364SOL    HW219992   2.333   2.480   4.653
 6365SOL     OW19993   5.861   5.293   3.231
 6365SOL    HW119994   5.895   5.379   3.269
 6365SOL    HW219995   5.807   5.245   3.300
 6366SOL     OW19996   5.877   6.716   4.697
 6366SOL    HW119997   5.839   6.798   4.739
 6366SOL    HW219998   5.957   6.740   4.643
 6367SOL     OW19999   2.181   2.131   2.899
 6367SOL    HW120000   2.115   2.200   2.929
 6367SOL    HW220001   2.189   2.059   2.967
 6368SOL     OW20002   4.944   3.049   4.800
 6368SOL    HW120003   5.027   3.105   4.800
 6368SOL    HW220004   4.926   3.016   4.893
 6369SOL     OW20005   3.046   5.594   6.586
 6369SOL    HW120006   3.114   5.566   6.518
 6369SOL    HW220007   2.988   5.666   6.546
 6370SOL     OW20008   5.664   3.258   4.302
 6370SOL    HW120009   5.591   3.326   4.299
 6370SOL    HW220010   5.624   3.166   4.296
 6371SOL     OW20011   5.546   3.852   2.157
 6371SOL    HW120012   5.626   3.912   2.146
 6371SOL    HW220013   5.515   3.822   2.066
 6372SOL     OW20014   6.829   1.449   2.918
 6372SOL    HW120015   6.781   1.440   2.831
 6372SOL    HW220016   6.863   1.359   2.947
 6373SOL     OW20017   4.926   4.285   1.724
 6373SOL    HW120018   4.997   4.215   1.715
 6373SOL    HW220019   4.969   4.374   1.742
 6374SOL     OW20020   4.660   2.904   0.433
 6374SOL    HW120021   4.710   2.818   0.439
 6374SOL    HW220022   4.564   2.885   0.410
 6375SOL     OW20023   6.552   2.652   1.855
 6375SOL    HW120024   6.481   2.588   1.826
 6375SOL    HW220025   6.549   2.664   1.954
 6376SOL     OW20026   3.270   0.805   6.807
 6376SOL    HW120027   3.359   0.793   6.851
 6376SOL    HW220028   3.217   0.874   6.857
 6377SOL     OW20029   6.884   0.576   0.485
 6377SOL    HW120030   6.948   0.523   0.540
 6377SOL    HW220031   6.796   0.580   0.531
 6378SOL     OW20032   5.576   5.704   3.403
 6378SOL    HW120033   5.605   5.758   3.323
 6378SOL    HW220034   5.545   5.614   3.373
 6379SOL     OW20035   2.592   6.083   0.058
 6379SOL    HW120036   2.504   6.048   0.026
 6379SOL    HW220037   2.665   6.045   0.003
 6380SOL     OW20038   1.619   3.638   4.954
 6380SOL    HW120039   1.709   3.597   4.939
 6380SOL    HW220040   1.571   3.647   4.867
 6381SOL     OW20041   4.267   2.678   0.356
 6381SOL    HW120042   4.243   2.633   0.270
 6381SOL    HW220043   4.239   2.774   0.352
 6382SOL     OW20044   2.070   1.745   1.592
 6382SOL    HW120045   2.137   1.752   1.666
 6382SOL    HW220046   2.082   1.821   1.528
 6383SOL     OW20047   2.108   2.462   2.586
 6383SOL    HW120048   2.123   2.520   2.506
 6383SOL    HW220049   2.033   2.499   2.641
 6384SOL     OW20050   6.315   2.570   2.327
 6384SOL    HW120051   6.257   2.509   2.273
 6384SOL    HW220052   6.379   2.516   2.382
 6385SOL     OW20053   7.016   3.086   1.025
 6385SOL    HW120054   7.017   3.021   0.949
 6385SOL    HW220055   0.073   3.067   1.085
 6386SOL     OW20056   2.313   3.602   6.922
 6386SOL    HW120057   2.245   3.530   6.922
 6386SOL    HW220058   2.385   3.581   6.988
 6387SOL     OW20059   6.829   0.597   6.430
 6387SOL    HW120060   6.920   0.599   6.471
 6387SOL    HW220061   6.789   0.506   6.439
 6388SOL     OW20062   6.583   5.194   2.214
 6388SOL    HW120063   6.533   5.279   2.197
 6388SOL    HW220064   6.658   5.211   2.278
 6389SOL     OW20065   1.341   1.041   6.586
 6389SOL    HW120066   1.410   1.113   6.598
 6389SOL    HW220067   1.280   1.066   6.510
 6390SOL     OW20068   6.687   1.495   6.226
 6390SOL    HW120069   6.678   1.451   6.315
 6390SOL    HW220070   6.701   1.594   6.238
 6391SOL     OW20071   0.558   1.557   5.209
 6391SOL    HW120072   0.460   1.550   5.190
 6391SOL    HW220073   0.578   1.644   5.253
 6392SOL     OW20074   4.231   6.498   3.551
 6392SOL    HW120075   4.153   6.513   3.611
 6392SOL    HW220076   4.301   6.447   3.600
 6393SOL     OW20077   6.774   5.625   0.704
 6393SOL    HW120078   6.868   5.616   0.735
 6393SOL    HW220079   6.747   5.541   0.656
 6394SOL     OW20080   1.251   5.498   1.346
 6394SOL    HW120081   1.255   5.547   1.432
 6394SOL    HW220082   1.321   5.427   1.344
 6395SOL     OW20083   2.110   4.588   3.446
 6395SOL    HW120084   2.165   4.619   3.368
 6395SOL    HW220085   2.062   4.504   3.422
 6396SOL     OW20086   0.707   3.670   0.534
 6396SOL    HW120087   0.608   3.656   0.527
 6396SOL    HW220088   0.735   3.659   0.630
 6397SOL     OW20089   5.808   2.884   3.546
 6397SOL    HW120090   5.714   2.854   3.531
 6397SOL    HW220091   5.862   2.806   3.579
 6398SOL     OW20092   1.648   0.029   1.157
 6398SOL    HW120093   1.569   0.013   1.098
 6398SOL    HW220094   1.686   0.120   1.139
 6399SOL     OW20095   2.848   0.687   6.173
 6399SOL    HW120096   2.768   0.737   6.206
 6399SOL    HW220097   2.884   0.733   6.092
 6400SOL     OW20098   1.027   5.784   2.886
 6400SOL    HW120099   1.101   5.816   2.826
 6400SOL    HW220100   0.950   5.848   2.881
 6401SOL     OW20101   3.743   6.193   3.614
 6401SOL    HW120102   3.745   6.094   3.600
 6401SOL    HW220103   3.730   6.239   3.526
 6402SOL     OW20104   2.030   5.410   4.890
 6402SOL    HW120105   2.090   5.330   4.893
 6402SOL    HW220106   2.017   5.439   4.795
 6403SOL     OW20107   4.495   5.847   4.721
 6403SOL    HW120108   4.525   5.941   4.741
 6403SOL    HW220109   4.506   5.791   4.803
 6404SOL     OW20110   4.066   0.107   1.911
 6404SOL    HW120111   3.986   0.051   1.891
 6404SOL    HW220112   4.145   0.071   1.860
 6405SOL     OW20113   5.330   1.832   2.232
 6405SOL    HW120114   5.250   1.785   2.268
 6405SOL    HW220115   5.320   1.844   2.133
 6406SOL     OW20116   1.357   2.077   2.834
 6406SOL    HW120117   1.371   1.997   2.775
 6406SOL    HW220118   1.328   2.046   2.925
 6407SOL     OW20119   1.946   6.017   2.841
 6407SOL    HW120120   2.001   6.091   2.803
 6407SOL    HW220121   1.850   6.045   2.847
 6408SOL     OW20122   6.466   0.566   0.839
 6408SOL    HW120123   6.487   0.658   0.805
 6408SOL    HW220124   6.423   0.572   0.929
 6409SOL     OW20125   5.868   4.908   3.574
 6409SOL    HW120126   5.866   4.860   3.486
 6409SOL    HW220127   5.930   4.986   3.568
 6410SOL     OW20128   2.517   1.563   5.471
 6410SOL    HW120129   2.546   1.650   5.510
 6410SOL    HW220130   2.417   1.559   5.468
 6411SOL     OW20131   0.725   2.342   2.097
 6411SOL    HW120132   0.653   2.339   2.027
 6411SOL    HW220133   0.810   2.306   2.058
 6412SOL     OW20134   3.071   6.987   0.179
 6412SOL    HW120135   3.120   6.900   0.178
 6412SOL    HW220136   2.972   6.970   0.184
 6413SOL     OW20137   4.925   5.457   3.727
 6413SOL    HW120138   4.864   5.528   3.764
 6413SOL    HW220139   4.969   5.491   3.644
 6414SOL     OW20140   1.094   0.032   0.192
 6414SOL    HW120141   1.181   0.077   0.215
 6414SOL    HW220142   1.031   0.100   0.155
 6415SOL     OW20143   0.709   2.257   3.219
 6415SOL    HW120144   0.612   2.234   3.220
 6415SOL    HW220145   0.729   2.314   3.139
 6416SOL     OW20146   2.468   0.178   0.011
 6416SOL    HW120147   2.409   0.244   6.985
 6416SOL    HW220148   2.470   0.198   0.109
 6417SOL     OW20149   3.754   1.715   0.238
 6417SOL    HW120150   3.667   1.688   0.279
 6417SOL    HW220151   3.794   1.791   0.290
 6418SOL     OW20152   4.767   5.214   0.835
 6418SOL    HW120153   4.781   5.181   0.929
 6418SOL    HW220154   4.845   5.186   0.779
 6419SOL     OW20155   0.776   0.176   6.935
 6419SOL    HW120156   0.796   0.092   6.984
 6419SOL    HW220157   0.709   0.158   6.862
 6420SOL     OW20158   1.733   3.937   3.988
 6420SOL    HW120159   1.711   3.866   4.055
 6420SOL    HW220160   1.734   3.897   3.896
 6421SOL     OW20161   4.771   0.381   1.618
 6421SOL    HW120162   4.705   0.307   1.633
 6421SOL    HW220163   4.862   0.342   1.605
 6422SOL     OW20164   6.259   2.434   4.676
 6422SOL    HW120165   6.252   2.438   4.576
 6422SOL    HW220166   6.170   2.409   4.715
 6423SOL     OW20167   2.285   4.278   4.238
 6423SOL    HW120168   2.314   4.338   4.163
 6423SOL    HW220169   2.263   4.187   4.202
 6424SOL     OW20170   6.779   4.664   4.530
 6424SOL    HW120171   6.820   4.725   4.461
 6424SOL    HW220172   6.843   4.591   4.551
 6425SOL     OW20173   6.744   5.947   3.374
 6425SOL    HW120174   6.748   6.033   3.424
 6425SOL    HW220175   6.823   5.941   3.313
 6426SOL     OW20176   4.516   4.520   4.776
 6426SOL    HW120177   4.440   4.516   4.840
 6426SOL    HW220178   4.486   4.561   4.690
 6427SOL     OW20179   3.174   2.997   3.279
 6427SOL    HW120180   3.230   3.070   3.316
 6427SOL    HW220181   3.195   2.911   3.325
 6428SOL     OW20182   4.955   2.552   0.273
 6428SOL    HW120183   4.979   2.456   0.286
 6428SOL    HW220184   5.039   2.607   0.264
 6429SOL     OW20185   2.178   0.907   5.484
 6429SOL    HW120186   2.226   0.869   5.405
 6429SOL    HW220187   2.099   0.960   5.453
 6430SOL     OW20188   6.604   0.209   5.086
 6430SOL    HW120189   6.538   0.264   5.137
 6430SOL    HW220190   6.674   0.174   5.148
 6431SOL     OW20191   3.913   4.768   1.877
 6431SOL    HW120192   3.823   4.781   1.919
 6431SOL    HW220193   3.907   4.699   1.805
 6432SOL     OW20194   4.735   4.302   6.140
 6432SOL    HW120195   4.643   4.341   6.134
 6432SOL    HW220196   4.775   4.324   6.229
 6433SOL     OW20197   2.627   5.898   6.716
 6433SOL    HW120198   2.631   5.853   6.627
 6433SOL    HW220199   2.575   5.983   6.708
 6434SOL     OW20200   3.348   5.430   5.790
 6434SOL    HW120201   3.331   5.523   5.824
 6434SOL    HW220202   3.446   5.417   5.778
 6435SOL     OW20203   4.883   1.105   1.002
 6435SOL    HW120204   4.902   1.192   0.956
 6435SOL    HW220205   4.797   1.113   1.053
 6436SOL     OW20206   0.133   4.088   4.212
 6436SOL    HW120207   0.197   4.055   4.142
 6436SOL    HW220208   0.184   4.124   4.289
 6437SOL     OW20209   0.403   1.758   5.493
 6437SOL    HW120210   0.413   1.663   5.524
 6437SOL    HW220211   0.305   1.780   5.485
 6438SOL     OW20212   0.398   5.822   0.410
 6438SOL    HW120213   0.349   5.746   0.454
 6438SOL    HW220214   0.363   5.835   0.318
 6439SOL     OW20215   5.832   0.235   2.595
 6439SOL    HW120216   5.919   0.276   2.566
 6439SOL    HW220217   5.830   0.230   2.695
 6440SOL     OW20218   2.438   1.435   6.261
 6440SOL    HW120219   2.438   1.467   6.166
 6440SOL    HW220220   2.438   1.335   6.262
 6441SOL     OW20221   0.741   1.008   2.793
 6441SOL    HW120222   0.717   1.038   2.700
 6441SOL    HW220223   0.719   0.911   2.803
 6442SOL     OW20224   3.116   2.961   5.181
 6442SOL    HW120225   3.029   3.005   5.161
 6442SOL    HW220226   3.114   2.924   5.274
 6443SOL     OW20227   4.940   2.426   1.035
 6443SOL    HW120228   4.980   2.335   1.026
 6443SOL    HW220229   4.988   2.490   0.974
 6444SOL     OW20230   6.718   3.331   4.915
 6444SOL    HW120231   6.643   3.265   4.914
 6444SOL    HW220232   6.715   3.387   4.833
 6445SOL     OW20233   2.917   3.785   3.318
 6445SOL    HW120234   2.948   3.858   3.379
 6445SOL    HW220235   2.916   3.818   3.224
 6446SOL     OW20236   2.643   0.982   6.566
 6446SOL    HW120237   2.677   1.022   6.481
 6446SOL    HW220238   2.715   0.926   6.607
 6447SOL     OW20239   6.527   3.684   1.244
 6447SOL    HW120240   6.608   3.634   1.214
 6447SOL    HW220241   6.445   3.636   1.212
 6448SOL     OW20242   3.880   5.359   1.636
 6448SOL    HW120243   3.862   5.264   1.609
 6448SOL    HW220244   3.967   5.389   1.597
 6449SOL     OW20245   2.679   6.198   0.904
 6449SOL    HW120246   2.594   6.172   0.857
 6449SOL    HW220247   2.724   6.115   0.938
 6450SOL     OW20248   0.118   4.041   1.092
 6450SOL    HW120249   0.152   3.959   1.138
 6450SOL    HW220250   0.164   4.121   1.130
 6451SOL     OW20251   3.645   2.269   1.409
 6451SOL    HW120252   3.740   2.273   1.379
 6451SOL    HW220253   3.606   2.180   1.383
 6452SOL     OW20254   4.988   2.411   3.240
 6452SOL    HW120255   4.988   2.404   3.140
 6452SOL    HW220256   4.994   2.507   3.267
 6453SOL     OW20257   3.220   0.058   0.878
 6453SOL    HW120258   3.299   7.017   0.883
 6453SOL    HW220259   3.160   0.041   0.956
 6454SOL     OW20260   5.502   2.552   3.096
 6454SOL    HW120261   5.449   2.492   3.036
 6454SOL    HW220262   5.482   2.647   3.074
 6455SOL     OW20263   6.252   3.633   3.296
 6455SOL    HW120264   6.208   3.715   3.333
 6455SOL    HW220265   6.332   3.658   3.244
 6456SOL     OW20266   6.143   1.245   3.262
 6456SOL    HW120267   6.242   1.231   3.251
 6456SOL    HW220268   6.125   1.340   3.285
 6457SOL     OW20269   4.640   0.503   2.117
 6457SOL    HW120270   4.707   0.491   2.044
 6457SOL    HW220271   4.548   0.508   2.078
 6458SOL     OW20272   0.769   4.699   3.832
 6458SOL    HW120273   0.832   4.700   3.755
 6458SOL    HW220274   0.785   4.779   3.889
 6459SOL     OW20275   6.628   2.851   2.311
 6459SOL    HW120276   6.539   2.879   2.349
 6459SOL    HW220277   6.675   2.932   2.276
 6460SOL     OW20278   0.713   5.568   6.810
 6460SOL    HW120279   0.702   5.664   6.783
 6460SOL    HW220280   0.719   5.511   6.728
 6461SOL     OW20281   3.057   5.274   1.067
 6461SOL    HW120282   2.991   5.220   1.014
 6461SOL    HW220283   3.097   5.345   1.008
 6462SOL     OW20284   1.785   3.766   5.359
 6462SOL    HW120285   1.709   3.702   5.372
 6462SOL    HW220286   1.854   3.724   5.301
 6463SOL     OW20287   4.557   1.897   1.500
 6463SOL    HW120288   4.459   1.897   1.523
 6463SOL    HW220289   4.579   1.978   1.446
 6464SOL     OW20290   0.647   5.843   4.594
 6464SOL    HW120291   0.642   5.844   4.694
 6464SOL    HW220292   0.710   5.915   4.564
 6465SOL     OW20293   4.181   1.470   3.088
 6465SOL    HW120294   4.184   1.451   3.186
 6465SOL    HW220295   4.191   1.568   3.073
 6466SOL     OW20296   0.661   2.946   6.859
 6466SOL    HW120297   0.730   2.995   6.911
 6466SOL    HW220298   0.630   2.866   6.910
 6467SOL     OW20299   3.129   1.530   0.557
 6467SOL    HW120300   3.085   1.515   0.645
 6467SOL    HW220301   3.068   1.498   0.484
 6468SOL     OW20302   2.801   0.672   0.741
 6468SOL    HW120303   2.766   0.579   0.731
 6468SOL    HW220304   2.737   0.726   0.796
 6469SOL     OW20305   3.536   1.729   3.134
 6469SOL    HW120306   3.625   1.727   3.180
 6469SOL    HW220307   3.466   1.699   3.198
 6470SOL     OW20308   6.251   1.693   0.007
 6470SOL    HW120309   6.283   1.699   0.101
 6470SOL    HW220310   6.328   1.672   6.967
 6471SOL     OW20311   6.796   5.966   5.664
 6471SOL    HW120312   6.808   6.056   5.704
 6471SOL    HW220313   6.856   5.900   5.711
 6472SOL     OW20314   6.638   5.942   2.972
 6472SOL    HW120315   6.736   5.949   2.990
 6472SOL    HW220316   6.591   5.910   3.055
 6473SOL     OW20317   2.410   1.135   3.877
 6473SOL    HW120318   2.429   1.111   3.972
 6473SOL    HW220319   2.318   1.106   3.853
 6474SOL     OW20320   3.815   5.682   5.386
 6474SOL    HW120321   3.875   5.705   5.463
 6474SOL    HW220322   3.797   5.584   5.387
 6475SOL     OW20323   5.641   4.506   2.821
 6475SOL    HW120324   5.628   4.537   2.915
 6475SOL    HW220325   5.661   4.585   2.762
 6476SOL     OW20326   3.477   1.426   6.179
 6476SOL    HW120327   3.426   1.342   6.161
 6476SOL    HW220328   3.415   1.497   6.212
 6477SOL     OW20329   6.384   6.700   1.535
 6477SOL    HW120330   6.347   6.735   1.449
 6477SOL    HW220331   6.440   6.619   1.516
 6478SOL     OW20332   3.389   5.545   1.802
 6478SOL    HW120333   3.466   5.484   1.822
 6478SOL    HW220334   3.338   5.563   1.887
 6479SOL     OW20335   3.439   6.128   4.234
 6479SOL    HW120336   3.529   6.103   4.269
 6479SOL    HW220337   3.395   6.048   4.194
 6480SOL     OW20338   3.454   1.510   6.970
 6480SOL    HW120339   3.525   1.440   6.969
 6480SOL    HW220340   3.387   1.489   0.021
 6481SOL     OW20341   3.315   2.731   1.782
 6481SOL    HW120342   3.228   2.685   1.767
 6481SOL    HW220343   3.390   2.667   1.768
 6482SOL     OW20344   6.413   3.894   5.025
 6482SOL    HW120345   6.399   3.967   4.959
 6482SOL    HW220346   6.508   3.863   5.022
 6483SOL     OW20347   0.885   5.573   5.089
 6483SOL    HW120348   0.816   5.580   5.016
 6483SOL    HW220349   0.956   5.642   5.073
 6484SOL     OW20350   2.764   0.826   4.357
 6484SOL    HW120351   2.691   0.786   4.413
 6484SOL    HW220352   2.725   0.865   4.274
 6485SOL     OW20353   2.421   0.020   4.413
 6485SOL    HW120354   2.381   0.073   4.337
 6485SOL    HW220355   2.385   0.053   4.500
 6486SOL     OW20356   1.829   5.282   3.203
 6486SOL    HW120357   1.769   5.358   3.227
 6486SOL    HW220358   1.843   5.224   3.283
 6487SOL     OW20359   6.404   4.899   3.791
 6487SOL    HW120360   6.367   4.825   3.735
 6487SOL    HW220361   6.417   4.980   3.735
 6488SOL     OW20362   4.524   5.544   4.584
 6488SOL    HW120363   4.461   5.514   4.656
 6488SOL    HW220364   4.481   5.532   4.495
 6489SOL     OW20365   4.143   3.566   5.700
 6489SOL    HW120366   4.146   3.526   5.608
 6489SOL    HW220367   4.211   3.640   5.706
 6490SOL     OW20368   1.999   1.674   6.883
 6490SOL    HW120369   2.058   1.640   6.956
 6490SOL    HW220370   1.935   1.741   6.920
 6491SOL     OW20371   2.215   0.335   0.435
 6491SOL    HW120372   2.217   0.414   0.496
 6491SOL    HW220373   2.290   0.341   0.369
 6492SOL     OW20374   3.517   3.685   4.867
 6492SOL    HW120375   3.616   3.675   4.876
 6492SOL    HW220376   3.482   3.740   4.943
 6493SOL     OW20377   1.488   4.079   5.863
 6493SOL    HW120378   1.573   4.029   5.878
 6493SOL    HW220379   1.413   4.014   5.850
 6494SOL     OW20380   6.179   0.105   2.106
 6494SOL    HW120381   6.150   0.047   2.029
 6494SOL    HW220382   6.172   0.053   2.191
 6495SOL     OW20383   6.650   0.265   3.996
 6495SOL    HW120384   6.657   0.360   4.027
 6495SOL    HW220385   6.597   0.212   4.061
 6496SOL     OW20386   4.262   0.787   1.588
 6496SOL    HW120387   4.236   0.869   1.638
 6496SOL    HW220388   4.186   0.721   1.590
 6497SOL     OW20389   0.046   1.800   1.021
 6497SOL    HW120390   0.044   1.861   0.942
 6497SOL    HW220391   0.005   1.847   1.100
 6498SOL     OW20392   1.287   4.404   4.629
 6498SOL    HW120393   1.335   4.322   4.596
 6498SOL    HW220394   1.354   4.476   4.647
 6499SOL     OW20395   5.717   3.352   3.635
 6499SOL    HW120396   5.674   3.411   3.567
 6499SOL    HW220397   5.810   3.331   3.607
 6500SOL     OW20398   1.643   3.853   3.245
 6500SOL    HW120399   1.721   3.900   3.286
 6500SOL    HW220400   1.560   3.875   3.296
 6501SOL     OW20401   6.210   1.761   1.062
 6501SOL    HW120402   6.258   1.834   1.013
 6501SOL    HW220403   6.171   1.797   1.146
 6502SOL     OW20404   6.487   3.675   1.517
 6502SOL    HW120405   6.505   3.680   1.419
 6502SOL    HW220406   6.460   3.766   1.551
 6503SOL     OW20407   6.637   2.905   5.512
 6503SOL    HW120408   6.574   2.982   5.521
 6503SOL    HW220409   6.596   2.835   5.454
 6504SOL     OW20410   4.404   5.831   6.593
 6504SOL    HW120411   4.489   5.785   6.567
 6504SOL    HW220412   4.414   5.930   6.582
 6505SOL     OW20413   6.212   5.686   0.301
 6505SOL    HW120414   6.116   5.696   0.277
 6505SOL    HW220415   6.222   5.684   0.400
 6506SOL     OW20416   0.151   3.178   2.449
 6506SOL    HW120417   0.243   3.203   2.419
 6506SOL    HW220418   0.099   3.141   2.371
 6507SOL     OW20419   4.337   4.588   6.742
 6507SOL    HW120420   4.365   4.513   6.682
 6507SOL    HW220421   4.241   4.609   6.725
 6508SOL     OW20422   1.302   6.158   2.181
 6508SOL    HW120423   1.298   6.180   2.084
 6508SOL    HW220424   1.379   6.097   2.199
 6509SOL     OW20425   3.101   1.298   5.836
 6509SOL    HW120426   3.068   1.275   5.928
 6509SOL    HW220427   3.058   1.384   5.807
 6510SOL     OW20428   4.581   5.927   5.557
 6510SOL    HW120429   4.634   5.985   5.619
 6510SOL    HW220430   4.528   5.984   5.494
 6511SOL     OW20431   3.006   0.533   0.055
 6511SOL    HW120432   2.935   0.510   7.009
 6511SOL    HW220433   3.021   0.455   0.116
 6512SOL     OW20434   3.844   0.840   0.883
 6512SOL    HW120435   3.869   0.756   0.932
 6512SOL    HW220436   3.747   0.837   0.858
 6513SOL     OW20437   2.285   5.510   4.070
 6513SOL    HW120438   2.378   5.536   4.093
 6513SOL    HW220439   2.238   5.474   4.151
 6514SOL     OW20440   5.827   6.995   5.909
 6514SOL    HW120441   5.772   6.919   5.942
 6514SOL    HW220442   5.768   0.044   5.868
 6515SOL     OW20443   2.195   4.928   2.504
 6515SOL    HW120444   2.270   4.872   2.538
 6515SOL    HW220445   2.216   4.961   2.412
 6516SOL     OW20446   0.008   3.471   0.890
 6516SOL    HW120447   0.058   3.545   0.935
 6516SOL    HW220448   6.961   3.509   0.827
 6517SOL     OW20449   0.345   2.741   0.212
 6517SOL    HW120450   0.372   2.779   0.301
 6517SOL    HW220451   0.251   2.769   0.191
 6518SOL     OW20452   1.204   1.256   3.315
 6518SOL    HW120453   1.251   1.322   3.375
 6518SOL    HW220454   1.218   1.164   3.351
 6519SOL     OW20455   0.930   1.321   3.010
 6519SOL    HW120456   0.844   1.356   2.973
 6519SOL    HW220457   0.911   1.240   3.065
 6520SOL     OW20458   0.161   5.770   0.251
 6520SOL    HW120459   0.080   5.827   0.262
 6520SOL    HW220460   0.135   5.674   0.254
 6521SOL     OW20461   1.291   3.539   4.500
 6521SOL    HW120462   1.294   3.586   4.412
 6521SOL    HW220463   1.359   3.578   4.562
 6522SOL     OW20464   2.630   3.571   5.470
 6522SOL    HW120465   2.691   3.600   5.396
 6522SOL    HW220466   2.678   3.506   5.530
 6523SOL     OW20467   6.064   0.366   6.949
 6523SOL    HW120468   5.991   0.428   6.977
 6523SOL    HW220469   6.076   0.371   6.850
 6524SOL     OW20470   2.211   2.515   1.803
 6524SOL    HW120471   2.186   2.570   1.883
 6524SOL    HW220472   2.310   2.519   1.790
 6525SOL     OW20473   0.943   4.763   3.049
 6525SOL    HW120474   0.888   4.711   3.114
 6525SOL    HW220475   1.024   4.800   3.096
 6526SOL     OW20476   0.275   6.744   0.481
 6526SOL    HW120477   0.321   6.716   0.397
 6526SOL    HW220478   0.218   6.824   0.463
 6527SOL     OW20479   0.493   2.186   0.317
 6527SOL    HW120480   0.468   2.114   0.382
 6527SOL    HW220481   0.413   2.213   0.264
 6528SOL     OW20482   5.493   0.814   6.000
 6528SOL    HW120483   5.399   0.797   5.968
 6528SOL    HW220484   5.517   0.909   5.981
 6529SOL     OW20485   6.942   1.354   1.914
 6529SOL    HW120486   6.907   1.286   1.978
 6529SOL    HW220487   6.974   1.308   1.831
 6530SOL     OW20488   0.807   2.556   2.459
 6530SOL    HW120489   0.764   2.635   2.417
 6530SOL    HW220490   0.746   2.477   2.454
 6531SOL     OW20491   4.379   3.691   5.449
 6531SOL    HW120492   4.474   3.719   5.432
 6531SOL    HW220493   4.353   3.717   5.542
 6532SOL     OW20494   1.145   0.686   0.573
 6532SOL    HW120495   1.183   0.624   0.641
 6532SOL    HW220496   1.058   0.723   0.606
 6533SOL     OW20497   4.963   3.819   0.340
 6533SOL    HW120498   5.008   3.885   0.279
 6533SOL    HW220499   4.975   3.727   0.304
 6534SOL     OW20500   6.674   4.420   2.712
 6534SOL    HW120501   6.710   4.510   2.690
 6534SOL    HW220502   6.646   4.419   2.808
 6535SOL     OW20503   6.377   3.420   5.410
 6535SOL    HW120504   6.339   3.512   5.412
 6535SOL    HW220505   6.476   3.425   5.401
 6536SOL     OW20506   1.021   4.047   4.791
 6536SOL    HW120507   0.995   4.135   4.833
 6536SOL    HW220508   1.121   4.037   4.795
 6537SOL     OW20509   6.020   5.453   4.054
 6537SOL    HW120510   6.015   5.547   4.089
 6537SOL    HW220511   6.093   5.446   3.987
 6538SOL     OW20512   2.370   3.462   5.471
 6538SOL    HW120513   2.463   3.489   5.443
 6538SOL    HW220514   2.375   3.382   5.531
 6539SOL     OW20515   6.468   0.463   5.861
 6539SOL    HW120516   6.439   0.395   5.794
 6539SOL    HW220517   6.403   0.538   5.864
 6540SOL     OW20518   4.935   2.545   6.157
 6540SOL    HW120519   4.901   2.456   6.126
 6540SOL    HW220520   5.015   2.571   6.103
 6541SOL     OW20521   5.801   0.871   4.569
 6541SOL    HW120522   5.771   0.781   4.600
 6541SOL    HW220523   5.879   0.901   4.624
 6542SOL     OW20524   1.622   4.038   4.307
 6542SOL    HW120525   1.712   4.014   4.346
 6542SOL    HW220526   1.632   4.056   4.210
 6543SOL     OW20527   3.904   2.124   4.962
 6543SOL    HW120528   3.974   2.195   4.957
 6543SOL    HW220529   3.844   2.131   4.883
 6544SOL     OW20530   0.841   6.536   2.004
 6544SOL    HW120531   0.757   6.515   1.955
 6544SOL    HW220532   0.916   6.546   1.938
 6545SOL     OW20533   4.171   0.238   1.035
 6545SOL    HW120534   4.247   0.228   1.099
 6545SOL    HW220535   4.098   0.292   1.078
 6546SOL     OW20536   5.162   3.328   6.038
 6546SOL    HW120537   5.118   3.259   6.095
 6546SOL    HW220538   5.256   3.299   6.019
 6547SOL     OW20539   5.711   5.532   6.576
 6547SOL    HW120540   5.668   5.602   6.633
 6547SOL    HW220541   5.696   5.554   6.479
 6548SOL     OW20542   0.772   2.195   5.214
 6548SOL    HW120543   0.731   2.174   5.125
 6548SOL    HW220544   0.857   2.144   5.224
 6549SOL     OW20545   4.986   0.077   1.689
 6549SOL    HW120546   5.004   0.038   1.599
 6549SOL    HW220547   5.026   0.168   1.695
 6550SOL     OW20548   6.108   0.096   3.232
 6550SOL    HW120549   6.174   0.100   3.158
 6550SOL    HW220550   6.050   0.015   3.221
 6551SOL     OW20551   3.170   3.628   1.442
 6551SOL    HW120552   3.138   3.583   1.358
 6551SOL    HW220553   3.121   3.714   1.454
 6552SOL     OW20554   2.360   6.626   0.374
 6552SOL    HW120555   2.370   6.674   0.287
 6552SOL    HW220556   2.371   6.691   0.449
 6553SOL     OW20557   6.895   1.173   2.957
 6553SOL    HW120558   6.985   1.162   2.914
 6553SOL    HW220559   6.888   1.112   3.036
 6554SOL     OW20560   3.208   1.645   4.627
 6554SOL    HW120561   3.132   1.589   4.661
 6554SOL    HW220562   3.280   1.585   4.591
 6555SOL     OW20563   6.927   2.828   4.118
 6555SOL    HW120564   6.944   2.847   4.021
 6555SOL    HW220565   6.954   2.734   4.138
 6556SOL     OW20566   4.990   2.865   3.587
 6556SOL    HW120567   4.917   2.888   3.523
 6556SOL    HW220568   4.986   2.927   3.666
 6557SOL     OW20569   2.061   6.961   2.138
 6557SOL    HW120570   2.042   6.892   2.208
 6557SOL    HW220571   2.149   7.004   2.158
 6558SOL     OW20572   5.238   4.911   0.524
 6558SOL    HW120573   5.239   4.951   0.616
 6558SOL    HW220574   5.277   4.976   0.459
 6559SOL     OW20575   6.733   2.751   6.145
 6559SOL    HW120576   6.673   2.792   6.075
 6559SOL    HW220577   6.780   2.823   6.195
 6560SOL     OW20578   5.484   4.789   0.321
 6560SOL    HW120579   5.415   4.718   0.326
 6560SOL    HW220580   5.442   4.876   0.296
 6561SOL     OW20581   4.040   4.734   0.679
 6561SOL    HW120582   3.977   4.670   0.634
 6561SOL    HW220583   4.132   4.696   0.678
 6562SOL     OW20584   5.885   3.142   1.293
 6562SOL    HW120585   5.802   3.184   1.254
 6562SOL    HW220586   5.865   3.108   1.384
 6563SOL     OW20587   5.031   5.834   5.066
 6563SOL    HW120588   4.972   5.850   4.986
 6563SOL    HW220589   5.113   5.784   5.038
 6564SOL     OW20590   0.127   3.829   2.962
 6564SOL    HW120591   0.062   3.898   2.992
 6564SOL    HW220592   0.108   3.803   2.867
 6565SOL     OW20593   5.666   0.238   3.098
 6565SOL    HW120594   5.754   0.236   3.146
 6565SOL    HW220595   5.616   0.153   3.116
 6566SOL     OW20596   4.358   5.851   2.350
 6566SOL    HW120597   4.397   5.771   2.304
 6566SOL    HW220598   4.341   5.923   2.283
 6567SOL     OW20599   4.096   0.547   0.965
 6567SOL    HW120600   4.046   0.529   1.049
 6567SOL    HW220601   4.152   0.630   0.977
 6568SOL     OW20602   3.737   1.353   1.679
 6568SOL    HW120603   3.820   1.370   1.626
 6568SOL    HW220604   3.686   1.277   1.637
 6569SOL     OW20605   0.442   3.777   5.881
 6569SOL    HW120606   0.383   3.809   5.955
 6569SOL    HW220607   0.537   3.799   5.903
 6570SOL     OW20608   3.888   6.080   1.941
 6570SOL    HW120609   3.836   6.165   1.931
 6570SOL    HW220610   3.853   6.011   1.878
 6571SOL     OW20611   2.634   5.309   2.799
 6571SOL    HW120612   2.562   5.377   2.813
 6571SOL    HW220613   2.599   5.218   2.823
 6572SOL     OW20614   0.661   5.878   3.991
 6572SOL    HW120615   0.709   5.874   3.903
 6572SOL    HW220616   0.564   5.863   3.976
 6573SOL     OW20617   1.271   1.068   2.967
 6573SOL    HW120618   1.175   1.083   2.942
 6573SOL    HW220619   1.330   1.104   2.894
 6574SOL     OW20620   1.681   5.796   2.319
 6574SOL    HW120621   1.739   5.787   2.400
 6574SOL    HW220622   1.585   5.790   2.346
 6575SOL     OW20623   6.644   0.221   2.978
 6575SOL    HW120624   6.666   0.129   2.946
 6575SOL    HW220625   6.607   0.275   2.903
 6576SOL     OW20626   3.828   5.746   0.545
 6576SOL    HW120627   3.857   5.791   0.461
 6576SOL    HW220628   3.897   5.678   0.572
 6577SOL     OW20629   1.890   2.179   3.578
 6577SOL    HW120630   1.953   2.236   3.525
 6577SOL    HW220631   1.926   2.086   3.585
 6578SOL     OW20632   1.528   4.839   1.945
 6578SOL    HW120633   1.484   4.751   1.966
 6578SOL    HW220634   1.610   4.849   2.001
 6579SOL     OW20635   6.696   1.483   4.076
 6579SOL    HW120636   6.721   1.410   4.139
 6579SOL    HW220637   6.598   1.503   4.086
 6580SOL     OW20638   0.934   0.241   0.119
 6580SOL    HW120639   0.981   0.324   0.089
 6580SOL    HW220640   0.863   0.217   0.054
 6581SOL     OW20641   1.409   1.809   6.776
 6581SOL    HW120642   1.337   1.751   6.814
 6581SOL    HW220643   1.373   1.901   6.759
 6582SOL     OW20644   6.534   0.937   2.758
 6582SOL    HW120645   6.465   0.925   2.686
 6582SOL    HW220646   6.603   1.002   2.726
 6583SOL     OW20647   4.576   6.333   0.149
 6583SOL    HW120648   4.587   6.431   0.165
 6583SOL    HW220649   4.539   6.319   0.057
 6584SOL     OW20650   2.876   2.086   1.093
 6584SOL    HW120651   2.830   2.171   1.120
 6584SOL    HW220652   2.913   2.095   1.001
 6585SOL     OW20653   5.613   0.095   1.158
 6585SOL    HW120654   5.669   0.107   1.076
 6585SOL    HW220655   5.548   0.021   1.144
 6586SOL     OW20656   6.300   2.265   6.405
 6586SOL    HW120657   6.277   2.168   6.396
 6586SOL    HW220658   6.234   2.310   6.464
 6587SOL     OW20659   1.581   4.159   5.577
 6587SOL    HW120660   1.535   4.136   5.663
 6587SOL    HW220661   1.670   4.201   5.597
 6588SOL     OW20662   0.758   3.375   0.530
 6588SOL    HW120663   0.839   3.400   0.477
 6588SOL    HW220664   0.771   3.403   0.625
 6589SOL     OW20665   0.180   0.971   1.920
 6589SOL    HW120666   0.228   0.891   1.884
 6589SOL    HW220667   0.135   1.020   1.845
 6590SOL     OW20668   1.306   0.070   4.245
 6590SOL    HW120669   1.268   0.161   4.231
 6590SOL    HW220670   1.233   0.006   4.269
 6591SOL     OW20671   5.507   4.400   4.195
 6591SOL    HW120672   5.419   4.447   4.207
 6591SOL    HW220673   5.578   4.466   4.173
 6592SOL     OW20674   5.179   6.227   2.893
 6592SOL    HW120675   5.204   6.320   2.865
 6592SOL    HW220676   5.182   6.167   2.813
 6593SOL     OW20677   2.450   1.891   3.026
 6593SOL    HW120678   2.527   1.955   3.017
 6593SOL    HW220679   2.433   1.847   2.938
 6594SOL     OW20680   4.164   1.494   6.431
 6594SOL    HW120681   4.155   1.585   6.392
 6594SOL    HW220682   4.208   1.499   6.521
 6595SOL     OW20683   1.709   2.256   4.864
 6595SOL    HW120684   1.694   2.162   4.893
 6595SOL    HW220685   1.807   2.274   4.855
 6596SOL     OW20686   5.774   6.184   2.611
 6596SOL    HW120687   5.803   6.118   2.680
 6596SOL    HW220688   5.697   6.238   2.647
 6597SOL     OW20689   1.573   5.018   2.408
 6597SOL    HW120690   1.635   5.022   2.486
 6597SOL    HW220691   1.624   4.993   2.326
 6598SOL     OW20692   1.788   4.702   3.995
 6598SOL    HW120693   1.771   4.773   4.064
 6598SOL    HW220694   1.716   4.633   4.000
 6599SOL     OW20695   5.723   5.553   6.273
 6599SOL    HW120696   5.760   5.461   6.264
 6599SOL    HW220697   5.711   5.593   6.182
 6600SOL     OW20698   4.208   0.028   5.562
 6600SOL    HW120699   4.138   0.098   5.577
 6600SOL    HW220700   4.173   6.979   5.500
 6601SOL     OW20701   1.522   2.633   1.975
 6601SOL    HW120702   1.485   2.694   1.904
 6601SOL    HW220703   1.619   2.616   1.956
 6602SOL     OW20704   2.126   6.312   1.602
 6602SOL    HW120705   2.184   6.231   1.610
 6602SOL    HW220706   2.050   6.292   1.541
 6603SOL     OW20707   0.606   3.093   3.186
 6603SOL    HW120708   0.703   3.070   3.191
 6603SOL    HW220709   0.596   3.191   3.171
 6604SOL     OW20710   1.665   6.481   2.044
 6604SOL    HW120711   1.665   6.580   2.030
 6604SOL    HW220712   1.585   6.455   2.098
 6605SOL     OW20713   6.430   5.477   1.495
 6605SOL    HW120714   6.357   5.409   1.497
 6605SOL    HW220715   6.482   5.468   1.410
 6606SOL     OW20716   1.877   3.503   3.921
 6606SOL    HW120717   1.916   3.567   3.855
 6606SOL    HW220718   1.793   3.542   3.960
 6607SOL     OW20719   5.721   3.834   3.643
 6607SOL    HW120720   5.811   3.800   3.616
 6607SOL    HW220721   5.674   3.764   3.697
 6608SOL     OW20722   0.463   0.023   6.028
 6608SOL    HW120723   0.533   0.064   6.087
 6608SOL    HW220724   0.458   6.946   6.047
 6609SOL     OW20725   4.401   1.917   5.846
 6609SOL    HW120726   4.463   1.964   5.783
 6609SOL    HW220727   4.337   1.983   5.886
 6610SOL     OW20728   3.309   5.042   0.897
 6610SOL    HW120729   3.378   5.104   0.936
 6610SOL    HW220730   3.273   4.982   0.968
 6611SOL     OW20731   4.554   1.724   4.168
 6611SOL    HW120732   4.609   1.808   4.170
 6611SOL    HW220733   4.459   1.746   4.188
 6612SOL     OW20734   5.776   1.904   6.159
 6612SOL    HW120735   5.774   1.875   6.063
 6612SOL    HW220736   5.824   1.991   6.167
 6613SOL     OW20737   5.381   0.285   6.501
 6613SOL    HW120738   5.343   0.289   6.594
 6613SOL    HW220739   5.339   0.209   6.451
 6614SOL     OW20740   4.308   5.996   1.607
 6614SOL    HW120741   4.252   6.077   1.617
 6614SOL    HW220742   4.259   5.927   1.554
 6615SOL     OW20743   3.029   5.593   0.547
 6615SOL    HW120744   3.054   5.681   0.506
 6615SOL    HW220745   3.109   5.552   0.590
 6616SOL     OW20746   4.802   1.192   5.528
 6616SOL    HW120747   4.781   1.146   5.441
 6616SOL    HW220748   4.899   1.212   5.532
 6617SOL     OW20749   4.488   0.650   3.604
 6617SOL    HW120750   4.573   0.603   3.629
 6617SOL    HW220751   4.510   0.733   3.552
 6618SOL     OW20752   0.115   2.225   2.712
 6618SOL    HW120753   0.115   2.308   2.768
 6618SOL    HW220754   0.208   2.188   2.709
 6619SOL     OW20755   4.901   6.387   4.003
 6619SOL    HW120756   4.896   6.342   4.092
 6619SOL    HW220757   4.815   6.432   3.983
 6620SOL     OW20758   0.735   3.420   3.780
 6620SOL    HW120759   0.787   3.505   3.786
 6620SOL    HW220760   0.796   3.345   3.753
 6621SOL     OW20761   3.874   3.133   4.912
 6621SOL    HW120762   3.829   3.044   4.920
 6621SOL    HW220763   3.912   3.142   4.820
 6622SOL     OW20764   0.298   6.121   0.692
 6622SOL    HW120765   0.226   6.189   0.676
 6622SOL    HW220766   0.331   6.088   0.604
 6623SOL     OW20767   3.497   4.141   5.648
 6623SOL    HW120768   3.487   4.123   5.550
 6623SOL    HW220769   3.589   4.115   5.677
 6624SOL     OW20770   1.152   2.468   4.680
 6624SOL    HW120771   1.203   2.456   4.595
 6624SOL    HW220772   1.129   2.565   4.692
 6625SOL     OW20773   5.875   2.459   5.513
 6625SOL    HW120774   5.906   2.366   5.533
 6625SOL    HW220775   5.786   2.474   5.557
 6626SOL     OW20776   2.787   6.344   5.050
 6626SOL    HW120777   2.746   6.429   5.017
 6626SOL    HW220778   2.736   6.266   5.015
 6627SOL     OW20779   1.361   5.918   4.667
 6627SOL    HW120780   1.268   5.918   4.631
 6627SOL    HW220781   1.369   5.849   4.738
 6628SOL     OW20782   4.766   5.549   4.137
 6628SOL    HW120783   4.770   5.568   4.039
 6628SOL    HW220784   4.817   5.464   4.156
 6629SOL     OW20785   5.565   5.980   0.191
 6629SOL    HW120786   5.590   5.891   0.151
 6629SOL    HW220787   5.611   6.053   0.142
 6630SOL     OW20788   2.368   1.545   1.305
 6630SOL    HW120789   2.351   1.643   1.319
 6630SOL    HW220790   2.387   1.528   1.209
 6631SOL     OW20791   2.093   4.655   6.113
 6631SOL    HW120792   2.043   4.714   6.176
 6631SOL    HW220793   2.122   4.708   6.034
 6632SOL     OW20794   1.207   0.549   0.360
 6632SOL    HW120795   1.151   0.566   0.279
 6632SOL    HW220796   1.175   0.606   0.435
 6633SOL     OW20797   3.268   5.536   6.416
 6633SOL    HW120798   3.264   5.519   6.317
 6633SOL    HW220799   3.346   5.596   6.436
 6634SOL     OW20800   5.014   1.849   4.807
 6634SOL    HW120801   5.036   1.780   4.876
 6634SOL    HW220802   4.915   1.863   4.803
 6635SOL     OW20803   5.529   5.013   2.363
 6635SOL    HW120804   5.461   4.944   2.392
 6635SOL    HW220805   5.538   5.082   2.435
 6636SOL     OW20806   3.343   6.907   1.530
 6636SOL    HW120807   3.324   6.952   1.617
 6636SOL    HW220808   3.426   6.851   1.539
 6637SOL     OW20809   1.238   1.124   0.427
 6637SOL    HW120810   1.289   1.189   0.483
 6637SOL    HW220811   1.287   1.109   0.341
 6638SOL     OW20812   3.079   3.589   3.640
 6638SOL    HW120813   3.167   3.599   3.593
 6638SOL    HW220814   3.057   3.673   3.689
 6639SOL     OW20815   5.201   3.078   1.408
 6639SOL    HW120816   5.217   2.996   1.353
 6639SOL    HW220817   5.242   3.068   1.498
 6640SOL     OW20818   1.096   2.699   5.303
 6640SOL    HW120819   1.005   2.673   5.337
 6640SOL    HW220820   1.097   2.796   5.281
 6641SOL     OW20821   4.128   2.218   1.065
 6641SOL    HW120822   4.158   2.313   1.061
 6641SOL    HW220823   4.101   2.195   1.159
 6642SOL     OW20824   1.335   5.490   0.446
 6642SOL    HW120825   1.340   5.508   0.545
 6642SOL    HW220826   1.307   5.395   0.432
 6643SOL     OW20827   4.594   0.057   0.177
 6643SOL    HW120828   4.635   0.075   0.087
 6643SOL    HW220829   4.511   0.112   0.187
 6644SOL     OW20830   1.873   6.641   3.360
 6644SOL    HW120831   1.805   6.674   3.424
 6644SOL    HW220832   1.941   6.713   3.343
 6645SOL     OW20833   6.150   2.464   0.521
 6645SOL    HW120834   6.160   2.457   0.421
 6645SOL    HW220835   6.128   2.374   0.558
 6646SOL     OW20836   4.054   0.372   6.713
 6646SOL    HW120837   4.076   0.278   6.689
 6646SOL    HW220838   4.056   0.383   6.813
 6647SOL     OW20839   4.493   5.165   1.217
 6647SOL    HW120840   4.465   5.071   1.194
 6647SOL    HW220841   4.427   5.204   1.282
 6648SOL     OW20842   2.330   6.412   5.714
 6648SOL    HW120843   2.233   6.388   5.718
 6648SOL    HW220844   2.353   6.445   5.623
 6649SOL     OW20845   6.137   2.117   6.883
 6649SOL    HW120846   6.230   2.133   6.917
 6649SOL    HW220847   6.103   2.030   6.918
 6650SOL     OW20848   2.834   1.357   5.091
 6650SOL    HW120849   2.914   1.404   5.052
 6650SOL    HW220850   2.842   1.357   5.191
 6651SOL     OW20851   0.400   1.537   6.948
 6651SOL    HW120852   0.496   1.527   6.975
 6651SOL    HW220853   0.395   1.567   6.853
 6652SOL     OW20854   1.034   4.437   0.157
 6652SOL    HW120855   1.103   4.510   0.164
 6652SOL    HW220856   1.011   4.404   0.249
 6653SOL     OW20857   5.467   3.063   0.647
 6653SOL    HW120858   5.410   3.130   0.694
 6653SOL    HW220859   5.524   3.014   0.714
 6654SOL     OW20860   0.733   4.171   2.945
 6654SOL    HW120861   0.636   4.168   2.968
 6654SOL    HW220862   0.756   4.262   2.910
 6655SOL     OW20863   6.873   5.219   1.587
 6655SOL    HW120864   6.876   5.294   1.654
 6655SOL    HW220865   6.943   5.151   1.610
 6656SOL     OW20866   4.298   1.666   2.696
 6656SOL    HW120867   4.205   1.663   2.658
 6656SOL    HW220868   4.294   1.682   2.794
 6657SOL     OW20869   5.792   2.183   4.396
 6657SOL    HW120870   5.696   2.179   4.426
 6657SOL    HW220871   5.832   2.269   4.425
 6658SOL     OW20872   6.268   6.212   4.978
 6658SOL    HW120873   6.168   6.213   4.983
 6658SOL    HW220874   6.298   6.133   4.925
 6659SOL     OW20875   1.223   4.832   1.746
 6659SOL    HW120876   1.230   4.758   1.678
 6659SOL    HW220877   1.312   4.877   1.755
 6660SOL     OW20878   0.236   6.329   3.416
 6660SOL    HW120879   0.205   6.406   3.471
 6660SOL    HW220880   0.164   6.260   3.411
 6661SOL     OW20881   3.286   6.350   4.181
 6661SOL    HW120882   3.350   6.276   4.201
 6661SOL    HW220883   3.328   6.437   4.207
 6662SOL     OW20884   2.741   0.179   2.173
 6662SOL    HW120885   2.739   0.279   2.175
 6662SOL    HW220886   2.764   0.144   2.263
 6663SOL     OW20887   1.567   4.444   5.876
 6663SOL    HW120888   1.604   4.487   5.794
 6663SOL    HW220889   1.480   4.400   5.855
 6664SOL     OW20890   3.106   0.587   1.608
 6664SOL    HW120891   3.105   0.651   1.531
 6664SOL    HW220892   3.166   0.509   1.586
 6665SOL     OW20893   2.679   0.475   5.975
 6665SOL    HW120894   2.759   0.490   5.917
 6665SOL    HW220895   2.687   0.531   6.058
 6666SOL     OW20896   5.307   6.507   5.052
 6666SOL    HW120897   5.244   6.458   4.993
 6666SOL    HW220898   5.300   6.473   5.145
 6667SOL     OW20899   6.762   6.400   6.361
 6667SOL    HW120900   6.781   6.303   6.353
 6667SOL    HW220901   6.667   6.418   6.335
 6668SOL     OW20902   6.974   6.305   0.887
 6668SOL    HW120903   6.898   6.371   0.883
 6668SOL    HW220904   0.039   6.354   0.903
 6669SOL     OW20905   1.561   1.698   1.919
 6669SOL    HW120906   1.578   1.616   1.974
 6669SOL    HW220907   1.648   1.733   1.885
 6670SOL     OW20908   3.443   2.576   0.888
 6670SOL    HW120909   3.475   2.487   0.919
 6670SOL    HW220910   3.521   2.631   0.858
 6671SOL     OW20911   5.415   6.189   7.018
 6671SOL    HW120912   5.345   6.141   0.050
 6671SOL    HW220913   5.465   6.124   6.961
 6672SOL     OW20914   0.998   1.849   0.644
 6672SOL    HW120915   1.064   1.922   0.626
 6672SOL    HW220916   0.906   1.888   0.651
 6673SOL     OW20917   5.895   3.772   4.332
 6673SOL    HW120918   5.803   3.793   4.298
 6673SOL    HW220919   5.895   3.773   4.432
 6674SOL     OW20920   0.318   2.833   6.959
 6674SOL    HW120921   0.330   2.829   0.038
 6674SOL    HW220922   0.269   2.752   6.928
 6675SOL     OW20923   4.596   2.821   6.730
 6675SOL    HW120924   4.663   2.764   6.778
 6675SOL    HW220925   4.643   2.883   6.667
 6676SOL     OW20926   1.230   3.581   3.747
 6676SOL    HW120927   1.219   3.663   3.691
 6676SOL    HW220928   1.192   3.502   3.698
 6677SOL     OW20929   0.693   1.708   0.526
 6677SOL    HW120930   0.775   1.655   0.502
 6677SOL    HW220931   0.722   1.795   0.566
 6678SOL     OW20932   1.677   5.022   0.225
 6678SOL    HW120933   1.768   4.996   0.258
 6678SOL    HW220934   1.607   4.981   0.284
 6679SOL     OW20935   2.539   1.347   4.186
 6679SOL    HW120936   2.599   1.319   4.110
 6679SOL    HW220937   2.515   1.443   4.175
 6680SOL     OW20938   5.586   6.575   0.194
 6680SOL    HW120939   5.588   6.581   0.294
 6680SOL    HW220940   5.517   6.509   0.165
 6681SOL     OW20941   4.185   5.782   1.481
 6681SOL    HW120942   4.170   5.706   1.418
 6681SOL    HW220943   4.098   5.828   1.499
 6682SOL     OW20944   3.395   5.275   6.828
 6682SOL    HW120945   3.429   5.366   6.852
 6682SOL    HW220946   3.452   5.237   6.755
 6683SOL     OW20947   6.339   3.108   6.794
 6683SOL    HW120948   6.394   3.188   6.771
 6683SOL    HW220949   6.295   3.073   6.711
 6684SOL     OW20950   3.532   0.105   1.442
 6684SOL    HW120951   3.498   0.104   1.536
 6684SOL    HW220952   3.463   0.145   1.382
 6685SOL     OW20953   4.267   3.371   6.897
 6685SOL    HW120954   4.212   3.454   6.902
 6685SOL    HW220955   4.325   3.364   6.977
 6686SOL     OW20956   5.482   5.398   3.880
 6686SOL    HW120957   5.447   5.321   3.827
 6686SOL    HW220958   5.497   5.370   3.974
 6687SOL     OW20959   6.589   2.138   1.916
 6687SOL    HW120960   6.616   2.105   1.825
 6687SOL    HW220961   6.617   2.233   1.927
 6688SOL     OW20962   3.913   5.357   0.981
 6688SOL    HW120963   3.903   5.365   0.882
 6688SOL    HW220964   3.952   5.442   1.018
 6689SOL     OW20965   2.971   5.132   6.177
 6689SOL    HW120966   2.975   5.228   6.150
 6689SOL    HW220967   3.006   5.075   6.102
 6690SOL     OW20968   0.690   0.061   5.833
 6690SOL    HW120969   0.649   0.144   5.795
 6690SOL    HW220970   0.620   7.012   5.846
 6691SOL     OW20971   2.554   1.924   2.658
 6691SOL    HW120972   2.643   1.886   2.686
 6691SOL    HW220973   2.492   1.850   2.635
 6692SOL     OW20974   4.715   4.968   1.328
 6692SOL    HW120975   4.652   5.031   1.283
 6692SOL    HW220976   4.746   4.899   1.262
 6693SOL     OW20977   4.428   1.737   4.515
 6693SOL    HW120978   4.344   1.716   4.564
 6693SOL    HW220979   4.411   1.809   4.448
 6694SOL     OW20980   3.760   5.817   0.993
 6694SOL    HW120981   3.804   5.848   0.909
 6694SOL    HW220982   3.690   5.748   0.972
 6695SOL     OW20983   2.770   2.231   6.561
 6695SOL    HW120984   2.843   2.282   6.607
 6695SOL    HW220985   2.804   2.141   6.534
 6696SOL     OW20986   3.980   3.782   4.528
 6696SOL    HW120987   4.053   3.714   4.524
 6696SOL    HW220988   3.972   3.826   4.438
 6697SOL     OW20989   4.659   2.526   2.180
 6697SOL    HW120990   4.576   2.537   2.235
 6697SOL    HW220991   4.642   2.458   2.109
 6698SOL     OW20992   3.636   4.245   1.717
 6698SOL    HW120993   3.562   4.313   1.720
 6698SOL    HW220994   3.717   4.287   1.676
 6699SOL     OW20995   1.299   4.749   5.381
 6699SOL    HW120996   1.341   4.664   5.349
 6699SOL    HW220997   1.329   4.767   5.475
 6700SOL     OW20998   6.068   0.314   0.619
 6700SOL    HW120999   6.017   0.367   0.688
 6700SOL    HW221000   6.163   0.345   0.617
 6701SOL     OW21001   5.532   6.829   1.466
 6701SOL    HW121002   5.456   6.893   1.483
 6701SOL    HW221003   5.505   6.764   1.396
 6702SOL     OW21004   2.744   2.161   0.822
 6702SOL    HW121005   2.667   2.172   0.885
 6702SOL    HW221006   2.766   2.250   0.781
 6703SOL     OW21007   1.838   1.889   6.010
 6703SOL    HW121008   1.771   1.827   6.050
 6703SOL    HW221009   1.927   1.843   6.004
 6704SOL     OW21010   3.780   1.581   5.137
 6704SOL    HW121011   3.769   1.538   5.047
 6704SOL    HW221012   3.701   1.640   5.155
 6705SOL     OW21013   6.463   3.275   1.799
 6705SOL    HW121014   6.447   3.368   1.765
 6705SOL    HW221015   6.484   3.278   1.896
 6706SOL     OW21016   0.376   6.519   1.578
 6706SOL    HW121017   0.442   6.581   1.621
 6706SOL    HW221018   0.402   6.424   1.596
 6707SOL     OW21019   5.685   0.636   2.270
 6707SOL    HW121020   5.733   0.707   2.219
 6707SOL    HW221021   5.614   0.595   2.212
 6708SOL     OW21022   0.457   3.976   1.430
 6708SOL    HW121023   0.441   3.886   1.470
 6708SOL    HW221024   0.498   3.966   1.339
 6709SOL     OW21025   1.240   4.664   2.245
 6709SOL    HW121026   1.229   4.721   2.327
 6709SOL    HW221027   1.151   4.651   2.202
 6710SOL     OW21028   4.467   1.002   1.931
 6710SOL    HW121029   4.513   0.979   1.846
 6710SOL    HW221030   4.386   1.058   1.911
 6711SOL     OW21031   4.739   6.264   6.335
 6711SOL    HW121032   4.754   6.322   6.415
 6711SOL    HW221033   4.666   6.198   6.354
 6712SOL     OW21034   5.899   3.667   0.716
 6712SOL    HW121035   5.816   3.703   0.758
 6712SOL    HW221036   5.963   3.741   0.698
 6713SOL     OW21037   1.607   0.083   4.289
 6713SOL    HW121038   1.507   0.093   4.293
 6713SOL    HW221039   1.649   0.174   4.295
 6714SOL     OW21040   5.804   1.253   0.369
 6714SOL    HW121041   5.847   1.178   0.420
 6714SOL    HW221042   5.777   1.220   0.279
 6715SOL     OW21043   1.263   0.527   0.748
 6715SOL    HW121044   1.260   0.537   0.848
 6715SOL    HW221045   1.302   0.438   0.725
 6716SOL     OW21046   6.775   5.316   2.405
 6716SOL    HW121047   6.819   5.253   2.469
 6716SOL    HW221048   6.721   5.382   2.457
 6717SOL     OW21049   3.553   2.920   6.243
 6717SOL    HW121050   3.498   2.905   6.161
 6717SOL    HW221051   3.589   2.833   6.276
 6718SOL     OW21052   3.297   0.258   2.540
 6718SOL    HW121053   3.351   0.195   2.485
 6718SOL    HW221054   3.257   0.208   2.617
 6719SOL     OW21055   1.927   0.109   6.556
 6719SOL    HW121056   1.857   0.147   6.617
 6719SOL    HW221057   1.884   0.045   6.492
 6720SOL     OW21058   2.223   0.673   5.884
 6720SOL    HW121059   2.280   0.594   5.861
 6720SOL    HW221060   2.258   0.716   5.967
 6721SOL     OW21061   0.639   1.337   0.712
 6721SOL    HW121062   0.626   1.435   0.701
 6721SOL    HW221063   0.632   1.292   0.623
 6722SOL     OW21064   6.179   3.029   0.098
 6722SOL    HW121065   6.184   3.106   0.034
 6722SOL    HW221066   6.089   3.027   0.141
 6723SOL     OW21067   1.747   2.100   6.165
 6723SOL    HW121068   1.758   2.027   6.098
 6723SOL    HW221069   1.793   2.182   6.133
 6724SOL     OW21070   1.928   3.392   5.955
 6724SOL    HW121071   1.984   3.310   5.945
 6724SOL    HW221072   1.892   3.419   5.865
 6725SOL     OW21073   6.086   3.141   3.297
 6725SOL    HW121074   6.153   3.178   3.361
 6725SOL    HW221075   6.124   3.139   3.205
 6726SOL     OW21076   0.096   0.858   5.513
 6726SOL    HW121077   0.065   0.873   5.419
 6726SOL    HW221078   0.178   0.913   5.530
 6727SOL     OW21079   1.218   4.502   6.006
 6727SOL    HW121080   1.250   4.408   6.004
 6727SOL    HW221081   1.245   4.545   6.093
 6728SOL     OW21082   3.650   2.084   3.665
 6728SOL    HW121083   3.725   2.018   3.654
 6728SOL    HW221084   3.637   2.103   3.762
 6729SOL     OW21085   4.772   1.860   1.168
 6729SOL    HW121086   4.782   1.921   1.089
 6729SOL    HW221087   4.676   1.836   1.179
 6730SOL     OW21088   1.125   0.900   1.283
 6730SOL    HW121089   1.058   0.826   1.280
 6730SOL    HW221090   1.189   0.885   1.357
 6731SOL     OW21091   2.958   6.287   0.695
 6731SOL    HW121092   2.859   6.304   0.686
 6731SOL    HW221093   3.008   6.371   0.672
 6732SOL     OW21094   5.669   5.090   4.354
 6732SOL    HW121095   5.732   5.110   4.279
 6732SOL    HW221096   5.719   5.046   4.429
 6733SOL     OW21097   3.727   5.445   6.484
 6733SOL    HW121098   3.745   5.407   6.393
 6733SOL    HW221099   3.642   5.497   6.482
 6734SOL     OW21100   5.294   1.406   5.034
 6734SOL    HW121101   5.197   1.382   5.047
 6734SOL    HW221102   5.326   1.367   4.947
 6735SOL     OW21103   6.008   3.379   3.601
 6735SOL    HW121104   6.010   3.281   3.587
 6735SOL    HW221105   6.066   3.424   3.533
 6736SOL     OW21106   3.412   4.066   1.121
 6736SOL    HW121107   3.322   4.039   1.154
 6736SOL    HW221108   3.410   4.076   1.022
 6737SOL     OW21109   1.421   3.061   1.584
 6737SOL    HW121110   1.396   3.046   1.680
 6737SOL    HW221111   1.514   3.030   1.569
 6738SOL     OW21112   1.748   5.863   3.532
 6738SOL    HW121113   1.778   5.802   3.459
 6738SOL    HW221114   1.823   5.925   3.556
 6739SOL     OW21115   6.472   0.134   4.158
 6739SOL    HW121116   6.466   0.157   4.255
 6739SOL    HW221117   6.447   0.038   4.145
 6740SOL     OW21118   6.401   6.506   4.688
 6740SOL    HW121119   6.438   6.579   4.745
 6740SOL    HW221120   6.302   6.500   4.700
 6741SOL     OW21121   4.556   2.027   5.640
 6741SOL    HW121122   4.554   2.123   5.668
 6741SOL    HW221123   4.509   2.016   5.553
 6742SOL     OW21124   5.210   4.471   3.015
 6742SOL    HW121125   5.273   4.395   3.029
 6742SOL    HW221126   5.147   4.448   2.940
 6743SOL     OW21127   4.313   4.274   0.189
 6743SOL    HW121128   4.276   4.223   0.111
 6743SOL    HW221129   4.317   4.372   0.165
 6744SOL     OW21130   6.573   5.246   6.151
 6744SOL    HW121131   6.623   5.165   6.184
 6744SOL    HW221132   6.475   5.232   6.163
 6745SOL     OW21133   7.017   6.309   4.146
 6745SOL    HW121134   6.919   6.291   4.152
 6745SOL    HW221135   0.024   6.314   4.050
 6746SOL     OW21136   1.772   1.318   2.721
 6746SOL    HW121137   1.797   1.377   2.644
 6746SOL    HW221138   1.804   1.359   2.807
 6747SOL     OW21139   0.766   6.882   6.648
 6747SOL    HW121140   0.793   6.787   6.665
 6747SOL    HW221141   0.677   6.883   6.602
 6748SOL     OW21142   2.461   1.610   4.071
 6748SOL    HW121143   2.368   1.574   4.058
 6748SOL    HW221144   2.468   1.700   4.030
 6749SOL     OW21145   3.519   4.263   0.792
 6749SOL    HW121146   3.600   4.311   0.759
 6749SOL    HW221147   3.547   4.181   0.844
 6750SOL     OW21148   2.904   1.777   4.674
 6750SOL    HW121149   2.845   1.818   4.605
 6750SOL    HW221150   2.902   1.834   4.757
 6751SOL     OW21151   4.413   6.920   3.359
 6751SOL    HW121152   4.329   6.942   3.408
 6751SOL    HW221153   4.485   6.896   3.425
 6752SOL     OW21154   1.688   6.494   2.980
 6752SOL    HW121155   1.652   6.428   2.914
 6752SOL    HW221156   1.654   6.473   3.071
 6753SOL     OW21157   3.657   2.470   5.395
 6753SOL    HW121158   3.654   2.566   5.367
 6753SOL    HW221159   3.564   2.440   5.418
 6754SOL     OW21160   6.105   0.690   1.146
 6754SOL    HW121161   6.094   0.682   1.245
 6754SOL    HW221162   6.020   0.726   1.106
 6755SOL     OW21163   2.912   5.071   0.960
 6755SOL    HW121164   2.939   5.039   1.050
 6755SOL    HW221165   2.825   5.029   0.934
 6756SOL     OW21166   2.285   1.683   5.793
 6756SOL    HW121167   2.351   1.727   5.853
 6756SOL    HW221168   2.203   1.740   5.786
 6757SOL     OW21169   3.160   0.860   0.547
 6757SOL    HW121170   3.119   0.769   0.538
 6757SOL    HW221171   3.165   0.885   0.643
 6758SOL     OW21172   5.717   2.832   1.074
 6758SOL    HW121173   5.702   2.734   1.062
 6758SOL    HW221174   5.680   2.860   1.163
 6759SOL     OW21175   0.060   3.318   3.198
 6759SOL    HW121176   0.049   3.417   3.193
 6759SOL    HW221177   7.009   3.273   3.144
 6760SOL     OW21178   5.318   2.945   2.948
 6760SOL    HW121179   5.375   3.026   2.964
 6760SOL    HW221180   5.249   2.967   2.879
 6761SOL     OW21181   4.830   2.083   4.265
 6761SOL    HW121182   4.822   2.049   4.359
 6761SOL    HW221183   4.927   2.092   4.242
 6762SOL     OW21184   6.800   5.479   3.508
 6762SOL    HW121185   6.885   5.441   3.543
 6762SOL    HW221186   6.808   5.493   3.409
 6763SOL     OW21187   4.550   5.640   4.894
 6763SOL    HW121188   4.605   5.609   4.817
 6763SOL    HW221189   4.574   5.587   4.976
 6764SOL     OW21190   1.425   5.915   1.873
 6764SOL    HW121191   1.499   5.911   1.940
 6764SOL    HW221192   1.350   5.855   1.902
 6765SOL     OW21193   6.062   5.123   3.575
 6765SOL    HW121194   6.123   5.129   3.654
 6765SOL    HW221195   5.986   5.186   3.587
 6766SOL     OW21196   4.809   6.333   0.447
 6766SOL    HW121197   4.834   6.422   0.408
 6766SOL    HW221198   4.776   6.273   0.373
 6767SOL     OW21199   2.818   0.518   0.289
 6767SOL    HW121200   2.832   0.611   0.322
 6767SOL    HW221201   2.903   0.466   0.300
 6768SOL     OW21202   1.896   1.052   6.728
 6768SOL    HW121203   1.953   0.983   6.682
 6768SOL    HW221204   1.925   1.060   6.824
 6769SOL     OW21205   3.395   2.926   0.612
 6769SOL    HW121206   3.404   2.930   0.512
 6769SOL    HW221207   3.486   2.933   0.654
 6770SOL     OW21208   6.953   0.689   1.961
 6770SOL    HW121209   6.881   0.623   1.939
 6770SOL    HW221210   6.960   0.756   1.887
 6771SOL     OW21211   4.603   2.199   2.963
 6771SOL    HW121212   4.701   2.188   2.944
 6771SOL    HW221213   4.553   2.123   2.922
 6772SOL     OW21214   3.230   1.102   2.385
 6772SOL    HW121215   3.259   1.118   2.290
 6772SOL    HW221216   3.172   1.178   2.415
 6773SOL     OW21217   6.710   4.041   1.601
 6773SOL    HW121218   6.677   3.976   1.670
 6773SOL    HW221219   6.797   4.008   1.564
 6774SOL     OW21220   0.045   2.564   6.178
 6774SOL    HW121221   0.117   2.529   6.117
 6774SOL    HW221222   6.976   2.545   6.138
 6775SOL     OW21223   2.751   3.694   0.829
 6775SOL    HW121224   2.729   3.714   0.924
 6775SOL    HW221225   2.730   3.598   0.810
 6776SOL     OW21226   4.526   4.754   0.407
 6776SOL    HW121227   4.500   4.828   0.345
 6776SOL    HW221228   4.611   4.777   0.453
 6777SOL     OW21229   4.329   4.767   6.234
 6777SOL    HW121230   4.343   4.712   6.152
 6777SOL    HW221231   4.369   4.720   6.313
 6778SOL     OW21232   0.675   3.887   2.171
 6778SOL    HW121233   0.733   3.961   2.135
 6778SOL    HW221234   0.691   3.878   2.269
 6779SOL     OW21235   6.570   4.080   6.877
 6779SOL    HW121236   6.632   4.012   6.915
 6779SOL    HW221237   6.613   4.125   6.799
 6780SOL     OW21238   1.200   2.205   2.440
 6780SOL    HW121239   1.228   2.300   2.423
 6780SOL    HW221240   1.107   2.203   2.476
 6781SOL     OW21241   5.535   6.207   5.325
 6781SOL    HW121242   5.443   6.180   5.355
 6781SOL    HW221243   5.576   6.266   5.394
 6782SOL     OW21244   0.245   0.749   2.743
 6782SOL    HW121245   0.306   0.708   2.811
 6782SOL    HW221246   0.157   0.701   2.745
 6783SOL     OW21247   0.301   6.650   6.229
 6783SOL    HW121248   0.367   6.581   6.257
 6783SOL    HW221249   0.309   6.665   6.130
 6784SOL     OW21250   3.979   4.211   0.382
 6784SOL    HW121251   3.990   4.299   0.337
 6784SOL    HW221252   4.067   4.164   0.388
 6785SOL     OW21253   5.952   4.668   1.733
 6785SOL    HW121254   5.898   4.750   1.716
 6785SOL    HW221255   5.925   4.627   1.820
 6786SOL     OW21256   1.294   2.050   6.689
 6786SOL    HW121257   1.335   2.103   6.614
 6786SOL    HW221258   1.231   1.983   6.651
 6787SOL     OW21259   1.983   3.751   0.957
 6787SOL    HW121260   1.887   3.725   0.968
 6787SOL    HW221261   1.989   3.834   0.902
 6788SOL     OW21262   2.807   3.910   1.643
 6788SOL    HW121263   2.835   3.883   1.736
 6788SOL    HW221264   2.707   3.916   1.640
 6789SOL     OW21265   0.342   6.730   2.097
 6789SOL    HW121266   0.411   6.686   2.154
 6789SOL    HW221267   0.287   6.660   2.052
 6790SOL     OW21268   1.620   4.013   0.213
 6790SOL    HW121269   1.594   3.920   0.241
 6790SOL    HW221270   1.612   4.074   0.292
 6791SOL     OW21271   3.905   2.443   0.875
 6791SOL    HW121272   3.979   2.509   0.873
 6791SOL    HW221273   3.878   2.425   0.970
 6792SOL     OW21274   6.811   5.675   5.958
 6792SOL    HW121275   6.749   5.694   5.882
 6792SOL    HW221276   6.841   5.762   5.999
 6793SOL     OW21277   0.869   2.345   0.702
 6793SOL    HW121278   0.819   2.288   0.637
 6793SOL    HW221279   0.953   2.377   0.660
 6794SOL     OW21280   5.357   1.247   4.777
 6794SOL    HW121281   5.425   1.276   4.709
 6794SOL    HW221282   5.401   1.189   4.846
 6795SOL     OW21283   2.518   5.917   0.610
 6795SOL    HW121284   2.610   5.889   0.637
 6795SOL    HW221285   2.504   5.896   0.513
 6796SOL     OW21286   5.869   1.104   2.144
 6796SOL    HW121287   5.953   1.067   2.104
 6796SOL    HW221288   5.790   1.057   2.105
 6797SOL     OW21289   5.153   3.837   1.774
 6797SOL    HW121290   5.162   3.814   1.677
 6797SOL    HW221291   5.078   3.784   1.814
 6798SOL     OW21292   5.601   5.476   2.832
 6798SOL    HW121293   5.590   5.560   2.885
 6798SOL    HW221294   5.554   5.486   2.744
 6799SOL     OW21295   5.606   5.574   0.285
 6799SOL    HW121296   5.642   5.655   0.331
 6799SOL    HW221297   5.544   5.525   0.346
 6800SOL     OW21298   2.139   4.450   0.643
 6800SOL    HW121299   2.169   4.461   0.737
 6800SOL    HW221300   2.215   4.470   0.581
 6801SOL     OW21301   1.618   1.235   2.264
 6801SOL    HW121302   1.718   1.234   2.260
 6801SOL    HW221303   1.587   1.162   2.326
 6802SOL     OW21304   2.300   5.810   0.362
 6802SOL    HW121305   2.284   5.744   0.435
 6802SOL    HW221306   2.392   5.799   0.326
 6803SOL     OW21307   4.725   2.649   6.495
 6803SOL    HW121308   4.640   2.701   6.484
 6803SOL    HW221309   4.803   2.710   6.478
 6804SOL     OW21310   2.266   5.687   3.406
 6804SOL    HW121311   2.345   5.747   3.395
 6804SOL    HW221312   2.210   5.719   3.482
 6805SOL     OW21313   5.526   6.325   4.537
 6805SOL    HW121314   5.576   6.411   4.549
 6805SOL    HW221315   5.532   6.295   4.442
 6806SOL     OW21316   5.085   1.331   3.495
 6806SOL    HW121317   5.035   1.269   3.435
 6806SOL    HW221318   5.040   1.420   3.497
 6807SOL     OW21319   2.293   2.951   6.951
 6807SOL    HW121320   2.302   2.986   0.024
 6807SOL    HW221321   2.279   2.853   6.953
 6808SOL     OW21322   0.457   2.934   5.538
 6808SOL    HW121323   0.538   2.973   5.582
 6808SOL    HW221324   0.483   2.852   5.486
 6809SOL     OW21325   1.904   4.188   0.278
 6809SOL    HW121326   1.839   4.263   0.269
 6809SOL    HW221327   1.987   4.222   0.323
 6810SOL     OW21328   1.387   0.564   2.009
 6810SOL    HW121329   1.449   0.488   2.031
 6810SOL    HW221330   1.433   0.651   2.028
 6811SOL     OW21331   4.987   4.193   0.267
 6811SOL    HW121332   5.047   4.232   0.337
 6811SOL    HW221333   5.032   4.113   0.226
 6812SOL     OW21334   3.826   3.308   3.282
 6812SOL    HW121335   3.864   3.335   3.370
 6812SOL    HW221336   3.878   3.231   3.245
 6813SOL     OW21337   4.647   1.616   1.499
 6813SOL    HW121338   4.602   1.539   1.452
 6813SOL    HW221339   4.715   1.657   1.439
 6814SOL     OW21340   3.344   2.792   1.032
 6814SOL    HW121341   3.248   2.809   1.006
 6814SOL    HW221342   3.375   2.706   0.992
 6815SOL     OW21343   2.792   6.776   1.336
 6815SOL    HW121344   2.768   6.724   1.254
 6815SOL    HW221345   2.861   6.726   1.388
 6816SOL     OW21346   6.473   5.026   0.184
 6816SOL    HW121347   6.562   5.071   0.173
 6816SOL    HW221348   6.446   5.030   0.281
 6817SOL     OW21349   6.684   1.505   5.307
 6817SOL    HW121350   6.736   1.568   5.364
 6817SOL    HW221351   6.699   1.411   5.339
 6818SOL     OW21352   2.893   6.153   1.937
 6818SOL    HW121353   2.798   6.155   1.906
 6818SOL    HW221354   2.909   6.068   1.987
 6819SOL     OW21355   3.735   0.902   3.659
 6819SOL    HW121356   3.644   0.880   3.623
 6819SOL    HW221357   3.731   0.986   3.712
 6820SOL     OW21358   0.996   4.702   3.667
 6820SOL    HW121359   1.075   4.660   3.623
 6820SOL    HW221360   1.027   4.777   3.726
 6821SOL     OW21361   2.767   2.121   5.088
 6821SOL    HW121362   2.811   2.171   5.164
 6821SOL    HW221363   2.730   2.035   5.122
 6822SOL     OW21364   5.660   1.805   6.364
 6822SOL    HW121365   5.706   1.835   6.281
 6822SOL    HW221366   5.586   1.869   6.386
 6823SOL     OW21367   3.722   3.587   4.066
 6823SOL    HW121368   3.750   3.560   3.974
 6823SOL    HW221369   3.623   3.593   4.071
 6824SOL     OW21370   0.568   2.640   5.985
 6824SOL    HW121371   0.477   2.680   5.990
 6824SOL    HW221372   0.623   2.674   6.061
 6825SOL     OW21373   4.847   0.113   2.328
 6825SOL    HW121374   4.917   0.159   2.382
 6825SOL    HW221375   4.759   0.158   2.343
 6826SOL     OW21376   2.083   3.434   2.824
 6826SOL    HW121377   2.126   3.517   2.788
 6826SOL    HW221378   2.114   3.355   2.771
 6827SOL     OW21379   4.988   5.798   0.259
 6827SOL    HW121380   5.068   5.826   0.312
 6827SOL    HW221381   4.943   5.722   0.305
 6828SOL     OW21382   1.611   2.371   1.575
 6828SOL    HW121383   1.661   2.452   1.606
 6828SOL    HW221384   1.657   2.289   1.608
 6829SOL     OW21385   5.011   6.653   3.593
 6829SOL    HW121386   5.046   6.746   3.610
 6829SOL    HW221387   5.042   6.622   3.503
 6830SOL     OW21388   5.657   1.308   3.111
 6830SOL    HW121389   5.565   1.281   3.083
 6830SOL    HW221390   5.672   1.404   3.087
 6831SOL     OW21391   0.911   0.549   6.052
 6831SOL    HW121392   0.926   0.451   6.066
 6831SOL    HW221393   0.819   0.564   6.016
 6832SOL     OW21394   2.930   4.429   1.382
 6832SOL    HW121395   2.844   4.380   1.363
 6832SOL    HW221396   2.922   4.476   1.470
 6833SOL     OW21397   4.150   5.238   6.930
 6833SOL    HW121398   4.239   5.284   6.929
 6833SOL    HW221399   4.087   5.285   6.868
 6834SOL     OW21400   4.164   6.557   1.707
 6834SOL    HW121401   4.139   6.642   1.660
 6834SOL    HW221402   4.182   6.576   1.803
 6835SOL     OW21403   4.215   7.009   5.105
 6835SOL    HW121404   4.148   6.961   5.049
 6835SOL    HW221405   4.222   6.964   5.194
 6836SOL     OW21406   3.149   6.240   0.475
 6836SOL    HW121407   3.216   6.176   0.512
 6836SOL    HW221408   3.067   6.240   0.533
 6837SOL     OW21409   1.923   3.274   2.017
 6837SOL    HW121410   1.952   3.196   1.961
 6837SOL    HW221411   1.962   3.358   1.979
 6838SOL     OW21412   1.953   0.840   0.801
 6838SOL    HW121413   1.925   0.933   0.777
 6838SOL    HW221414   1.947   0.782   0.720
 6839SOL     OW21415   4.597   0.943   0.715
 6839SOL    HW121416   4.560   0.903   0.631
 6839SOL    HW221417   4.692   0.912   0.728
 6840SOL     OW21418   2.452   1.877   5.910
 6840SOL    HW121419   2.460   1.863   6.009
 6840SOL    HW221420   2.407   1.964   5.892
 6841SOL     OW21421   6.163   3.274   6.009
 6841SOL    HW121422   6.257   3.303   6.030
 6841SOL    HW221423   6.128   3.220   6.086
 6842SOL     OW21424   2.290   4.988   1.475
 6842SOL    HW121425   2.244   5.039   1.547
 6842SOL    HW221426   2.317   4.898   1.510
 6843SOL     OW21427   5.254   0.084   6.360
 6843SOL    HW121428   5.164   0.114   6.327
 6843SOL    HW221429   5.293   0.018   6.296
 6844SOL     OW21430   5.154   0.978   4.094
 6844SOL    HW121431   5.107   0.993   4.007
 6844SOL    HW221432   5.240   1.029   4.094
 6845SOL     OW21433   5.489   2.753   2.842
 6845SOL    HW121434   5.567   2.762   2.904
 6845SOL    HW221435   5.422   2.824   2.863
 6846SOL     OW21436   2.988   4.081   6.976
 6846SOL    HW121437   3.059   4.086   6.906
 6846SOL    HW221438   2.940   4.168   6.981
 6847SOL     OW21439   6.597   3.980   4.647
 6847SOL    HW121440   6.641   4.031   4.573
 6847SOL    HW221441   6.659   3.975   4.726
 6848SOL     OW21442   5.366   4.021   4.025
 6848SOL    HW121443   5.275   3.981   4.024
 6848SOL    HW221444   5.420   3.979   4.098
 6849SOL     OW21445   3.509   4.397   5.701
 6849SOL    HW121446   3.471   4.305   5.691
 6849SOL    HW221447   3.441   4.464   5.672
 6850SOL     OW21448   4.237   2.341   3.099
 6850SOL    HW121449   4.177   2.290   3.037
 6850SOL    HW221450   4.184   2.377   3.176
 6851SOL     OW21451   2.005   2.931   2.944
 6851SOL    HW121452   2.070   2.967   2.878
 6851SOL    HW221453   2.050   2.921   3.033
 6852SOL     OW21454   2.753   5.670   1.293
 6852SOL    HW121455   2.724   5.642   1.385
 6852SOL    HW221456   2.837   5.624   1.269
 6853SOL     OW21457   5.229   3.255   6.301
 6853SOL    HW121458   5.258   3.350   6.319
 6853SOL    HW221459   5.130   3.251   6.295
 6854SOL     OW21460   5.106   6.746   5.719
 6854SOL    HW121461   5.125   6.747   5.621
 6854SOL    HW221462   5.173   6.803   5.767
 6855SOL     OW21463   4.133   5.709   3.444
 6855SOL    HW121464   4.210   5.647   3.425
 6855SOL    HW221465   4.073   5.712   3.364
 6856SOL     OW21466   0.608   2.370   6.020
 6856SOL    HW121467   0.520   2.328   5.998
 6856SOL    HW221468   0.598   2.470   6.015
 6857SOL     OW21469   0.904   3.146   6.757
 6857SOL    HW121470   0.967   3.213   6.718
 6857SOL    HW221471   0.914   3.145   6.856
 6858SOL     OW21472   3.262   4.277   1.646
 6858SOL    HW121473   3.189   4.317   1.701
 6858SOL    HW221474   3.345   4.333   1.655
 6859SOL     OW21475   0.816   1.562   1.887
 6859SOL    HW121476   0.904   1.561   1.935
 6859SOL    HW221477   0.761   1.484   1.917
 6860SOL     OW21478   0.023   5.010   2.218
 6860SOL    HW121479   6.960   4.959   2.203
 6860SOL    HW221480   0.054   4.998   2.313
 6861SOL     OW21481   4.709   3.218   5.612
 6861SOL    HW121482   4.654   3.222   5.695
 6861SOL    HW221483   4.659   3.261   5.537
 6862SOL     OW21484   0.751   4.500   6.075
 6862SOL    HW121485   0.834   4.504   6.019
 6862SOL    HW221486   0.764   4.554   6.158
 6863SOL     OW21487   6.735   6.519   4.663
 6863SOL    HW121488   6.678   6.580   4.718
 6863SOL    HW221489   6.813   6.570   4.627
 6864SOL     OW21490   1.738   4.070   6.047
 6864SOL    HW121491   1.702   3.994   6.101
 6864SOL    HW221492   1.793   4.034   5.972
 6865SOL     OW21493   1.851   0.637   4.988
 6865SOL    HW121494   1.780   0.618   4.920
 6865SOL    HW221495   1.898   0.722   4.966
 6866SOL     OW21496   6.582   4.456   1.977
 6866SOL    HW121497   6.523   4.441   1.898
 6866SOL    HW221498   6.594   4.371   2.027
 6867SOL     OW21499   1.568   3.944   0.685
 6867SOL    HW121500   1.584   3.973   0.780
 6867SOL    HW221501   1.543   3.848   0.684
 6868SOL     OW21502   1.786   5.916   5.682
 6868SOL    HW121503   1.714   5.848   5.693
 6868SOL    HW221504   1.875   5.873   5.698
 6869SOL     OW21505   3.699   6.934   5.674
 6869SOL    HW121506   3.620   6.970   5.723
 6869SOL    HW221507   3.779   6.934   5.734
 6870SOL     OW21508   0.859   3.232   0.182
 6870SOL    HW121509   0.931   3.206   0.246
 6870SOL    HW221510   0.823   3.151   0.137
 6871SOL     OW21511   6.817   3.400   2.083
 6871SOL    HW121512   6.754   3.360   2.018
 6871SOL    HW221513   6.779   3.393   2.175
 6872SOL     OW21514   1.385   2.760   2.175
 6872SOL    HW121515   1.451   2.705   2.123
 6872SOL    HW221516   1.413   2.762   2.271
 6873SOL     OW21517   1.174   3.959   4.130
 6873SOL    HW121518   1.095   3.905   4.158
 6873SOL    HW221519   1.256   3.903   4.136
 6874SOL     OW21520   6.158   5.592   2.784
 6874SOL    HW121521   6.186   5.678   2.828
 6874SOL    HW221522   6.081   5.611   2.723
 6875SOL     OW21523   1.643   2.881   1.579
 6875SOL    HW121524   1.688   2.967   1.603
 6875SOL    HW221525   1.705   2.825   1.523
 6876SOL     OW21526   3.562   0.286   3.611
 6876SOL    HW121527   3.573   0.238   3.524
 6876SOL    HW221528   3.643   0.342   3.629
 6877SOL     OW21529   2.764   4.507   1.637
 6877SOL    HW121530   2.769   4.602   1.605
 6877SOL    HW221531   2.829   4.494   1.711
 6878SOL     OW21532   2.178   0.963   3.837
 6878SOL    HW121533   2.085   0.980   3.872
 6878SOL    HW221534   2.173   0.898   3.761
 6879SOL     OW21535   2.537   2.274   0.296
 6879SOL    HW121536   2.502   2.235   0.382
 6879SOL    HW221537   2.615   2.334   0.316
 6880SOL     OW21538   1.304   5.820   6.342
 6880SOL    HW121539   1.240   5.754   6.380
 6880SOL    HW221540   1.385   5.772   6.306
 6881SOL     OW21541   1.810   3.833   0.622
 6881SOL    HW121542   1.717   3.870   0.629
 6881SOL    HW221543   1.849   3.857   0.533
 6882SOL     OW21544   2.438   0.100   0.282
 6882SOL    HW121545   2.520   0.046   0.302
 6882SOL    HW221546   2.389   0.120   0.368
 6883SOL     OW21547   5.194   0.660   6.111
 6883SOL    HW121548   5.171   0.757   6.097
 6883SOL    HW221549   5.148   0.626   6.192
 6884SOL     OW21550   2.022   4.281   3.045
 6884SOL    HW121551   2.098   4.237   3.093
 6884SOL    HW221552   1.936   4.263   3.093
 6885SOL     OW21553   4.827   4.812   4.307
 6885SOL    HW121554   4.732   4.815   4.278
 6885SOL    HW221555   4.845   4.724   4.353
 6886SOL     OW21556   5.887   1.361   5.253
 6886SOL    HW121557   5.831   1.433   5.295
 6886SOL    HW221558   5.862   1.273   5.292
 6887SOL     OW21559   5.055   6.129   6.542
 6887SOL    HW121560   5.110   6.122   6.458
 6887SOL    HW221561   5.003   6.045   6.554
 6888SOL     OW21562   5.740   4.084   6.484
 6888SOL    HW121563   5.714   4.002   6.533
 6888SOL    HW221564   5.752   4.160   6.548
 6889SOL     OW21565   1.379   3.092   5.483
 6889SOL    HW121566   1.466   3.092   5.534
 6889SOL    HW221567   1.396   3.063   5.389
 6890SOL     OW21568   3.623   5.665   2.998
 6890SOL    HW121569   3.553   5.611   2.951
 6890SOL    HW221570   3.612   5.657   3.097
 6891SOL     OW21571   2.142   2.926   1.285
 6891SOL    HW121572   2.098   2.869   1.215
 6891SOL    HW221573   2.239   2.901   1.292
 6892SOL     OW21574   2.994   1.690   4.361
 6892SOL    HW121575   3.022   1.685   4.457
 6892SOL    HW221576   3.017   1.604   4.315
 6893SOL     OW21577   6.346   3.345   6.540
 6893SOL    HW121578   6.354   3.317   6.444
 6893SOL    HW221579   6.256   3.320   6.575
 6894SOL     OW21580   5.419   4.205   1.255
 6894SOL    HW121581   5.468   4.152   1.185
 6894SOL    HW221582   5.349   4.260   1.210
 6895SOL     OW21583   1.267   6.004   0.879
 6895SOL    HW121584   1.201   6.013   0.805
 6895SOL    HW221585   1.332   5.931   0.858
 6896SOL     OW21586   3.617   2.101   4.214
 6896SOL    HW121587   3.522   2.076   4.192
 6896SOL    HW221588   3.622   2.132   4.308
 6897SOL     OW21589   4.995   3.827   4.994
 6897SOL    HW121590   4.950   3.737   5.003
 6897SOL    HW221591   5.091   3.818   5.018
 6898SOL     OW21592   2.274   1.127   1.278
 6898SOL    HW121593   2.193   1.153   1.331
 6898SOL    HW221594   2.334   1.072   1.335
 6899SOL     OW21595   5.819   5.746   2.297
 6899SOL    HW121596   5.899   5.708   2.344
 6899SOL    HW221597   5.775   5.815   2.355
 6900SOL     OW21598   6.775   4.508   6.241
 6900SOL    HW121599   6.825   4.546   6.318
 6900SOL    HW221600   6.761   4.410   6.255
 6901SOL     OW21601   4.633   4.639   6.697
 6901SOL    HW121602   4.665   4.702   6.625
 6901SOL    HW221603   4.542   4.666   6.727
 6902SOL     OW21604   6.852   5.935   6.017
 6902SOL    HW121605   6.942   5.954   6.057
 6902SOL    HW221606   6.810   6.021   5.987
 6903SOL     OW21607   2.392   4.754   5.221
 6903SOL    HW121608   2.301   4.736   5.184
 6903SOL    HW221609   2.453   4.677   5.200
 6904SOL     OW21610   0.382   6.173   5.234
 6904SOL    HW121611   0.364   6.271   5.228
 6904SOL    HW221612   0.469   6.158   5.282
 6905SOL     OW21613   5.175   5.414   6.943
 6905SOL    HW121614   5.150   5.440   0.016
 6905SOL    HW221615   5.275   5.403   6.938
 6906SOL     OW21616   3.924   1.465   3.683
 6906SOL    HW121617   3.926   1.546   3.740
 6906SOL    HW221618   3.950   1.385   3.737
 6907SOL     OW21619   6.275   2.095   1.502
 6907SOL    HW121620   6.347   2.163   1.489
 6907SOL    HW221621   6.291   2.044   1.586
 6908SOL     OW21622   2.536   4.479   6.835
 6908SOL    HW121623   2.478   4.457   6.757
 6908SOL    HW221624   2.632   4.459   6.813
 6909SOL     OW21625   5.437   4.934   2.010
 6909SOL    HW121626   5.450   5.017   2.065
 6909SOL    HW221627   5.445   4.957   1.913
 6910SOL     OW21628   1.471   3.366   2.711
 6910SOL    HW121629   1.542   3.421   2.667
 6910SOL    HW221630   1.474   3.380   2.810
 6911SOL     OW21631   3.543   6.811   5.475
 6911SOL    HW121632   3.600   6.842   5.551
 6911SOL    HW221633   3.462   6.868   5.469
 6912SOL     OW21634   1.868   3.195   6.333
 6912SOL    HW121635   1.962   3.162   6.336
 6912SOL    HW221636   1.866   3.291   6.360
 6913SOL     OW21637   5.082   6.008   5.273
 6913SOL    HW121638   5.077   5.959   5.360
 6913SOL    HW221639   5.069   5.944   5.197
 6914SOL     OW21640   6.193   3.569   1.876
 6914SOL    HW121641   6.161   3.664   1.878
 6914SOL    HW221642   6.266   3.560   1.808
 6915SOL     OW21643   1.008   3.287   1.805
 6915SOL    HW121644   1.095   3.333   1.821
 6915SOL    HW221645   0.972   3.253   1.892
 6916SOL     OW21646   5.219   0.500   5.845
 6916SOL    HW121647   5.206   0.580   5.904
 6916SOL    HW221648   5.139   0.440   5.852
 6917SOL     OW21649   4.952   5.806   1.659
 6917SOL    HW121650   5.034   5.752   1.676
 6917SOL    HW221651   4.978   5.896   1.624
 6918SOL     OW21652   0.653   3.097   2.230
 6918SOL    HW121653   0.592   3.164   2.186
 6918SOL    HW221654   0.626   3.005   2.201
 6919SOL     OW21655   5.961   6.977   2.528
 6919SOL    HW121656   5.922   0.047   2.543
 6919SOL    HW221657   6.036   6.962   2.592
 6920SOL     OW21658   4.736   0.597   5.024
 6920SOL    HW121659   4.718   0.510   4.978
 6920SOL    HW221660   4.696   0.596   5.116
 6921SOL     OW21661   4.276   6.944   4.306
 6921SOL    HW121662   4.208   6.913   4.372
 6921SOL    HW221663   4.234   7.010   4.244
 6922SOL     OW21664   2.207   6.272   4.241
 6922SOL    HW121665   2.109   6.289   4.253
 6922SOL    HW221666   2.255   6.297   4.325
 6923SOL     OW21667   6.057   6.120   2.252
 6923SOL    HW121668   6.137   6.079   2.295
 6923SOL    HW221669   6.012   6.182   2.317
 6924SOL     OW21670   3.134   6.386   1.304
 6924SOL    HW121671   3.166   6.314   1.242
 6924SOL    HW221672   3.159   6.361   1.398
 6925SOL     OW21673   5.294   6.426   6.454
 6925SOL    HW121674   5.383   6.458   6.483
 6925SOL    HW221675   5.304   6.369   6.373
 6926SOL     OW21676   1.947   1.723   0.358
 6926SOL    HW121677   1.885   1.648   0.335
 6926SOL    HW221678   1.968   1.720   0.456
 6927SOL     OW21679   3.551   0.750   0.665
 6927SOL    HW121680   3.631   0.732   0.607
 6927SOL    HW221681   3.504   0.665   0.685
 6928SOL     OW21682   5.283   5.291   0.686
 6928SOL    HW121683   5.284   5.382   0.726
 6928SOL    HW221684   5.328   5.293   0.597
 6929SOL     OW21685   5.074   5.039   1.428
 6929SOL    HW121686   5.030   5.004   1.510
 6929SOL    HW221687   5.156   4.984   1.408
 6930SOL     OW21688   0.620   0.829   0.340
 6930SOL    HW121689   0.571   0.812   0.426
 6930SOL    HW221690   0.594   0.918   0.303
 6931SOL     OW21691   2.260   2.170   1.154
 6931SOL    HW121692   2.323   2.106   1.111
 6931SOL    HW221693   2.306   2.215   1.231
 6932SOL     OW21694   4.872   4.993   0.205
 6932SOL    HW121695   4.849   4.896   0.197
 6932SOL    HW221696   4.796   5.048   0.170
 6933SOL     OW21697   3.439   5.989   6.059
 6933SOL    HW121698   3.372   6.061   6.038
 6933SOL    HW221699   3.445   5.977   6.158
 6934SOL     OW21700   4.934   3.875   6.748
 6934SOL    HW121701   4.885   3.877   6.661
 6934SOL    HW221702   4.881   3.925   6.817
 6935SOL     OW21703   5.094   5.659   1.969
 6935SOL    HW121704   5.123   5.673   1.874
 6935SOL    HW221705   5.131   5.573   2.003
 6936SOL     OW21706   0.585   2.256   4.407
 6936SOL    HW121707   0.631   2.172   4.379
 6936SOL    HW221708   0.497   2.234   4.448
 6937SOL     OW21709   5.916   6.385   0.327
 6937SOL    HW121710   5.877   6.478   0.326
 6937SOL    HW221711   5.958   6.366   0.239
 6938SOL     OW21712   0.368   1.100   4.153
 6938SOL    HW121713   0.275   1.113   4.116
 6938SOL    HW221714   0.404   1.188   4.183
 6939SOL     OW21715   6.306   4.892   3.400
 6939SOL    HW121716   6.217   4.912   3.359
 6939SOL    HW221717   6.372   4.870   3.329
 6940SOL     OW21718   4.719   6.635   0.745
 6940SOL    HW121719   4.677   6.724   0.726
 6940SOL    HW221720   4.655   6.578   0.795
 6941SOL     OW21721   3.054   3.964   2.398
 6941SOL    HW121722   3.117   3.955   2.321
 6941SOL    HW221723   2.985   4.032   2.378
 6942SOL     OW21724   6.192   6.416   1.892
 6942SOL    HW121725   6.174   6.341   1.828
 6942SOL    HW221726   6.280   6.458   1.871
 6943SOL     OW21727   3.619   4.679   6.999
 6943SOL    HW121728   3.683   4.666   6.924
 6943SOL    HW221729   3.654   4.636   0.062
 6944SOL     OW21730   1.103   4.211   6.125
 6944SOL    HW121731   1.025   4.262   6.159
 6944SOL    HW221732   1.086   4.184   6.030
 6945SOL     OW21733   6.171   2.219   0.633
 6945SOL    HW121734   6.203   2.129   0.603
 6945SOL    HW221735   6.113   2.208   0.714
 6946SOL     OW21736   4.018   5.880   2.280
 6946SOL    HW121737   4.039   5.859   2.376
 6946SOL    HW221738   4.086   5.944   2.245
 6947SOL     OW21739   4.630   5.008   6.398
 6947SOL    HW121740   4.645   5.097   6.356
 6947SOL    HW221741   4.546   5.010   6.453
 6948SOL     OW21742   0.262   6.241   1.052
 6948SOL    HW121743   0.236   6.337   1.039
 6948SOL    HW221744   0.325   6.213   0.979
 6949SOL     OW21745   2.658   2.350   3.271
 6949SOL    HW121746   2.744   2.313   3.307
 6949SOL    HW221747   2.662   2.349   3.171
 6950SOL     OW21748   1.356   6.702   4.398
 6950SOL    HW121749   1.390   6.679   4.307
 6950SOL    HW221750   1.256   6.712   4.395
 6951SOL     OW21751   6.668   5.328   6.788
 6951SOL    HW121752   6.660   5.265   6.710
 6951SOL    HW221753   6.758   5.370   6.789
 6952SOL     OW21754   2.988   5.089   2.816
 6952SOL    HW121755   2.988   5.181   2.855
 6952SOL    HW221756   3.042   5.089   2.732
 6953SOL     OW21757   5.086   0.039   0.583
 6953SOL    HW121758   5.135   6.973   0.577
 6953SOL    HW221759   5.146   0.114   0.554
 6954SOL     OW21760   0.512   3.605   1.264
 6954SOL    HW121761   0.561   3.574   1.346
 6954SOL    HW221762   0.424   3.558   1.258
 6955SOL     OW21763   5.361   0.087   2.335
 6955SOL    HW121764   5.278   0.054   2.379
 6955SOL    HW221765   5.431   0.105   2.404
 6956SOL     OW21766   5.989   5.902   1.797
 6956SOL    HW121767   5.964   5.901   1.894
 6956SOL    HW221768   5.913   5.937   1.743
 6957SOL     OW21769   5.463   5.939   6.236
 6957SOL    HW121770   5.473   6.037   6.221
 6957SOL    HW221771   5.371   5.919   6.270
 6958SOL     OW21772   3.498   3.525   3.920
 6958SOL    HW121773   3.484   3.476   3.834
 6958SOL    HW221774   3.412   3.528   3.971
 6959SOL     OW21775   1.239   3.876   2.887
 6959SOL    HW121776   1.151   3.900   2.846
 6959SOL    HW221777   1.283   3.804   2.833
 6960SOL     OW21778   1.577   4.912   0.775
 6960SOL    HW121779   1.557   4.928   0.871
 6960SOL    HW221780   1.498   4.868   0.731
 6961SOL     OW21781   4.051   1.481   4.844
 6961SOL    HW121782   3.997   1.442   4.770
 6961SOL    HW221783   4.099   1.407   4.892
 6962SOL     OW21784   3.661   6.564   0.170
 6962SOL    HW121785   3.731   6.626   0.133
 6962SOL    HW221786   3.705   6.479   0.201
 6963SOL     OW21787   5.172   6.366   0.319
 6963SOL    HW121788   5.148   6.456   0.283
 6963SOL    HW221789   5.191   6.373   0.417
 6964SOL     OW21790   2.579   0.207   5.852
 6964SOL    HW121791   2.577   0.270   5.774
 6964SOL    HW221792   2.673   0.197   5.884
 6965SOL     OW21793   1.089   2.119   0.519
 6965SOL    HW121794   1.148   2.041   0.498
 6965SOL    HW221795   1.076   2.174   0.437
 6966SOL     OW21796   1.120   0.254   2.087
 6966SOL    HW121797   1.177   0.180   2.050
 6966SOL    HW221798   1.177   0.315   2.142
 6967SOL     OW21799   3.702   1.861   6.013
 6967SOL    HW121800   3.672   1.857   5.918
 6967SOL    HW221801   3.727   1.770   6.045
 6968SOL     OW21802   3.489   6.851   3.295
 6968SOL    HW121803   3.468   6.929   3.354
 6968SOL    HW221804   3.403   6.814   3.259
 6969SOL     OW21805   2.709   1.721   1.244
 6969SOL    HW121806   2.710   1.665   1.326
 6969SOL    HW221807   2.755   1.809   1.263
 6970SOL     OW21808   3.245   4.778   6.250
 6970SOL    HW121809   3.152   4.765   6.216
 6970SOL    HW221810   3.248   4.859   6.308
 6971SOL     OW21811   5.184   4.380   1.226
 6971SOL    HW121812   5.152   4.475   1.224
 6971SOL    HW221813   5.199   4.353   1.321
 6972SOL     OW21814   4.898   3.399   3.167
 6972SOL    HW121815   4.885   3.493   3.136
 6972SOL    HW221816   4.916   3.398   3.265
 6973SOL     OW21817   1.286   1.847   2.548
 6973SOL    HW121818   1.322   1.769   2.497
 6973SOL    HW221819   1.224   1.900   2.490
 6974SOL     OW21820   2.988   3.864   2.656
 6974SOL    HW121821   2.927   3.910   2.591
 6974SOL    HW221822   3.029   3.783   2.612
 6975SOL     OW21823   2.889   5.888   5.111
 6975SOL    HW121824   2.815   5.845   5.059
 6975SOL    HW221825   2.942   5.947   5.050
 6976SOL     OW21826   5.090   4.228   5.188
 6976SOL    HW121827   5.083   4.194   5.281
 6976SOL    HW221828   5.181   4.210   5.152
 6977SOL     OW21829   4.112   4.440   1.602
 6977SOL    HW121830   4.014   4.448   1.618
 6977SOL    HW221831   4.130   4.361   1.543
 6978SOL     OW21832   6.086   3.323   1.210
 6978SOL    HW121833   6.164   3.277   1.166
 6978SOL    HW221834   6.015   3.256   1.230
 6979SOL     OW21835   1.131   3.769   1.232
 6979SOL    HW121836   1.200   3.740   1.299
 6979SOL    HW221837   1.173   3.833   1.168
 6980SOL     OW21838   1.402   0.289   3.059
 6980SOL    HW121839   1.465   0.237   3.001
 6980SOL    HW221840   1.331   0.331   3.002
 6981SOL     OW21841   3.933   3.577   6.750
 6981SOL    HW121842   3.874   3.647   6.790
 6981SOL    HW221843   4.021   3.576   6.797
 6982SOL     OW21844   1.076   1.169   4.101
 6982SOL    HW121845   0.985   1.192   4.135
 6982SOL    HW221846   1.139   1.243   4.123
 6983SOL     OW21847   4.606   1.178   4.618
 6983SOL    HW121848   4.583   1.271   4.589
 6983SOL    HW221849   4.538   1.114   4.581
 6984SOL     OW21850   1.050   2.534   2.880
 6984SOL    HW121851   1.057   2.436   2.899
 6984SOL    HW221852   1.090   2.553   2.790
 6985SOL     OW21853   0.054   4.357   6.929
 6985SOL    HW121854   0.110   4.401   6.860
 6985SOL    HW221855   0.027   4.266   6.897
 6986SOL     OW21856   4.321   5.765   6.130
 6986SOL    HW121857   4.395   5.796   6.189
 6986SOL    HW221858   4.239   5.749   6.186
 6987SOL     OW21859   0.083   1.710   5.783
 6987SOL    HW121860   0.167   1.765   5.786
 6987SOL    HW221861   0.088   1.638   5.852
 6988SOL     OW21862   3.048   0.553   6.291
 6988SOL    HW121863   2.977   0.611   6.252
 6988SOL    HW221864   3.030   0.458   6.267
 6989SOL     OW21865   7.020   4.397   2.451
 6989SOL    HW121866   6.961   4.477   2.465
 6989SOL    HW221867   0.011   4.349   2.538
 6990SOL     OW21868   3.558   2.900   2.260
 6990SOL    HW121869   3.607   2.951   2.190
 6990SOL    HW221870   3.503   2.828   2.217
 6991SOL     OW21871   5.359   4.861   2.722
 6991SOL    HW121872   5.349   4.817   2.811
 6991SOL    HW221873   5.401   4.951   2.734
 6992SOL     OW21874   0.391   0.135   0.046
 6992SOL    HW121875   0.344   0.214   0.085
 6992SOL    HW221876   0.336   0.096   6.992
 6993SOL     OW21877   5.703   0.932   1.765
 6993SOL    HW121878   5.635   0.992   1.723
 6993SOL    HW221879   5.790   0.980   1.771
 6994SOL     OW21880   1.398   0.026   3.620
 6994SOL    HW121881   1.466   0.009   3.692
 6994SOL    HW221882   1.404   0.122   3.591
 6995SOL     OW21883   0.833   3.898   0.198
 6995SOL    HW121884   0.876   3.810   0.177
 6995SOL    HW221885   0.899   3.972   0.183
 6996SOL     OW21886   1.826   0.442   6.524
 6996SOL    HW121887   1.758   0.493   6.471
 6996SOL    HW221888   1.788   0.353   6.549
 6997SOL     OW21889   0.124   5.246   5.237
 6997SOL    HW121890   0.054   5.205   5.178
 6997SOL    HW221891   0.129   5.193   5.322
 6998SOL     OW21892   1.015   1.529   1.430
 6998SOL    HW121893   1.026   1.488   1.521
 6998SOL    HW221894   1.086   1.597   1.416
 6999SOL     OW21895   0.774   2.540   6.711
 6999SOL    HW121896   0.762   2.477   6.787
 6999SOL    HW221897   0.872   2.552   6.692
 7000SOL     OW21898   6.165   0.281   2.709
 7000SOL    HW121899   6.079   0.331   2.722
 7000SOL    HW221900   6.239   0.347   2.690
 7001SOL     OW21901   0.760   1.431   4.741
 7001SOL    HW121902   0.698   1.432   4.663
 7001SOL    HW221903   0.838   1.492   4.723
 7002SOL     OW21904   0.601   5.658   3.703
 7002SOL    HW121905   0.671   5.730   3.696
 7002SOL    HW221906   0.573   5.648   3.798
 7003SOL     OW21907   6.110   4.244   1.026
 7003SOL    HW121908   6.129   4.150   0.998
 7003SOL    HW221909   6.194   4.298   1.019
 7004SOL     OW21910   1.424   6.025   0.441
 7004SOL    HW121911   1.341   5.999   0.490
 7004SOL    HW221912   1.495   6.049   0.507
 7005SOL     OW21913   1.487   0.326   6.819
 7005SOL    HW121914   1.476   0.348   6.916
 7005SOL    HW221915   1.432   0.389   6.765
 7006SOL     OW21916   0.018   6.776   3.419
 7006SOL    HW121917   6.978   6.699   3.439
 7006SOL    HW221918   0.015   6.842   3.495
 7007SOL     OW21919   4.376   0.989   5.974
 7007SOL    HW121920   4.310   0.918   5.950
 7007SOL    HW221921   4.397   1.044   5.893
 7008SOL     OW21922   6.824   4.231   3.232
 7008SOL    HW121923   6.792   4.275   3.316
 7008SOL    HW221924   6.924   4.225   3.233
 7009SOL     OW21925   4.215   6.041   2.203
 7009SOL    HW121926   4.192   6.130   2.243
 7009SOL    HW221927   4.227   6.050   2.104
 7010SOL     OW21928   5.183   3.985   2.434
 7010SOL    HW121929   5.110   3.963   2.370
 7010SOL    HW221930   5.194   4.084   2.439
 7011SOL     OW21931   3.512   6.380   0.381
 7011SOL    HW121932   3.553   6.470   0.370
 7011SOL    HW221933   3.441   6.383   0.452
 7012SOL     OW21934   1.348   2.894   0.819
 7012SOL    HW121935   1.387   2.840   0.893
 7012SOL    HW221936   1.355   2.843   0.733
 7013SOL     OW21937   2.602   0.996   0.010
 7013SOL    HW121938   2.544   1.048   6.968
 7013SOL    HW221939   2.563   1.000   0.102
 7014SOL     OW21940   6.348   3.489   1.655
 7014SOL    HW121941   6.303   3.424   1.594
 7014SOL    HW221942   6.410   3.547   1.602
 7015SOL     OW21943   5.650   4.347   2.340
 7015SOL    HW121944   5.734   4.387   2.303
 7015SOL    HW221945   5.587   4.327   2.265
 7016SOL     OW21946   3.110   4.758   0.965
 7016SOL    HW121947   3.027   4.809   0.986
 7016SOL    HW221948   3.178   4.773   1.037
 7017SOL     OW21949   4.006   4.761   3.710
 7017SOL    HW121950   4.015   4.854   3.674
 7017SOL    HW221951   3.942   4.762   3.788
 7018SOL     OW21952   4.885   3.194   4.484
 7018SOL    HW121953   4.956   3.248   4.439
 7018SOL    HW221954   4.878   3.222   4.580
 7019SOL     OW21955   5.223   5.456   2.054
 7019SOL    HW121956   5.183   5.383   1.998
 7019SOL    HW221957   5.228   5.426   2.149
 7020SOL     OW21958   0.656   3.276   6.965
 7020SOL    HW121959   0.616   3.363   6.993
 7020SOL    HW221960   0.590   3.203   6.980
 7021SOL     OW21961   1.081   2.722   4.956
 7021SOL    HW121962   1.014   2.763   5.018
 7021SOL    HW221963   1.097   2.627   4.983
 7022SOL     OW21964   3.926   0.996   0.164
 7022SOL    HW121965   3.835   1.016   0.128
 7022SOL    HW221966   3.940   1.048   0.248
 7023SOL     OW21967   0.863   1.722   1.673
 7023SOL    HW121968   0.841   1.650   1.740
 7023SOL    HW221969   0.852   1.811   1.716
 7024SOL     OW21970   3.809   2.992   3.625
 7024SOL    HW121971   3.775   2.945   3.707
 7024SOL    HW221972   3.740   2.985   3.553
 7025SOL     OW21973   3.217   0.129   6.998
 7025SOL    HW121974   3.261   0.208   0.020
 7025SOL    HW221975   3.161   0.082   0.046
 7026SOL     OW21976   2.998   1.505   0.826
 7026SOL    HW121977   3.073   1.534   0.886
 7026SOL    HW221978   2.914   1.499   0.880
 7027SOL     OW21979   2.399   5.462   2.803
 7027SOL    HW121980   2.391   5.529   2.877
 7027SOL    HW221981   2.319   5.401   2.805
 7028SOL     OW21982   2.929   0.475   3.816
 7028SOL    HW121983   2.943   0.562   3.769
 7028SOL    HW221984   3.005   0.457   3.877
 7029SOL     OW21985   3.255   3.379   5.658
 7029SOL    HW121986   3.226   3.439   5.583
 7029SOL    HW221987   3.353   3.387   5.671
 7030SOL     OW21988   0.106   1.752   4.556
 7030SOL    HW121989   0.195   1.740   4.512
 7030SOL    HW221990   0.033   1.742   4.488
 7031SOL     OW21991   4.560   6.151   1.009
 7031SOL    HW121992   4.477   6.186   0.967
 7031SOL    HW221993   4.636   6.212   0.989
 7032SOL     OW21994   4.042   0.053   3.917
 7032SOL    HW121995   3.983   0.088   3.845
 7032SOL    HW221996   4.069   6.979   3.896
 7033SOL     OW21997   1.615   2.336   5.180
 7033SOL    HW121998   1.714   2.323   5.177
 7033SOL    HW221999   1.595   2.431   5.206
 7034SOL     OW22000   6.719   1.781   3.313
 7034SOL    HW122001   6.804   1.834   3.308
 7034SOL    HW222002   6.665   1.799   3.231
 7035SOL     OW22003   2.202   0.271   1.518
 7035SOL    HW122004   2.162   0.356   1.552
 7035SOL    HW222005   2.138   0.196   1.531
 7036SOL     OW22006   0.483   1.625   1.986
 7036SOL    HW122007   0.401   1.682   1.994
 7036SOL    HW222008   0.540   1.638   2.068
 7037SOL     OW22009   0.190   0.132   6.159
 7037SOL    HW122010   0.152   0.219   6.191
 7037SOL    HW222011   0.246   0.147   6.078
 7038SOL     OW22012   2.359   4.310   6.164
 7038SOL    HW122013   2.279   4.261   6.128
 7038SOL    HW222014   2.442   4.274   6.121
 7039SOL     OW22015   0.691   5.233   2.899
 7039SOL    HW122016   0.715   5.181   2.817
 7039SOL    HW222017   0.629   5.307   2.876
 7040SOL     OW22018   4.161   1.971   5.503
 7040SOL    HW122019   4.123   1.993   5.592
 7040SOL    HW222020   4.258   1.993   5.501
 7041SOL     OW22021   1.345   0.927   3.803
 7041SOL    HW122022   1.249   0.902   3.804
 7041SOL    HW222023   1.398   0.855   3.757
 7042SOL     OW22024   4.261   6.029   4.866
 7042SOL    HW122025   4.234   5.999   4.774
 7042SOL    HW222026   4.260   5.951   4.928
 7043SOL     OW22027   2.556   4.595   3.509
 7043SOL    HW122028   2.580   4.691   3.493
 7043SOL    HW222029   2.525   4.553   3.424
 7044SOL     OW22030   5.052   6.421   3.757
 7044SOL    HW122031   5.038   6.502   3.701
 7044SOL    HW222032   4.988   6.422   3.834
 7045SOL     OW22033   6.172   5.542   2.167
 7045SOL    HW122034   6.196   5.629   2.123
 7045SOL    HW222035   6.127   5.482   2.102
 7046SOL     OW22036   3.304   2.165   4.456
 7046SOL    HW122037   3.242   2.087   4.446
 7046SOL    HW222038   3.270   2.226   4.528
 7047SOL     OW22039   0.678   0.250   1.112
 7047SOL    HW122040   0.685   0.236   1.013
 7047SOL    HW222041   0.748   0.194   1.158
 7048SOL     OW22042   6.557   5.783   4.951
 7048SOL    HW122043   6.494   5.812   5.023
 7048SOL    HW222044   6.651   5.795   4.981
 7049SOL     OW22045   3.818   1.577   1.825
 7049SOL    HW122046   3.786   1.616   1.911
 7049SOL    HW222047   3.758   1.503   1.797
 7050SOL     OW22048   3.774   4.985   0.757
 7050SOL    HW122049   3.788   4.913   0.825
 7050SOL    HW222050   3.685   5.028   0.771
 7051SOL     OW22051   0.202   0.166   2.045
 7051SOL    HW122052   0.216   0.177   1.947
 7051SOL    HW222053   0.232   0.075   2.074
 7052SOL     OW22054   6.018   6.797   2.923
 7052SOL    HW122055   6.066   6.872   2.877
 7052SOL    HW222056   5.960   6.835   2.995
 7053SOL     OW22057   1.595   3.272   3.749
 7053SOL    HW122058   1.694   3.260   3.753
 7053SOL    HW222059   1.568   3.350   3.805
 7054SOL     OW22060   0.136   0.369   1.114
 7054SOL    HW122061   0.206   0.403   1.051
 7054SOL    HW222062   0.176   0.358   1.205
 7055SOL     OW22063   1.976   0.679   6.500
 7055SOL    HW122064   2.019   0.742   6.564
 7055SOL    HW222065   1.910   0.622   6.549
 7056SOL     OW22066   6.447   5.807   1.313
 7056SOL    HW122067   6.531   5.812   1.259
 7056SOL    HW222068   6.468   5.777   1.406
 7057SOL     OW22069   2.747   5.010   4.653
 7057SOL    HW122070   2.802   5.084   4.691
 7057SOL    HW222071   2.746   4.933   4.717
 7058SOL     OW22072   5.113   2.125   6.899
 7058SOL    HW122073   5.179   2.118   6.974
 7058SOL    HW222074   5.037   2.184   6.928
 7059SOL     OW22075   2.104   1.338   4.618
 7059SOL    HW122076   2.172   1.362   4.687
 7059SOL    HW222077   2.145   1.348   4.527
 7060SOL     OW22078   3.406   6.553   2.617
 7060SOL    HW122079   3.342   6.578   2.690
 7060SOL    HW222080   3.440   6.636   2.573
 7061SOL     OW22081   1.552   1.839   2.681
 7061SOL    HW122082   1.468   1.849   2.629
 7061SOL    HW222083   1.599   1.755   2.654
 7062SOL     OW22084   4.491   1.545   3.834
 7062SOL    HW122085   4.486   1.601   3.751
 7062SOL    HW222086   4.402   1.505   3.853
 7063SOL     OW22087   0.662   6.662   2.422
 7063SOL    HW122088   0.650   6.688   2.517
 7063SOL    HW222089   0.756   6.632   2.407
 7064SOL     OW22090   4.931   1.920   5.298
 7064SOL    HW122091   4.995   1.940   5.223
 7064SOL    HW222092   4.967   1.959   5.383
 7065SOL     OW22093   3.483   4.426   5.287
 7065SOL    HW122094   3.451   4.518   5.309
 7065SOL    HW222095   3.582   4.420   5.301
 7066SOL     OW22096   4.091   0.797   7.005
 7066SOL    HW122097   4.136   0.855   6.937
 7066SOL    HW222098   4.009   0.843   0.018
 7067SOL     OW22099   1.808   3.239   7.020
 7067SOL    HW122100   1.837   3.299   0.074
 7067SOL    HW222101   1.877   3.168   7.005
 7068SOL     OW22102   5.573   4.328   4.473
 7068SOL    HW122103   5.589   4.334   4.375
 7068SOL    HW222104   5.586   4.418   4.515
 7069SOL     OW22105   6.138   0.651   5.677
 7069SOL    HW122106   6.073   0.719   5.642
 7069SOL    HW222107   6.158   0.671   5.773
 7070SOL     OW22108   0.226   0.163   4.775
 7070SOL    HW122109   0.159   0.150   4.702
 7070SOL    HW222110   0.220   0.257   4.810
 7071SOL     OW22111   5.003   6.909   6.217
 7071SOL    HW122112   5.024   6.901   6.315
 7071SOL    HW222113   4.937   6.838   6.192
 7072SOL     OW22114   0.707   4.378   6.550
 7072SOL    HW122115   0.752   4.334   6.627
 7072SOL    HW222116   0.615   4.405   6.576
 7073SOL     OW22117   4.288   0.549   3.406
 7073SOL    HW122118   4.359   0.535   3.474
 7073SOL    HW222119   4.266   0.646   3.399
 7074SOL     OW22120   6.148   3.909   3.147
 7074SOL    HW122121   6.220   3.978   3.157
 7074SOL    HW222122   6.108   3.889   3.237
 7075SOL     OW22123   3.535   4.952   4.869
 7075SOL    HW122124   3.487   4.867   4.888
 7075SOL    HW222125   3.471   5.018   4.829
 7076SOL     OW22126   5.864   3.451   2.668
 7076SOL    HW122127   5.794   3.392   2.630
 7076SOL    HW222128   5.954   3.421   2.637
 7077SOL     OW22129   2.542   4.892   2.259
 7077SOL    HW122130   2.570   4.902   2.355
 7077SOL    HW222131   2.621   4.904   2.200
 7078SOL     OW22132   5.333   0.179   0.484
 7078SOL    HW122133   5.396   0.110   0.518
 7078SOL    HW222134   5.373   0.225   0.405
 7079SOL     OW22135   0.859   6.810   3.989
 7079SOL    HW122136   0.864   6.804   3.889
 7079SOL    HW222137   0.944   6.850   4.024
 7080SOL     OW22138   3.885   1.825   5.161
 7080SOL    HW122139   3.972   1.828   5.112
 7080SOL    HW222140   3.849   1.732   5.159
 7081SOL     OW22141   1.619   0.804   6.963
 7081SOL    HW122142   1.636   0.900   6.941
 7081SOL    HW222143   1.543   0.797   0.007
 7082SOL     OW22144   6.704   3.818   2.215
 7082SOL    HW122145   6.718   3.773   2.127
 7082SOL    HW222146   6.624   3.877   2.210
 7083SOL     OW22147   6.844   2.397   2.279
 7083SOL    HW122148   6.842   2.496   2.295
 7083SOL    HW222149   6.859   2.350   2.366
 7084SOL     OW22150   0.662   5.599   0.180
 7084SOL    HW122151   0.684   5.634   0.271
 7084SOL    HW222152   0.646   5.676   0.118
 7085SOL     OW22153   0.421   2.735   2.326
 7085SOL    HW122154   0.387   2.642   2.315
 7085SOL    HW222155   0.344   2.799   2.330
 7086SOL     OW22156   6.079   0.697   6.260
 7086SOL    HW122157   6.176   0.673   6.253
 7086SOL    HW222158   6.029   0.657   6.183
 7087SOL     OW22159   5.794   2.989   3.160
 7087SOL    HW122160   5.848   2.909   3.185
 7087SOL    HW222161   5.825   3.068   3.211
 7088SOL     OW22162   5.703   1.531   5.386
 7088SOL    HW122163   5.608   1.529   5.352
 7088SOL    HW222164   5.710   1.477   5.469
 7089SOL     OW22165   4.093   5.555   1.845
 7089SOL    HW122166   4.016   5.500   1.877
 7089SOL    HW222167   4.101   5.638   1.900
 7090SOL     OW22168   3.586   1.662   1.280
 7090SOL    HW122169   3.603   1.622   1.190
 7090SOL    HW222170   3.508   1.615   1.322
 7091SOL     OW22171   0.944   6.811   0.423
 7091SOL    HW122172   0.914   6.896   0.380
 7091SOL    HW222173   0.968   6.745   0.352
 7092SOL     OW22174   4.387   2.262   6.396
 7092SOL    HW122175   4.352   2.201   6.468
 7092SOL    HW222176   4.406   2.209   6.314
 7093SOL     OW22177   3.256   3.972   0.608
 7093SOL    HW122178   3.272   3.889   0.554
 7093SOL    HW222179   3.225   4.045   0.547
 7094SOL     OW22180   2.073   0.090   5.611
 7094SOL    HW122181   2.028   0.012   5.654
 7094SOL    HW222182   2.038   0.175   5.651
 7095SOL     OW22183   2.900   4.716   5.707
 7095SOL    HW122184   2.808   4.744   5.734
 7095SOL    HW222185   2.903   4.703   5.608
 7096SOL     OW22186   6.862   0.714   0.821
 7096SOL    HW122187   6.838   0.718   0.724
 7096SOL    HW222188   6.900   0.624   0.843
 7097SOL     OW22189   5.687   0.317   1.751
 7097SOL    HW122190   5.668   0.251   1.824
 7097SOL    HW222191   5.738   0.394   1.789
 7098SOL     OW22192   1.646   6.610   4.377
 7098SOL    HW122193   1.688   6.528   4.338
 7098SOL    HW222194   1.552   6.618   4.345
 7099SOL     OW22195   3.143   2.021   4.051
 7099SOL    HW122196   3.058   2.012   4.105
 7099SOL    HW222197   3.135   2.098   3.988
 7100SOL     OW22198   0.449   3.552   0.924
 7100SOL    HW122199   0.457   3.539   0.825
 7100SOL    HW222200   0.468   3.466   0.971
 7101SOL     OW22201   1.876   6.754   5.423
 7101SOL    HW122202   1.843   6.686   5.488
 7101SOL    HW222203   1.946   6.713   5.364
 7102SOL     OW22204   4.870   0.942   0.711
 7102SOL    HW122205   4.877   0.846   0.737
 7102SOL    HW222206   4.958   0.974   0.677
 7103SOL     OW22207   5.323   5.270   2.606
 7103SOL    HW122208   5.290   5.278   2.700
 7103SOL    HW222209   5.261   5.213   2.553
 7104SOL     OW22210   5.137   3.137   3.695
 7104SOL    HW122211   5.066   3.189   3.743
 7104SOL    HW222212   5.207   3.109   3.760
 7105SOL     OW22213   3.228   3.872   4.000
 7105SOL    HW122214   3.301   3.864   4.069
 7105SOL    HW222215   3.144   3.905   4.045
 7106SOL     OW22216   3.599   2.876   1.462
 7106SOL    HW122217   3.551   2.942   1.404
 7106SOL    HW222218   3.534   2.808   1.496
 7107SOL     OW22219   3.930   0.192   0.016
 7107SOL    HW122220   3.937   0.106   0.067
 7107SOL    HW222221   4.021   0.222   7.008
 7108SOL     OW22222   2.951   6.171   2.794
 7108SOL    HW122223   2.906   6.208   2.713
 7108SOL    HW222224   2.883   6.153   2.865
 7109SOL     OW22225   2.002   0.335   5.748
 7109SOL    HW122226   1.970   0.336   5.843
 7109SOL    HW222227   1.968   0.416   5.701
 7110SOL     OW22228   2.984   6.409   4.680
 7110SOL    HW122229   2.979   6.428   4.778
 7110SOL    HW222230   3.011   6.314   4.666
 7111SOL     OW22231   1.053   0.570   3.594
 7111SOL    HW122232   1.022   0.477   3.613
 7111SOL    HW222233   1.068   0.618   3.681
 7112SOL     OW22234   1.984   4.717   4.578
 7112SOL    HW122235   1.932   4.671   4.506
 7112SOL    HW222236   2.016   4.806   4.545
 7113SOL     OW22237   3.060   4.863   4.746
 7113SOL    HW122238   3.075   4.807   4.665
 7113SOL    HW222239   2.974   4.835   4.790
 7114SOL     OW22240   5.023   5.125   0.693
 7114SOL    HW122241   5.107   5.179   0.693
 7114SOL    HW222242   5.036   5.044   0.750
 7115SOL     OW22243   6.147   4.272   0.044
 7115SOL    HW122244   6.117   4.177   0.032
 7115SOL    HW222245   6.236   4.284   0.001
 7116SOL     OW22246   6.603   3.435   4.114
 7116SOL    HW122247   6.569   3.345   4.140
 7116SOL    HW222248   6.684   3.424   4.056
 7117SOL     OW22249   6.125   0.181   3.505
 7117SOL    HW122250   6.114   0.093   3.550
 7117SOL    HW222251   6.112   0.170   3.406
 7118SOL     OW22252   4.027   4.443   5.342
 7118SOL    HW122253   4.061   4.391   5.421
 7118SOL    HW222254   4.096   4.443   5.270
 7119SOL     OW22255   4.690   6.999   5.069
 7119SOL    HW122256   4.610   6.992   5.009
 7119SOL    HW222257   4.716   0.075   5.078
 7120SOL     OW22258   4.701   1.276   1.151
 7120SOL    HW122259   4.679   1.349   1.086
 7120SOL    HW222260   4.775   1.306   1.211
 7121SOL     OW22261   0.671   6.518   3.519
 7121SOL    HW122262   0.592   6.466   3.551
 7121SOL    HW222263   0.755   6.473   3.550
 7122SOL     OW22264   3.090   0.137   5.921
 7122SOL    HW122265   3.167   0.136   5.986
 7122SOL    HW222266   3.055   0.045   5.909
 7123SOL     OW22267   5.665   5.190   5.081
 7123SOL    HW122268   5.665   5.129   5.160
 7123SOL    HW222269   5.751   5.240   5.079
 7124SOL     OW22270   0.938   2.277   1.121
 7124SOL    HW122271   0.839   2.273   1.105
 7124SOL    HW222272   0.964   2.203   1.184
 7125SOL     OW22273   0.903   0.301   1.466
 7125SOL    HW122274   0.883   0.231   1.534
 7125SOL    HW222275   0.924   0.258   1.379
 7126SOL     OW22276   4.028   6.184   1.502
 7126SOL    HW122277   4.000   6.239   1.424
 7126SOL    HW222278   4.052   6.244   1.578
 7127SOL     OW22279   3.095   6.309   5.467
 7127SOL    HW122280   3.086   6.254   5.549
 7127SOL    HW222281   3.187   6.349   5.463
 7128SOL     OW22282   3.254   4.298   6.526
 7128SOL    HW122283   3.353   4.309   6.516
 7128SOL    HW222284   3.215   4.381   6.567
 7129SOL     OW22285   0.129   0.768   1.243
 7129SOL    HW122286   0.190   0.690   1.237
 7129SOL    HW222287   0.179   0.852   1.222
 7130SOL     OW22288   2.994   6.301   4.217
 7130SOL    HW122289   3.051   6.362   4.162
 7130SOL    HW222290   2.959   6.349   4.296
 7131SOL     OW22291   3.898   0.925   2.185
 7131SOL    HW122292   3.903   0.994   2.257
 7131SOL    HW222293   3.900   0.971   2.096
 7132SOL     OW22294   5.493   3.781   0.103
 7132SOL    HW122295   5.448   3.695   0.080
 7132SOL    HW222296   5.487   3.796   0.202
 7133SOL     OW22297   3.449   5.537   3.438
 7133SOL    HW122298   3.491   5.449   3.461
 7133SOL    HW222299   3.349   5.529   3.445
 7134SOL     OW22300   5.985   5.439   1.363
 7134SOL    HW122301   5.985   5.448   1.463
 7134SOL    HW222302   6.023   5.522   1.322
 7135SOL     OW22303   2.205   2.981   1.840
 7135SOL    HW122304   2.190   2.961   1.743
 7135SOL    HW222305   2.205   3.080   1.854
 7136SOL     OW22306   2.856   1.634   1.732
 7136SOL    HW122307   2.815   1.648   1.641
 7136SOL    HW222308   2.834   1.712   1.790
 7137SOL     OW22309   2.687   1.793   1.560
 7137SOL    HW122310   2.683   1.854   1.481
 7137SOL    HW222311   2.735   1.838   1.635
 7138SOL     OW22312   1.771   1.931   0.329
 7138SOL    HW122313   1.844   1.864   0.338
 7138SOL    HW222314   1.715   1.932   0.412
 7139SOL     OW22315   6.377   5.905   1.669
 7139SOL    HW122316   6.367   5.959   1.586
 7139SOL    HW222317   6.453   5.841   1.658
 7140SOL     OW22318   6.498   3.248   0.505
 7140SOL    HW122319   6.544   3.289   0.426
 7140SOL    HW222320   6.436   3.176   0.474
 7141SOL     OW22321   3.866   6.574   1.255
 7141SOL    HW122322   3.870   6.647   1.187
 7141SOL    HW222323   3.810   6.604   1.332
 7142SOL     OW22324   3.372   0.452   4.715
 7142SOL    HW122325   3.412   0.515   4.649
 7142SOL    HW222326   3.330   0.375   4.666
 7143SOL     OW22327   2.575   4.686   6.571
 7143SOL    HW122328   2.660   4.703   6.620
 7143SOL    HW222329   2.588   4.612   6.505
 7144SOL     OW22330   6.456   1.049   4.154
 7144SOL    HW122331   6.554   1.068   4.158
 7144SOL    HW222332   6.413   1.109   4.087
 7145SOL     OW22333   4.689   2.219   0.127
 7145SOL    HW122334   4.685   2.228   0.226
 7145SOL    HW222335   4.700   2.122   0.102
 7146SOL     OW22336   2.321   0.797   5.270
 7146SOL    HW122337   2.400   0.744   5.239
 7146SOL    HW222338   2.312   0.879   5.213
 7147SOL     OW22339   5.810   5.044   2.322
 7147SOL    HW122340   5.812   5.092   2.410
 7147SOL    HW222341   5.715   5.025   2.296
 7148SOL     OW22342   6.670   6.316   0.729
 7148SOL    HW122343   6.730   6.287   0.654
 7148SOL    HW222344   6.665   6.416   0.730
 7149SOL     OW22345   6.769   5.168   4.333
 7149SOL    HW122346   6.868   5.166   4.344
 7149SOL    HW222347   6.726   5.193   4.420
 7150SOL     OW22348   3.860   3.729   7.014
 7150SOL    HW122349   3.841   3.824   6.989
 7150SOL    HW222350   3.931   3.727   0.064
 7151SOL     OW22351   3.526   0.449   0.903
 7151SOL    HW122352   3.434   0.418   0.927
 7151SOL    HW222353   3.534   0.453   0.803
 7152SOL     OW22354   0.428   1.652   6.659
 7152SOL    HW122355   0.347   1.689   6.613
 7152SOL    HW222356   0.498   1.723   6.666
 7153SOL     OW22357   3.711   6.340   1.033
 7153SOL    HW122358   3.707   6.271   1.105
 7153SOL    HW222359   3.664   6.304   0.951
 7154SOL     OW22360   4.214   1.300   2.256
 7154SOL    HW122361   4.250   1.217   2.298
 7154SOL    HW222362   4.240   1.302   2.159
 7155SOL     OW22363   3.209   1.623   2.598
 7155SOL    HW122364   3.183   1.710   2.558
 7155SOL    HW222365   3.279   1.638   2.668
 7156SOL     OW22366   6.209   3.906   0.261
 7156SOL    HW122367   6.245   3.933   0.172
 7156SOL    HW222368   6.280   3.919   0.331
 7157SOL     OW22369   6.007   4.400   6.603
 7157SOL    HW122370   6.027   4.402   6.505
 7157SOL    HW222371   6.086   4.362   6.653
 7158SOL     OW22372   4.973   6.788   3.885
 7158SOL    HW122373   5.026   6.870   3.861
 7158SOL    HW222374   5.033   6.708   3.880
 7159SOL     OW22375   0.816   5.728   3.339
 7159SOL    HW122376   0.861   5.661   3.281
 7159SOL    HW222377   0.717   5.725   3.324
 7160SOL     OW22378   5.466   7.005   2.946
 7160SOL    HW122379   5.479   0.019   3.039
 7160SOL    HW222380   5.551   6.962   2.915
 7161SOL     OW22381   4.044   3.150   3.636
 7161SOL    HW122382   4.058   3.193   3.725
 7161SOL    HW222383   3.969   3.084   3.643
 7162SOL     OW22384   0.342   5.005   2.196
 7162SOL    HW122385   0.336   5.100   2.165
 7162SOL    HW222386   0.251   4.974   2.227
 7163SOL     OW22387   1.318   1.343   1.989
 7163SOL    HW122388   1.300   1.245   1.978
 7163SOL    HW222389   1.377   1.374   1.915
 7164SOL     OW22390   1.674   1.119   6.027
 7164SOL    HW122391   1.599   1.161   5.976
 7164SOL    HW222392   1.756   1.117   5.970
 7165SOL     OW22393   6.482   0.456   0.434
 7165SOL    HW122394   6.454   0.511   0.356
 7165SOL    HW222395   6.536   0.378   0.403
 7166SOL     OW22396   5.118   6.537   6.204
 7166SOL    HW122397   5.071   6.621   6.233
 7166SOL    HW222398   5.214   6.541   6.232
 7167SOL     OW22399   5.903   2.089   4.939
 7167SOL    HW122400   5.870   2.180   4.964
 7167SOL    HW222401   5.939   2.092   4.846
 7168SOL     OW22402   2.870   1.028   2.020
 7168SOL    HW122403   2.894   1.098   1.952
 7168SOL    HW222404   2.843   1.073   2.105
 7169SOL     OW22405   2.129   4.222   6.043
 7169SOL    HW122406   2.121   4.136   5.993
 7169SOL    HW222407   2.116   4.298   5.979
 7170SOL     OW22408   4.125   0.966   1.723
 7170SOL    HW122409   4.172   1.048   1.756
 7170SOL    HW222410   4.083   0.919   1.800
 7171SOL     OW22411   5.969   4.853   0.713
 7171SOL    HW122412   5.876   4.817   0.723
 7171SOL    HW222413   6.026   4.818   0.787
 7172SOL     OW22414   1.229   1.309   4.447
 7172SOL    HW122415   1.162   1.375   4.481
 7172SOL    HW222416   1.259   1.250   4.522
 7173SOL     OW22417   5.211   6.172   6.743
 7173SOL    HW122418   5.162   6.140   6.662
 7173SOL    HW222419   5.185   6.267   6.761
 7174SOL     OW22420   5.806   4.397   1.634
 7174SOL    HW122421   5.829   4.490   1.605
 7174SOL    HW222422   5.738   4.359   1.572
 7175SOL     OW22423   6.049   3.696   5.569
 7175SOL    HW122424   5.949   3.687   5.575
 7175SOL    HW222425   6.091   3.655   5.650
 7176SOL     OW22426   0.036   1.319   4.805
 7176SOL    HW122427   0.120   1.367   4.833
 7176SOL    HW222428   0.059   1.225   4.778
 7177SOL     OW22429   1.856   5.174   4.585
 7177SOL    HW122430   1.914   5.256   4.592
 7177SOL    HW222431   1.849   5.130   4.674
 7178SOL     OW22432   1.007   1.149   5.338
 7178SOL    HW122433   0.914   1.117   5.322
 7178SOL    HW222434   1.028   1.222   5.273
 7179SOL     OW22435   3.868   5.696   6.390
 7179SOL    HW122436   3.862   5.596   6.389
 7179SOL    HW222437   3.878   5.727   6.485
 7180SOL     OW22438   1.275   4.865   1.381
 7180SOL    HW122439   1.239   4.796   1.444
 7180SOL    HW222440   1.275   4.954   1.425
 7181SOL     OW22441   2.638   1.392   5.891
 7181SOL    HW122442   2.633   1.386   5.791
 7181SOL    HW222443   2.556   1.437   5.925
 7182SOL     OW22444   1.023   3.403   4.215
 7182SOL    HW122445   1.003   3.500   4.229
 7182SOL    HW222446   1.078   3.368   4.291
 7183SOL     OW22447   0.969   6.629   1.740
 7183SOL    HW122448   0.895   6.572   1.707
 7183SOL    HW222449   1.057   6.586   1.720
 7184SOL     OW22450   6.532   0.215   3.549
 7184SOL    HW122451   6.477   0.230   3.631
 7184SOL    HW222452   6.593   0.136   3.563
 7185SOL     OW22453   4.979   0.322   4.948
 7185SOL    HW122454   4.995   0.374   4.864
 7185SOL    HW222455   4.889   0.280   4.944
 7186SOL     OW22456   0.224   6.976   6.925
 7186SOL    HW122457   0.258   6.896   6.974
 7186SOL    HW222458   0.246   6.968   6.828
 7187SOL     OW22459   2.920   3.238   4.945
 7187SOL    HW122460   2.840   3.178   4.940
 7187SOL    HW222461   2.949   3.262   4.852
 7188SOL     OW22462   4.199   4.979   6.956
 7188SOL    HW122463   4.164   5.072   6.941
 7188SOL    HW222464   4.186   4.925   6.873
 7189SOL     OW22465   6.206   2.435   5.158
 7189SOL    HW122466   6.135   2.382   5.205
 7189SOL    HW222467   6.234   2.511   5.216
 7190SOL     OW22468   5.951   5.238   1.180
 7190SOL    HW122469   5.980   5.310   1.243
 7190SOL    HW222470   5.853   5.223   1.190
 7191SOL     OW22471   0.586   3.790   3.118
 7191SOL    HW122472   0.536   3.750   3.195
 7191SOL    HW222473   0.604   3.719   3.050
 7192SOL     OW22474   1.639   4.946   6.564
 7192SOL    HW122475   1.559   4.890   6.584
 7192SOL    HW222476   1.719   4.887   6.556
 7193SOL     OW22477   2.483   2.587   2.544
 7193SOL    HW122478   2.536   2.533   2.609
 7193SOL    HW222479   2.496   2.550   2.452
 7194SOL     OW22480   3.167   2.464   6.077
 7194SOL    HW122481   3.112   2.528   6.130
 7194SOL    HW222482   3.248   2.511   6.042
 7195SOL     OW22483   0.226   3.084   6.292
 7195SOL    HW122484   0.191   3.109   6.201
 7195SOL    HW222485   0.322   3.060   6.285
 7196SOL     OW22486   3.499   4.182   2.422
 7196SOL    HW122487   3.452   4.183   2.333
 7196SOL    HW222488   3.592   4.217   2.411
 7197SOL     OW22489   1.924   3.775   5.630
 7197SOL    HW122490   1.898   3.773   5.533
 7197SOL    HW222491   2.002   3.715   5.644
 7198SOL     OW22492   6.452   1.305   0.928
 7198SOL    HW122493   6.538   1.292   0.977
 7198SOL    HW222494   6.411   1.392   0.955
 7199SOL     OW22495   1.119   0.587   2.208
 7199SOL    HW122496   1.105   0.573   2.110
 7199SOL    HW222497   1.034   0.617   2.251
 7200SOL     OW22498   2.005   2.194   0.461
 7200SOL    HW122499   2.052   2.232   0.540
 7200SOL    HW222500   1.945   2.264   0.421
 7201SOL     OW22501   5.822   5.933   4.044
 7201SOL    HW122502   5.886   6.009   4.032
 7201SOL    HW222503   5.860   5.867   4.109
 7202SOL     OW22504   4.857   0.700   5.686
 7202SOL    HW122505   4.890   0.716   5.779
 7202SOL    HW222506   4.767   0.742   5.676
 7203SOL     OW22507   0.290   1.882   1.987
 7203SOL    HW122508   0.300   1.896   1.888
 7203SOL    HW222509   0.361   1.934   2.035
 7204SOL     OW22510   6.960   1.321   1.285
 7204SOL    HW122511   6.985   1.313   1.382
 7204SOL    HW222512   6.894   1.394   1.273
 7205SOL     OW22513   2.232   2.136   5.553
 7205SOL    HW122514   2.163   2.196   5.512
 7205SOL    HW222515   2.194   2.045   5.565
 7206SOL     OW22516   1.936   2.174   1.362
 7206SOL    HW122517   1.900   2.241   1.297
 7206SOL    HW222518   2.012   2.214   1.413
 7207SOL     OW22519   1.452   2.155   4.131
 7207SOL    HW122520   1.393   2.196   4.062
 7207SOL    HW222521   1.398   2.131   4.211
 7208SOL     OW22522   3.392   0.946   4.499
 7208SOL    HW122523   3.359   1.038   4.522
 7208SOL    HW222524   3.454   0.952   4.421
 7209SOL     OW22525   2.833   2.014   1.980
 7209SOL    HW122526   2.792   2.028   2.071
 7209SOL    HW222527   2.893   2.091   1.958
 7210SOL     OW22528   2.670   1.662   3.330
 7210SOL    HW122529   2.644   1.753   3.365
 7210SOL    HW222530   2.613   1.593   3.374
 7211SOL     OW22531   3.009   6.017   5.799
 7211SOL    HW122532   3.086   6.019   5.735
 7211SOL    HW222533   3.006   5.929   5.846
 7212SOL     OW22534   5.560   4.852   6.111
 7212SOL    HW122535   5.475   4.890   6.072
 7212SOL    HW222536   5.590   4.911   6.186
 7213SOL     OW22537   3.228   1.162   0.919
 7213SOL    HW122538   3.191   1.211   0.998
 7213SOL    HW222539   3.327   1.177   0.913
 7214SOL     OW22540   0.718   1.263   6.339
 7214SOL    HW122541   0.688   1.252   6.244
 7214SOL    HW222542   0.744   1.174   6.377
 7215SOL     OW22543   0.017   2.828   3.055
 7215SOL    HW122544   0.026   2.826   3.155
 7215SOL    HW222545   6.960   2.770   3.028
 7216SOL     OW22546   3.058   6.154   3.202
 7216SOL    HW122547   3.124   6.104   3.146
 7216SOL    HW222548   3.033   6.239   3.155
 7217SOL     OW22549   1.252   4.171   3.524
 7217SOL    HW122550   1.181   4.136   3.463
 7217SOL    HW222551   1.222   4.256   3.566
 7218SOL     OW22552   6.288   3.651   4.676
 7218SOL    HW122553   6.250   3.568   4.635
 7218SOL    HW222554   6.214   3.703   4.719
 7219SOL     OW22555   3.321   6.143   1.941
 7219SOL    HW122556   3.319   6.054   1.894
 7219SOL    HW222557   3.250   6.202   1.904
 7220SOL     OW22558   6.749   4.405   4.162
 7220SOL    HW122559   6.693   4.397   4.245
 7220SOL    HW222560   6.734   4.325   4.104
 7221SOL     OW22561   3.283   6.035   5.016
 7221SOL    HW122562   3.346   6.023   5.093
 7221SOL    HW222563   3.312   6.115   4.963
 7222SOL     OW22564   6.837   6.608   3.459
 7222SOL    HW122565   6.789   6.532   3.416
 7222SOL    HW222566   6.776   6.686   3.467
 7223SOL     OW22567   1.857   2.313   0.912
 7223SOL    HW122568   1.836   2.349   1.003
 7223SOL    HW222569   1.849   2.214   0.913
 7224SOL     OW22570   4.206   2.133   3.542
 7224SOL    HW122571   4.130   2.094   3.490
 7224SOL    HW222572   4.289   2.130   3.486
 7225SOL     OW22573   1.916   6.893   0.822
 7225SOL    HW122574   2.006   6.853   0.843
 7225SOL    HW222575   1.866   6.831   0.762
 7226SOL     OW22576   6.259   0.942   6.695
 7226SOL    HW122577   6.184   0.933   6.760
 7226SOL    HW222578   6.271   0.855   6.646
 7227SOL     OW22579   2.809   0.799   2.149
 7227SOL    HW122580   2.826   0.878   2.089
 7227SOL    HW222581   2.891   0.781   2.203
 7228SOL     OW22582   0.704   2.318   2.376
 7228SOL    HW122583   0.718   2.321   2.277
 7228SOL    HW222584   0.607   2.330   2.396
 7229SOL     OW22585   6.660   0.296   4.490
 7229SOL    HW122586   6.728   0.262   4.425
 7229SOL    HW222587   6.695   0.287   4.583
 7230SOL     OW22588   2.500   4.924   4.284
 7230SOL    HW122589   2.480   4.914   4.187
 7230SOL    HW222590   2.573   4.861   4.310
 7231SOL     OW22591   4.042   1.445   6.791
 7231SOL    HW122592   4.070   1.371   6.730
 7231SOL    HW222593   4.123   1.496   6.821
 7232SOL     OW22594   5.166   0.116   2.632
 7232SOL    HW122595   5.082   0.104   2.686
 7232SOL    HW222596   5.233   0.166   2.686
 7233SOL     OW22597   6.591   1.052   5.565
 7233SOL    HW122598   6.634   1.133   5.525
 7233SOL    HW222599   6.661   0.996   5.609
 7234SOL     OW22600   4.814   3.821   3.410
 7234SOL    HW122601   4.877   3.752   3.444
 7234SOL    HW222602   4.754   3.781   3.340
 7235SOL     OW22603   6.523   5.713   1.560
 7235SOL    HW122604   6.613   5.703   1.604
 7235SOL    HW222605   6.485   5.622   1.542
 7236SOL     OW22606   2.122   2.490   3.199
 7236SOL    HW122607   2.085   2.457   3.112
 7236SOL    HW222608   2.142   2.587   3.192
 7237SOL     OW22609   5.275   0.725   6.406
 7237SOL    HW122610   5.320   0.787   6.470
 7237SOL    HW222611   5.310   0.743   6.314
 7238SOL     OW22612   4.578   2.636   0.055
 7238SOL    HW122613   4.535   2.546   0.050
 7238SOL    HW222614   4.674   2.629   0.028
 7239SOL     OW22615   0.426   3.489   2.551
 7239SOL    HW122616   0.440   3.576   2.597
 7239SOL    HW222617   0.419   3.504   2.452
 7240SOL     OW22618   6.609   1.927   5.958
 7240SOL    HW122619   6.565   1.867   6.024
 7240SOL    HW222620   6.661   1.872   5.893
 7241SOL     OW22621   2.264   0.548   1.138
 7241SOL    HW122622   2.342   0.527   1.079
 7241SOL    HW222623   2.223   0.634   1.110
 7242SOL     OW22624   0.567   5.716   4.197
 7242SOL    HW122625   0.634   5.687   4.128
 7242SOL    HW222626   0.589   5.809   4.227
 7243SOL     OW22627   6.771   4.248   6.364
 7243SOL    HW122628   6.838   4.174   6.366
 7243SOL    HW222629   6.693   4.221   6.308
 7244SOL     OW22630   0.631   6.724   0.025
 7244SOL    HW122631   0.633   6.680   6.956
 7244SOL    HW222632   0.538   6.724   0.060
 7245SOL     OW22633   1.767   2.788   6.994
 7245SOL    HW122634   1.697   2.858   7.007
 7245SOL    HW222635   1.723   2.699   6.984
 7246SOL     OW22636   2.982   0.636   4.376
 7246SOL    HW122637   2.985   0.536   4.368
 7246SOL    HW222638   2.896   0.670   4.338
 7247SOL     OW22639   2.922   2.529   5.469
 7247SOL    HW122640   3.014   2.548   5.433
 7247SOL    HW222641   2.930   2.491   5.561
 7248SOL     OW22642   3.427   0.671   4.574
 7248SOL    HW122643   3.408   0.768   4.561
 7248SOL    HW222644   3.523   0.652   4.554
 7249SOL     OW22645   4.032   4.805   2.141
 7249SOL    HW122646   3.948   4.833   2.187
 7249SOL    HW222647   4.017   4.802   2.042
 7250SOL     OW22648   5.063   5.045   5.491
 7250SOL    HW122649   5.118   5.119   5.453
 7250SOL    HW222650   5.023   4.991   5.417
 7251SOL     OW22651   0.334   6.392   5.491
 7251SOL    HW122652   0.384   6.457   5.549
 7251SOL    HW222653   0.314   6.310   5.544
 7252SOL     OW22654   3.401   4.168   2.174
 7252SOL    HW122655   3.345   4.249   2.154
 7252SOL    HW222656   3.480   4.166   2.112
 7253SOL     OW22657   1.462   6.065   5.958
 7253SOL    HW122658   1.464   6.148   5.903
 7253SOL    HW222659   1.439   6.088   6.053
 7254SOL     OW22660   5.576   4.440   3.736
 7254SOL    HW122661   5.514   4.372   3.775
 7254SOL    HW222662   5.541   4.472   3.648
 7255SOL     OW22663   5.068   3.487   6.542
 7255SOL    HW122664   5.130   3.536   6.482
 7255SOL    HW222665   5.047   3.543   6.622
 7256SOL     OW22666   3.356   6.879   5.824
 7256SOL    HW122667   3.278   6.846   5.771
 7256SOL    HW222668   3.369   6.821   5.904
 7257SOL     OW22669   6.993   2.071   4.656
 7257SOL    HW122670   0.048   2.084   4.719
 7257SOL    HW222671   6.954   2.160   4.630
 7258SOL     OW22672   5.967   2.488   2.275
 7258SOL    HW122673   6.025   2.462   2.198
 7258SOL    HW222674   5.882   2.528   2.239
 7259SOL     OW22675   1.028   3.689   3.043
 7259SOL    HW122676   1.107   3.669   3.100
 7259SOL    HW222677   1.054   3.685   2.947
 7260SOL     OW22678   5.273   2.691   0.984
 7260SOL    HW122679   5.238   2.647   1.067
 7260SOL    HW222680   5.202   2.749   0.944
 7261SOL     OW22681   0.016   4.048   0.460
 7261SOL    HW122682   0.075   4.099   0.522
 7261SOL    HW222683   7.000   3.968   0.507
 7262SOL     OW22684   5.348   1.670   5.939
 7262SOL    HW122685   5.403   1.673   6.022
 7262SOL    HW222686   5.298   1.756   5.928
 7263SOL     OW22687   0.492   6.531   0.387
 7263SOL    HW122688   0.443   6.470   0.448
 7263SOL    HW222689   0.506   6.620   0.431
 7264SOL     OW22690   5.705   1.428   0.551
 7264SOL    HW122691   5.725   1.355   0.486
 7264SOL    HW222692   5.782   1.439   0.614
 7265SOL     OW22693   5.205   5.777   4.534
 7265SOL    HW122694   5.300   5.807   4.529
 7265SOL    HW222695   5.181   5.760   4.630
 7266SOL     OW22696   6.914   0.810   4.061
 7266SOL    HW122697   7.003   0.823   4.104
 7266SOL    HW222698   6.842   0.828   4.129
 7267SOL     OW22699   6.708   6.059   5.053
 7267SOL    HW122700   6.768   6.118   5.106
 7267SOL    HW222701   6.629   6.111   5.020
 7268SOL     OW22702   6.305   5.731   4.245
 7268SOL    HW122703   6.381   5.665   4.253
 7268SOL    HW222704   6.327   5.799   4.175
 7269SOL     OW22705   1.908   5.425   5.725
 7269SOL    HW122706   1.854   5.419   5.809
 7269SOL    HW222707   1.984   5.489   5.739
 7270SOL     OW22708   0.224   2.129   4.102
 7270SOL    HW122709   0.231   2.189   4.182
 7270SOL    HW222710   0.241   2.181   4.019
 7271SOL     OW22711   1.432   4.906   3.915
 7271SOL    HW122712   1.515   4.957   3.941
 7271SOL    HW222713   1.400   4.938   3.826
 7272SOL     OW22714   6.464   6.503   1.861
 7272SOL    HW122715   6.517   6.582   1.892
 7272SOL    HW222716   6.517   6.452   1.793
 7273SOL     OW22717   5.159   2.796   6.289
 7273SOL    HW122718   5.067   2.820   6.321
 7273SOL    HW222719   5.151   2.730   6.214
 7274SOL     OW22720   0.816   4.548   6.378
 7274SOL    HW122721   0.773   4.475   6.432
 7274SOL    HW222722   0.900   4.513   6.336
 7275SOL     OW22723   6.775   6.743   2.879
 7275SOL    HW122724   6.858   6.727   2.826
 7275SOL    HW222725   6.787   6.708   2.972
 7276SOL     OW22726   5.598   0.520   3.614
 7276SOL    HW122727   5.681   0.514   3.558
 7276SOL    HW222728   5.545   0.600   3.585
 7277SOL     OW22729   4.539   0.466   5.918
 7277SOL    HW122730   4.583   0.451   5.829
 7277SOL    HW222731   4.532   0.564   5.935
 7278SOL     OW22732   3.110   3.975   1.916
 7278SOL    HW122733   3.053   4.053   1.941
 7278SOL    HW222734   3.163   3.997   1.834
 7279SOL     OW22735   4.125   6.420   0.191
 7279SOL    HW122736   4.194   6.466   0.135
 7279SOL    HW222737   4.116   6.325   0.160
 7280SOL     OW22738   5.528   6.636   4.971
 7280SOL    HW122739   5.484   6.720   4.939
 7280SOL    HW222740   5.459   6.575   5.010
 7281SOL     OW22741   3.236   1.514   6.789
 7281SOL    HW122742   3.189   1.596   6.823
 7281SOL    HW222743   3.318   1.498   6.844
 7282SOL     OW22744   5.821   4.800   2.476
 7282SOL    HW122745   5.833   4.858   2.396
 7282SOL    HW222746   5.908   4.795   2.526
 7283SOL     OW22747   2.371   1.213   3.235
 7283SOL    HW122748   2.399   1.202   3.140
 7283SOL    HW222749   2.272   1.220   3.240
 7284SOL     OW22750   0.399   4.167   5.224
 7284SOL    HW122751   0.300   4.178   5.218
 7284SOL    HW222752   0.428   4.088   5.169
 7285SOL     OW22753   5.181   4.902   2.231
 7285SOL    HW122754   5.201   4.892   2.134
 7285SOL    HW222755   5.152   4.813   2.268
 7286SOL     OW22756   2.520   2.009   1.127
 7286SOL    HW122757   2.492   1.975   1.217
 7286SOL    HW222758   2.564   1.935   1.076
 7287SOL     OW22759   0.855   1.906   6.609
 7287SOL    HW122760   0.825   1.998   6.584
 7287SOL    HW222761   0.955   1.902   6.611
 7288SOL     OW22762   4.151   0.656   6.428
 7288SOL    HW122763   4.152   0.675   6.330
 7288SOL    HW222764   4.245   0.656   6.463
 7289SOL     OW22765   6.007   1.482   3.315
 7289SOL    HW122766   6.035   1.524   3.401
 7289SOL    HW222767   5.981   1.553   3.250
 7290SOL     OW22768   2.854   5.605   5.491
 7290SOL    HW122769   2.797   5.586   5.571
 7290SOL    HW222770   2.930   5.665   5.517
 7291SOL     OW22771   2.351   0.321   1.279
 7291SOL    HW122772   2.303   0.304   1.365
 7291SOL    HW222773   2.312   0.402   1.234
 7292SOL     OW22774   2.321   0.328   3.812
 7292SOL    HW122775   2.363   0.405   3.859
 7292SOL    HW222776   2.358   0.322   3.719
 7293SOL     OW22777   1.881   1.520   4.879
 7293SOL    HW122778   1.809   1.577   4.918
 7293SOL    HW222779   1.840   1.443   4.830
 7294SOL     OW22780   2.803   4.729   0.660
 7294SOL    HW122781   2.902   4.737   0.655
 7294SOL    HW222782   2.770   4.771   0.746
 7295SOL     OW22783   0.749   1.952   0.627
 7295SOL    HW122784   0.694   1.953   0.710
 7295SOL    HW222785   0.728   2.033   0.572
 7296SOL     OW22786   2.843   4.704   1.243
 7296SOL    HW122787   2.827   4.736   1.336
 7296SOL    HW222788   2.907   4.627   1.244
 7297SOL     OW22789   4.167   5.852   0.594
 7297SOL    HW122790   4.198   5.899   0.511
 7297SOL    HW222791   4.162   5.918   0.670
 7298SOL     OW22792   5.406   4.303   5.731
 7298SOL    HW122793   5.443   4.284   5.821
 7298SOL    HW222794   5.446   4.240   5.664
 7299SOL     OW22795   0.843   2.185   6.539
 7299SOL    HW122796   0.927   2.210   6.492
 7299SOL    HW222797   0.768   2.243   6.507
 7300SOL     OW22798   5.285   5.399   1.739
 7300SOL    HW122799   5.351   5.338   1.783
 7300SOL    HW222800   5.288   5.386   1.640
 7301SOL     OW22801   6.397   0.883   4.904
 7301SOL    HW122802   6.440   0.813   4.961
 7301SOL    HW222803   6.351   0.839   4.826
 7302SOL     OW22804   0.519   1.419   0.280
 7302SOL    HW122805   0.430   1.384   0.251
 7302SOL    HW222806   0.511   1.515   0.303
 7303SOL     OW22807   4.877   0.646   6.597
 7303SOL    HW122808   4.895   0.710   6.672
 7303SOL    HW222809   4.913   0.556   6.621
 7304SOL     OW22810   3.555   4.304   6.479
 7304SOL    HW122811   3.650   4.272   6.474
 7304SOL    HW222812   3.530   4.350   6.394
 7305SOL     OW22813   4.496   1.955   0.862
 7305SOL    HW122814   4.464   1.868   0.900
 7305SOL    HW222815   4.426   1.993   0.801
 7306SOL     OW22816   5.118   3.625   1.582
 7306SOL    HW122817   5.129   3.556   1.654
 7306SOL    HW222818   5.039   3.602   1.526
 7307SOL     OW22819   2.996   6.622   1.434
 7307SOL    HW122820   2.972   6.588   1.525
 7307SOL    HW222821   3.034   6.546   1.380
 7308SOL     OW22822   6.970   3.681   5.453
 7308SOL    HW122823   6.980   3.586   5.482
 7308SOL    HW222824   6.991   3.688   5.356
 7309SOL     OW22825   5.429   6.022   0.407
 7309SOL    HW122826   5.477   6.047   0.323
 7309SOL    HW222827   5.443   6.093   0.476
 7310SOL     OW22828   2.292   4.455   1.177
 7310SOL    HW122829   2.392   4.459   1.182
 7310SOL    HW222830   2.253   4.494   1.260
 7311SOL     OW22831   3.165   2.147   2.473
 7311SOL    HW122832   3.178   2.229   2.527
 7311SOL    HW222833   3.226   2.149   2.394
 7312SOL     OW22834   7.007   2.898   5.787
 7312SOL    HW122835   0.074   2.874   5.743
 7312SOL    HW222836   6.937   2.832   5.760
 7313SOL     OW22837   4.589   2.899   6.153
 7313SOL    HW122838   4.583   2.857   6.244
 7313SOL    HW222839   4.547   2.989   6.155
 7314SOL     OW22840   6.921   4.208   5.324
 7314SOL    HW122841   6.881   4.298   5.343
 7314SOL    HW222842   6.876   4.167   5.245
 7315SOL     OW22843   6.462   0.685   3.523
 7315SOL    HW122844   6.510   0.667   3.609
 7315SOL    HW222845   6.487   0.616   3.456
 7316SOL     OW22846   3.139   3.653   5.806
 7316SOL    HW122847   3.104   3.564   5.833
 7316SOL    HW222848   3.095   3.681   5.720
 7317SOL     OW22849   4.408   0.852   2.152
 7317SOL    HW122850   4.419   0.871   2.054
 7317SOL    HW222851   4.320   0.808   2.167
 7318SOL     OW22852   0.843   1.355   1.178
 7318SOL    HW122853   0.823   1.366   1.080
 7318SOL    HW222854   0.942   1.360   1.192
 7319SOL     OW22855   6.240   4.297   6.703
 7319SOL    HW122856   6.297   4.290   6.785
 7319SOL    HW222857   6.286   4.355   6.636
 7320SOL     OW22858   6.742   3.687   1.984
 7320SOL    HW122859   6.822   3.717   1.931
 7320SOL    HW222860   6.753   3.591   2.010
 7321SOL     OW22861   2.816   0.414   5.476
 7321SOL    HW122862   2.882   0.370   5.537
 7321SOL    HW222863   2.837   0.512   5.469
 7322SOL     OW22864   0.937   2.881   2.522
 7322SOL    HW122865   0.841   2.860   2.543
 7322SOL    HW222866   0.961   2.843   2.433
 7323SOL     OW22867   2.270   2.190   1.979
 7323SOL    HW122868   2.289   2.272   2.033
 7323SOL    HW222869   2.223   2.122   2.036
 7324SOL     OW22870   5.423   6.697   2.500
 7324SOL    HW122871   5.374   6.767   2.553
 7324SOL    HW222872   5.372   6.611   2.504
 7325SOL     OW22873   3.765   0.337   6.297
 7325SOL    HW122874   3.738   0.241   6.299
 7325SOL    HW222875   3.711   0.388   6.364
 7326SOL     OW22876   2.084   6.603   5.311
 7326SOL    HW122877   2.150   6.529   5.323
 7326SOL    HW222878   2.005   6.570   5.259
 7327SOL     OW22879   6.555   2.740   5.285
 7327SOL    HW122880   6.458   2.732   5.307
 7327SOL    HW222881   6.566   2.738   5.185
 7328SOL     OW22882   3.496   0.292   6.704
 7328SOL    HW122883   3.578   0.251   6.665
 7328SOL    HW222884   3.416   0.267   6.648
 7329SOL     OW22885   4.207   3.874   1.720
 7329SOL    HW122886   4.206   3.835   1.812
 7329SOL    HW222887   4.175   3.805   1.655
 7330SOL     OW22888   2.885   2.081   0.153
 7330SOL    HW122889   2.926   2.160   0.198
 7330SOL    HW222890   2.874   2.099   0.056
 7331SOL     OW22891   5.490   0.132   1.617
 7331SOL    HW122892   5.430   0.053   1.600
 7331SOL    HW222893   5.514   0.136   1.714
 7332SOL     OW22894   2.197   5.969   0.580
 7332SOL    HW122895   2.186   5.885   0.632
 7332SOL    HW222896   2.244   5.950   0.494
 7333SOL     OW22897   0.175   3.262   3.488
 7333SOL    HW122898   0.175   3.358   3.459
 7333SOL    HW222899   0.268   3.226   3.483
 7334SOL     OW22900   4.194   6.128   6.781
 7334SOL    HW122901   4.117   6.095   6.726
 7334SOL    HW222902   4.167   6.211   6.830
 7335SOL     OW22903   1.907   2.766   2.471
 7335SOL    HW122904   1.842   2.838   2.445
 7335SOL    HW222905   1.873   2.718   2.552
 7336SOL     OW22906   1.571   6.194   3.157
 7336SOL    HW122907   1.570   6.286   3.198
 7336SOL    HW222908   1.503   6.189   3.084
 7337SOL     OW22909   0.545   2.858   2.129
 7337SOL    HW122910   0.641   2.829   2.137
 7337SOL    HW222911   0.487   2.796   2.183
 7338SOL     OW22912   6.563   2.490   1.256
 7338SOL    HW122913   6.522   2.580   1.241
 7338SOL    HW222914   6.609   2.489   1.344
 7339SOL     OW22915   5.195   5.856   3.616
 7339SOL    HW122916   5.123   5.921   3.590
 7339SOL    HW222917   5.198   5.847   3.715
 7340SOL     OW22918   1.774   0.975   0.578
 7340SOL    HW122919   1.779   0.876   0.562
 7340SOL    HW222920   1.681   1.007   0.560
 7341SOL     OW22921   6.780   2.139   6.835
 7341SOL    HW122922   6.700   2.132   6.895
 7341SOL    HW222923   6.772   2.220   6.778
 7342SOL     OW22924   6.312   0.642   2.279
 7342SOL    HW122925   6.380   0.599   2.339
 7342SOL    HW222926   6.258   0.708   2.332
 7343SOL     OW22927   4.339   2.995   0.272
 7343SOL    HW122928   4.280   3.005   0.192
 7343SOL    HW222929   4.288   3.020   0.354
 7344SOL     OW22930   1.450   0.117   5.723
 7344SOL    HW122931   1.546   0.110   5.748
 7344SOL    HW222932   1.424   0.214   5.716
 7345SOL     OW22933   3.695   3.197   5.445
 7345SOL    HW122934   3.698   3.139   5.363
 7345SOL    HW222935   3.760   3.272   5.436
 7346SOL     OW22936   4.051   6.625   2.987
 7346SOL    HW122937   4.003   6.537   2.988
 7346SOL    HW222938   4.053   6.663   3.080
 7347SOL     OW22939   0.340   2.019   0.071
 7347SOL    HW122940   0.270   1.950   0.087
 7347SOL    HW222941   0.428   1.975   0.057
 7348SOL     OW22942   1.354   3.755   4.123
 7348SOL    HW122943   1.387   3.678   4.178
 7348SOL    HW222944   1.427   3.787   4.063
 7349SOL     OW22945   4.221   0.372   1.355
 7349SOL    HW122946   4.191   0.421   1.274
 7349SOL    HW222947   4.177   0.282   1.358
 7350SOL     OW22948   2.819   0.914   5.542
 7350SOL    HW122949   2.727   0.928   5.506
 7350SOL    HW222950   2.823   0.948   5.636
 7351SOL     OW22951   5.246   5.210   3.812
 7351SOL    HW122952   5.198   5.191   3.727
 7351SOL    HW222953   5.189   5.268   3.871
 7352SOL     OW22954   1.333   1.577   2.839
 7352SOL    HW122955   1.326   1.564   2.938
 7352SOL    HW222956   1.282   1.659   2.813
 7353SOL     OW22957   0.595   0.615   6.460
 7353SOL    HW122958   0.580   0.562   6.543
 7353SOL    HW222959   0.694   0.626   6.445
 7354SOL     OW22960   1.841   0.860   4.292
 7354SOL    HW122961   1.835   0.959   4.280
 7354SOL    HW222962   1.827   0.815   4.205
 7355SOL     OW22963   6.980   2.096   6.483
 7355SOL    HW122964   6.995   2.029   6.555
 7355SOL    HW222965   6.887   2.133   6.491
 7356SOL     OW22966   3.713   4.330   6.216
 7356SOL    HW122967   3.766   4.335   6.131
 7356SOL    HW222968   3.616   4.317   6.193
 7357SOL     OW22969   3.718   6.007   2.273
 7357SOL    HW122970   3.812   5.978   2.256
 7357SOL    HW222971   3.689   6.072   2.203
 7358SOL     OW22972   6.013   3.020   2.224
 7358SOL    HW122973   6.070   3.060   2.152
 7358SOL    HW222974   6.051   2.932   2.252
 7359SOL     OW22975   4.406   2.239   6.117
 7359SOL    HW122976   4.449   2.225   6.027
 7359SOL    HW222977   4.307   2.232   6.108
 7360SOL     OW22978   2.180   3.633   5.334
 7360SOL    HW122979   2.249   3.566   5.362
 7360SOL    HW222980   2.224   3.722   5.318
 7361SOL     OW22981   5.198   0.494   2.756
 7361SOL    HW122982   5.112   0.498   2.705
 7361SOL    HW222983   5.275   0.496   2.692
 7362SOL     OW22984   4.023   5.442   6.175
 7362SOL    HW122985   4.047   5.522   6.120
 7362SOL    HW222986   3.924   5.434   6.183
 7363SOL     OW22987   4.360   1.018   1.446
 7363SOL    HW122988   4.282   0.995   1.504
 7363SOL    HW222989   4.342   0.988   1.353
 7364SOL     OW22990   4.121   6.825   1.623
 7364SOL    HW122991   4.028   6.846   1.653
 7364SOL    HW222992   4.186   6.868   1.686
 7365SOL     OW22993   6.246   5.879   2.908
 7365SOL    HW122994   6.274   5.937   2.985
 7365SOL    HW222995   6.327   5.851   2.857
 7366SOL     OW22996   2.225   0.378   4.663
 7366SOL    HW122997   2.317   0.377   4.624
 7366SOL    HW222998   2.229   0.344   4.757
 7367SOL     OW22999   4.387   2.086   0.374
 7367SOL    HW123000   4.327   2.065   0.451
 7367SOL    HW223001   4.406   2.003   0.322
 7368SOL     OW23002   3.584   3.257   2.730
 7368SOL    HW123003   3.504   3.239   2.673
 7368SOL    HW223004   3.644   3.178   2.730
 7369SOL     OW23005   3.553   2.344   1.105
 7369SOL    HW123006   3.639   2.383   1.139
 7369SOL    HW223007   3.477   2.386   1.154
 7370SOL     OW23008   2.538   2.449   5.256
 7370SOL    HW123009   2.468   2.505   5.209
 7370SOL    HW223010   2.610   2.426   5.191
 7371SOL     OW23011   2.998   6.790   4.185
 7371SOL    HW123012   3.035   6.715   4.239
 7371SOL    HW223013   2.965   6.755   4.097
 7372SOL     OW23014   3.989   6.975   4.915
 7372SOL    HW123015   4.019   6.981   4.820
 7372SOL    HW223016   3.896   7.011   4.923
 7373SOL     OW23017   4.829   1.521   4.910
 7373SOL    HW123018   4.840   1.437   4.965
 7373SOL    HW223019   4.797   1.595   4.968
 7374SOL     OW23020   1.434   1.665   5.139
 7374SOL    HW123021   1.366   1.728   5.103
 7374SOL    HW223022   1.400   1.571   5.132
 7375SOL     OW23023   2.215   2.986   2.368
 7375SOL    HW123024   2.166   3.009   2.284
 7375SOL    HW223025   2.275   2.908   2.352
 7376SOL     OW23026   1.445   3.500   1.246
 7376SOL    HW123027   1.433   3.402   1.260
 7376SOL    HW223028   1.456   3.519   1.148
 7377SOL     OW23029   3.727   5.286   0.439
 7377SOL    HW123030   3.655   5.350   0.410
 7377SOL    HW223031   3.684   5.202   0.475
 7378SOL     OW23032   1.818   7.006   4.151
 7378SOL    HW123033   1.737   0.024   4.195
 7378SOL    HW223034   1.827   0.024   4.059
 7379SOL     OW23035   3.328   0.259   1.314
 7379SOL    HW123036   3.317   0.340   1.372
 7379SOL    HW223037   3.238   0.226   1.286
 7380SOL     OW23038   6.376   4.212   3.592
 7380SOL    HW123039   6.321   4.139   3.631
 7380SOL    HW223040   6.402   4.188   3.499
 7381SOL     OW23041   4.097   2.663   0.816
 7381SOL    HW123042   4.101   2.633   0.721
 7381SOL    HW223043   4.137   2.754   0.824
 7382SOL     OW23044   6.011   1.919   5.942
 7382SOL    HW123045   6.067   1.979   5.885
 7382SOL    HW223046   6.064   1.891   6.022
 7383SOL     OW23047   1.570   6.129   2.137
 7383SOL    HW123048   1.641   6.072   2.097
 7383SOL    HW223049   1.551   6.206   2.076
 7384SOL     OW23050   6.594   6.766   1.223
 7384SOL    HW123051   6.616   6.800   1.314
 7384SOL    HW223052   6.625   6.832   1.155
 7385SOL     OW23053   3.159   5.030   2.573
 7385SOL    HW123054   3.206   4.969   2.509
 7385SOL    HW223055   3.202   5.120   2.572
 7386SOL     OW23056   0.239   3.372   6.440
 7386SOL    HW123057   0.309   3.353   6.509
 7386SOL    HW223058   0.235   3.297   6.375
 7387SOL     OW23059   6.012   4.807   5.912
 7387SOL    HW123060   5.956   4.860   5.848
 7387SOL    HW223061   5.953   4.747   5.965
 7388SOL     OW23062   1.153   5.566   2.476
 7388SOL    HW123063   1.191   5.549   2.567
 7388SOL    HW223064   1.054   5.575   2.482
 7389SOL     OW23065   0.091   3.038   0.239
 7389SOL    HW123066   0.002   3.035   0.285
 7389SOL    HW223067   0.077   3.034   0.140
 7390SOL     OW23068   3.088   1.882   2.547
 7390SOL    HW123069   3.109   1.962   2.492
 7390SOL    HW223070   3.121   1.895   2.640
 7391SOL     OW23071   3.694   3.573   2.467
 7391SOL    HW123072   3.708   3.671   2.458
 7391SOL    HW223073   3.623   3.556   2.535
 7392SOL     OW23074   4.141   6.450   6.504
 7392SOL    HW123075   4.125   6.469   6.601
 7392SOL    HW223076   4.078   6.505   6.449
 7393SOL     OW23077   6.615   4.870   3.969
 7393SOL    HW123078   6.552   4.874   3.892
 7393SOL    HW223079   6.583   4.802   4.035
 7394SOL     OW23080   2.134   2.817   6.447
 7394SOL    HW123081   2.217   2.766   6.422
 7394SOL    HW223082   2.055   2.756   6.440
 7395SOL     OW23083   2.370   3.332   1.302
 7395SOL    HW123084   2.352   3.256   1.366
 7395SOL    HW223085   2.444   3.306   1.240
 7396SOL     OW23086   2.297   5.737   1.805
 7396SOL    HW123087   2.339   5.774   1.888
 7396SOL    HW223088   2.239   5.807   1.763
 7397SOL     OW23089   4.880   3.957   4.784
 7397SOL    HW123090   4.904   3.922   4.874
 7397SOL    HW223091   4.885   3.883   4.717
 7398SOL     OW23092   1.507   4.816   3.321
 7398SOL    HW123093   1.547   4.829   3.412
 7398SOL    HW223094   1.459   4.899   3.294
 7399SOL     OW23095   5.976   3.042   4.490
 7399SOL    HW123096   5.885   3.000   4.486
 7399SOL    HW223097   5.977   3.111   4.563
 7400SOL     OW23098   5.540   2.115   5.324
 7400SOL    HW123099   5.526   2.036   5.264
 7400SOL    HW223100   5.520   2.199   5.273
 7401SOL     OW23101   1.535   2.683   3.145
 7401SOL    HW123102   1.579   2.773   3.138
 7401SOL    HW223103   1.438   2.691   3.123
 7402SOL     OW23104   2.535   5.317   5.249
 7402SOL    HW123105   2.616   5.260   5.260
 7402SOL    HW223106   2.456   5.274   5.293
 7403SOL     OW23107   2.234   3.038   3.465
 7403SOL    HW123108   2.207   2.971   3.396
 7403SOL    HW223109   2.332   3.032   3.481
 7404SOL     OW23110   3.367   4.141   1.397
 7404SOL    HW123111   3.317   4.209   1.450
 7404SOL    HW223112   3.303   4.081   1.350
 7405SOL     OW23113   3.012   5.456   5.317
 7405SOL    HW123114   3.073   5.509   5.259
 7405SOL    HW223115   2.973   5.515   5.388
 7406SOL     OW23116   0.303   1.570   5.262
 7406SOL    HW123117   0.222   1.520   5.233
 7406SOL    HW223118   0.347   1.521   5.337
 7407SOL     OW23119   0.802   6.164   6.567
 7407SOL    HW123120   0.873   6.139   6.501
 7407SOL    HW223121   0.819   6.116   6.653
 7408SOL     OW23122   3.325   4.249   5.186
 7408SOL    HW123123   3.386   4.310   5.237
 7408SOL    HW223124   3.236   4.294   5.173
 7409SOL     OW23125   5.536   4.061   0.076
 7409SOL    HW123126   5.461   4.085   0.014
 7409SOL    HW223127   5.548   3.962   0.077
 7410SOL     OW23128   0.059   1.073   0.342
 7410SOL    HW123129   0.120   1.058   0.420
 7410SOL    HW223130   0.020   1.165   0.347
 7411SOL     OW23131   1.249   1.679   5.895
 7411SOL    HW123132   1.191   1.687   5.814
 7411SOL    HW223133   1.306   1.761   5.903
 7412SOL     OW23134   3.839   6.989   0.294
 7412SOL    HW123135   3.908   6.954   0.230
 7412SOL    HW223136   3.752   7.001   0.245
 7413SOL     OW23137   4.547   4.821   3.234
 7413SOL    HW123138   4.595   4.783   3.312
 7413SOL    HW223139   4.571   4.918   3.223
 7414SOL     OW23140   1.919   2.138   4.441
 7414SOL    HW123141   1.904   2.180   4.352
 7414SOL    HW223142   1.837   2.148   4.497
 7415SOL     OW23143   3.670   6.604   6.408
 7415SOL    HW123144   3.656   6.510   6.440
 7415SOL    HW223145   3.617   6.618   6.324
 7416SOL     OW23146   1.225   1.303   2.437
 7416SOL    HW123147   1.138   1.265   2.468
 7416SOL    HW223148   1.280   1.330   2.516
 7417SOL     OW23149   1.169   2.296   3.440
 7417SOL    HW123150   1.092   2.245   3.401
 7417SOL    HW223151   1.216   2.345   3.366
 7418SOL     OW23152   1.802   4.710   6.517
 7418SOL    HW123153   1.760   4.638   6.572
 7418SOL    HW223154   1.901   4.697   6.516
 7419SOL     OW23155   6.311   3.855   3.564
 7419SOL    HW123156   6.240   3.784   3.564
 7419SOL    HW223157   6.379   3.834   3.634
 7420SOL     OW23158   7.013   5.988   1.921
 7420SOL    HW123159   0.044   6.073   1.920
 7420SOL    HW223160   0.041   5.920   1.976
 7421SOL     OW23161   4.638   3.513   1.500
 7421SOL    HW123162   4.552   3.462   1.502
 7421SOL    HW223163   4.632   3.585   1.431
 7422SOL     OW23164   6.200   3.090   2.008
 7422SOL    HW123165   6.154   3.175   1.982
 7422SOL    HW223166   6.262   3.062   1.935
 7423SOL     OW23167   5.774   1.800   5.912
 7423SOL    HW123168   5.800   1.703   5.910
 7423SOL    HW223169   5.856   1.856   5.929
 7424SOL     OW23170   6.734   1.162   5.248
 7424SOL    HW123171   6.799   1.165   5.172
 7424SOL    HW223172   6.650   1.116   5.219
 7425SOL     OW23173   5.198   0.351   0.247
 7425SOL    HW123174   5.290   0.359   0.209
 7425SOL    HW223175   5.175   0.254   0.258
 7426SOL     OW23176   3.386   2.629   6.001
 7426SOL    HW123177   3.412   2.720   5.969
 7426SOL    HW223178   3.465   2.568   5.996
 7427SOL     OW23179   3.729   1.280   4.131
 7427SOL    HW123180   3.660   1.247   4.195
 7427SOL    HW223181   3.808   1.218   4.132
 7428SOL     OW23182   4.002   6.410   5.934
 7428SOL    HW123183   4.012   6.439   5.839
 7428SOL    HW223184   4.000   6.491   5.993
 7429SOL     OW23185   1.140   6.792   2.807
 7429SOL    HW123186   1.159   6.694   2.805
 7429SOL    HW223187   1.211   6.841   2.756
 7430SOL     OW23188   6.863   4.595   2.499
 7430SOL    HW123189   6.909   4.639   2.576
 7430SOL    HW223190   6.770   4.631   2.490
 7431SOL     OW23191   2.175   2.431   4.594
 7431SOL    HW123192   2.076   2.421   4.599
 7431SOL    HW223193   2.217   2.346   4.563
 7432SOL     OW23194   1.877   0.429   3.217
 7432SOL    HW123195   1.868   0.337   3.256
 7432SOL    HW223196   1.948   0.479   3.266
 7433SOL     OW23197   3.141   6.522   6.840
 7433SOL    HW123198   3.208   6.474   6.896
 7433SOL    HW223199   3.060   6.465   6.827
 7434SOL     OW23200   4.902   6.330   6.122
 7434SOL    HW123201   4.837   6.300   6.191
 7434SOL    HW223202   4.967   6.394   6.164
 7435SOL     OW23203   5.010   6.430   1.934
 7435SOL    HW123204   5.058   6.397   2.015
 7435SOL    HW223205   5.077   6.456   1.864
 7436SOL     OW23206   5.114   4.043   6.288
 7436SOL    HW123207   5.117   4.125   6.344
 7436SOL    HW223208   5.113   3.962   6.346
 7437SOL     OW23209   2.988   5.581   1.202
 7437SOL    HW123210   3.011   5.616   1.111
 7437SOL    HW223211   3.071   5.574   1.257
 7438SOL     OW23212   2.027   1.026   0.480
 7438SOL    HW123213   1.945   1.077   0.509
 7438SOL    HW223214   1.999   0.947   0.426
 7439SOL     OW23215   1.917   5.532   6.203
 7439SOL    HW123216   1.920   5.456   6.138
 7439SOL    HW223217   2.002   5.533   6.256
 7440SOL     OW23218   5.111   3.242   4.140
 7440SOL    HW123219   5.115   3.316   4.072
 7440SOL    HW223220   5.095   3.282   4.231
 7441SOL     OW23221   5.626   6.439   2.417
 7441SOL    HW123222   5.700   6.477   2.363
 7441SOL    HW223223   5.619   6.489   2.504
 7442SOL     OW23224   5.825   0.842   5.986
 7442SOL    HW123225   5.792   0.895   6.065
 7442SOL    HW223226   5.869   0.758   6.019
 7443SOL     OW23227   6.891   5.694   2.063
 7443SOL    HW123228   6.845   5.607   2.082
 7443SOL    HW223229   6.933   5.690   1.972
 7444SOL     OW23230   7.017   0.579   6.125
 7444SOL    HW123231   6.945   0.613   6.185
 7444SOL    HW223232   6.991   0.594   6.029
 7445SOL     OW23233   3.836   6.833   2.139
 7445SOL    HW123234   3.914   6.771   2.145
 7445SOL    HW223235   3.801   6.851   2.231
 7446SOL     OW23236   5.015   2.836   0.527
 7446SOL    HW123237   5.014   2.934   0.511
 7446SOL    HW223238   4.990   2.788   0.443
 7447SOL     OW23239   0.733   4.142   0.351
 7447SOL    HW123240   0.715   4.200   0.272
 7447SOL    HW223241   0.760   4.051   0.321
 7448SOL     OW23242   5.408   6.012   6.638
 7448SOL    HW123243   5.356   6.090   6.674
 7448SOL    HW223244   5.411   5.939   6.707
 7449SOL     OW23245   0.344   4.575   0.335
 7449SOL    HW123246   0.288   4.618   0.406
 7449SOL    HW223247   0.332   4.476   0.339
 7450SOL     OW23248   5.192   1.909   5.902
 7450SOL    HW123249   5.261   1.978   5.923
 7450SOL    HW223250   5.105   1.935   5.944
 7451SOL     OW23251   5.833   5.362   2.167
 7451SOL    HW123252   5.840   5.390   2.263
 7451SOL    HW223253   5.825   5.444   2.109
 7452SOL     OW23254   5.642   6.399   4.905
 7452SOL    HW123255   5.742   6.395   4.900
 7452SOL    HW223256   5.613   6.493   4.920
 7453SOL     OW23257   5.282   5.472   6.478
 7453SOL    HW123258   5.315   5.378   6.469
 7453SOL    HW223259   5.308   5.508   6.567
 7454SOL     OW23260   3.250   1.949   0.765
 7454SOL    HW123261   3.322   2.017   0.752
 7454SOL    HW223262   3.162   1.995   0.772
 7455SOL     OW23263   6.504   3.031   2.678
 7455SOL    HW123264   6.531   3.126   2.690
 7455SOL    HW223265   6.585   2.973   2.675
 7456SOL     OW23266   2.588   2.367   4.787
 7456SOL    HW123267   2.535   2.434   4.736
 7456SOL    HW223268   2.628   2.409   4.868
 7457SOL     OW23269   2.229   0.029   3.837
 7457SOL    HW123270   2.322   7.017   3.819
 7457SOL    HW223271   2.232   0.128   3.853
 7458SOL     OW23272   1.060   6.659   4.347
 7458SOL    HW123273   1.114   6.578   4.325
 7458SOL    HW223274   1.017   6.647   4.436
 7459SOL     OW23275   6.716   1.429   2.680
 7459SOL    HW123276   6.801   1.446   2.630
 7459SOL    HW223277   6.681   1.339   2.656
 7460SOL     OW23278   1.440   6.736   0.123
 7460SOL    HW123279   1.477   6.732   0.216
 7460SOL    HW223280   1.345   6.768   0.126
 7461SOL     OW23281   0.386   5.961   6.115
 7461SOL    HW123282   0.369   5.965   6.017
 7461SOL    HW223283   0.482   5.983   6.134
 7462SOL     OW23284   1.169   5.693   1.138
 7462SOL    HW123285   1.223   5.665   1.059
 7462SOL    HW223286   1.198   5.641   1.219
 7463SOL     OW23287   3.714   4.623   0.246
 7463SOL    HW123288   3.653   4.625   0.326
 7463SOL    HW223289   3.729   4.528   0.218
 7464SOL     OW23290   0.304   5.567   4.725
 7464SOL    HW123291   0.360   5.592   4.646
 7464SOL    HW223292   0.236   5.638   4.742
 7465SOL     OW23293   2.407   5.038   0.220
 7465SOL    HW123294   2.423   5.013   0.125
 7465SOL    HW223295   2.379   5.133   0.225
 7466SOL     OW23296   0.558   0.702   5.267
 7466SOL    HW123297   0.483   0.659   5.318
 7466SOL    HW223298   0.585   0.643   5.191
 7467SOL     OW23299   0.362   2.812   6.002
 7467SOL    HW123300   0.319   2.848   5.920
 7467SOL    HW223301   0.377   2.885   6.068
 7468SOL     OW23302   5.638   2.726   5.040
 7468SOL    HW123303   5.694   2.799   5.078
 7468SOL    HW223304   5.606   2.667   5.114
 7469SOL     OW23305   6.650   2.187   0.618
 7469SOL    HW123306   6.746   2.193   0.645
 7469SOL    HW223307   6.598   2.142   0.690
 7470SOL     OW23308   5.960   3.683   3.620
 7470SOL    HW123309   5.959   3.583   3.619
 7470SOL    HW223310   6.001   3.716   3.705
 7471SOL     OW23311   5.721   5.817   6.328
 7471SOL    HW123312   5.740   5.722   6.302
 7471SOL    HW223313   5.634   5.845   6.288
 7472SOL     OW23314   6.729   0.130   5.374
 7472SOL    HW123315   6.778   0.060   5.322
 7472SOL    HW223316   6.672   0.086   5.443
 7473SOL     OW23317   4.403   0.048   3.958
 7473SOL    HW123318   4.502   0.063   3.962
 7473SOL    HW223319   4.358   0.128   3.920
 7474SOL     OW23320   5.607   2.511   6.337
 7474SOL    HW123321   5.595   2.421   6.378
 7474SOL    HW223322   5.534   2.572   6.368
 7475SOL     OW23323   4.689   1.911   1.979
 7475SOL    HW123324   4.776   1.960   1.984
 7475SOL    HW223325   4.619   1.972   1.942
 7476SOL     OW23326   2.049   1.921   3.080
 7476SOL    HW123327   2.018   1.970   3.161
 7476SOL    HW223328   2.147   1.904   3.086
 7477SOL     OW23329   0.501   3.841   4.810
 7477SOL    HW123330   0.565   3.865   4.737
 7477SOL    HW223331   0.429   3.783   4.773
 7478SOL     OW23332   6.394   2.230   5.110
 7478SOL    HW123333   6.430   2.212   5.202
 7478SOL    HW223334   6.324   2.300   5.114
 7479SOL     OW23335   5.627   3.360   6.981
 7479SOL    HW123336   5.727   3.370   6.980
 7479SOL    HW223337   5.598   3.330   0.052
 7480SOL     OW23338   3.153   5.115   2.220
 7480SOL    HW123339   3.199   5.124   2.308
 7480SOL    HW223340   3.169   5.024   2.183
 7481SOL     OW23341   6.496   4.392   6.523
 7481SOL    HW123342   6.562   4.334   6.570
 7481SOL    HW223343   6.544   4.468   6.479
 7482SOL     OW23344   4.177   2.242   2.380
 7482SOL    HW123345   4.085   2.203   2.392
 7482SOL    HW223346   4.216   2.210   2.294
 7483SOL     OW23347   4.713   2.223   5.062
 7483SOL    HW123348   4.760   2.297   5.013
 7483SOL    HW223349   4.614   2.240   5.061
 7484SOL     OW23350   2.363   6.195   4.736
 7484SOL    HW123351   2.281   6.231   4.780
 7484SOL    HW223352   2.434   6.265   4.735
 7485SOL     OW23353   2.466   6.934   4.066
 7485SOL    HW123354   2.489   6.850   4.114
 7485SOL    HW223355   2.511   7.012   4.110
 7486SOL     OW23356   0.510   6.073   0.453
 7486SOL    HW123357   0.464   5.984   0.455
 7486SOL    HW223358   0.608   6.061   0.467
 7487SOL     OW23359   4.944   0.084   3.500
 7487SOL    HW123360   4.987   0.168   3.468
 7487SOL    HW223361   4.857   0.070   3.453
 7488SOL     OW23362   0.709   6.088   4.218
 7488SOL    HW123363   0.692   6.024   4.144
 7488SOL    HW223364   0.660   6.173   4.202
 7489SOL     OW23365   6.122   3.686   6.976
 7489SOL    HW123366   6.144   3.664   0.051
 7489SOL    HW223367   6.205   3.718   6.930
 7490SOL     OW23368   1.316   2.318   2.713
 7490SOL    HW123369   1.332   2.240   2.773
 7490SOL    HW223370   1.267   2.288   2.631
 7491SOL     OW23371   4.575   3.116   0.755
 7491SOL    HW123372   4.525   3.034   0.727
 7491SOL    HW223373   4.671   3.092   0.770
 7492SOL     OW23374   1.717   0.695   4.072
 7492SOL    HW123375   1.721   0.647   4.159
 7492SOL    HW223376   1.628   0.738   4.061
 7493SOL     OW23377   6.443   3.729   5.617
 7493SOL    HW123378   6.521   3.792   5.620
 7493SOL    HW223379   6.402   3.731   5.526
 7494SOL     OW23380   6.152   1.021   2.796
 7494SOL    HW123381   6.083   1.077   2.752
 7494SOL    HW223382   6.123   1.000   2.890
 7495SOL     OW23383   2.309   2.755   4.809
 7495SOL    HW123384   2.350   2.800   4.888
 7495SOL    HW223385   2.238   2.692   4.840
 7496SOL     OW23386   6.029   3.807   3.402
 7496SOL    HW123387   5.965   3.883   3.396
 7496SOL    HW223388   6.007   3.752   3.482
 7497SOL     OW23389   0.826   6.643   0.609
 7497SOL    HW123390   0.881   6.712   0.562
 7497SOL    HW223391   0.729   6.670   0.608
 7498SOL     OW23392   3.410   0.333   3.187
 7498SOL    HW123393   3.405   0.315   3.089
 7498SOL    HW223394   3.404   0.432   3.202
 7499SOL     OW23395   3.906   2.224   3.804
 7499SOL    HW123396   3.890   2.210   3.902
 7499SOL    HW223397   3.819   2.243   3.758
 7500SOL     OW23398   4.201   6.999   3.492
 7500SOL    HW123399   4.140   6.955   3.426
 7500SOL    HW223400   4.154   7.010   3.579
 7501SOL     OW23401   5.675   2.811   4.204
 7501SOL    HW123402   5.661   2.729   4.148
 7501SOL    HW223403   5.743   2.870   4.161
 7502SOL     OW23404   3.194   0.170   4.717
 7502SOL    HW123405   3.272   0.108   4.712
 7502SOL    HW223406   3.179   0.213   4.628
 7503SOL     OW23407   1.883   6.108   0.978
 7503SOL    HW123408   1.955   6.166   0.940
 7503SOL    HW223409   1.914   6.067   1.064
 7504SOL     OW23410   0.103   6.230   2.578
 7504SOL    HW123411   0.173   6.292   2.543
 7504SOL    HW223412   0.095   6.241   2.677
 7505SOL     OW23413   6.877   0.854   5.007
 7505SOL    HW123414   6.923   0.826   4.922
 7505SOL    HW223415   6.843   0.947   4.997
 7506SOL     OW23416   3.335   1.493   3.192
 7506SOL    HW123417   3.376   1.509   3.282
 7506SOL    HW223418   3.407   1.472   3.126
 7507SOL     OW23419   6.602   3.401   4.488
 7507SOL    HW123420   6.510   3.373   4.516
 7507SOL    HW223421   6.599   3.433   4.393
 7508SOL     OW23422   1.446   5.882   0.202
 7508SOL    HW123423   1.539   5.887   0.165
 7508SOL    HW223424   1.442   5.933   0.289
 7509SOL     OW23425   5.166   3.930   0.161
 7509SOL    HW123426   5.262   3.935   0.191
 7509SOL    HW223427   5.162   3.896   0.067
 7510SOL     OW23428   4.104   3.685   4.167
 7510SOL    HW123429   4.036   3.728   4.226
 7510SOL    HW223430   4.059   3.648   4.086
 7511SOL     OW23431   3.389   5.857   2.832
 7511SOL    HW123432   3.469   5.814   2.792
 7511SOL    HW223433   3.356   5.930   2.773
 7512SOL     OW23434   2.812   6.898   0.021
 7512SOL    HW123435   2.735   6.840   0.046
 7512SOL    HW223436   2.890   6.841   7.014
 7513SOL     OW23437   2.151   2.552   3.642
 7513SOL    HW123438   2.170   2.478   3.706
 7513SOL    HW223439   2.064   2.596   3.665
 7514SOL     OW23440   2.232   4.665   3.214
 7514SOL    HW123441   2.319   4.619   3.229
 7514SOL    HW223442   2.180   4.617   3.143
 7515SOL     OW23443   6.903   4.593   5.111
 7515SOL    HW123444   6.996   4.558   5.126
 7515SOL    HW223445   6.837   4.523   5.140
 7516SOL     OW23446   1.158   5.475   5.467
 7516SOL    HW123447   1.147   5.400   5.402
 7516SOL    HW223448   1.255   5.486   5.490
 7517SOL     OW23449   1.014   2.439   0.014
 7517SOL    HW123450   1.092   2.400   6.984
 7517SOL    HW223451   0.932   2.386   7.013
 7518SOL     OW23452   4.776   2.951   4.304
 7518SOL    HW123453   4.796   3.020   4.374
 7518SOL    HW223454   4.751   2.997   4.219
 7519SOL     OW23455   4.336   0.037   4.570
 7519SOL    HW123456   4.352   7.006   4.486
 7519SOL    HW223457   4.355   7.000   4.649
 7520SOL     OW23458   1.727   1.509   2.049
 7520SOL    HW123459   1.752   1.436   2.112
 7520SOL    HW223460   1.742   1.598   2.092
 7521SOL     OW23461   5.475   1.443   4.589
 7521SOL    HW123462   5.449   1.509   4.660
 7521SOL    HW223463   5.419   1.459   4.507
 7522SOL     OW23464   1.299   6.016   4.114
 7522SOL    HW123465   1.370   6.044   4.178
 7522SOL    HW223466   1.341   5.983   4.029
 7523SOL     OW23467   5.440   1.302   6.254
 7523SOL    HW123468   5.474   1.393   6.231
 7523SOL    HW223469   5.397   1.261   6.174
 7524SOL     OW23470   0.102   2.609   4.196
 7524SOL    HW123471   0.165   2.633   4.122
 7524SOL    HW223472   0.148   2.623   4.284
 7525SOL     OW23473   4.616   6.442   6.558
 7525SOL    HW123474   4.669   6.453   6.642
 7525SOL    HW223475   4.518   6.446   6.579
 7526SOL     OW23476   1.984   3.521   1.914
 7526SOL    HW123477   2.007   3.490   1.822
 7526SOL    HW223478   2.065   3.517   1.972
 7527SOL     OW23479   4.105   5.914   3.698
 7527SOL    HW123480   4.030   5.866   3.652
 7527SOL    HW223481   4.134   5.860   3.778
 7528SOL     OW23482   5.753   2.356   6.948
 7528SOL    HW123483   5.716   2.436   6.996
 7528SOL    HW223484   5.853   2.357   6.955
 7529SOL     OW23485   5.705   1.778   3.842
 7529SOL    HW123486   5.740   1.701   3.789
 7529SOL    HW223487   5.647   1.744   3.916
 7530SOL     OW23488   0.149   1.446   2.052
 7530SOL    HW123489   0.073   1.409   1.999
 7530SOL    HW223490   0.236   1.416   2.013
 7531SOL     OW23491   4.360   2.394   3.657
 7531SOL    HW123492   4.302   2.384   3.577
 7531SOL    HW223493   4.309   2.367   3.739
 7532SOL     OW23494   5.128   5.969   6.916
 7532SOL    HW123495   5.186   6.002   6.842
 7532SOL    HW223496   5.148   6.021   6.999
 7533SOL     OW23497   4.483   3.320   1.707
 7533SOL    HW123498   4.550   3.291   1.776
 7533SOL    HW223499   4.507   3.279   1.619
 7534SOL     OW23500   5.022   6.908   4.423
 7534SOL    HW123501   4.965   6.868   4.351
 7534SOL    HW223502   5.059   6.835   4.480
 7535SOL     OW23503   1.206   6.441   4.279
 7535SOL    HW123504   1.128   6.378   4.275
 7535SOL    HW223505   1.265   6.427   4.198
 7536SOL     OW23506   5.415   6.014   4.658
 7536SOL    HW123507   5.480   6.085   4.684
 7536SOL    HW223508   5.325   6.055   4.643
 7537SOL     OW23509   2.327   5.740   2.300
 7537SOL    HW123510   2.315   5.645   2.330
 7537SOL    HW223511   2.273   5.800   2.359
 7538SOL     OW23512   0.845   3.385   1.610
 7538SOL    HW123513   0.893   3.342   1.687
 7538SOL    HW223514   0.909   3.443   1.560
 7539SOL     OW23515   1.168   5.485   3.871
 7539SOL    HW123516   1.160   5.564   3.932
 7539SOL    HW223517   1.085   5.429   3.879
 7540SOL     OW23518   5.182   5.473   4.167
 7540SOL    HW123519   5.149   5.566   4.152
 7540SOL    HW223520   5.204   5.431   4.079
 7541SOL     OW23521   1.272   3.834   6.721
 7541SOL    HW123522   1.231   3.767   6.659
 7541SOL    HW223523   1.281   3.794   6.812
 7542SOL     OW23524   5.906   6.351   6.065
 7542SOL    HW123525   5.916   6.450   6.068
 7542SOL    HW223526   5.965   6.314   5.993
 7543SOL     OW23527   2.930   0.673   5.471
 7543SOL    HW123528   2.999   0.714   5.413
 7543SOL    HW223529   2.863   0.742   5.498
 7544SOL     OW23530   6.936   2.906   3.867
 7544SOL    HW123531   6.883   2.925   3.784
 7544SOL    HW223532   0.012   2.926   3.851
 7545SOL     OW23533   0.668   5.833   6.732
 7545SOL    HW123534   0.758   5.851   6.774
 7545SOL    HW223535   0.663   5.879   6.644
 7546SOL     OW23536   3.410   2.880   2.000
 7546SOL    HW123537   3.343   2.879   2.075
 7546SOL    HW223538   3.373   2.829   1.923
 7547SOL     OW23539   4.427   0.132   1.644
 7547SOL    HW123540   4.407   0.225   1.612
 7547SOL    HW223541   4.520   0.128   1.679
 7548SOL     OW23542   4.666   2.283   6.235
 7548SOL    HW123543   4.647   2.298   6.332
 7548SOL    HW223544   4.583   2.298   6.182
 7549SOL     OW23545   4.388   2.406   5.687
 7549SOL    HW123546   4.299   2.399   5.734
 7549SOL    HW223547   4.455   2.351   5.736
 7550SOL     OW23548   1.443   4.038   3.684
 7550SOL    HW123549   1.525   4.075   3.640
 7550SOL    HW223550   1.362   4.077   3.640
 7551SOL     OW23551   5.201   1.921   5.162
 7551SOL    HW123552   5.270   1.861   5.202
 7551SOL    HW223553   5.222   2.016   5.186
 7552SOL     OW23554   2.436   6.225   4.078
 7552SOL    HW123555   2.519   6.235   4.133
 7552SOL    HW223556   2.356   6.241   4.135
 7553SOL     OW23557   5.928   5.897   6.104
 7553SOL    HW123558   5.919   5.827   6.174
 7553SOL    HW223559   5.923   5.854   6.013
 7554SOL     OW23560   5.448   1.160   0.265
 7554SOL    HW123561   5.413   1.217   0.340
 7554SOL    HW223562   5.390   1.079   0.255
 7555SOL     OW23563   3.234   6.584   6.561
 7555SOL    HW123564   3.138   6.587   6.533
 7555SOL    HW223565   3.240   6.565   6.659
 7556SOL     OW23566   0.997   0.980   0.494
 7556SOL    HW123567   1.090   1.016   0.492
 7556SOL    HW223568   0.982   0.922   0.414
 7557SOL     OW23569   5.088   0.472   6.938
 7557SOL    HW123570   5.097   0.498   0.014
 7557SOL    HW223571   5.118   0.377   6.927
 7558SOL     OW23572   1.315   2.701   4.505
 7558SOL    HW123573   1.387   2.706   4.575
 7558SOL    HW223574   1.234   2.751   4.537
 7559SOL     OW23575   3.658   1.902   4.913
 7559SOL    HW123576   3.639   1.863   5.003
 7559SOL    HW223577   3.754   1.886   4.889
 7560SOL     OW23578   6.727   0.367   6.532
 7560SOL    HW123579   6.707   0.296   6.465
 7560SOL    HW223580   6.765   0.325   6.615
 7561SOL     OW23581   5.387   1.936   5.513
 7561SOL    HW123582   5.391   2.026   5.556
 7561SOL    HW223583   5.316   1.881   5.557
 7562SOL     OW23584   1.073   5.198   4.854
 7562SOL    HW123585   1.038   5.220   4.945
 7562SOL    HW223586   1.135   5.270   4.824
 7563SOL     OW23587   2.888   6.561   2.260
 7563SOL    HW123588   2.812   6.569   2.324
 7563SOL    HW223589   2.882   6.474   2.211
 7564SOL     OW23590   4.725   0.791   4.820
 7564SOL    HW123591   4.741   0.721   4.890
 7564SOL    HW223592   4.636   0.834   4.836
 7565SOL     OW23593   5.531   3.443   6.436
 7565SOL    HW123594   5.592   3.469   6.510
 7565SOL    HW223595   5.437   3.468   6.459
 7566SOL     OW23596   4.796   4.812   2.012
 7566SOL    HW123597   4.816   4.816   2.110
 7566SOL    HW223598   4.783   4.905   1.977
 7567SOL     OW23599   0.535   1.002   3.964
 7567SOL    HW123600   0.481   1.020   4.046
 7567SOL    HW223601   0.473   0.977   3.889
 7568SOL     OW23602   6.226   5.247   1.605
 7568SOL    HW123603   6.206   5.215   1.512
 7568SOL    HW223604   6.154   5.309   1.634
 7569SOL     OW23605   3.744   4.535   6.397
 7569SOL    HW123606   3.702   4.494   6.316
 7569SOL    HW223607   3.768   4.630   6.378
 7570SOL     OW23608   6.869   3.019   3.181
 7570SOL    HW123609   6.914   2.947   3.127
 7570SOL    HW223610   6.862   3.102   3.125
 7571SOL     OW23611   5.727   3.341   2.898
 7571SOL    HW123612   5.781   3.378   2.822
 7571SOL    HW223613   5.745   3.393   2.981
 7572SOL     OW23614   4.931   6.702   2.658
 7572SOL    HW123615   4.939   6.636   2.584
 7572SOL    HW223616   4.842   6.746   2.656
 7573SOL     OW23617   5.669   6.429   5.832
 7573SOL    HW123618   5.632   6.522   5.841
 7573SOL    HW223619   5.670   6.384   5.921
 7574SOL     OW23620   6.293   0.791   4.109
 7574SOL    HW123621   6.302   0.830   4.018
 7574SOL    HW223622   6.261   0.862   4.173
 7575SOL     OW23623   6.449   6.376   1.019
 7575SOL    HW123624   6.430   6.422   0.932
 7575SOL    HW223625   6.432   6.278   1.009
 7576SOL     OW23626   5.635   3.032   0.889
 7576SOL    HW123627   5.571   3.097   0.928
 7576SOL    HW223628   5.655   2.960   0.955
 7577SOL     OW23629   0.568   0.096   0.257
 7577SOL    HW123630   0.517   0.084   0.172
 7577SOL    HW223631   0.509   0.075   0.335
 7578SOL     OW23632   0.495   5.397   3.133
 7578SOL    HW123633   0.547   5.466   3.183
 7578SOL    HW223634   0.456   5.437   3.050
 7579SOL     OW23635   6.603   2.041   1.640
 7579SOL    HW123636   6.621   2.096   1.558
 7579SOL    HW223637   6.650   1.953   1.633
 7580SOL     OW23638   2.074   4.333   3.340
 7580SOL    HW123639   2.156   4.322   3.284
 7580SOL    HW223640   1.995   4.348   3.281
 7581SOL     OW23641   0.495   1.009   1.712
 7581SOL    HW123642   0.526   1.052   1.797
 7581SOL    HW223643   0.522   1.065   1.634
 7582SOL     OW23644   4.203   1.507   4.200
 7582SOL    HW123645   4.294   1.466   4.195
 7582SOL    HW223646   4.145   1.468   4.129
 7583SOL     OW23647   4.998   3.331   3.488
 7583SOL    HW123648   5.086   3.291   3.466
 7583SOL    HW223649   4.949   3.272   3.552
 7584SOL     OW23650   1.405   0.934   2.648
 7584SOL    HW123651   1.335   0.996   2.613
 7584SOL    HW223652   1.441   0.970   2.734
 7585SOL     OW23653   1.091   2.201   6.411
 7585SOL    HW123654   1.076   2.268   6.338
 7585SOL    HW223655   1.131   2.118   6.371
 7586SOL     OW23656   1.351   0.860   2.289
 7586SOL    HW123657   1.334   0.957   2.269
 7586SOL    HW223658   1.263   0.812   2.295
 7587SOL     OW23659   3.237   0.913   0.804
 7587SOL    HW123660   3.337   0.909   0.800
 7587SOL    HW223661   3.209   0.992   0.860
 7588SOL     OW23662   1.220   2.994   4.787
 7588SOL    HW123663   1.264   2.920   4.838
 7588SOL    HW223664   1.254   3.082   4.820
 7589SOL     OW23665   0.720   0.742   2.814
 7589SOL    HW123666   0.760   0.705   2.897
 7589SOL    HW223667   0.755   0.691   2.735
 7590SOL     OW23668   0.510   1.674   0.329
 7590SOL    HW123669   0.546   1.735   0.258
 7590SOL    HW223670   0.558   1.693   0.415
 7591SOL     OW23671   4.519   3.076   6.841
 7591SOL    HW123672   4.545   3.028   6.925
 7591SOL    HW223673   4.448   3.024   6.794
 7592SOL     OW23674   6.098   5.464   5.270
 7592SOL    HW123675   6.147   5.537   5.223
 7592SOL    HW223676   6.060   5.498   5.355
 7593SOL     OW23677   0.046   1.684   5.509
 7593SOL    HW123678   0.035   1.717   5.603
 7593SOL    HW223679   0.087   1.593   5.510
 7594SOL     OW23680   0.281   4.257   1.150
 7594SOL    HW123681   0.367   4.206   1.139
 7594SOL    HW223682   0.293   4.349   1.113
 7595SOL     OW23683   6.121   2.990   6.094
 7595SOL    HW123684   6.043   2.943   6.136
 7595SOL    HW223685   6.111   2.987   5.994
 7596SOL     OW23686   3.166   0.463   5.179
 7596SOL    HW123687   3.154   0.559   5.206
 7596SOL    HW223688   3.135   0.452   5.085
 7597SOL     OW23689   2.086   5.832   2.679
 7597SOL    HW123690   2.025   5.887   2.735
 7597SOL    HW223691   2.090   5.868   2.586
 7598SOL     OW23692   5.748   0.846   2.508
 7598SOL    HW123693   5.653   0.830   2.483
 7598SOL    HW223694   5.796   0.759   2.511
 7599SOL     OW23695   4.091   3.423   0.805
 7599SOL    HW123696   4.174   3.471   0.777
 7599SOL    HW223697   4.097   3.400   0.902
 7600SOL     OW23698   1.368   1.193   3.925
 7600SOL    HW123699   1.321   1.211   4.011
 7600SOL    HW223700   1.349   1.099   3.896
 7601SOL     OW23701   4.115   5.536   2.310
 7601SOL    HW123702   4.200   5.487   2.292
 7601SOL    HW223703   4.038   5.485   2.272
 7602SOL     OW23704   0.328   2.030   0.484
 7602SOL    HW123705   0.268   1.964   0.529
 7602SOL    HW223706   0.292   2.122   0.497
 7603SOL     OW23707   2.449   0.012   6.032
 7603SOL    HW123708   2.400   0.056   6.107
 7603SOL    HW223709   2.475   0.081   5.964
 7604SOL     OW23710   1.268   1.963   5.119
 7604SOL    HW123711   1.323   2.046   5.111
 7604SOL    HW223712   1.278   1.907   5.036
 7605SOL     OW23713   2.129   0.092   6.723
 7605SOL    HW123714   2.048   0.101   6.665
 7605SOL    HW223715   2.212   0.105   6.668
 7606SOL     OW23716   6.310   1.337   4.320
 7606SOL    HW123717   6.291   1.409   4.386
 7606SOL    HW223718   6.224   1.301   4.283
 7607SOL     OW23719   3.331   6.201   6.788
 7607SOL    HW123720   3.249   6.214   6.733
 7607SOL    HW223721   3.341   6.276   6.853
 7608SOL     OW23722   5.206   2.328   6.285
 7608SOL    HW123723   5.111   2.355   6.300
 7608SOL    HW223724   5.267   2.402   6.311
 7609SOL     OW23725   0.422   2.907   3.947
 7609SOL    HW123726   0.477   2.910   4.030
 7609SOL    HW223727   0.482   2.910   3.867
 7610SOL     OW23728   3.534   5.097   6.631
 7610SOL    HW123729   3.630   5.104   6.658
 7610SOL    HW223730   3.509   5.175   6.574
 7611SOL     OW23731   4.730   3.262   1.227
 7611SOL    HW123732   4.828   3.283   1.224
 7611SOL    HW223733   4.686   3.298   1.145
 7612SOL     OW23734   3.222   2.139   3.232
 7612SOL    HW123735   3.283   2.083   3.288
 7612SOL    HW223736   3.252   2.235   3.236
 7613SOL     OW23737   1.409   1.619   2.421
 7613SOL    HW123738   1.496   1.624   2.470
 7613SOL    HW223739   1.417   1.553   2.346
 7614SOL     OW23740   5.037   3.113   0.823
 7614SOL    HW123741   4.939   3.094   0.810
 7614SOL    HW223742   5.080   3.127   0.734
 7615SOL     OW23743   5.288   3.024   5.085
 7615SOL    HW123744   5.233   3.008   5.167
 7615SOL    HW223745   5.384   3.035   5.111
 7616SOL     OW23746   5.726   6.595   3.633
 7616SOL    HW123747   5.792   6.520   3.633
 7616SOL    HW223748   5.702   6.618   3.539
 7617SOL     OW23749   5.060   4.997   3.160
 7617SOL    HW123750   5.107   4.911   3.180
 7617SOL    HW223751   5.122   5.074   3.179
 7618SOL     OW23752   2.638   1.981   0.151
 7618SOL    HW123753   2.732   2.013   0.149
 7618SOL    HW223754   2.582   2.037   0.090
 7619SOL     OW23755   0.969   2.250   4.619
 7619SOL    HW123756   1.031   2.321   4.653
 7619SOL    HW223757   0.996   2.223   4.527
 7620SOL     OW23758   3.627   4.557   0.926
 7620SOL    HW123759   3.703   4.493   0.938
 7620SOL    HW223760   3.580   4.537   0.839
 7621SOL     OW23761   0.243   5.672   1.052
 7621SOL    HW123762   0.253   5.582   1.010
 7621SOL    HW223763   0.296   5.739   1.000
 7622SOL     OW23764   4.582   4.603   0.616
 7622SOL    HW123765   4.666   4.657   0.610
 7622SOL    HW223766   4.527   4.616   0.534
 7623SOL     OW23767   4.098   4.884   1.434
 7623SOL    HW123768   4.106   4.940   1.352
 7623SOL    HW223769   4.064   4.793   1.410
 7624SOL     OW23770   0.478   2.320   1.942
 7624SOL    HW123771   0.414   2.280   2.007
 7624SOL    HW223772   0.501   2.253   1.872
 7625SOL     OW23773   5.224   1.829   0.504
 7625SOL    HW123774   5.163   1.810   0.426
 7625SOL    HW223775   5.185   1.790   0.587
 7626SOL     OW23776   5.828   0.367   5.947
 7626SOL    HW123777   5.782   0.336   6.031
 7626SOL    HW223778   5.777   0.335   5.868
 7627SOL     OW23779   3.285   2.396   0.110
 7627SOL    HW123780   3.329   2.355   0.190
 7627SOL    HW223781   3.268   2.493   0.127
 7628SOL     OW23782   3.445   2.171   0.722
 7628SOL    HW123783   3.399   2.249   0.680
 7628SOL    HW223784   3.531   2.202   0.762
 7629SOL     OW23785   5.571   3.142   3.751
 7629SOL    HW123786   5.616   3.212   3.697
 7629SOL    HW223787   5.486   3.114   3.706
 7630SOL     OW23788   1.446   0.508   5.009
 7630SOL    HW123789   1.464   0.436   4.941
 7630SOL    HW223790   1.349   0.510   5.031
 7631SOL     OW23791   1.975   0.182   4.926
 7631SOL    HW123792   2.066   0.188   4.967
 7631SOL    HW223793   1.979   0.127   4.843
 7632SOL     OW23794   4.662   5.912   1.038
 7632SOL    HW123795   4.623   6.004   1.036
 7632SOL    HW223796   4.615   5.854   0.972
 7633SOL     OW23797   5.608   0.824   0.970
 7633SOL    HW123798   5.554   0.880   1.033
 7633SOL    HW223799   5.552   0.800   0.891
 7634SOL     OW23800   1.537   2.208   0.835
 7634SOL    HW123801   1.594   2.160   0.902
 7634SOL    HW223802   1.461   2.149   0.808
 7635SOL     OW23803   2.836   5.092   5.015
 7635SOL    HW123804   2.741   5.111   4.990
 7635SOL    HW223805   2.896   5.121   4.940
 7636SOL     OW23806   0.639   4.909   4.624
 7636SOL    HW123807   0.684   4.997   4.639
 7636SOL    HW223808   0.685   4.839   4.680
 7637SOL     OW23809   0.355   6.589   4.361
 7637SOL    HW123810   0.301   6.510   4.332
 7637SOL    HW223811   0.452   6.572   4.343
 7638SOL     OW23812   0.856   5.034   1.856
 7638SOL    HW123813   0.770   5.078   1.828
 7638SOL    HW223814   0.857   5.022   1.955
 7639SOL     OW23815   0.871   0.889   0.249
 7639SOL    HW123816   0.796   0.839   0.293
 7639SOL    HW223817   0.835   0.941   0.171
 7640SOL     OW23818   3.035   0.978   6.697
 7640SOL    HW123819   2.989   1.054   6.650
 7640SOL    HW223820   3.029   0.992   6.795
 7641SOL     OW23821   6.488   4.149   2.863
 7641SOL    HW123822   6.507   4.159   2.765
 7641SOL    HW223823   6.483   4.052   2.886
 7642SOL     OW23824   5.722   1.560   3.411
 7642SOL    HW123825   5.639   1.581   3.359
 7642SOL    HW223826   5.803   1.581   3.357
 7643SOL     OW23827   5.073   2.699   3.024
 7643SOL    HW123828   5.096   2.775   2.963
 7643SOL    HW223829   5.136   2.699   3.102
 7644SOL     OW23830   4.612   3.190   1.443
 7644SOL    HW123831   4.529   3.153   1.402
 7644SOL    HW223832   4.677   3.212   1.370
 7645SOL     OW23833   3.338   4.157   5.930
 7645SOL    HW123834   3.344   4.087   6.001
 7645SOL    HW223835   3.409   4.141   5.861
 7646SOL     OW23836   1.248   2.770   2.759
 7646SOL    HW123837   1.335   2.722   2.747
 7646SOL    HW223838   1.174   2.716   2.719
 7647SOL     OW23839   6.953   3.115   4.962
 7647SOL    HW123840   6.941   3.214   4.956
 7647SOL    HW223841   6.868   3.074   4.996
 7648SOL     OW23842   1.885   2.200   3.194
 7648SOL    HW123843   1.804   2.245   3.234
 7648SOL    HW223844   1.907   2.118   3.248
 7649SOL     OW23845   6.696   1.143   4.418
 7649SOL    HW123846   6.632   1.190   4.479
 7649SOL    HW223847   6.742   1.070   4.468
 7650SOL     OW23848   3.986   0.999   1.480
 7650SOL    HW123849   4.003   0.920   1.422
 7650SOL    HW223850   4.022   0.982   1.571
 7651SOL     OW23851   2.482   5.023   4.535
 7651SOL    HW123852   2.482   5.000   4.438
 7651SOL    HW223853   2.576   5.030   4.568
 7652SOL     OW23854   6.334   1.490   4.535
 7652SOL    HW123855   6.286   1.437   4.604
 7652SOL    HW223856   6.432   1.490   4.554
 7653SOL     OW23857   0.566   2.043   6.753
 7653SOL    HW123858   0.620   2.060   6.835
 7653SOL    HW223859   0.514   2.125   6.729
 7654SOL     OW23860   6.308   3.382   5.144
 7654SOL    HW123861   6.267   3.467   5.113
 7654SOL    HW223862   6.305   3.378   5.244
 7655SOL     OW23863   2.965   0.688   3.617
 7655SOL    HW123864   3.037   0.709   3.551
 7655SOL    HW223865   2.884   0.742   3.595
 7656SOL     OW23866   6.934   3.936   6.332
 7656SOL    HW123867   6.896   3.894   6.250
 7656SOL    HW223868   0.007   3.967   6.314
 7657SOL     OW23869   1.406   4.144   4.967
 7657SOL    HW123870   1.477   4.187   5.023
 7657SOL    HW223871   1.333   4.210   4.949
 7658SOL     OW23872   2.546   0.528   0.658
 7658SOL    HW123873   2.501   0.616   0.641
 7658SOL    HW223874   2.479   0.461   0.688
 7659SOL     OW23875   4.773   3.922   5.226
 7659SOL    HW123876   4.867   3.893   5.205
 7659SOL    HW223877   4.765   4.021   5.212
 7660SOL     OW23878   0.027   5.167   4.374
 7660SOL    HW123879   0.074   5.253   4.353
 7660SOL    HW223880   0.039   5.146   4.471
 7661SOL     OW23881   4.544   2.252   5.848
 7661SOL    HW123882   4.631   2.300   5.842
 7661SOL    HW223883   4.559   2.160   5.885
 7662SOL     OW23884   1.422   1.876   2.253
 7662SOL    HW123885   1.414   1.778   2.270
 7662SOL    HW223886   1.482   1.917   2.322
 7663SOL     OW23887   5.844   4.959   5.726
 7663SOL    HW123888   5.826   5.048   5.769
 7663SOL    HW223889   5.757   4.918   5.698
 7664SOL     OW23890   4.200   1.155   2.853
 7664SOL    HW123891   4.130   1.169   2.783
 7664SOL    HW223892   4.157   1.128   2.939
 7665SOL     OW23893   4.207   2.345   4.046
 7665SOL    HW123894   4.164   2.304   3.965
 7665SOL    HW223895   4.142   2.406   4.091
 7666SOL     OW23896   6.137   5.408   3.560
 7666SOL    HW123897   6.227   5.446   3.579
 7666SOL    HW223898   6.111   5.344   3.632
 7667SOL     OW23899   4.939   6.021   2.354
 7667SOL    HW123900   4.852   6.053   2.391
 7667SOL    HW223901   4.941   5.921   2.354
 7668SOL     OW23902   2.048   5.168   0.675
 7668SOL    HW123903   2.119   5.131   0.735
 7668SOL    HW223904   1.958   5.146   0.713
 7669SOL     OW23905   3.238   6.185   5.991
 7669SOL    HW123906   3.241   6.227   5.901
 7669SOL    HW223907   3.296   6.237   6.054
 7670SOL     OW23908   0.471   6.171   0.121
 7670SOL    HW123909   0.518   6.140   0.203
 7670SOL    HW223910   0.404   6.103   0.093
 7671SOL     OW23911   5.230   0.432   1.844
 7671SOL    HW123912   5.324   0.461   1.823
 7671SOL    HW223913   5.184   0.504   1.896
 7672SOL     OW23914   5.353   4.728   2.958
 7672SOL    HW123915   5.431   4.768   3.005
 7672SOL    HW223916   5.364   4.629   2.954
 7673SOL     OW23917   1.129   5.748   3.721
 7673SOL    HW123918   1.189   5.808   3.668
 7673SOL    HW223919   1.178   5.715   3.801
 7674SOL     OW23920   3.483   0.119   4.240
 7674SOL    HW123921   3.429   0.180   4.181
 7674SOL    HW223922   3.423   0.078   4.309
 7675SOL     OW23923   3.624   6.486   3.020
 7675SOL    HW123924   3.616   6.534   2.933
 7675SOL    HW223925   3.705   6.428   3.018
 7676SOL     OW23926   2.990   3.296   5.675
 7676SOL    HW123927   2.975   3.202   5.645
 7676SOL    HW223928   3.089   3.312   5.686
 7677SOL     OW23929   6.132   4.252   1.333
 7677SOL    HW123930   6.057   4.292   1.386
 7677SOL    HW223931   6.117   4.154   1.323
 7678SOL     OW23932   1.648   1.864   5.675
 7678SOL    HW123933   1.670   1.947   5.626
 7678SOL    HW223934   1.550   1.846   5.670
 7679SOL     OW23935   2.307   5.505   4.810
 7679SOL    HW123936   2.400   5.542   4.811
 7679SOL    HW223937   2.311   5.406   4.795
 7680SOL     OW23938   2.025   0.543   5.181
 7680SOL    HW123939   1.958   0.563   5.109
 7680SOL    HW223940   2.117   0.550   5.143
 7681SOL     OW23941   3.085   2.899   6.272
 7681SOL    HW123942   3.133   2.950   6.200
 7681SOL    HW223943   3.152   2.850   6.328
 7682SOL     OW23944   2.937   1.703   3.230
 7682SOL    HW123945   2.971   1.611   3.209
 7682SOL    HW223946   2.842   1.697   3.259
 7683SOL     OW23947   0.162   1.273   4.521
 7683SOL    HW123948   0.094   1.205   4.546
 7683SOL    HW223949   0.134   1.320   4.437
 7684SOL     OW23950   4.102   2.577   1.724
 7684SOL    HW123951   4.034   2.504   1.717
 7684SOL    HW223952   4.057   2.666   1.727
 7685SOL     OW23953   3.280   0.520   0.369
 7685SOL    HW123954   3.244   0.611   0.347
 7685SOL    HW223955   3.378   0.526   0.385
 7686SOL     OW23956   4.539   0.248   4.723
 7686SOL    HW123957   4.543   0.347   4.710
 7686SOL    HW223958   4.539   0.204   4.633
 7687SOL     OW23959   5.544   5.220   4.560
 7687SOL    HW123960   5.596   5.185   4.482
 7687SOL    HW223961   5.487   5.297   4.530
 7688SOL     OW23962   0.633   5.085   6.361
 7688SOL    HW123963   0.687   5.037   6.432
 7688SOL    HW223964   0.546   5.114   6.400
 7689SOL     OW23965   4.465   0.377   1.529
 7689SOL    HW123966   4.409   0.367   1.447
 7689SOL    HW223967   4.544   0.434   1.509
 7690SOL     OW23968   6.377   5.059   0.484
 7690SOL    HW123969   6.430   4.979   0.513
 7690SOL    HW223970   6.381   5.128   0.556
 7691SOL     OW23971   4.472   4.502   3.431
 7691SOL    HW123972   4.534   4.579   3.448
 7691SOL    HW223973   4.521   4.416   3.443
 7692SOL     OW23974   0.982   6.463   2.231
 7692SOL    HW123975   0.943   6.372   2.245
 7692SOL    HW223976   0.933   6.508   2.156
 7693SOL     OW23977   2.494   1.123   0.889
 7693SOL    HW123978   2.430   1.174   0.832
 7693SOL    HW223979   2.587   1.141   0.859
 7694SOL     OW23980   5.853   2.674   4.564
 7694SOL    HW123981   5.875   2.713   4.653
 7694SOL    HW223982   5.811   2.745   4.506
 7695SOL     OW23983   6.381   0.380   3.152
 7695SOL    HW123984   6.433   0.451   3.103
 7695SOL    HW223985   6.390   0.293   3.103
 7696SOL     OW23986   0.645   2.405   6.469
 7696SOL    HW123987   0.640   2.435   6.564
 7696SOL    HW223988   0.553   2.405   6.429
 7697SOL     OW23989   3.720   0.015   2.893
 7697SOL    HW123990   3.678   0.097   2.932
 7697SOL    HW223991   3.816   0.010   2.920
 7698SOL     OW23992   6.416   2.044   6.741
 7698SOL    HW123993   6.322   2.010   6.731
 7698SOL    HW223994   6.417   2.119   6.807
 7699SOL     OW23995   3.497   5.611   6.549
 7699SOL    HW123996   3.540   5.700   6.563
 7699SOL    HW223997   3.452   5.582   6.634
 7700SOL     OW23998   4.842   6.123   2.693
 7700SOL    HW123999   4.821   6.110   2.790
 7700SOL    HW224000   4.790   6.057   2.638
 7701SOL     OW24001   0.412   2.610   6.247
 7701SOL    HW124002   0.384   2.682   6.184
 7701SOL    HW224003   0.381   2.632   6.340
 7702SOL     OW24004   4.706   6.799   5.437
 7702SOL    HW124005   4.619   6.841   5.462
 7702SOL    HW224006   4.782   6.852   5.475
 7703SOL     OW24007   6.281   6.917   4.406
 7703SOL    HW124008   6.372   6.950   4.378
 7703SOL    HW224009   6.211   6.968   4.356
 7704SOL     OW24010   6.106   1.455   3.929
 7704SOL    HW124011   6.102   1.522   4.002
 7704SOL    HW224012   6.192   1.464   3.879
 7705SOL     OW24013   2.190   4.711   0.486
 7705SOL    HW124014   2.131   4.726   0.566
 7705SOL    HW224015   2.239   4.625   0.495
 7706SOL     OW24016   3.655   3.003   2.673
 7706SOL    HW124017   3.710   2.922   2.695
 7706SOL    HW224018   3.664   3.023   2.575
 7707SOL     OW24019   6.566   6.035   7.004
 7707SOL    HW124020   6.509   5.990   0.052
 7707SOL    HW224021   6.659   5.997   7.008
 7708SOL     OW24022   2.630   6.610   4.153
 7708SOL    HW124023   2.554   6.638   4.211
 7708SOL    HW224024   2.710   6.590   4.211
 7709SOL     OW24025   6.639   4.577   0.946
 7709SOL    HW124026   6.651   4.539   0.854
 7709SOL    HW224027   6.637   4.677   0.940
 7710SOL     OW24028   1.754   3.304   0.448
 7710SOL    HW124029   1.735   3.222   0.502
 7710SOL    HW224030   1.763   3.383   0.509
 7711SOL     OW24031   6.685   4.684   5.631
 7711SOL    HW124032   6.688   4.630   5.547
 7711SOL    HW224033   6.590   4.701   5.657
 7712SOL     OW24034   6.565   4.844   5.936
 7712SOL    HW124035   6.618   4.925   5.963
 7712SOL    HW224036   6.476   4.846   5.982
 7713SOL     OW24037   1.792   4.831   0.626
 7713SOL    HW124038   1.720   4.874   0.681
 7713SOL    HW224039   1.881   4.848   0.668
 7714SOL     OW24040   6.703   0.927   4.208
 7714SOL    HW124041   6.699   0.955   4.304
 7714SOL    HW224042   6.631   0.860   4.190
 7715SOL     OW24043   1.925   2.617   6.424
 7715SOL    HW124044   1.983   2.539   6.447
 7715SOL    HW224045   1.842   2.615   6.479
 7716SOL     OW24046   0.670   5.989   6.181
 7716SOL    HW124047   0.702   6.047   6.106
 7716SOL    HW224048   0.740   5.987   6.252
 7717SOL     OW24049   1.614   1.885   6.475
 7717SOL    HW124050   1.624   1.865   6.573
 7717SOL    HW224051   1.572   1.975   6.463
 7718SOL     OW24052   1.499   4.314   2.561
 7718SOL    HW124053   1.461   4.254   2.632
 7718SOL    HW224054   1.562   4.262   2.504
 7719SOL     OW24055   1.799   3.838   4.721
 7719SOL    HW124056   1.845   3.827   4.809
 7719SOL    HW224057   1.716   3.893   4.734
 7720SOL     OW24058   6.296   1.821   6.380
 7720SOL    HW124059   6.367   1.753   6.398
 7720SOL    HW224060   6.275   1.870   6.465
 7721SOL     OW24061   1.340   0.228   2.730
 7721SOL    HW124062   1.263   0.209   2.792
 7721SOL    HW224063   1.322   0.313   2.680
 7722SOL     OW24064   2.276   5.139   4.009
 7722SOL    HW124065   2.219   5.072   4.057
 7722SOL    HW224066   2.333   5.189   4.074
 7723SOL     OW24067   5.096   3.042   6.900
 7723SOL    HW124068   5.108   3.120   6.962
 7723SOL    HW224069   5.013   2.992   6.926
 7724SOL     OW24070   2.879   4.139   1.528
 7724SOL    HW124071   2.873   4.139   1.428
 7724SOL    HW224072   2.850   4.049   1.563
 7725SOL     OW24073   5.709   2.671   2.616
 7725SOL    HW124074   5.791   2.623   2.646
 7725SOL    HW224075   5.638   2.662   2.686
 7726SOL     OW24076   0.716   3.383   6.042
 7726SOL    HW124077   0.754   3.426   6.124
 7726SOL    HW224078   0.737   3.286   6.042
 7727SOL     OW24079   4.919   2.582   2.128
 7727SOL    HW124080   4.960   2.642   2.196
 7727SOL    HW224081   4.826   2.558   2.156
 7728SOL     OW24082   2.149   2.936   5.009
 7728SOL    HW124083   2.245   2.961   5.013
 7728SOL    HW224084   2.130   2.862   5.073
 7729SOL     OW24085   6.111   2.287   3.113
 7729SOL    HW124086   6.103   2.339   3.198
 7729SOL    HW224087   6.170   2.337   3.049
 7730SOL     OW24088   5.957   4.710   5.424
 7730SOL    HW124089   5.991   4.757   5.506
 7730SOL    HW224090   5.857   4.706   5.428
 7731SOL     OW24091   5.788   6.977   0.475
 7731SOL    HW124092   5.842   0.004   0.546
 7731SOL    HW224093   5.838   6.980   0.388
 7732SOL     OW24094   4.604   0.591   6.280
 7732SOL    HW124095   4.584   0.686   6.304
 7732SOL    HW224096   4.574   0.530   6.354
 7733SOL     OW24097   6.454   6.047   2.221
 7733SOL    HW124098   6.375   6.059   2.281
 7733SOL    HW224099   6.529   6.007   2.273
 7734SOL     OW24100   2.838   4.127   5.406
 7734SOL    HW124101   2.797   4.037   5.393
 7734SOL    HW224102   2.891   4.152   5.325
 7735SOL     OW24103   6.376   6.222   0.183
 7735SOL    HW124104   6.291   6.256   0.223
 7735SOL    HW224105   6.371   6.122   0.173
 7736SOL     OW24106   2.943   2.943   0.738
 7736SOL    HW124107   3.008   2.889   0.685
 7736SOL    HW224108   2.984   3.032   0.758
 7737SOL     OW24109   4.322   5.496   0.939
 7737SOL    HW124110   4.317   5.529   1.033
 7737SOL    HW224111   4.337   5.574   0.878
 7738SOL     OW24112   2.861   6.144   6.694
 7738SOL    HW124113   2.870   6.073   6.764
 7738SOL    HW224114   2.768   6.178   6.693
 7739SOL     OW24115   1.483   2.797   1.770
 7739SOL    HW124116   1.399   2.756   1.736
 7739SOL    HW224117   1.549   2.806   1.695
 7740SOL     OW24118   1.073   0.870   3.821
 7740SOL    HW124119   1.030   0.960   3.822
 7740SOL    HW224120   1.059   0.826   3.910
 7741SOL     OW24121   1.872   5.001   6.096
 7741SOL    HW124122   1.858   4.939   6.173
 7741SOL    HW224123   1.969   5.006   6.074
 7742SOL     OW24124   3.763   1.576   4.057
 7742SOL    HW124125   3.765   1.614   4.150
 7742SOL    HW224126   3.758   1.476   4.063
 7743SOL     OW24127   5.321   1.041   6.813
 7743SOL    HW124128   5.368   1.129   6.823
 7743SOL    HW224129   5.231   1.047   6.855
 7744SOL     OW24130   0.692   5.873   4.885
 7744SOL    HW124131   0.656   5.904   4.973
 7744SOL    HW224132   0.789   5.896   4.880
 7745SOL     OW24133   1.545   6.214   0.037
 7745SOL    HW124134   1.514   6.309   0.027
 7745SOL    HW224135   1.539   6.186   0.132
 7746SOL     OW24136   0.903   6.318   0.965
 7746SOL    HW124137   0.972   6.255   1.002
 7746SOL    HW224138   0.891   6.395   1.027
 7747SOL     OW24139   0.168   6.471   0.946
 7747SOL    HW124140   0.153   6.552   1.003
 7747SOL    HW224141   0.199   6.500   0.856
 7748SOL     OW24142   4.055   2.862   6.045
 7748SOL    HW124143   4.062   2.951   5.999
 7748SOL    HW224144   4.097   2.868   6.136
 7749SOL     OW24145   3.689   3.739   3.695
 7749SOL    HW124146   3.672   3.777   3.785
 7749SOL    HW224147   3.602   3.732   3.645
 7750SOL     OW24148   5.784   4.680   6.018
 7750SOL    HW124149   5.756   4.606   6.080
 7750SOL    HW224150   5.709   4.745   6.009
 7751SOL     OW24151   6.851   1.686   4.752
 7751SOL    HW124152   6.854   1.763   4.689
 7751SOL    HW224153   6.831   1.602   4.702
 7752SOL     OW24154   5.701   5.666   5.224
 7752SOL    HW124155   5.785   5.689   5.175
 7752SOL    HW224156   5.693   5.723   5.306
 7753SOL     OW24157   2.492   0.422   4.123
 7753SOL    HW124158   2.490   0.522   4.128
 7753SOL    HW224159   2.576   0.393   4.077
 7754SOL     OW24160   5.679   0.218   1.404
 7754SOL    HW124161   5.662   0.177   1.314
 7754SOL    HW224162   5.602   0.197   1.465
 7755SOL     OW24163   0.108   6.126   5.430
 7755SOL    HW124164   0.017   6.165   5.416
 7755SOL    HW224165   0.158   6.125   5.344
 7756SOL     OW24166   2.735   4.767   2.547
 7756SOL    HW124167   2.835   4.757   2.548
 7756SOL    HW224168   2.711   4.861   2.524
 7757SOL     OW24169   4.742   6.153   5.414
 7757SOL    HW124170   4.762   6.125   5.508
 7757SOL    HW224171   4.644   6.146   5.397
 7758SOL     OW24172   2.313   2.735   6.173
 7758SOL    HW124173   2.224   2.758   6.133
 7758SOL    HW224174   2.341   2.644   6.141
 7759SOL     OW24175   2.178   0.529   4.316
 7759SOL    HW124176   2.142   0.460   4.378
 7759SOL    HW224177   2.129   0.615   4.330
 7760SOL     OW24178   5.335   3.166   2.033
 7760SOL    HW124179   5.415   3.120   2.071
 7760SOL    HW224180   5.357   3.262   2.014
 7761SOL     OW24181   3.525   6.992   6.464
 7761SOL    HW124182   3.524   0.066   6.497
 7761SOL    HW224183   3.442   6.945   6.495
 7762SOL     OW24184   4.090   1.318   0.335
 7762SOL    HW124185   3.995   1.287   0.334
 7762SOL    HW224186   4.137   1.285   0.254
 7763SOL     OW24187   1.172   1.825   1.021
 7763SOL    HW124188   1.152   1.899   0.957
 7763SOL    HW224189   1.221   1.862   1.101
 7764SOL     OW24190   3.907   3.375   2.446
 7764SOL    HW124191   3.916   3.309   2.520
 7764SOL    HW224192   3.828   3.434   2.463
 7765SOL     OW24193   6.283   3.475   3.519
 7765SOL    HW124194   6.258   3.534   3.442
 7765SOL    HW224195   6.376   3.497   3.549
 7766SOL     OW24196   6.015   1.511   0.013
 7766SOL    HW124197   5.933   1.546   6.990
 7766SOL    HW224198   6.043   1.572   0.087
 7767SOL     OW24199   3.962   6.296   3.721
 7767SOL    HW124200   4.033   6.253   3.664
 7767SOL    HW224201   3.872   6.261   3.694
 7768SOL     OW24202   3.343   4.880   2.389
 7768SOL    HW124203   3.430   4.852   2.431
 7768SOL    HW224204   3.357   4.898   2.292
 7769SOL     OW24205   4.537   2.175   1.028
 7769SOL    HW124206   4.514   2.090   0.980
 7769SOL    HW224207   4.548   2.155   1.126
 7770SOL     OW24208   3.114   4.887   1.700
 7770SOL    HW124209   3.208   4.855   1.714
 7770SOL    HW224210   3.088   4.947   1.775
 7771SOL     OW24211   2.480   1.852   4.908
 7771SOL    HW124212   2.510   1.762   4.875
 7771SOL    HW224213   2.522   1.923   4.851
 7772SOL     OW24214   4.872   0.991   4.271
 7772SOL    HW124215   4.923   1.072   4.244
 7772SOL    HW224216   4.930   0.933   4.329
 7773SOL     OW24217   4.038   4.117   6.023
 7773SOL    HW124218   3.987   4.032   6.035
 7773SOL    HW224219   4.063   4.128   5.927
 7774SOL     OW24220   5.234   1.305   6.024
 7774SOL    HW124221   5.215   1.398   6.056
 7774SOL    HW224222   5.169   1.282   5.952
 7775SOL     OW24223   3.708   6.671   3.286
 7775SOL    HW124224   3.626   6.728   3.291
 7775SOL    HW224225   3.683   6.579   3.258
 7776SOL     OW24226   3.561   3.246   5.942
 7776SOL    HW124227   3.534   3.315   5.875
 7776SOL    HW224228   3.500   3.251   6.021
 7777SOL     OW24229   2.182   1.061   6.401
 7777SOL    HW124230   2.149   1.007   6.324
 7777SOL    HW224231   2.123   1.141   6.414
 7778SOL     OW24232   5.592   0.437   0.604
 7778SOL    HW124233   5.654   0.383   0.548
 7778SOL    HW224234   5.563   0.383   0.683
 7779SOL     OW24235   3.063   2.208   0.926
 7779SOL    HW124236   3.113   2.141   0.981
 7779SOL    HW224237   3.080   2.300   0.962
 7780SOL     OW24238   1.024   6.079   4.047
 7780SOL    HW124239   0.965   5.999   4.058
 7780SOL    HW224240   1.115   6.059   4.082
 7781SOL     OW24241   1.605   3.602   5.862
 7781SOL    HW124242   1.620   3.655   5.779
 7781SOL    HW224243   1.662   3.638   5.936
 7782SOL     OW24244   2.290   4.032   6.415
 7782SOL    HW124245   2.221   4.082   6.362
 7782SOL    HW224246   2.348   4.097   6.463
 7783SOL     OW24247   2.355   6.346   6.646
 7783SOL    HW124248   2.333   6.396   6.730
 7783SOL    HW224249   2.339   6.405   6.567
 7784SOL     OW24250   0.918   2.738   0.002
 7784SOL    HW124251   0.821   2.721   7.005
 7784SOL    HW224252   0.954   2.666   0.061
 7785SOL     OW24253   2.388   6.900   3.370
 7785SOL    HW124254   2.472   6.846   3.356
 7785SOL    HW224255   2.410   6.998   3.361
 7786SOL     OW24256   3.097   4.782   5.155
 7786SOL    HW124257   3.053   4.867   5.128
 7786SOL    HW224258   3.030   4.708   5.156
 7787SOL     OW24259   2.450   2.705   5.144
 7787SOL    HW124260   2.449   2.791   5.092
 7787SOL    HW224261   2.434   2.628   5.083
 7788SOL     OW24262   1.596   1.914   1.626
 7788SOL    HW124263   1.524   1.856   1.587
 7788SOL    HW224264   1.663   1.936   1.555
 7789SOL     OW24265   3.031   0.516   0.925
 7789SOL    HW124266   3.014   0.460   1.006
 7789SOL    HW224267   2.964   0.493   0.854
 7790SOL     OW24268   6.641   4.359   2.963
 7790SOL    HW124269   6.600   4.277   2.924
 7790SOL    HW224270   6.708   4.333   3.032
 7791SOL     OW24271   2.493   5.931   4.798
 7791SOL    HW124272   2.481   5.936   4.897
 7791SOL    HW224273   2.463   6.016   4.756
 7792SOL     OW24274   1.600   5.846   6.530
 7792SOL    HW124275   1.697   5.827   6.546
 7792SOL    HW224276   1.581   5.840   6.432
 7793SOL     OW24277   1.446   1.213   5.454
 7793SOL    HW124278   1.473   1.222   5.358
 7793SOL    HW224279   1.520   1.247   5.513
 7794SOL     OW24280   4.998   5.021   4.450
 7794SOL    HW124281   4.960   4.934   4.419
 7794SOL    HW224282   5.097   5.022   4.431
 7795SOL     OW24283   1.828   4.268   5.634
 7795SOL    HW124284   1.826   4.368   5.644
 7795SOL    HW224285   1.910   4.241   5.585
 7796SOL     OW24286   3.950   3.829   3.669
 7796SOL    HW124287   3.869   3.772   3.658
 7796SOL    HW224288   3.958   3.858   3.765
 7797SOL     OW24289   0.342   6.242   3.186
 7797SOL    HW124290   0.407   6.313   3.159
 7797SOL    HW224291   0.314   6.256   3.281
 7798SOL     OW24292   2.990   5.490   0.042
 7798SOL    HW124293   3.029   5.418   0.100
 7798SOL    HW224294   3.054   5.567   0.038
 7799SOL     OW24295   6.727   5.793   1.284
 7799SOL    HW124296   6.772   5.858   1.223
 7799SOL    HW224297   6.761   5.701   1.266
 7800SOL     OW24298   0.488   5.011   1.371
 7800SOL    HW124299   0.422   4.952   1.418
 7800SOL    HW224300   0.555   5.045   1.436
 7801SOL     OW24301   2.189   1.049   0.214
 7801SOL    HW124302   2.133   0.999   0.280
 7801SOL    HW224303   2.191   0.999   0.127
 7802SOL     OW24304   6.193   2.741   1.929
 7802SOL    HW124305   6.210   2.799   2.008
 7802SOL    HW224306   6.104   2.697   1.937
 7803SOL     OW24307   4.335   3.794   5.699
 7803SOL    HW124308   4.409   3.852   5.664
 7803SOL    HW224309   4.317   3.818   5.794
 7804SOL     OW24310   5.761   1.433   4.442
 7804SOL    HW124311   5.678   1.455   4.492
 7804SOL    HW224312   5.793   1.514   4.393
 7805SOL     OW24313   5.580   2.072   1.555
 7805SOL    HW124314   5.603   2.080   1.458
 7805SOL    HW224315   5.502   2.130   1.576
 7806SOL     OW24316   5.289   2.893   6.013
 7806SOL    HW124317   5.282   2.971   6.076
 7806SOL    HW224318   5.220   2.903   5.941
 7807SOL     OW24319   0.074   4.672   6.340
 7807SOL    HW124320   0.007   4.655   6.412
 7807SOL    HW224321   0.165   4.647   6.372
 7808SOL     OW24322   0.528   1.486   4.907
 7808SOL    HW124323   0.568   1.473   4.998
 7808SOL    HW224324   0.600   1.478   4.838
 7809SOL     OW24325   2.214   5.638   4.536
 7809SOL    HW124326   2.255   5.650   4.446
 7809SOL    HW224327   2.226   5.543   4.566
 7810SOL     OW24328   3.085   0.973   5.453
 7810SOL    HW124329   3.131   0.992   5.540
 7810SOL    HW224330   2.986   0.962   5.469
 7811SOL     OW24331   5.852   4.741   4.034
 7811SOL    HW124332   5.803   4.789   3.962
 7811SOL    HW224333   5.883   4.652   4.000
 7812SOL     OW24334   1.499   1.899   4.329
 7812SOL    HW124335   1.435   1.967   4.295
 7812SOL    HW224336   1.449   1.815   4.351
 7813SOL     OW24337   5.311   2.911   6.800
 7813SOL    HW124338   5.224   2.951   6.827
 7813SOL    HW224339   5.386   2.973   6.826
 7814SOL     OW24340   6.991   2.585   3.514
 7814SOL    HW124341   7.002   2.620   3.608
 7814SOL    HW224342   0.008   2.492   3.508
 7815SOL     OW24343   5.228   1.562   6.791
 7815SOL    HW124344   5.291   1.506   6.737
 7815SOL    HW224345   5.150   1.588   6.735
 7816SOL     OW24346   0.724   3.808   5.871
 7816SOL    HW124347   0.765   3.898   5.859
 7816SOL    HW224348   0.742   3.752   5.790
 7817SOL     OW24349   5.859   4.136   4.369
 7817SOL    HW124350   5.806   4.193   4.432
 7817SOL    HW224351   5.807   4.120   4.286
 7818SOL     OW24352   5.833   6.890   1.315
 7818SOL    HW124353   5.859   6.843   1.400
 7818SOL    HW224354   5.740   6.927   1.325
 7819SOL     OW24355   0.243   2.834   1.398
 7819SOL    HW124356   0.272   2.924   1.431
 7819SOL    HW224357   0.239   2.770   1.475
 7820SOL     OW24358   1.961   1.758   5.417
 7820SOL    HW124359   1.954   1.679   5.357
 7820SOL    HW224360   1.874   1.808   5.417
 7821SOL     OW24361   4.064   5.582   0.865
 7821SOL    HW124362   4.148   5.538   0.898
 7821SOL    HW224363   4.058   5.675   0.902
 7822SOL     OW24364   0.752   6.459   5.384
 7822SOL    HW124365   0.836   6.509   5.362
 7822SOL    HW224366   0.674   6.503   5.338
 7823SOL     OW24367   2.208   4.301   4.714
 7823SOL    HW124368   2.218   4.401   4.710
 7823SOL    HW224369   2.243   4.262   4.629
 7824SOL     OW24370   6.969   2.462   5.268
 7824SOL    HW124371   7.004   2.536   5.211
 7824SOL    HW224372   6.876   2.484   5.297
 7825SOL     OW24373   2.276   2.855   6.686
 7825SOL    HW124374   2.186   2.841   6.645
 7825SOL    HW224375   2.267   2.861   6.785
 7826SOL     OW24376   6.657   2.157   0.349
 7826SOL    HW124377   6.636   2.181   0.444
 7826SOL    HW224378   6.624   2.064   0.330
 7827SOL     OW24379   0.279   5.916   2.842
 7827SOL    HW124380   0.370   5.916   2.799
 7827SOL    HW224381   0.252   6.010   2.862
 7828SOL     OW24382   0.127   3.911   6.621
 7828SOL    HW124383   0.191   3.941   6.551
 7828SOL    HW224384   0.061   3.848   6.581
 7829SOL     OW24385   3.310   3.153   1.366
 7829SOL    HW124386   3.273   3.168   1.458
 7829SOL    HW224387   3.315   3.055   1.348
 7830SOL     OW24388   3.130   5.353   4.910
 7830SOL    HW124389   3.200   5.379   4.843
 7830SOL    HW224390   3.132   5.254   4.923
 7831SOL     OW24391   2.074   1.844   1.144
 7831SOL    HW124392   2.092   1.881   1.235
 7831SOL    HW224393   1.992   1.788   1.146
 7832SOL     OW24394   5.453   0.598   4.753
 7832SOL    HW124395   5.373   0.563   4.704
 7832SOL    HW224396   5.437   0.693   4.779
 7833SOL     OW24397   1.396   0.069   3.959
 7833SOL    HW124398   1.405   0.012   4.041
 7833SOL    HW224399   1.373   0.162   3.986
 7834SOL     OW24400   6.297   2.231   4.275
 7834SOL    HW124401   6.298   2.231   4.175
 7834SOL    HW224402   6.268   2.142   4.309
 7835SOL     OW24403   4.192   1.587   5.495
 7835SOL    HW124404   4.254   1.664   5.482
 7835SOL    HW224405   4.195   1.528   5.414
 7836SOL     OW24406   3.985   3.997   5.387
 7836SOL    HW124407   3.945   4.008   5.296
 7836SOL    HW224408   4.084   4.004   5.382
 7837SOL     OW24409   5.879   6.675   0.368
 7837SOL    HW124410   5.958   6.649   0.422
 7837SOL    HW224411   5.886   6.771   0.341
 7838SOL     OW24412   5.656   5.524   1.291
 7838SOL    HW124413   5.610   5.492   1.208
 7838SOL    HW224414   5.754   5.506   1.283
 7839SOL     OW24415   6.298   4.659   4.532
 7839SOL    HW124416   6.238   4.725   4.578
 7839SOL    HW224417   6.380   4.706   4.500
 7840SOL     OW24418   1.475   4.275   3.376
 7840SOL    HW124419   1.484   4.370   3.404
 7840SOL    HW224420   1.397   4.233   3.423
 7841SOL     OW24421   5.031   1.846   6.459
 7841SOL    HW124422   4.998   1.784   6.529
 7841SOL    HW224423   4.959   1.911   6.435
 7842SOL     OW24424   2.235   1.278   2.811
 7842SOL    HW124425   2.296   1.203   2.836
 7842SOL    HW224426   2.265   1.362   2.856
 7843SOL     OW24427   6.626   6.800   4.193
 7843SOL    HW124428   6.704   6.840   4.241
 7843SOL    HW224429   6.656   6.722   4.138
 7844SOL     OW24430   3.669   1.116   2.620
 7844SOL    HW124431   3.572   1.091   2.614
 7844SOL    HW224432   3.682   1.183   2.693
 7845SOL     OW24433   5.885   1.894   1.903
 7845SOL    HW124434   5.926   1.904   1.813
 7845SOL    HW224435   5.804   1.835   1.897
 7846SOL     OW24436   1.554   2.698   0.475
 7846SOL    HW124437   1.583   2.774   0.416
 7846SOL    HW224438   1.558   2.613   0.424
 7847SOL     OW24439   6.111   2.511   3.848
 7847SOL    HW124440   6.191   2.538   3.902
 7847SOL    HW224441   6.071   2.428   3.888
 7848SOL     OW24442   2.699   4.453   0.948
 7848SOL    HW124443   2.757   4.392   1.001
 7848SOL    HW224444   2.614   4.405   0.924
 7849SOL     OW24445   5.440   3.314   6.029
 7849SOL    HW124446   5.511   3.253   6.063
 7849SOL    HW224447   5.451   3.404   6.072
 7850SOL     OW24448   6.885   1.546   3.377
 7850SOL    HW124449   6.815   1.617   3.389
 7850SOL    HW224450   6.843   1.456   3.389
 7851SOL     OW24451   1.335   3.905   1.404
 7851SOL    HW124452   1.346   3.958   1.320
 7851SOL    HW224453   1.316   3.967   1.480
 7852SOL     OW24454   3.219   1.657   0.303
 7852SOL    HW124455   3.219   1.624   0.398
 7852SOL    HW224456   3.162   1.739   0.295
 7853SOL     OW24457   3.915   3.154   1.468
 7853SOL    HW124458   3.897   3.056   1.462
 7853SOL    HW224459   4.006   3.174   1.432
 7854SOL     OW24460   4.312   1.804   6.155
 7854SOL    HW124461   4.309   1.818   6.056
 7854SOL    HW224462   4.331   1.707   6.174
 7855SOL     OW24463   5.155   6.712   4.605
 7855SOL    HW124464   5.181   6.617   4.589
 7855SOL    HW224465   5.116   6.721   4.697
 7856SOL     OW24466   1.810   4.683   4.800
 7856SOL    HW124467   1.884   4.682   4.733
 7856SOL    HW224468   1.848   4.679   4.892
 7857SOL     OW24469   5.445   4.123   0.470
 7857SOL    HW124470   5.433   4.219   0.444
 7857SOL    HW224471   5.369   4.095   0.529
 7858SOL     OW24472   0.197   5.494   5.770
 7858SOL    HW124473   0.211   5.459   5.677
 7858SOL    HW224474   0.099   5.497   5.789
 7859SOL     OW24475   4.984   3.209   6.212
 7859SOL    HW124476   4.939   3.123   6.187
 7859SOL    HW224477   4.935   3.251   6.288
 7860SOL     OW24478   3.093   1.156   4.571
 7860SOL    HW124479   3.082   1.058   4.557
 7860SOL    HW224480   3.005   1.202   4.555
 7861SOL     OW24481   2.560   5.655   1.746
 7861SOL    HW124482   2.475   5.707   1.734
 7861SOL    HW224483   2.606   5.647   1.658
 7862SOL     OW24484   2.985   5.662   1.946
 7862SOL    HW124485   3.080   5.653   1.976
 7862SOL    HW224486   2.942   5.572   1.945
 7863SOL     OW24487   6.788   4.341   3.469
 7863SOL    HW124488   6.772   4.439   3.479
 7863SOL    HW224489   6.765   4.294   3.554
 7864SOL     OW24490   2.162   6.040   6.121
 7864SOL    HW124491   2.182   6.134   6.092
 7864SOL    HW224492   2.064   6.030   6.138
 7865SOL     OW24493   5.945   6.172   3.999
 7865SOL    HW124494   5.897   6.258   3.981
 7865SOL    HW224495   5.996   6.179   4.084
 7866SOL     OW24496   1.792   0.764   6.001
 7866SOL    HW124497   1.799   0.813   6.088
 7866SOL    HW224498   1.871   0.787   5.943
 7867SOL     OW24499   5.518   0.470   4.118
 7867SOL    HW124500   5.457   0.546   4.098
 7867SOL    HW224501   5.606   0.485   4.072
 7868SOL     OW24502   4.078   5.862   0.923
 7868SOL    HW124503   4.112   5.926   0.992
 7868SOL    HW224504   4.003   5.905   0.873
 7869SOL     OW24505   5.771   4.471   5.840
 7869SOL    HW124506   5.788   4.547   5.903
 7869SOL    HW224507   5.683   4.484   5.795
 7870SOL     OW24508   4.222   6.397   5.145
 7870SOL    HW124509   4.313   6.425   5.111
 7870SOL    HW224510   4.163   6.378   5.067
 7871SOL     OW24511   5.327   1.392   2.472
 7871SOL    HW124512   5.420   1.359   2.481
 7871SOL    HW224513   5.325   1.491   2.486
 7872SOL     OW24514   1.752   5.033   2.653
 7872SOL    HW124515   1.746   5.016   2.752
 7872SOL    HW224516   1.753   5.132   2.637
 7873SOL     OW24517   6.805   1.324   0.790
 7873SOL    HW124518   6.823   1.420   0.768
 7873SOL    HW224519   6.884   1.269   0.763
 7874SOL     OW24520   5.720   2.449   0.934
 7874SOL    HW124521   5.649   2.398   0.885
 7874SOL    HW224522   5.699   2.447   1.032
 7875SOL     OW24523   3.793   4.195   6.781
 7875SOL    HW124524   3.835   4.211   6.871
 7875SOL    HW224525   3.814   4.270   6.720
 7876SOL     OW24526   0.766   6.912   2.587
 7876SOL    HW124527   0.809   7.001   2.601
 7876SOL    HW224528   0.667   6.920   2.601
 7877SOL     OW24529   6.417   1.805   2.920
 7877SOL    HW124530   6.437   1.723   2.865
 7877SOL    HW224531   6.379   1.777   3.008
 7878SOL     OW24532   4.690   4.282   3.484
 7878SOL    HW124533   4.741   4.324   3.409
 7878SOL    HW224534   4.724   4.319   3.571
 7879SOL     OW24535   2.885   5.258   3.815
 7879SOL    HW124536   2.866   5.191   3.743
 7879SOL    HW224537   2.861   5.350   3.782
 7880SOL     OW24538   2.529   3.969   1.656
 7880SOL    HW124539   2.448   3.966   1.598
 7880SOL    HW224540   2.561   4.063   1.666
 7881SOL     OW24541   5.029   3.628   4.546
 7881SOL    HW124542   4.966   3.699   4.515
 7881SOL    HW224543   5.019   3.614   4.644
 7882SOL     OW24544   2.477   3.595   1.264
 7882SOL    HW124545   2.462   3.497   1.255
 7882SOL    HW224546   2.522   3.614   1.351
 7883SOL     OW24547   0.487   0.957   5.267
 7883SOL    HW124548   0.437   0.980   5.184
 7883SOL    HW224549   0.518   0.862   5.262
 7884SOL     OW24550   0.432   3.093   4.770
 7884SOL    HW124551   0.512   3.152   4.754
 7884SOL    HW224552   0.426   3.070   4.867
 7885SOL     OW24553   6.075   5.356   0.587
 7885SOL    HW124554   6.027   5.444   0.594
 7885SOL    HW224555   6.065   5.321   0.494
 7886SOL     OW24556   4.842   5.567   0.336
 7886SOL    HW124557   4.846   5.481   0.285
 7886SOL    HW224558   4.757   5.615   0.315
 7887SOL     OW24559   4.460   1.675   6.874
 7887SOL    HW124560   4.534   1.733   6.839
 7887SOL    HW224561   4.499   1.607   6.937
 7888SOL     OW24562   5.021   0.400   4.690
 7888SOL    HW124563   5.071   0.474   4.646
 7888SOL    HW224564   4.946   0.370   4.631
 7889SOL     OW24565   0.200   5.527   2.231
 7889SOL    HW124566   0.230   5.583   2.308
 7889SOL    HW224567   0.104   5.545   2.211
 7890SOL     OW24568   2.245   4.095   2.090
 7890SOL    HW124569   2.191   4.170   2.052
 7890SOL    HW224570   2.290   4.126   2.174
 7891SOL     OW24571   2.562   4.609   2.250
 7891SOL    HW124572   2.588   4.566   2.163
 7891SOL    HW224573   2.515   4.695   2.232
 7892SOL     OW24574   1.911   2.538   5.454
 7892SOL    HW124575   1.987   2.478   5.479
 7892SOL    HW224576   1.900   2.539   5.355
 7893SOL     OW24577   5.759   6.544   0.750
 7893SOL    HW124578   5.856   6.567   0.750
 7893SOL    HW224579   5.714   6.593   0.674
 7894SOL     OW24580   2.330   6.192   2.202
 7894SOL    HW124581   2.256   6.238   2.252
 7894SOL    HW224582   2.392   6.149   2.267
 7895SOL     OW24583   6.025   0.918   4.774
 7895SOL    HW124584   6.044   0.995   4.835
 7895SOL    HW224585   6.111   0.872   4.751
 7896SOL     OW24586   5.238   4.010   5.663
 7896SOL    HW124587   5.285   4.035   5.578
 7896SOL    HW224588   5.167   4.078   5.683
 7897SOL     OW24589   2.128   3.832   6.533
 7897SOL    HW124590   2.202   3.882   6.487
 7897SOL    HW224591   2.160   3.800   6.622
 7898SOL     OW24592   4.163   2.242   3.800
 7898SOL    HW124593   4.205   2.192   3.724
 7898SOL    HW224594   4.063   2.235   3.792
 7899SOL     OW24595   5.751   2.594   2.147
 7899SOL    HW124596   5.666   2.646   2.134
 7899SOL    HW224597   5.731   2.496   2.140
 7900SOL     OW24598   1.626   5.642   1.242
 7900SOL    HW124599   1.562   5.618   1.168
 7900SOL    HW224600   1.719   5.645   1.206
 7901SOL     OW24601   6.568   6.475   6.188
 7901SOL    HW124602   6.580   6.560   6.138
 7901SOL    HW224603   6.618   6.401   6.143
 7902SOL     OW24604   4.674   4.634   0.881
 7902SOL    HW124605   4.592   4.627   0.937
 7902SOL    HW224606   4.654   4.602   0.788
 7903SOL     OW24607   6.564   1.881   0.289
 7903SOL    HW124608   6.585   1.836   0.376
 7903SOL    HW224609   6.501   1.825   0.237
 7904SOL     OW24610   0.392   1.391   2.713
 7904SOL    HW124611   0.362   1.484   2.733
 7904SOL    HW224612   0.481   1.394   2.667
 7905SOL     OW24613   3.811   1.356   1.233
 7905SOL    HW124614   3.800   1.405   1.319
 7905SOL    HW224615   3.839   1.262   1.250
 7906SOL     OW24616   5.693   5.779   6.760
 7906SOL    HW124617   5.601   5.788   6.799
 7906SOL    HW224618   5.709   5.855   6.697
 7907SOL     OW24619   6.685   2.593   3.964
 7907SOL    HW124620   6.623   2.519   3.938
 7907SOL    HW224621   6.638   2.681   3.951
 7908SOL     OW24622   0.065   1.482   3.853
 7908SOL    HW124623   0.097   1.554   3.790
 7908SOL    HW224624   0.014   1.524   3.928
 7909SOL     OW24625   4.761   4.434   4.831
 7909SOL    HW124626   4.767   4.341   4.866
 7909SOL    HW224627   4.666   4.458   4.816
 7910SOL     OW24628   4.480   3.542   5.688
 7910SOL    HW124629   4.512   3.632   5.659
 7910SOL    HW224630   4.474   3.539   5.788
 7911SOL     OW24631   6.685   4.483   0.624
 7911SOL    HW124632   6.759   4.418   0.608
 7911SOL    HW224633   6.657   4.523   0.537
 7912SOL     OW24634   6.162   4.492   6.145
 7912SOL    HW124635   6.208   4.538   6.069
 7912SOL    HW224636   6.128   4.560   6.210
 7913SOL     OW24637   0.055   5.327   6.872
 7913SOL    HW124638   0.113   5.392   6.921
 7913SOL    HW224639   0.040   5.358   6.779
 7914SOL     OW24640   5.929   3.869   1.073
 7914SOL    HW124641   5.948   3.807   0.997
 7914SOL    HW224642   6.016   3.905   1.109
 7915SOL     OW24643   4.262   1.701   3.569
 7915SOL    HW124644   4.224   1.740   3.653
 7915SOL    HW224645   4.196   1.709   3.495
 7916SOL     OW24646   5.335   3.144   5.534
 7916SOL    HW124647   5.356   3.047   5.550
 7916SOL    HW224648   5.266   3.152   5.462
 7917SOL     OW24649   4.143   3.405   4.941
 7917SOL    HW124650   4.099   3.345   5.008
 7917SOL    HW224651   4.228   3.441   4.979
 7918SOL     OW24652   6.409   1.131   2.339
 7918SOL    HW124653   6.314   1.164   2.334
 7918SOL    HW224654   6.416   1.060   2.408
 7919SOL     OW24655   5.472   5.165   2.154
 7919SOL    HW124656   5.543   5.205   2.096
 7919SOL    HW224657   5.515   5.121   2.233
 7920SOL     OW24658   0.310   5.152   1.186
 7920SOL    HW124659   0.252   5.116   1.259
 7920SOL    HW224660   0.405   5.126   1.203
 7921SOL     OW24661   2.726   6.679   1.755
 7921SOL    HW124662   2.721   6.693   1.854
 7921SOL    HW224663   2.685   6.591   1.731
 7922SOL     OW24664   1.017   5.455   6.750
 7922SOL    HW124665   0.944   5.523   6.752
 7922SOL    HW224666   1.102   5.497   6.781
 7923SOL     OW24667   1.331   1.067   3.516
 7923SOL    HW124668   1.391   1.018   3.580
 7923SOL    HW224669   1.237   1.035   3.528
 7924SOL     OW24670   3.239   7.020   3.710
 7924SOL    HW124671   3.141   0.019   3.701
 7924SOL    HW224672   3.251   6.924   3.736
 7925SOL     OW24673   6.214   1.572   6.281
 7925SOL    HW124674   6.146   1.539   6.347
 7925SOL    HW224675   6.230   1.670   6.295
 7926SOL     OW24676   3.014   0.675   2.783
 7926SOL    HW124677   2.925   0.714   2.761
 7926SOL    HW224678   3.080   0.700   2.712
 7927SOL     OW24679   3.884   5.177   5.409
 7927SOL    HW124680   3.919   5.267   5.436
 7927SOL    HW224681   3.954   5.127   5.358
 7928SOL     OW24682   2.324   5.290   3.197
 7928SOL    HW124683   2.354   5.290   3.101
 7928SOL    HW224684   2.226   5.308   3.200
 7929SOL     OW24685   4.107   3.671   4.810
 7929SOL    HW124686   4.135   3.693   4.717
 7929SOL    HW224687   4.099   3.571   4.819
 7930SOL     OW24688   4.219   5.353   3.198
 7930SOL    HW124689   4.194   5.306   3.283
 7930SOL    HW224690   4.263   5.288   3.136
 7931SOL     OW24691   2.260   2.370   0.203
 7931SOL    HW124692   2.217   2.407   0.120
 7931SOL    HW224693   2.358   2.387   0.200
 7932SOL     OW24694   1.819   7.008   0.095
 7932SOL    HW124695   1.749   6.983   0.028
 7932SOL    HW224696   1.831   6.932   0.160
 7933SOL     OW24697   1.073   0.211   6.730
 7933SOL    HW124698   1.089   0.275   6.805
 7933SOL    HW224699   1.141   0.138   6.734
 7934SOL     OW24700   2.882   3.921   0.398
 7934SOL    HW124701   2.788   3.952   0.384
 7934SOL    HW224702   2.892   3.887   0.492
 7935SOL     OW24703   5.063   6.004   0.852
 7935SOL    HW124704   5.057   6.104   0.849
 7935SOL    HW224705   5.019   5.971   0.936
 7936SOL     OW24706   4.155   6.201   3.231
 7936SOL    HW124707   4.128   6.200   3.134
 7936SOL    HW224708   4.253   6.221   3.237
 7937SOL     OW24709   5.844   6.119   5.560
 7937SOL    HW124710   5.821   6.083   5.470
 7937SOL    HW224711   5.768   6.101   5.623
 7938SOL     OW24712   4.104   5.365   4.742
 7938SOL    HW124713   4.203   5.355   4.747
 7938SOL    HW224714   4.071   5.414   4.822
 7939SOL     OW24715   0.472   1.483   5.566
 7939SOL    HW124716   0.490   1.400   5.513
 7939SOL    HW224717   0.445   1.457   5.659
 7940SOL     OW24718   2.199   5.412   1.360
 7940SOL    HW124719   2.170   5.372   1.272
 7940SOL    HW224720   2.125   5.402   1.427
 7941SOL     OW24721   0.249   1.046   0.537
 7941SOL    HW124722   0.180   1.003   0.595
 7941SOL    HW224723   0.299   1.116   0.588
 7942SOL     OW24724   0.457   6.878   1.891
 7942SOL    HW124725   0.556   6.878   1.903
 7942SOL    HW224726   0.413   6.844   1.975
 7943SOL     OW24727   5.500   2.266   0.860
 7943SOL    HW124728   5.408   2.305   0.863
 7943SOL    HW224729   5.533   2.264   0.765
 7944SOL     OW24730   0.261   3.465   1.279
 7944SOL    HW124731   0.201   3.528   1.328
 7944SOL    HW224732   0.222   3.444   1.190
 7945SOL     OW24733   5.326   6.783   2.881
 7945SOL    HW124734   5.371   6.694   2.885
 7945SOL    HW224735   5.388   6.853   2.916
 7946SOL     OW24736   1.777   2.539   6.137
 7946SOL    HW124737   1.829   2.624   6.140
 7946SOL    HW224738   1.681   2.558   6.160
 7947SOL     OW24739   4.069   3.138   6.380
 7947SOL    HW124740   4.135   3.069   6.352
 7947SOL    HW224741   4.012   3.164   6.302
 7948SOL     OW24742   6.690   6.853   0.498
 7948SOL    HW124743   6.623   6.909   0.449
 7948SOL    HW224744   6.758   6.819   0.433
 7949SOL     OW24745   5.098   4.843   3.844
 7949SOL    HW124746   5.197   4.854   3.838
 7949SOL    HW224747   5.068   4.861   3.937
 7950SOL     OW24748   4.202   4.659   3.890
 7950SOL    HW124749   4.187   4.678   3.987
 7950SOL    HW224750   4.116   4.669   3.840
 7951SOL     OW24751   3.277   3.527   0.358
 7951SOL    HW124752   3.274   3.455   0.428
 7951SOL    HW224753   3.285   3.486   0.268
 7952SOL     OW24754   6.385   2.745   0.162
 7952SOL    HW124755   6.384   2.802   0.080
 7952SOL    HW224756   6.444   2.788   0.231
 7953SOL     OW24757   2.395   2.734   3.090
 7953SOL    HW124758   2.412   2.639   3.067
 7953SOL    HW224759   2.457   2.793   3.038
 7954SOL     OW24760   4.558   5.111   5.230
 7954SOL    HW124761   4.639   5.140   5.281
 7954SOL    HW224762   4.542   5.174   5.154
 7955SOL     OW24763   6.932   6.513   6.742
 7955SOL    HW124764   6.901   6.419   6.728
 7955SOL    HW224765   6.898   6.571   6.667
 7956SOL     OW24766   6.686   6.127   3.565
 7956SOL    HW124767   6.593   6.147   3.596
 7956SOL    HW224768   6.750   6.137   3.641
 7957SOL     OW24769   1.268   1.600   0.562
 7957SOL    HW124770   1.320   1.515   0.572
 7957SOL    HW224771   1.177   1.588   0.602
 7958SOL     OW24772   3.085   5.665   3.931
 7958SOL    HW124773   3.183   5.651   3.915
 7958SOL    HW224774   3.033   5.637   3.851
 7959SOL     OW24775   6.196   4.826   0.491
 7959SOL    HW124776   6.292   4.848   0.508
 7959SOL    HW224777   6.142   4.851   0.571
 7960SOL     OW24778   2.746   0.850   1.397
 7960SOL    HW124779   2.816   0.898   1.345
 7960SOL    HW224780   2.785   0.817   1.483
 7961SOL     OW24781   1.349   5.834   5.860
 7961SOL    HW124782   1.285   5.851   5.785
 7961SOL    HW224783   1.387   5.921   5.892
 7962SOL     OW24784   2.276   0.903   1.851
 7962SOL    HW124785   2.262   0.913   1.753
 7962SOL    HW224786   2.202   0.950   1.900
 7963SOL     OW24787   0.471   1.005   5.766
 7963SOL    HW124788   0.558   1.021   5.719
 7963SOL    HW224789   0.476   0.919   5.816
 7964SOL     OW24790   5.411   5.248   3.020
 7964SOL    HW124791   5.356   5.211   3.095
 7964SOL    HW224792   5.350   5.279   2.946
 7965SOL     OW24793   5.129   2.454   0.539
 7965SOL    HW124794   5.227   2.468   0.552
 7965SOL    HW224795   5.113   2.414   0.449
 7966SOL     OW24796   0.881   5.364   4.175
 7966SOL    HW124797   0.875   5.393   4.270
 7966SOL    HW224798   0.945   5.288   4.167
 7967SOL     OW24799   3.216   6.171   2.795
 7967SOL    HW124800   3.119   6.150   2.780
 7967SOL    HW224801   3.234   6.173   2.894
 7968SOL     OW24802   2.299   2.420   3.913
 7968SOL    HW124803   2.391   2.430   3.876
 7968SOL    HW224804   2.305   2.382   4.005
 7969SOL     OW24805   4.288   0.843   3.365
 7969SOL    HW124806   4.376   0.877   3.332
 7969SOL    HW224807   4.218   0.913   3.350
 7970SOL     OW24808   7.009   4.086   3.007
 7970SOL    HW124809   7.019   4.170   2.955
 7970SOL    HW224810   0.030   4.097   3.097
 7971SOL     OW24811   3.462   0.774   1.915
 7971SOL    HW124812   3.481   0.677   1.930
 7971SOL    HW224813   3.364   0.787   1.900
 7972SOL     OW24814   7.010   4.543   1.305
 7972SOL    HW124815   6.952   4.568   1.382
 7972SOL    HW224816   6.956   4.541   1.221
 7973SOL     OW24817   4.900   3.306   3.873
 7973SOL    HW124818   4.959   3.378   3.835
 7973SOL    HW224819   4.825   3.288   3.810
 7974SOL     OW24820   5.191   0.752   4.252
 7974SOL    HW124821   5.278   0.759   4.301
 7974SOL    HW224822   5.171   0.838   4.205
 7975SOL     OW24823   3.397   0.794   4.839
 7975SOL    HW124824   3.356   0.721   4.785
 7975SOL    HW224825   3.467   0.840   4.785
 7976SOL     OW24826   0.994   6.093   4.958
 7976SOL    HW124827   1.020   5.997   4.948
 7976SOL    HW224828   0.994   6.137   4.869
 7977SOL     OW24829   5.179   6.043   1.830
 7977SOL    HW124830   5.100   6.039   1.890
 7977SOL    HW224831   5.148   6.036   1.735
 7978SOL     OW24832   4.575   3.630   5.975
 7978SOL    HW124833   4.640   3.554   5.983
 7978SOL    HW224834   4.614   3.701   5.916
 7979SOL     OW24835   2.906   0.352   4.344
 7979SOL    HW124836   2.812   0.381   4.364
 7979SOL    HW224837   2.914   0.333   4.246
 7980SOL     OW24838   3.641   6.065   0.453
 7980SOL    HW124839   3.708   6.058   0.526
 7980SOL    HW224840   3.660   6.146   0.398
 7981SOL     OW24841   1.203   4.969   1.998
 7981SOL    HW124842   1.212   4.920   1.912
 7981SOL    HW224843   1.255   4.921   2.069
 7982SOL     OW24844   6.364   2.480   0.703
 7982SOL    HW124845   6.317   2.510   0.786
 7982SOL    HW224846   6.300   2.480   0.626
 7983SOL     OW24847   5.429   1.765   2.921
 7983SOL    HW124848   5.449   1.684   2.866
 7983SOL    HW224849   5.442   1.847   2.867
 7984SOL     OW24850   0.988   2.562   1.984
 7984SOL    HW124851   0.948   2.473   1.966
 7984SOL    HW224852   1.017   2.567   2.080
 7985SOL     OW24853   1.299   0.390   2.235
 7985SOL    HW124854   1.376   0.413   2.174
 7985SOL    HW224855   1.237   0.469   2.241
 7986SOL     OW24856   3.970   1.304   6.372
 7986SOL    HW124857   3.897   1.329   6.308
 7986SOL    HW224858   4.047   1.368   6.362
 7987SOL     OW24859   0.554   2.756   5.341
 7987SOL    HW124860   0.640   2.715   5.310
 7987SOL    HW224861   0.478   2.699   5.313
 7988SOL     OW24862   2.945   2.238   4.163
 7988SOL    HW124863   3.025   2.257   4.221
 7988SOL    HW224864   2.976   2.217   4.071
 7989SOL     OW24865   3.155   2.295   5.469
 7989SOL    HW124866   3.062   2.278   5.504
 7989SOL    HW224867   3.154   2.290   5.369
 7990SOL     OW24868   0.938   2.997   4.315
 7990SOL    HW124869   1.007   3.008   4.385
 7990SOL    HW224870   0.979   2.955   4.233
 7991SOL     OW24871   0.252   2.642   5.606
 7991SOL    HW124872   0.231   2.730   5.648
 7991SOL    HW224873   0.281   2.656   5.511
 7992SOL     OW24874   1.666   0.172   0.706
 7992SOL    HW124875   1.689   0.165   0.803
 7992SOL    HW224876   1.717   0.246   0.664
 7993SOL     OW24877   1.751   5.417   6.912
 7993SOL    HW124878   1.822   5.487   6.902
 7993SOL    HW224879   1.790   5.326   6.899
 7994SOL     OW24880   4.857   0.646   3.938
 7994SOL    HW124881   4.887   0.632   3.843
 7994SOL    HW224882   4.821   0.738   3.949
 7995SOL     OW24883   3.356   5.190   3.630
 7995SOL    HW124884   3.442   5.224   3.592
 7995SOL    HW224885   3.366   5.178   3.729
 7996SOL     OW24886   3.297   0.001   4.404
 7996SOL    HW124887   3.313   6.942   4.346
 7996SOL    HW224888   3.272   6.992   4.496
 7997SOL     OW24889   6.345   2.324   1.073
 7997SOL    HW124890   6.274   2.391   1.053
 7997SOL    HW224891   6.434   2.370   1.080
 7998SOL     OW24892   5.691   4.783   0.745
 7998SOL    HW124893   5.684   4.803   0.647
 7998SOL    HW224894   5.618   4.721   0.772
 7999SOL     OW24895   1.666   0.374   5.094
 7999SOL    HW124896   1.734   0.419   5.151
 7999SOL    HW224897   1.605   0.442   5.053
 8000SOL     OW24898   6.724   0.350   5.862
 8000SOL    HW124899   6.638   0.401   5.861
 8000SOL    HW224900   6.716   0.270   5.802
 8001SOL     OW24901   1.478   6.547   1.774
 8001SOL    HW124902   1.461   6.587   1.864
 8001SOL    HW224903   1.552   6.597   1.729
 8002SOL     OW24904   6.929   3.748   5.190
 8002SOL    HW124905   6.864   3.715   5.122
 8002SOL    HW224906   6.951   3.844   5.171
 8003SOL     OW24907   3.676   4.916   3.195
 8003SOL    HW124908   3.771   4.904   3.223
 8003SOL    HW224909   3.616   4.908   3.275
 8004SOL     OW24910   2.275   4.226   3.180
 8004SOL    HW124911   2.235   4.135   3.187
 8004SOL    HW224912   2.308   4.241   3.087
 8005SOL     OW24913   3.489   0.605   2.241
 8005SOL    HW124914   3.570   0.605   2.182
 8005SOL    HW224915   3.484   0.691   2.292
 8006SOL     OW24916   2.800   5.673   0.312
 8006SOL    HW124917   2.821   5.662   0.409
 8006SOL    HW224918   2.701   5.676   0.299
 8007SOL     OW24919   0.473   0.503   3.994
 8007SOL    HW124920   0.402   0.444   3.956
 8007SOL    HW224921   0.513   0.558   3.920
 8008SOL     OW24922   6.278   6.754   6.841
 8008SOL    HW124923   6.315   6.704   6.763
 8008SOL    HW224924   6.274   6.694   6.921
 8009SOL     OW24925   6.769   0.665   3.275
 8009SOL    HW124926   6.803   0.572   3.289
 8009SOL    HW224927   6.748   0.707   3.363
 8010SOL     OW24928   2.399   1.845   6.801
 8010SOL    HW124929   2.451   1.911   6.747
 8010SOL    HW224930   2.396   1.875   6.896
 8011SOL     OW24931   2.751   2.372   1.181
 8011SOL    HW124932   2.735   2.330   1.270
 8011SOL    HW224933   2.828   2.435   1.186
 8012SOL     OW24934   1.949   6.652   1.603
 8012SOL    HW124935   2.017   6.710   1.557
 8012SOL    HW224936   1.941   6.566   1.553
 8013SOL     OW24937   5.876   5.207   4.144
 8013SOL    HW124938   5.907   5.302   4.137
 8013SOL    HW224939   5.949   5.146   4.115
 8014SOL     OW24940   1.690   6.136   6.320
 8014SOL    HW124941   1.688   6.170   6.414
 8014SOL    HW224942   1.638   6.198   6.261
 8015SOL     OW24943   2.505   2.874   0.731
 8015SOL    HW124944   2.549   2.934   0.664
 8015SOL    HW224945   2.435   2.819   0.685
 8016SOL     OW24946   4.438   0.161   0.747
 8016SOL    HW124947   4.521   0.190   0.699
 8016SOL    HW224948   4.402   0.238   0.799
 8017SOL     OW24949   6.559   4.625   4.760
 8017SOL    HW124950   6.657   4.638   4.776
 8017SOL    HW224951   6.543   4.534   4.723
 8018SOL     OW24952   4.624   1.766   5.691
 8018SOL    HW124953   4.630   1.777   5.790
 8018SOL    HW224954   4.596   1.852   5.649
 8019SOL     OW24955   1.869   5.604   0.379
 8019SOL    HW124956   1.963   5.587   0.409
 8019SOL    HW224957   1.814   5.521   0.393
 8020SOL     OW24958   5.385   5.827   6.849
 8020SOL    HW124959   5.314   5.776   6.801
 8020SOL    HW224960   5.385   5.801   6.946
 8021SOL     OW24961   1.272   1.937   1.243
 8021SOL    HW124962   1.289   1.964   1.338
 8021SOL    HW224963   1.345   1.975   1.185
 8022SOL     OW24964   4.770   6.848   3.244
 8022SOL    HW124965   4.865   6.824   3.261
 8022SOL    HW224966   4.743   6.922   3.305
 8023SOL     OW24967   6.234   6.001   2.409
 8023SOL    HW124968   6.271   5.910   2.393
 8023SOL    HW224969   6.198   6.008   2.502
 8024SOL     OW24970   4.218   5.388   5.801
 8024SOL    HW124971   4.230   5.354   5.707
 8024SOL    HW224972   4.305   5.385   5.849
 8025SOL     OW24973   3.652   5.938   6.744
 8025SOL    HW124974   3.647   6.032   6.713
 8025SOL    HW224975   3.576   5.919   6.805
 8026SOL     OW24976   1.534   3.354   6.583
 8026SOL    HW124977   1.514   3.451   6.600
 8026SOL    HW224978   1.552   3.308   6.670
 8027SOL     OW24979   4.454   2.019   5.376
 8027SOL    HW124980   4.532   1.968   5.339
 8027SOL    HW224981   4.467   2.116   5.356
 8028SOL     OW24982   4.804   5.102   6.002
 8028SOL    HW124983   4.815   5.186   6.055
 8028SOL    HW224984   4.882   5.090   5.940
 8029SOL     OW24985   4.137   4.703   0.194
 8029SOL    HW124986   4.182   4.786   0.225
 8029SOL    HW224987   4.199   4.652   0.135
 8030SOL     OW24988   5.665   4.659   5.455
 8030SOL    HW124989   5.680   4.568   5.417
 8030SOL    HW224990   5.596   4.654   5.527
 8031SOL     OW24991   4.334   5.256   1.500
 8031SOL    HW124992   4.430   5.282   1.512
 8031SOL    HW224993   4.322   5.159   1.525
 8032SOL     OW24994   5.919   3.947   4.966
 8032SOL    HW124995   5.837   3.930   4.911
 8032SOL    HW224996   5.902   4.024   5.028
 8033SOL     OW24997   5.505   2.566   0.271
 8033SOL    HW124998   5.568   2.554   0.195
 8033SOL    HW224999   5.546   2.626   0.340
 8034SOL     OW25000   5.002   6.713   5.164
 8034SOL    HW125001   5.065   6.765   5.106
 8034SOL    HW225002   4.910   6.751   5.155
 8035SOL     OW25003   5.843   6.219   6.291
 8035SOL    HW125004   5.747   6.231   6.314
 8035SOL    HW225005   5.864   6.268   6.206
 8036SOL     OW25006   2.232   3.957   1.836
 8036SOL    HW125007   2.217   3.950   1.934
 8036SOL    HW225008   2.165   4.019   1.796
 8037SOL     OW25009   2.049   3.218   0.681
 8037SOL    HW125010   2.053   3.255   0.774
 8037SOL    HW225011   1.970   3.158   0.673
 8038SOL     OW25012   6.954   1.949   3.287
 8038SOL    HW125013   6.968   2.000   3.202
 8038SOL    HW225014   6.962   2.010   3.365
 8039SOL     OW25015   2.481   0.338   2.961
 8039SOL    HW125016   2.422   0.365   2.885
 8039SOL    HW225017   2.577   0.353   2.935
 8040SOL     OW25018   0.467   5.444   1.198
 8040SOL    HW125019   0.551   5.499   1.193
 8040SOL    HW225020   0.412   5.459   1.116
 8041SOL     OW25021   3.913   1.425   0.988
 8041SOL    HW125022   3.897   1.344   0.931
 8041SOL    HW225023   3.876   1.409   1.080
 8042SOL     OW25024   3.411   2.865   2.555
 8042SOL    HW125025   3.454   2.884   2.643
 8042SOL    HW225026   3.481   2.864   2.483
 8043SOL     OW25027   2.482   0.563   0.970
 8043SOL    HW125028   2.506   0.489   0.907
 8043SOL    HW225029   2.526   0.648   0.940
 8044SOL     OW25030   2.912   3.006   1.468
 8044SOL    HW125031   2.921   2.953   1.552
 8044SOL    HW225032   2.960   3.093   1.479
 8045SOL     OW25033   6.600   2.400   2.865
 8045SOL    HW125034   6.503   2.424   2.862
 8045SOL    HW225035   6.610   2.302   2.880
 8046SOL     OW25036   5.677   4.390   5.351
 8046SOL    HW125037   5.776   4.397   5.341
 8046SOL    HW225038   5.637   4.363   5.263
 8047SOL     OW25039   3.383   5.833   4.823
 8047SOL    HW125040   3.417   5.872   4.737
 8047SOL    HW225041   3.359   5.907   4.885
 8048SOL     OW25042   6.481   0.125   5.625
 8048SOL    HW125043   6.419   0.053   5.593
 8048SOL    HW225044   6.433   0.212   5.626
 8049SOL     OW25045   1.061   6.599   1.430
 8049SOL    HW125046   1.091   6.695   1.432
 8049SOL    HW225047   1.140   6.540   1.417
 8050SOL     OW25048   1.715   3.667   0.922
 8050SOL    HW125049   1.632   3.696   0.874
 8050SOL    HW225050   1.711   3.569   0.939
 8051SOL     OW25051   4.165   0.773   3.050
 8051SOL    HW125052   4.162   0.692   3.108
 8051SOL    HW225053   4.260   0.799   3.033
 8052SOL     OW25054   2.770   1.488   2.821
 8052SOL    HW125055   2.841   1.462   2.756
 8052SOL    HW225056   2.805   1.556   2.884
 8053SOL     OW25057   3.852   4.040   2.896
 8053SOL    HW125058   3.911   4.119   2.909
 8053SOL    HW225059   3.904   3.967   2.852
 8054SOL     OW25060   4.963   6.379   4.521
 8054SOL    HW125061   4.958   6.469   4.479
 8054SOL    HW225062   4.926   6.311   4.458
 8055SOL     OW25063   1.247   6.988   5.874
 8055SOL    HW125064   1.288   0.049   5.833
 8055SOL    HW225065   1.299   6.962   5.955
 8056SOL     OW25066   4.821   1.871   2.945
 8056SOL    HW125067   4.828   1.902   3.040
 8056SOL    HW225068   4.912   1.843   2.913
 8057SOL     OW25069   2.830   0.150   3.283
 8057SOL    HW125070   2.861   0.245   3.286
 8057SOL    HW225071   2.772   0.137   3.202
 8058SOL     OW25072   2.457   0.448   2.261
 8058SOL    HW125073   2.426   0.420   2.171
 8058SOL    HW225074   2.435   0.544   2.277
 8059SOL     OW25075   3.174   2.197   4.689
 8059SOL    HW125076   3.158   2.270   4.756
 8059SOL    HW225077   3.227   2.124   4.731
 8060SOL     OW25078   0.019   1.050   4.622
 8060SOL    HW125079   6.963   1.044   4.686
 8060SOL    HW225080   0.021   0.969   4.564
 8061SOL     OW25081   6.487   5.602   2.445
 8061SOL    HW125082   6.541   5.686   2.442
 8061SOL    HW225083   6.533   5.534   2.503
 8062SOL     OW25084   1.447   3.818   4.419
 8062SOL    HW125085   1.499   3.903   4.413
 8062SOL    HW225086   1.355   3.837   4.452
 8063SOL     OW25087   3.401   3.371   6.666
 8063SOL    HW125088   3.313   3.329   6.641
 8063SOL    HW225089   3.386   3.458   6.711
 8064SOL     OW25090   0.476   4.213   0.463
 8064SOL    HW125091   0.555   4.183   0.410
 8064SOL    HW225092   0.402   4.240   0.400
 8065SOL     OW25093   4.717   6.705   4.722
 8065SOL    HW125094   4.814   6.683   4.738
 8065SOL    HW225095   4.710   6.798   4.686
 8066SOL     OW25096   1.684   1.555   0.742
 8066SOL    HW125097   1.751   1.629   0.751
 8066SOL    HW225098   1.598   1.582   0.785
 8067SOL     OW25099   4.280   3.071   1.538
 8067SOL    HW125100   4.374   3.041   1.551
 8067SOL    HW225101   4.221   3.026   1.604
 8068SOL     OW25102   0.399   4.558   4.646
 8068SOL    HW125103   0.438   4.466   4.655
 8068SOL    HW225104   0.444   4.606   4.571
 8069SOL     OW25105   1.403   6.219   0.948
 8069SOL    HW125106   1.358   6.254   1.030
 8069SOL    HW225107   1.355   6.137   0.916
 8070SOL     OW25108   3.591   6.183   2.102
 8070SOL    HW125109   3.502   6.168   2.058
 8070SOL    HW225110   3.648   6.239   2.042
 8071SOL     OW25111   3.865   6.560   5.644
 8071SOL    HW125112   3.833   6.591   5.554
 8071SOL    HW225113   3.816   6.478   5.670
 8072SOL     OW25114   4.452   1.539   0.374
 8072SOL    HW125115   4.547   1.527   0.347
 8072SOL    HW225116   4.392   1.496   0.306
 8073SOL     OW25117   4.592   6.682   6.069
 8073SOL    HW125118   4.568   6.604   6.011
 8073SOL    HW225119   4.547   6.672   6.158
 8074SOL     OW25120   3.427   3.802   0.451
 8074SOL    HW125121   3.487   3.783   0.529
 8074SOL    HW225122   3.373   3.720   0.430
 8075SOL     OW25123   6.886   1.424   2.342
 8075SOL    HW125124   6.887   1.363   2.263
 8075SOL    HW225125   6.798   1.470   2.348
 8076SOL     OW25126   5.511   2.359   5.120
 8076SOL    HW125127   5.490   2.427   5.190
 8076SOL    HW225128   5.427   2.312   5.092
 8077SOL     OW25129   1.101   0.137   1.286
 8077SOL    HW125130   1.057   0.142   1.196
 8077SOL    HW225131   1.164   0.214   1.296
 8078SOL     OW25132   6.558   2.404   0.888
 8078SOL    HW125133   6.552   2.304   0.890
 8078SOL    HW225134   6.481   2.441   0.835
 8079SOL     OW25135   0.053   2.185   3.068
 8079SOL    HW125136   6.997   2.246   3.090
 8079SOL    HW225137   0.132   2.240   3.042
 8080SOL     OW25138   2.442   3.795   0.301
 8080SOL    HW125139   2.522   3.842   0.340
 8080SOL    HW225140   2.469   3.746   0.218
 8081SOL     OW25141   6.091   0.566   5.130
 8081SOL    HW125142   6.186   0.550   5.105
 8081SOL    HW225143   6.050   0.480   5.162
 8082SOL     OW25144   6.387   2.449   3.616
 8082SOL    HW125145   6.401   2.548   3.623
 8082SOL    HW225146   6.445   2.412   3.543
 8083SOL     OW25147   4.626   2.671   2.659
 8083SOL    HW125148   4.679   2.688   2.576
 8083SOL    HW225149   4.657   2.732   2.732
 8084SOL     OW25150   6.349   6.513   1.258
 8084SOL    HW125151   6.422   6.555   1.313
 8084SOL    HW225152   6.381   6.503   1.164
 8085SOL     OW25153   5.166   0.619   0.768
 8085SOL    HW125154   5.184   0.572   0.681
 8085SOL    HW225155   5.205   0.565   0.843
 8086SOL     OW25156   3.711   0.359   4.690
 8086SOL    HW125157   3.640   0.291   4.678
 8086SOL    HW225158   3.747   0.355   4.783
 8087SOL     OW25159   2.618   2.564   0.890
 8087SOL    HW125160   2.666   2.507   0.824
 8087SOL    HW225161   2.664   2.652   0.899
 8088SOL     OW25162   5.607   1.095   2.028
 8088SOL    HW125163   5.631   1.066   1.936
 8088SOL    HW225164   5.570   1.188   2.026
 8089SOL     OW25165   4.986   2.563   0.799
 8089SOL    HW125166   4.976   2.538   0.703
 8089SOL    HW225167   4.974   2.662   0.809
 8090SOL     OW25168   5.048   1.808   6.197
 8090SOL    HW125169   5.057   1.796   6.296
 8090SOL    HW225170   5.139   1.825   6.158
 8091SOL     OW25171   3.355   4.737   6.893
 8091SOL    HW125172   3.311   4.664   6.840
 8091SOL    HW225173   3.449   4.711   6.914
 8092SOL     OW25174   1.529   1.016   5.030
 8092SOL    HW125175   1.585   0.959   4.969
 8092SOL    HW225176   1.432   1.000   5.010
 8093SOL     OW25177   5.933   5.867   1.371
 8093SOL    HW125178   5.908   5.820   1.455
 8093SOL    HW225179   6.033   5.866   1.361
 8094SOL     OW25180   1.434   4.084   6.473
 8094SOL    HW125181   1.521   4.038   6.455
 8094SOL    HW225182   1.419   4.090   6.572
 8095SOL     OW25183   5.618   3.199   4.886
 8095SOL    HW125184   5.698   3.196   4.945
 8095SOL    HW225185   5.647   3.196   4.790
 8096SOL     OW25186   3.158   5.768   1.706
 8096SOL    HW125187   3.116   5.855   1.681
 8096SOL    HW225188   3.099   5.719   1.770
 8097SOL     OW25189   5.118   1.090   3.675
 8097SOL    HW125190   5.204   1.092   3.727
 8097SOL    HW225191   5.109   1.176   3.624
 8098SOL     OW25192   3.060   6.022   4.198
 8098SOL    HW125193   3.028   6.117   4.200
 8098SOL    HW225194   2.982   5.960   4.189
 8099SOL     OW25195   5.178   6.169   4.700
 8099SOL    HW125196   5.237   6.215   4.767
 8099SOL    HW225197   5.097   6.133   4.746
 8100SOL     OW25198   6.931   6.720   0.402
 8100SOL    HW125199   6.966   6.670   0.480
 8100SOL    HW225200   7.005   6.735   0.336
 8101SOL     OW25201   1.594   6.348   3.884
 8101SOL    HW125202   1.569   6.298   3.800
 8101SOL    HW225203   1.693   6.362   3.885
 8102SOL     OW25204   6.890   5.468   5.595
 8102SOL    HW125205   6.926   5.477   5.688
 8102SOL    HW225206   6.910   5.552   5.544
 8103SOL     OW25207   3.549   1.575   2.167
 8103SOL    HW125208   3.495   1.496   2.137
 8103SOL    HW225209   3.622   1.545   2.228
 8104SOL     OW25210   2.738   6.919   5.741
 8104SOL    HW125211   2.704   7.003   5.698
 8104SOL    HW225212   2.826   6.938   5.785
 8105SOL     OW25213   2.438   2.219   3.577
 8105SOL    HW125214   2.396   2.196   3.665
 8105SOL    HW225215   2.417   2.314   3.554
 8106SOL     OW25216   0.863   4.254   3.284
 8106SOL    HW125217   0.957   4.243   3.253
 8106SOL    HW225218   0.805   4.184   3.243
 8107SOL     OW25219   1.869   6.503   5.852
 8107SOL    HW125220   1.857   6.512   5.951
 8107SOL    HW225221   1.937   6.432   5.833
 8108SOL     OW25222   0.368   3.894   4.432
 8108SOL    HW125223   0.322   3.981   4.446
 8108SOL    HW225224   0.300   3.822   4.420
 8109SOL     OW25225   1.839   4.417   5.271
 8109SOL    HW125226   1.880   4.507   5.283
 8109SOL    HW225227   1.739   4.425   5.269
 8110SOL     OW25228   1.810   6.266   0.642
 8110SOL    HW125229   1.751   6.289   0.720
 8110SOL    HW225230   1.892   6.219   0.675
 8111SOL     OW25231   2.710   5.763   4.972
 8111SOL    HW125232   2.621   5.731   4.937
 8111SOL    HW225233   2.769   5.786   4.895
 8112SOL     OW25234   2.586   0.349   5.637
 8112SOL    HW125235   2.502   0.368   5.586
 8112SOL    HW225236   2.664   0.356   5.575
 8113SOL     OW25237   3.951   2.670   6.936
 8113SOL    HW125238   3.913   2.653   0.006
 8113SOL    HW225239   3.940   2.588   6.879
 8114SOL     OW25240   2.230   2.949   2.747
 8114SOL    HW125241   2.294   2.884   2.788
 8114SOL    HW225242   2.183   2.905   2.670
 8115SOL     OW25243   3.303   1.542   1.308
 8115SOL    HW125244   3.247   1.609   1.356
 8115SOL    HW225245   3.295   1.556   1.209
 8116SOL     OW25246   5.956   6.733   5.055
 8116SOL    HW125247   5.908   6.817   5.082
 8116SOL    HW225248   6.014   6.702   5.130
 8117SOL     OW25249   1.333   1.395   5.119
 8117SOL    HW125250   1.395   1.321   5.146
 8117SOL    HW225251   1.240   1.373   5.148
 8118SOL     OW25252   1.305   3.995   5.446
 8118SOL    HW125253   1.292   3.900   5.419
 8118SOL    HW225254   1.380   4.034   5.394
 8119SOL     OW25255   0.727   6.020   3.169
 8119SOL    HW125256   0.717   5.930   3.213
 8119SOL    HW225257   0.668   6.025   3.089
 8120SOL     OW25258   4.375   4.396   0.899
 8120SOL    HW125259   4.306   4.385   0.829
 8120SOL    HW225260   4.354   4.336   0.977
 8121SOL     OW25261   6.872   0.256   2.653
 8121SOL    HW125262   6.784   0.299   2.675
 8121SOL    HW225263   6.946   0.307   2.698
 8122SOL     OW25264   6.806   6.346   1.904
 8122SOL    HW125265   6.771   6.438   1.921
 8122SOL    HW225266   6.731   6.287   1.874
 8123SOL     OW25267   1.326   6.461   6.225
 8123SOL    HW125268   1.323   6.508   6.137
 8123SOL    HW225269   1.313   6.528   6.299
 8124SOL     OW25270   1.182   5.438   1.732
 8124SOL    HW125271   1.102   5.476   1.687
 8124SOL    HW225272   1.169   5.339   1.744
 8125SOL     OW25273   5.929   4.284   3.042
 8125SOL    HW125274   5.890   4.260   2.953
 8125SOL    HW225275   5.911   4.381   3.061
 8126SOL     OW25276   5.768   4.239   2.801
 8126SOL    HW125277   5.698   4.168   2.800
 8126SOL    HW225278   5.726   4.326   2.830
 8127SOL     OW25279   2.074   4.977   0.243
 8127SOL    HW125280   1.992   4.934   0.281
 8127SOL    HW225281   2.053   5.012   0.152
 8128SOL     OW25282   3.194   2.775   5.693
 8128SOL    HW125283   3.177   2.677   5.699
 8128SOL    HW225284   3.252   2.795   5.614
 8129SOL     OW25285   5.828   0.639   6.681
 8129SOL    HW125286   5.771   0.607   6.606
 8129SOL    HW225287   5.918   0.664   6.647
 8130SOL     OW25288   1.103   5.214   6.856
 8130SOL    HW125289   1.027   5.199   6.920
 8130SOL    HW225290   1.088   5.299   6.805
 8131SOL     OW25291   3.045   0.386   0.304
 8131SOL    HW125292   3.067   0.294   0.336
 8131SOL    HW225293   3.106   0.452   0.347
 8132SOL     OW25294   5.771   5.511   4.242
 8132SOL    HW125295   5.861   5.478   4.213
 8132SOL    HW225296   5.736   5.575   4.172
 8133SOL     OW25297   2.623   5.467   3.273
 8133SOL    HW125298   2.680   5.542   3.308
 8133SOL    HW225299   2.550   5.448   3.339
 8134SOL     OW25300   2.037   2.398   3.886
 8134SOL    HW125301   2.127   2.429   3.917
 8134SOL    HW225302   2.037   2.299   3.877
 8135SOL     OW25303   3.683   5.403   2.529
 8135SOL    HW125304   3.618   5.396   2.606
 8135SOL    HW225305   3.668   5.489   2.481
 8136SOL     OW25306   3.960   5.813   2.749
 8136SOL    HW125307   3.951   5.747   2.824
 8136SOL    HW225308   3.993   5.765   2.668
 8137SOL     OW25309   2.116   3.893   4.916
 8137SOL    HW125310   2.120   3.948   4.832
 8137SOL    HW225311   2.196   3.913   4.972
 8138SOL     OW25312   5.503   1.551   2.784
 8138SOL    HW125313   5.436   1.479   2.805
 8138SOL    HW225314   5.515   1.558   2.685
 8139SOL     OW25315   1.830   3.112   3.068
 8139SOL    HW125316   1.859   3.121   3.164
 8139SOL    HW225317   1.893   3.052   3.020
 8140SOL     OW25318   5.080   0.742   0.485
 8140SOL    HW125319   5.018   0.671   0.519
 8140SOL    HW225320   5.088   0.814   0.554
 8141SOL     OW25321   4.602   1.741   6.011
 8141SOL    HW125322   4.644   1.738   6.101
 8141SOL    HW225323   4.551   1.826   6.001
 8142SOL     OW25324   1.720   5.878   0.134
 8142SOL    HW125325   1.699   5.939   0.059
 8142SOL    HW225326   1.805   5.829   0.115
 8143SOL     OW25327   5.461   4.609   0.759
 8143SOL    HW125328   5.377   4.622   0.813
 8143SOL    HW225329   5.475   4.512   0.742
 8144SOL     OW25330   7.020   4.889   6.168
 8144SOL    HW125331   0.007   4.868   6.070
 8144SOL    HW225332   0.041   4.814   6.221
 8145SOL     OW25333   5.856   5.668   6.982
 8145SOL    HW125334   5.856   5.570   7.002
 8145SOL    HW225335   5.828   5.683   6.888
 8146SOL     OW25336   5.768   0.447   4.471
 8146SOL    HW125337   5.837   0.386   4.509
 8146SOL    HW225338   5.734   0.507   4.544
 8147SOL     OW25339   0.926   0.979   5.802
 8147SOL    HW125340   0.929   0.886   5.840
 8147SOL    HW225341   0.885   1.041   5.869
 8148SOL     OW25342   3.889   4.773   0.103
 8148SOL    HW125343   3.975   4.754   0.151
 8148SOL    HW225344   3.812   4.751   0.162
 8149SOL     OW25345   1.471   6.151   4.331
 8149SOL    HW125346   1.506   6.182   4.242
 8149SOL    HW225347   1.459   6.230   4.391
 8150SOL     OW25348   1.266   3.150   0.703
 8150SOL    HW125349   1.171   3.136   0.675
 8150SOL    HW225350   1.295   3.075   0.763
 8151SOL     OW25351   6.350   4.504   4.048
 8151SOL    HW125352   6.284   4.566   4.005
 8151SOL    HW225353   6.317   4.410   4.041
 8152SOL     OW25354   4.542   2.306   3.226
 8152SOL    HW125355   4.588   2.261   3.149
 8152SOL    HW225356   4.450   2.268   3.237
 8153SOL     OW25357   6.976   1.738   3.796
 8153SOL    HW125358   6.908   1.807   3.770
 8153SOL    HW225359   6.965   1.716   3.893
 8154SOL     OW25360   2.188   1.743   3.726
 8154SOL    HW125361   2.126   1.739   3.804
 8154SOL    HW225362   2.243   1.659   3.723
 8155SOL     OW25363   1.662   4.752   1.668
 8155SOL    HW125364   1.676   4.795   1.757
 8155SOL    HW225365   1.579   4.696   1.670
 8156SOL     OW25366   6.031   5.047   1.916
 8156SOL    HW125367   5.974   5.003   1.847
 8156SOL    HW225368   6.079   5.125   1.874
 8157SOL     OW25369   6.898   3.098   6.579
 8157SOL    HW125370   6.872   3.125   6.487
 8157SOL    HW225371   6.996   3.112   6.592
 8158SOL     OW25372   5.478   4.591   6.049
 8158SOL    HW125373   5.494   4.684   6.083
 8158SOL    HW225374   5.406   4.592   5.980
 8159SOL     OW25375   3.517   5.626   5.597
 8159SOL    HW125376   3.612   5.657   5.589
 8159SOL    HW225377   3.515   5.526   5.591
 8160SOL     OW25378   4.894   1.222   3.320
 8160SOL    HW125379   4.807   1.210   3.369
 8160SOL    HW225380   4.887   1.180   3.229
 8161SOL     OW25381   5.806   3.234   0.779
 8161SOL    HW125382   5.831   3.139   0.760
 8161SOL    HW225383   5.724   3.237   0.835
 8162SOL     OW25384   0.226   5.050   6.637
 8162SOL    HW125385   0.285   4.970   6.634
 8162SOL    HW225386   0.235   5.095   6.726
 8163SOL     OW25387   4.447   4.639   5.380
 8163SOL    HW125388   4.499   4.717   5.415
 8163SOL    HW225389   4.446   4.567   5.449
 8164SOL     OW25390   5.703   1.176   0.125
 8164SOL    HW125391   5.712   1.249   0.058
 8164SOL    HW225392   5.606   1.161   0.146
 8165SOL     OW25393   6.845   1.926   6.168
 8165SOL    HW125394   6.840   2.015   6.212
 8165SOL    HW225395   6.878   1.936   6.074
 8166SOL     OW25396   1.750   2.392   4.399
 8166SOL    HW125397   1.730   2.418   4.493
 8166SOL    HW225398   1.836   2.434   4.370
 8167SOL     OW25399   6.609   2.346   4.272
 8167SOL    HW125400   6.633   2.443   4.267
 8167SOL    HW225401   6.545   2.324   4.199
 8168SOL     OW25402   2.517   0.662   1.513
 8168SOL    HW125403   2.574   0.617   1.582
 8168SOL    HW225404   2.572   0.682   1.432
 8169SOL     OW25405   5.288   2.002   0.785
 8169SOL    HW125406   5.357   2.011   0.714
 8169SOL    HW225407   5.293   2.079   0.848
 8170SOL     OW25408   6.496   4.517   2.303
 8170SOL    HW125409   6.520   4.573   2.382
 8170SOL    HW225410   6.563   4.444   2.292
 8171SOL     OW25411   1.816   1.257   0.407
 8171SOL    HW125412   1.782   1.190   0.341
 8171SOL    HW225413   1.800   1.349   0.371
 8172SOL     OW25414   0.759   2.715   1.742
 8172SOL    HW125415   0.741   2.654   1.820
 8172SOL    HW225416   0.813   2.793   1.773
 8173SOL     OW25417   5.187   2.234   2.046
 8173SOL    HW125418   5.211   2.245   2.142
 8173SOL    HW225419   5.269   2.208   1.994
 8174SOL     OW25420   2.003   5.557   2.640
 8174SOL    HW125421   1.927   5.558   2.576
 8174SOL    HW225422   2.033   5.651   2.657
 8175SOL     OW25423   0.575   2.628   4.826
 8175SOL    HW125424   0.566   2.574   4.909
 8175SOL    HW225425   0.485   2.643   4.785
 8176SOL     OW25426   1.745   4.343   0.860
 8176SOL    HW125427   1.833   4.334   0.905
 8176SOL    HW225428   1.751   4.412   0.787
 8177SOL     OW25429   3.186   1.342   2.879
 8177SOL    HW125430   3.109   1.351   2.816
 8177SOL    HW225431   3.268   1.378   2.835
 8178SOL     OW25432   1.911   6.471   1.387
 8178SOL    HW125433   1.894   6.562   1.350
 8178SOL    HW225434   1.958   6.415   1.319
 8179SOL     OW25435   5.355   1.113   3.845
 8179SOL    HW125436   5.435   1.161   3.808
 8179SOL    HW225437   5.350   1.129   3.944
 8180SOL     OW25438   5.531   6.817   0.002
 8180SOL    HW125439   5.531   6.763   0.086
 8180SOL    HW225440   5.504   6.759   6.946
 8181SOL     OW25441   0.847   1.152   1.374
 8181SOL    HW125442   0.840   1.243   1.333
 8181SOL    HW225443   0.943   1.125   1.377
 8182SOL     OW25444   2.971   3.686   4.843
 8182SOL    HW125445   3.005   3.643   4.759
 8182SOL    HW225446   3.001   3.633   4.922
 8183SOL     OW25447   6.617   0.103   4.840
 8183SOL    HW125448   6.634   0.145   4.929
 8183SOL    HW225449   6.534   0.048   4.845
 8184SOL     OW25450   0.656   6.547   6.815
 8184SOL    HW125451   0.742   6.564   6.766
 8184SOL    HW225452   0.629   6.451   6.803
 8185SOL     OW25453   0.926   0.404   0.502
 8185SOL    HW125454   0.985   0.330   0.469
 8185SOL    HW225455   0.929   0.479   0.437
 8186SOL     OW25456   1.232   4.999   6.373
 8186SOL    HW125457   1.214   5.054   6.454
 8186SOL    HW225458   1.321   5.022   6.335
 8187SOL     OW25459   1.587   1.549   5.381
 8187SOL    HW125460   1.491   1.531   5.360
 8187SOL    HW225461   1.644   1.475   5.346
 8188SOL     OW25462   3.323   1.888   3.733
 8188SOL    HW125463   3.355   1.896   3.639
 8188SOL    HW225464   3.241   1.943   3.745
 8189SOL     OW25465   4.419   4.864   3.863
 8189SOL    HW125466   4.437   4.855   3.961
 8189SOL    HW225467   4.344   4.803   3.837
 8190SOL     OW25468   5.461   3.193   3.001
 8190SOL    HW125469   5.378   3.211   2.950
 8190SOL    HW225470   5.533   3.256   2.972
 8191SOL     OW25471   4.281   5.243   1.814
 8191SOL    HW125472   4.274   5.246   1.714
 8191SOL    HW225473   4.335   5.164   1.841
 8192SOL     OW25474   1.814   5.124   3.425
 8192SOL    HW125475   1.769   5.035   3.423
 8192SOL    HW225476   1.869   5.132   3.508
 8193SOL     OW25477   6.870   4.845   5.194
 8193SOL    HW125478   6.895   4.755   5.158
 8193SOL    HW225479   6.861   4.909   5.117
 8194SOL     OW25480   4.355   6.480   1.502
 8194SOL    HW125481   4.278   6.504   1.560
 8194SOL    HW225482   4.390   6.562   1.456
 8195SOL     OW25483   5.638   6.963   3.389
 8195SOL    HW125484   5.573   6.964   3.464
 8195SOL    HW225485   5.709   0.011   3.405
 8196SOL     OW25486   4.689   0.434   6.745
 8196SOL    HW125487   4.671   0.493   6.823
 8196SOL    HW225488   4.782   0.450   6.712
 8197SOL     OW25489   5.177   1.634   1.444
 8197SOL    HW125490   5.153   1.693   1.366
 8197SOL    HW225491   5.103   1.636   1.511
 8198SOL     OW25492   2.297   6.772   1.809
 8198SOL    HW125493   2.280   6.771   1.711
 8198SOL    HW225494   2.220   6.814   1.857
 8199SOL     OW25495   5.239   2.608   6.082
 8199SOL    HW125496   5.280   2.696   6.060
 8199SOL    HW225497   5.310   2.537   6.081
 8200SOL     OW25498   5.005   3.516   1.177
 8200SOL    HW125499   5.096   3.553   1.194
 8200SOL    HW225500   4.994   3.429   1.226
 8201SOL     OW25501   6.991   0.187   5.198
 8201SOL    HW125502   0.059   0.188   5.151
 8201SOL    HW225503   6.997   0.244   5.280
 8202SOL     OW25504   0.140   6.330   2.172
 8202SOL    HW125505   0.190   6.362   2.091
 8202SOL    HW225506   0.082   6.404   2.206
 8203SOL     OW25507   1.828   3.083   0.655
 8203SOL    HW125508   1.853   3.035   0.571
 8203SOL    HW225509   1.762   3.028   0.706
 8204SOL     OW25510   4.436   3.565   1.192
 8204SOL    HW125511   4.431   3.467   1.170
 8204SOL    HW225512   4.448   3.617   1.107
 8205SOL     OW25513   0.986   3.206   0.654
 8205SOL    HW125514   0.949   3.160   0.573
 8205SOL    HW225515   0.911   3.236   0.713
 8206SOL     OW25516   3.860   1.444   0.181
 8206SOL    HW125517   3.786   1.412   0.240
 8206SOL    HW225518   3.850   1.543   0.166
 8207SOL     OW25519   3.691   3.012   4.191
 8207SOL    HW125520   3.601   2.976   4.211
 8207SOL    HW225521   3.682   3.091   4.130
 8208SOL     OW25522   0.843   0.937   0.727
 8208SOL    HW125523   0.892   0.966   0.646
 8208SOL    HW225524   0.890   0.969   0.809
 8209SOL     OW25525   6.461   1.079   5.215
 8209SOL    HW125526   6.489   1.175   5.224
 8209SOL    HW225527   6.395   1.070   5.140
 8210SOL     OW25528   2.145   2.759   0.351
 8210SOL    HW125529   2.239   2.739   0.322
 8210SOL    HW225530   2.080   2.725   0.283
 8211SOL     OW25531   3.290   3.743   1.141
 8211SOL    HW125532   3.347   3.742   1.223
 8211SOL    HW225533   3.244   3.655   1.131
 8212SOL     OW25534   1.544   2.478   2.970
 8212SOL    HW125535   1.559   2.559   3.027
 8212SOL    HW225536   1.505   2.405   3.026
 8213SOL     OW25537   0.654   5.148   1.534
 8213SOL    HW125538   0.648   5.122   1.631
 8213SOL    HW225539   0.750   5.164   1.510
 8214SOL     OW25540   5.510   4.552   3.491
 8214SOL    HW125541   5.437   4.514   3.435
 8214SOL    HW225542   5.594   4.558   3.436
 8215SOL     OW25543   3.740   4.961   4.668
 8215SOL    HW125544   3.819   4.964   4.730
 8215SOL    HW225545   3.656   4.975   4.720
 8216SOL     OW25546   5.261   4.506   4.214
 8216SOL    HW125547   5.201   4.459   4.280
 8216SOL    HW225548   5.229   4.488   4.121
 8217SOL     OW25549   1.523   5.907   0.844
 8217SOL    HW125550   1.559   5.952   0.926
 8217SOL    HW225551   1.583   5.927   0.766
 8218SOL     OW25552   0.781   1.721   0.055
 8218SOL    HW125553   0.767   1.626   0.084
 8218SOL    HW225554   0.765   1.729   6.977
 8219SOL     OW25555   4.686   1.944   0.062
 8219SOL    HW125556   4.715   1.904   6.995
 8219SOL    HW225557   4.673   1.872   0.129
 8220SOL     OW25558   3.488   3.526   2.676
 8220SOL    HW125559   3.507   3.428   2.670
 8220SOL    HW225560   3.429   3.543   2.755
 8221SOL     OW25561   4.580   6.339   4.084
 8221SOL    HW125562   4.508   6.274   4.060
 8221SOL    HW225563   4.611   6.387   4.001
 8222SOL     OW25564   5.389   2.165   1.885
 8222SOL    HW125565   5.485   2.142   1.902
 8222SOL    HW225566   5.379   2.197   1.790
 8223SOL     OW25567   0.559   4.399   5.836
 8223SOL    HW125568   0.464   4.429   5.833
 8223SOL    HW225569   0.570   4.332   5.910
 8224SOL     OW25570   0.820   2.599   2.742
 8224SOL    HW125571   0.911   2.575   2.775
 8224SOL    HW225572   0.819   2.597   2.642
 8225SOL     OW25573   4.696   1.337   6.603
 8225SOL    HW125574   4.735   1.299   6.520
 8225SOL    HW225575   4.757   1.319   6.680
 8226SOL     OW25576   5.314   0.656   1.457
 8226SOL    HW125577   5.388   0.602   1.498
 8226SOL    HW225578   5.302   0.627   1.362
 8227SOL     OW25579   6.756   3.053   4.006
 8227SOL    HW125580   6.786   3.149   4.007
 8227SOL    HW225581   6.834   2.994   3.983
 8228SOL     OW25582   0.379   2.294   5.189
 8228SOL    HW125583   0.341   2.240   5.264
 8228SOL    HW225584   0.427   2.234   5.125
 8229SOL     OW25585   2.588   5.354   0.403
 8229SOL    HW125586   2.646   5.300   0.343
 8229SOL    HW225587   2.493   5.352   0.370
 8230SOL     OW25588   5.349   0.362   5.177
 8230SOL    HW125589   5.389   0.418   5.105
 8230SOL    HW225590   5.251   0.353   5.161
 8231SOL     OW25591   5.147   6.022   1.521
 8231SOL    HW125592   5.234   5.975   1.533
 8231SOL    HW225593   5.121   6.020   1.425
 8232SOL     OW25594   4.039   1.573   0.415
 8232SOL    HW125595   4.068   1.482   0.386
 8232SOL    HW225596   4.055   1.639   0.342
 8233SOL     OW25597   0.319   5.304   5.952
 8233SOL    HW125598   0.303   5.395   5.916
 8233SOL    HW225599   0.305   5.303   6.051
 8234SOL     OW25600   3.063   2.917   0.194
 8234SOL    HW125601   3.081   2.974   0.275
 8234SOL    HW225602   2.968   2.929   0.167
 8235SOL     OW25603   2.915   3.810   0.659
 8235SOL    HW125604   2.957   3.735   0.608
 8235SOL    HW225605   2.853   3.772   0.728
 8236SOL     OW25606   0.057   3.526   6.963
 8236SOL    HW125607   6.980   3.544   6.972
 8236SOL    HW225608   0.101   3.537   0.032
 8237SOL     OW25609   4.808   5.585   5.350
 8237SOL    HW125610   4.796   5.685   5.346
 8237SOL    HW225611   4.904   5.563   5.363
 8238SOL     OW25612   1.544   4.032   6.940
 8238SOL    HW125613   1.526   3.937   6.915
 8238SOL    HW225614   1.565   4.037   0.017
 8239SOL     OW25615   6.353   1.991   5.388
 8239SOL    HW125616   6.273   1.933   5.377
 8239SOL    HW225617   6.436   1.935   5.387
 8240SOL     OW25618   3.242   3.803   2.796
 8240SOL    HW125619   3.294   3.818   2.712
 8240SOL    HW225620   3.164   3.866   2.799
 8241SOL     OW25621   3.167   6.493   0.834
 8241SOL    HW125622   3.150   6.581   0.789
 8241SOL    HW225623   3.138   6.499   0.929
 8242SOL     OW25624   0.742   4.335   5.395
 8242SOL    HW125625   0.744   4.237   5.415
 8242SOL    HW225626   0.703   4.384   5.473
 8243SOL     OW25627   0.274   3.158   5.804
 8243SOL    HW125628   0.195   3.168   5.742
 8243SOL    HW225629   0.342   3.227   5.782
 8244SOL     OW25630   0.154   0.184   4.141
 8244SOL    HW125631   0.193   0.099   4.105
 8244SOL    HW225632   0.164   0.256   4.073
 8245SOL     OW25633   4.445   1.740   1.994
 8245SOL    HW125634   4.460   1.743   1.895
 8245SOL    HW225635   4.529   1.764   2.041
 8246SOL     OW25636   6.668   4.296   6.066
 8246SOL    HW125637   6.626   4.237   6.136
 8246SOL    HW225638   6.615   4.380   6.057
 8247SOL     OW25639   0.823   1.003   1.759
 8247SOL    HW125640   0.845   0.915   1.717
 8247SOL    HW225641   0.764   1.056   1.698
 8248SOL     OW25642   5.975   4.678   3.665
 8248SOL    HW125643   5.919   4.759   3.645
 8248SOL    HW225644   6.066   4.690   3.626
 8249SOL     OW25645   1.888   4.425   4.092
 8249SOL    HW125646   1.923   4.332   4.084
 8249SOL    HW225647   1.789   4.423   4.103
 8250SOL     OW25648   3.622   4.173   3.354
 8250SOL    HW125649   3.582   4.114   3.283
 8250SOL    HW225650   3.701   4.221   3.317
 8251SOL     OW25651   5.475   1.989   4.840
 8251SOL    HW125652   5.479   1.920   4.913
 8251SOL    HW225653   5.537   2.064   4.863
 8252SOL     OW25654   3.405   3.716   6.421
 8252SOL    HW125655   3.344   3.689   6.346
 8252SOL    HW225656   3.360   3.787   6.476
 8253SOL     OW25657   3.689   2.713   5.315
 8253SOL    HW125658   3.717   2.749   5.404
 8253SOL    HW225659   3.724   2.772   5.243
 8254SOL     OW25660   4.242   4.792   4.844
 8254SOL    HW125661   4.267   4.701   4.878
 8254SOL    HW225662   4.265   4.799   4.747
 8255SOL     OW25663   3.914   6.152   4.338
 8255SOL    HW125664   3.832   6.207   4.353
 8255SOL    HW225665   3.890   6.055   4.337
 8256SOL     OW25666   6.308   0.439   3.607
 8256SOL    HW125667   6.222   0.414   3.562
 8256SOL    HW225668   6.369   0.483   3.541
 8257SOL     OW25669   6.072   4.925   3.009
 8257SOL    HW125670   6.057   5.014   3.052
 8257SOL    HW225671   5.989   4.897   2.960
 8258SOL     OW25672   4.584   1.626   0.677
 8258SOL    HW125673   4.669   1.640   0.626
 8258SOL    HW225674   4.519   1.698   0.653
 8259SOL     OW25675   4.159   1.399   3.382
 8259SOL    HW125676   4.230   1.416   3.451
 8259SOL    HW225677   4.069   1.406   3.424
 8260SOL     OW25678   2.513   6.702   2.038
 8260SOL    HW125679   2.459   6.700   1.953
 8260SOL    HW225680   2.454   6.726   2.114
 8261SOL     OW25681   5.610   0.909   1.335
 8261SOL    HW125682   5.534   0.890   1.273
 8261SOL    HW225683   5.613   1.007   1.356
 8262SOL     OW25684   1.171   2.348   1.402
 8262SOL    HW125685   1.243   2.392   1.456
 8262SOL    HW225686   1.184   2.369   1.305
 8263SOL     OW25687   0.166   1.504   1.225
 8263SOL    HW125688   0.211   1.515   1.313
 8263SOL    HW225689   0.089   1.441   1.235
 8264SOL     OW25690   1.302   5.731   2.294
 8264SOL    HW125691   1.244   5.668   2.346
 8264SOL    HW225692   1.313   5.816   2.346
 8265SOL     OW25693   1.660   0.341   1.357
 8265SOL    HW125694   1.758   0.338   1.376
 8265SOL    HW225695   1.609   0.360   1.441
 8266SOL     OW25696   1.759   6.833   2.649
 8266SOL    HW125697   1.756   6.774   2.569
 8266SOL    HW225698   1.696   6.910   2.637
 8267SOL     OW25699   2.244   3.710   1.009
 8267SOL    HW125700   2.295   3.794   0.991
 8267SOL    HW225701   2.148   3.724   0.986
 8268SOL     OW25702   1.896   6.516   6.139
 8268SOL    HW125703   1.852   6.462   6.209
 8268SOL    HW225704   1.990   6.538   6.167
 8269SOL     OW25705   6.028   1.604   1.264
 8269SOL    HW125706   5.931   1.596   1.244
 8269SOL    HW225707   6.073   1.653   1.190
 8270SOL     OW25708   2.651   6.923   4.515
 8270SOL    HW125709   2.721   6.955   4.452
 8270SOL    HW225710   2.560   6.942   4.477
 8271SOL     OW25711   6.730   1.121   2.706
 8271SOL    HW125712   6.793   1.137   2.630
 8271SOL    HW225713   6.781   1.122   2.792
 8272SOL     OW25714   5.111   0.910   1.748
 8272SOL    HW125715   5.196   0.859   1.731
 8272SOL    HW225716   5.121   1.002   1.709
 8273SOL     OW25717   2.130   6.382   0.925
 8273SOL    HW125718   2.183   6.450   0.976
 8273SOL    HW225719   2.112   6.416   0.833
 8274SOL     OW25720   4.645   4.903   2.709
 8274SOL    HW125721   4.626   5.001   2.716
 8274SOL    HW225722   4.604   4.856   2.787
 8275SOL     OW25723   4.537   1.990   6.213
 8275SOL    HW125724   4.506   2.083   6.194
 8275SOL    HW225725   4.459   1.928   6.210
 8276SOL     OW25726   1.005   1.828   3.970
 8276SOL    HW125727   1.050   1.844   3.882
 8276SOL    HW225728   1.017   1.732   3.996
 8277SOL     OW25729   0.092   0.847   6.684
 8277SOL    HW125730   0.189   0.828   6.675
 8277SOL    HW225731   0.059   0.893   6.602
 8278SOL     OW25732   2.346   2.238   6.592
 8278SOL    HW125733   2.334   2.230   6.493
 8278SOL    HW225734   2.263   2.206   6.638
 8279SOL     OW25735   0.518   6.328   4.467
 8279SOL    HW125736   0.574   6.281   4.534
 8279SOL    HW225737   0.576   6.384   4.408
 8280SOL     OW25738   2.982   3.508   0.046
 8280SOL    HW125739   2.947   3.470   0.131
 8280SOL    HW225740   2.916   3.574   0.008
 8281SOL     OW25741   0.972   5.546   1.549
 8281SOL    HW125742   0.898   5.599   1.507
 8281SOL    HW225743   0.998   5.471   1.489
 8282SOL     OW25744   5.950   2.860   6.292
 8282SOL    HW125745   5.982   2.768   6.315
 8282SOL    HW225746   5.861   2.876   6.336
 8283SOL     OW25747   1.420   4.562   6.479
 8283SOL    HW125748   1.336   4.509   6.468
 8283SOL    HW225749   1.495   4.517   6.431
 8284SOL     OW25750   0.502   4.193   1.841
 8284SOL    HW125751   0.443   4.178   1.762
 8284SOL    HW225752   0.447   4.197   1.924
 8285SOL     OW25753   3.895   2.876   5.199
 8285SOL    HW125754   3.825   2.946   5.183
 8285SOL    HW225755   3.958   2.874   5.122
 8286SOL     OW25756   5.460   2.426   6.120
 8286SOL    HW125757   5.527   2.469   6.180
 8286SOL    HW225758   5.494   2.338   6.088
 8287SOL     OW25759   1.413   5.684   4.792
 8287SOL    HW125760   1.353   5.644   4.722
 8287SOL    HW225761   1.475   5.614   4.826
 8288SOL     OW25762   2.693   2.336   3.006
 8288SOL    HW125763   2.605   2.373   2.979
 8288SOL    HW225764   2.755   2.336   2.928
 8289SOL     OW25765   0.649   7.019   0.572
 8289SOL    HW125766   0.710   6.990   0.645
 8289SOL    HW225767   0.668   0.094   0.548
 8290SOL     OW25768   6.484   1.379   0.123
 8290SOL    HW125769   6.513   1.297   0.173
 8290SOL    HW225770   6.532   1.384   0.035
 8291SOL     OW25771   4.894   0.087   6.830
 8291SOL    HW125772   4.919   7.012   6.844
 8291SOL    HW225773   4.973   0.146   6.849
 8292SOL     OW25774   2.531   6.186   0.300
 8292SOL    HW125775   2.455   6.153   0.243
 8292SOL    HW225776   2.616   6.181   0.248
 8293SOL     OW25777   3.822   6.705   6.963
 8293SOL    HW125778   3.817   6.669   6.869
 8293SOL    HW225779   3.819   6.805   6.960
 8294SOL     OW25780   5.718   3.680   5.972
 8294SOL    HW125781   5.766   3.626   6.041
 8294SOL    HW225782   5.648   3.735   6.017
 8295SOL     OW25783   5.405   5.093   1.756
 8295SOL    HW125784   5.427   5.061   1.664
 8295SOL    HW225785   5.306   5.089   1.770
 8296SOL     OW25786   1.289   6.651   6.009
 8296SOL    HW125787   1.339   6.737   6.018
 8296SOL    HW225788   1.287   6.622   5.913
 8297SOL     OW25789   6.312   2.589   3.218
 8297SOL    HW125790   6.306   2.582   3.118
 8297SOL    HW225791   6.231   2.546   3.259
 8298SOL     OW25792   5.581   1.266   1.328
 8298SOL    HW125793   5.487   1.278   1.358
 8298SOL    HW225794   5.642   1.271   1.408
 8299SOL     OW25795   0.566   2.604   1.950
 8299SOL    HW125796   0.485   2.659   1.932
 8299SOL    HW225797   0.545   2.508   1.936
 8300SOL     OW25798   0.453   5.138   5.454
 8300SOL    HW125799   0.516   5.203   5.409
 8300SOL    HW225800   0.468   5.141   5.553
 8301SOL     OW25801   4.300   1.879   1.622
 8301SOL    HW125802   4.247   1.954   1.661
 8301SOL    HW225803   4.241   1.824   1.562
 8302SOL     OW25804   6.170   6.011   6.019
 8302SOL    HW125805   6.073   6.005   6.044
 8302SOL    HW225806   6.207   6.099   6.049
 8303SOL     OW25807   6.927   0.481   4.230
 8303SOL    HW125808   0.004   0.500   4.234
 8303SOL    HW225809   6.908   0.395   4.276
 8304SOL     OW25810   1.565   3.628   6.586
 8304SOL    HW125811   1.648   3.645   6.640
 8304SOL    HW225812   1.589   3.622   6.490
 8305SOL     OW25813   3.702   5.229   4.100
 8305SOL    HW125814   3.704   5.137   4.140
 8305SOL    HW225815   3.771   5.286   4.144
 8306SOL     OW25816   0.204   3.226   4.739
 8306SOL    HW125817   0.292   3.185   4.764
 8306SOL    HW225818   0.148   3.240   4.820
 8307SOL     OW25819   3.905   5.357   1.912
 8307SOL    HW125820   3.834   5.351   1.842
 8307SOL    HW225821   3.868   5.400   1.994
 8308SOL     OW25822   4.490   6.234   1.261
 8308SOL    HW125823   4.518   6.198   1.173
 8308SOL    HW225824   4.532   6.324   1.275
 8309SOL     OW25825   5.451   5.603   3.016
 8309SOL    HW125826   5.466   5.510   3.051
 8309SOL    HW225827   5.373   5.603   2.954
 8310SOL     OW25828   0.957   4.533   0.626
 8310SOL    HW125829   0.896   4.530   0.705
 8310SOL    HW225830   0.956   4.444   0.580
 8311SOL     OW25831   0.382   1.187   5.971
 8311SOL    HW125832   0.418   1.156   6.059
 8311SOL    HW225833   0.410   1.123   5.900
 8312SOL     OW25834   5.070   6.270   1.419
 8312SOL    HW125835   4.989   6.300   1.470
 8312SOL    HW225836   5.115   6.196   1.469
 8313SOL     OW25837   3.828   1.633   2.546
 8313SOL    HW125838   3.922   1.668   2.537
 8313SOL    HW225839   3.813   1.604   2.640
 8314SOL     OW25840   4.998   6.440   0.650
 8314SOL    HW125841   5.022   6.536   0.639
 8314SOL    HW225842   4.926   6.416   0.585
 8315SOL     OW25843   4.047   3.140   0.939
 8315SOL    HW125844   4.096   3.166   0.856
 8315SOL    HW225845   4.002   3.221   0.978
 8316SOL     OW25846   0.377   3.315   1.470
 8316SOL    HW125847   0.334   3.362   1.392
 8316SOL    HW225848   0.321   3.235   1.495
 8317SOL     OW25849   2.053   3.205   2.453
 8317SOL    HW125850   2.119   3.131   2.439
 8317SOL    HW225851   2.063   3.273   2.379
 8318SOL     OW25852   4.755   2.220   4.741
 8318SOL    HW125853   4.849   2.184   4.733
 8318SOL    HW225854   4.706   2.167   4.810
 8319SOL     OW25855   3.138   1.868   5.716
 8319SOL    HW125856   3.224   1.893   5.761
 8319SOL    HW225857   3.067   1.933   5.742
 8320SOL     OW25858   3.558   4.712   1.142
 8320SOL    HW125859   3.618   4.791   1.127
 8320SOL    HW225860   3.577   4.642   1.074
 8321SOL     OW25861   0.407   1.014   6.201
 8321SOL    HW125862   0.323   0.970   6.169
 8321SOL    HW225863   0.485   0.957   6.176
 8322SOL     OW25864   6.920   0.199   0.209
 8322SOL    HW125865   6.926   0.299   0.204
 8322SOL    HW225866   6.953   0.160   0.124
 8323SOL     OW25867   0.067   6.960   2.445
 8323SOL    HW125868   0.111   0.017   2.399
 8323SOL    HW225869   0.111   6.875   2.416
 8324SOL     OW25870   6.449   0.306   2.545
 8324SOL    HW125871   6.504   0.231   2.581
 8324SOL    HW225872   6.401   0.276   2.462
 8325SOL     OW25873   3.906   3.015   4.391
 8325SOL    HW125874   3.971   3.073   4.342
 8325SOL    HW225875   3.830   2.992   4.330
 8326SOL     OW25876   4.129   3.514   5.399
 8326SOL    HW125877   4.206   3.575   5.382
 8326SOL    HW225878   4.052   3.542   5.342
 8327SOL     OW25879   4.928   2.267   5.587
 8327SOL    HW125880   4.956   2.171   5.587
 8327SOL    HW225881   4.899   2.293   5.494
 8328SOL     OW25882   2.358   3.587   6.052
 8328SOL    HW125883   2.283   3.648   6.026
 8328SOL    HW225884   2.415   3.632   6.121
 8329SOL     OW25885   0.037   3.188   5.604
 8329SOL    HW125886   0.074   3.158   5.516
 8329SOL    HW225887   6.992   3.120   5.638
 8330SOL     OW25888   1.963   0.261   0.445
 8330SOL    HW125889   1.936   0.306   0.530
 8330SOL    HW225890   2.058   0.283   0.423
 8331SOL     OW25891   2.946   6.880   0.886
 8331SOL    HW125892   2.968   6.938   0.964
 8331SOL    HW225893   2.858   6.834   0.902
 8332SOL     OW25894   4.524   5.232   2.452
 8332SOL    HW125895   4.484   5.148   2.418
 8332SOL    HW225896   4.499   5.308   2.391
 8333SOL     OW25897   0.056   6.017   0.090
 8333SOL    HW125898   0.086   6.067   0.171
 8333SOL    HW225899   7.010   6.072   0.040
 8334SOL     OW25900   5.879   1.446   4.108
 8334SOL    HW125901   5.926   1.475   4.024
 8334SOL    HW225902   5.853   1.526   4.161
 8335SOL     OW25903   6.158   5.180   5.640
 8335SOL    HW125904   6.088   5.176   5.712
 8335SOL    HW225905   6.249   5.175   5.681
 8336SOL     OW25906   6.891   1.132   2.499
 8336SOL    HW125907   6.899   1.146   2.400
 8336SOL    HW225908   6.936   1.046   2.524
 8337SOL     OW25909   0.609   6.869   3.888
 8337SOL    HW125910   0.639   6.952   3.841
 8337SOL    HW225911   0.684   6.834   3.945
 8338SOL     OW25912   2.320   4.902   1.795
 8338SOL    HW125913   2.397   4.881   1.855
 8338SOL    HW225914   2.238   4.855   1.828
 8339SOL     OW25915   6.213   1.121   2.056
 8339SOL    HW125916   6.206   1.172   2.142
 8339SOL    HW225917   6.251   1.180   1.985
 8340SOL     OW25918   4.692   3.776   1.020
 8340SOL    HW125919   4.664   3.715   0.947
 8340SOL    HW225920   4.791   3.788   1.017
 8341SOL     OW25921   2.274   6.120   0.168
 8341SOL    HW125922   2.187   6.120   0.218
 8341SOL    HW225923   2.256   6.114   0.070
 8342SOL     OW25924   3.597   6.755   1.580
 8342SOL    HW125925   3.617   6.710   1.493
 8342SOL    HW225926   3.565   6.686   1.645
 8343SOL     OW25927   1.600   5.332   6.183
 8343SOL    HW125928   1.624   5.428   6.193
 8343SOL    HW225929   1.537   5.321   6.106
 8344SOL     OW25930   4.705   6.526   5.796
 8344SOL    HW125931   4.668   6.434   5.811
 8344SOL    HW225932   4.793   6.534   5.842
 8345SOL     OW25933   5.445   1.828   3.422
 8345SOL    HW125934   5.380   1.787   3.486
 8345SOL    HW225935   5.445   1.927   3.433
 8346SOL     OW25936   2.442   4.696   0.281
 8346SOL    HW125937   2.448   4.686   0.182
 8346SOL    HW225938   2.529   4.673   0.323
 8347SOL     OW25939   2.972   6.961   5.064
 8347SOL    HW125940   3.066   6.981   5.091
 8347SOL    HW225941   2.948   7.016   4.984
 8348SOL     OW25942   1.609   6.940   1.397
 8348SOL    HW125943   1.688   6.960   1.455
 8348SOL    HW225944   1.619   6.989   1.310
 8349SOL     OW25945   5.686   3.806   1.192
 8349SOL    HW125946   5.683   3.726   1.251
 8349SOL    HW225947   5.778   3.817   1.154
 8350SOL     OW25948   5.422   0.874   4.864
 8350SOL    HW125949   5.497   0.891   4.927
 8350SOL    HW225950   5.439   0.922   4.778
 8351SOL     OW25951   3.824   5.335   4.732
 8351SOL    HW125952   3.924   5.331   4.728
 8351SOL    HW225953   3.792   5.302   4.821
 8352SOL     OW25954   6.795   0.461   1.901
 8352SOL    HW125955   6.853   0.381   1.918
 8352SOL    HW225956   6.721   0.463   1.968
 8353SOL     OW25957   5.714   3.677   2.255
 8353SOL    HW125958   5.653   3.743   2.212
 8353SOL    HW225959   5.677   3.649   2.344
 8354SOL     OW25960   3.148   1.257   6.809
 8354SOL    HW125961   3.066   1.260   6.752
 8354SOL    HW225962   3.182   1.351   6.823
 8355SOL     OW25963   2.594   0.640   6.757
 8355SOL    HW125964   2.658   0.680   6.691
 8355SOL    HW225965   2.637   0.637   6.848
 8356SOL     OW25966   0.744   6.381   0.534
 8356SOL    HW125967   0.766   6.474   0.563
 8356SOL    HW225968   0.744   6.320   0.614
 8357SOL     OW25969   3.938   5.701   5.641
 8357SOL    HW125970   3.883   5.746   5.711
 8357SOL    HW225971   4.031   5.738   5.642
 8358SOL     OW25972   2.140   2.527   5.585
 8358SOL    HW125973   2.213   2.494   5.645
 8358SOL    HW225974   2.164   2.618   5.552
 8359SOL     OW25975   3.807   5.990   4.733
 8359SOL    HW125976   3.852   6.050   4.666
 8359SOL    HW225977   3.846   5.898   4.726
 8360SOL     OW25978   3.614   0.048   2.599
 8360SOL    HW125979   3.626   0.146   2.610
 8360SOL    HW225980   3.594   0.006   2.688
 8361SOL     OW25981   1.660   0.952   1.979
 8361SOL    HW125982   1.747   0.966   1.931
 8361SOL    HW225983   1.603   1.034   1.970
 8362SOL     OW25984   2.739   2.407   0.396
 8362SOL    HW125985   2.800   2.461   0.338
 8362SOL    HW225986   2.778   2.316   0.411
 8363SOL     OW25987   1.019   2.635   0.418
 8363SOL    HW125988   1.040   2.609   0.512
 8363SOL    HW225989   0.928   2.678   0.415
 8364SOL     OW25990   0.430   3.228   2.899
 8364SOL    HW125991   0.349   3.171   2.912
 8364SOL    HW225992   0.506   3.171   2.865
 8365SOL     OW25993   1.630   4.038   0.950
 8365SOL    HW125994   1.669   4.119   0.993
 8365SOL    HW225995   1.598   3.975   1.020
 8366SOL     OW25996   4.457   5.947   1.961
 8366SOL    HW125997   4.361   5.971   1.945
 8366SOL    HW225998   4.503   5.932   1.873
 8367SOL     OW25999   4.362   6.181   4.071
 8367SOL    HW126000   4.360   6.197   4.170
 8367SOL    HW226001   4.292   6.113   4.048
 8368SOL     OW26002   2.802   5.766   6.306
 8368SOL    HW126003   2.880   5.829   6.303
 8368SOL    HW226004   2.724   5.809   6.261
 8369SOL     OW26005   1.857   1.201   6.479
 8369SOL    HW126006   1.838   1.150   6.563
 8369SOL    HW226007   1.781   1.189   6.415
 8370SOL     OW26008   2.971   2.499   5.736
 8370SOL    HW126009   3.064   2.470   5.757
 8370SOL    HW226010   2.920   2.515   5.820
 8371SOL     OW26011   1.633   3.678   0.382
 8371SOL    HW126012   1.539   3.653   0.357
 8371SOL    HW226013   1.685   3.695   0.298
 8372SOL     OW26014   0.968   6.322   2.847
 8372SOL    HW126015   0.964   6.293   2.751
 8372SOL    HW226016   0.885   6.374   2.870
 8373SOL     OW26017   0.879   6.776   5.119
 8373SOL    HW126018   0.783   6.801   5.104
 8373SOL    HW226019   0.883   6.683   5.156
 8374SOL     OW26020   0.050   1.161   6.810
 8374SOL    HW126021   0.104   1.078   6.823
 8374SOL    HW226022   0.102   1.226   6.754
 8375SOL     OW26023   3.576   5.832   5.862
 8375SOL    HW126024   3.508   5.863   5.928
 8375SOL    HW226025   3.583   5.897   5.787
 8376SOL     OW26026   2.393   0.640   4.829
 8376SOL    HW126027   2.355   0.727   4.797
 8376SOL    HW226028   2.347   0.564   4.783
 8377SOL     OW26029   6.168   5.726   1.668
 8377SOL    HW126030   6.086   5.768   1.708
 8377SOL    HW226031   6.244   5.791   1.674
 8378SOL     OW26032   4.943   4.070   3.337
 8378SOL    HW126033   4.919   3.991   3.394
 8378SOL    HW226034   4.918   4.052   3.242
 8379SOL     OW26035   6.828   3.264   1.106
 8379SOL    HW126036   6.885   3.210   1.043
 8379SOL    HW226037   6.828   3.221   1.196
 8380SOL     OW26038   6.574   0.844   1.989
 8380SOL    HW126039   6.475   0.839   2.004
 8380SOL    HW226040   6.619   0.769   2.038
 8381SOL     OW26041   0.912   5.148   4.648
 8381SOL    HW126042   0.835   5.212   4.651
 8381SOL    HW226043   0.973   5.166   4.725
 8382SOL     OW26044   1.445   1.435   2.233
 8382SOL    HW126045   1.513   1.365   2.252
 8382SOL    HW226046   1.403   1.417   2.144
 8383SOL     OW26047   3.104   2.158   6.366
 8383SOL    HW126048   3.156   2.222   6.423
 8383SOL    HW226049   3.007   2.179   6.373
 8384SOL     OW26050   0.049   6.797   0.740
 8384SOL    HW126051   0.125   6.733   0.755
 8384SOL    HW226052   0.060   6.842   0.652
 8385SOL     OW26053   5.890   2.666   1.916
 8385SOL    HW126054   5.844   2.630   1.835
 8385SOL    HW226055   5.828   2.664   1.994
 8386SOL     OW26056   1.136   4.248   2.468
 8386SOL    HW126057   1.120   4.241   2.567
 8386SOL    HW226058   1.103   4.165   2.423
 8387SOL     OW26059   1.334   1.360   0.936
 8387SOL    HW126060   1.305   1.266   0.956
 8387SOL    HW226061   1.257   1.422   0.950
 8388SOL     OW26062   2.327   6.084   1.624
 8388SOL    HW126063   2.371   6.014   1.567
 8388SOL    HW226064   2.378   6.094   1.709
 8389SOL     OW26065   5.196   3.642   2.096
 8389SOL    HW126066   5.221   3.709   2.026
 8389SOL    HW226067   5.110   3.670   2.139
 8390SOL     OW26068   3.806   1.870   6.321
 8390SOL    HW126069   3.794   1.839   6.415
 8390SOL    HW226070   3.779   1.798   6.257
 8391SOL     OW26071   6.165   6.744   0.730
 8391SOL    HW126072   6.260   6.727   0.754
 8391SOL    HW226073   6.146   6.707   0.639
 8392SOL     OW26074   6.522   3.822   3.766
 8392SOL    HW126075   6.609   3.864   3.740
 8392SOL    HW226076   6.508   3.831   3.864
 8393SOL     OW26077   5.274   0.528   2.256
 8393SOL    HW126078   5.243   0.441   2.218
 8393SOL    HW226079   5.287   0.519   2.354
 8394SOL     OW26080   6.091   3.485   2.344
 8394SOL    HW126081   6.107   3.553   2.416
 8394SOL    HW226082   6.160   3.496   2.273
 8395SOL     OW26083   2.319   0.446   5.500
 8395SOL    HW126084   2.282   0.369   5.553
 8395SOL    HW226085   2.272   0.530   5.526
 8396SOL     OW26086   4.169   4.781   4.129
 8396SOL    HW126087   4.204   4.873   4.113
 8396SOL    HW226088   4.072   4.785   4.155
 8397SOL     OW26089   6.900   1.662   4.037
 8397SOL    HW126090   6.835   1.586   4.036
 8397SOL    HW226091   6.873   1.727   4.108
 8398SOL     OW26092   4.801   1.688   6.220
 8398SOL    HW126093   4.890   1.733   6.230
 8398SOL    HW226094   4.746   1.704   6.302
 8399SOL     OW26095   6.879   6.258   6.726
 8399SOL    HW126096   6.813   6.236   6.655
 8399SOL    HW226097   6.970   6.224   6.699
 8400SOL     OW26098   1.894   2.695   4.430
 8400SOL    HW126099   1.934   2.700   4.521
 8400SOL    HW226100   1.819   2.761   4.423
 8401SOL     OW26101   2.383   0.344   5.236
 8401SOL    HW126102   2.470   0.305   5.264
 8401SOL    HW226103   2.331   0.373   5.317
 8402SOL     OW26104   4.585   0.662   6.546
 8402SOL    HW126105   4.671   0.649   6.594
 8402SOL    HW226106   4.513   0.609   6.592
 8403SOL     OW26107   6.848   4.749   3.832
 8403SOL    HW126108   6.866   4.664   3.882
 8403SOL    HW226109   6.789   4.808   3.887
 8404SOL     OW26110   2.882   1.721   6.355
 8404SOL    HW126111   2.866   1.635   6.306
 8404SOL    HW226112   2.970   1.760   6.326
 8405SOL     OW26113   3.736   1.611   6.112
 8405SOL    HW126114   3.813   1.548   6.115
 8405SOL    HW226115   3.651   1.558   6.105
 8406SOL     OW26116   4.724   0.786   0.088
 8406SOL    HW126117   4.656   0.856   0.068
 8406SOL    HW226118   4.724   0.767   0.187
 8407SOL     OW26119   4.198   6.176   3.644
 8407SOL    HW126120   4.192   6.087   3.688
 8407SOL    HW226121   4.264   6.233   3.694
 8408SOL     OW26122   5.437   6.888   0.786
 8408SOL    HW126123   5.513   6.842   0.831
 8408SOL    HW226124   5.467   6.923   0.697
 8409SOL     OW26125   4.595   2.438   1.707
 8409SOL    HW126126   4.679   2.491   1.698
 8409SOL    HW226127   4.517   2.501   1.715
 8410SOL     OW26128   6.407   1.764   1.467
 8410SOL    HW126129   6.485   1.766   1.529
 8410SOL    HW226130   6.417   1.835   1.397
 8411SOL     OW26131   0.038   6.262   1.806
 8411SOL    HW126132   0.072   6.327   1.738
 8411SOL    HW226133   6.968   6.293   1.839
 8412SOL     OW26134   3.456   3.258   0.689
 8412SOL    HW126135   3.455   3.181   0.753
 8412SOL    HW226136   3.550   3.275   0.658
 8413SOL     OW26137   4.206   5.678   6.425
 8413SOL    HW126138   4.268   5.721   6.490
 8413SOL    HW226139   4.111   5.690   6.456
 8414SOL     OW26140   1.888   1.189   2.326
 8414SOL    HW126141   1.981   1.225   2.331
 8414SOL    HW226142   1.892   1.090   2.314
 8415SOL     OW26143   3.186   6.951   4.092
 8415SOL    HW126144   3.129   6.998   4.024
 8415SOL    HW226145   3.136   6.873   4.129
 8416SOL     OW26146   5.518   1.605   4.848
 8416SOL    HW126147   5.428   1.627   4.810
 8416SOL    HW226148   5.540   1.671   4.920
 8417SOL     OW26149   1.585   3.152   5.258
 8417SOL    HW126150   1.647   3.074   5.260
 8417SOL    HW226151   1.635   3.234   5.230
 8418SOL     OW26152   0.785   5.468   2.306
 8418SOL    HW126153   0.825   5.413   2.379
 8418SOL    HW226154   0.687   5.481   2.324
 8419SOL     OW26155   5.755   1.059   3.211
 8419SOL    HW126156   5.828   1.055   3.279
 8419SOL    HW226157   5.742   1.154   3.182
 8420SOL     OW26158   3.364   6.923   2.249
 8420SOL    HW126159   3.279   6.873   2.260
 8420SOL    HW226160   3.441   6.859   2.245
 8421SOL     OW26161   3.346   6.281   6.488
 8421SOL    HW126162   3.269   6.224   6.517
 8421SOL    HW226163   3.327   6.377   6.511
 8422SOL     OW26164   4.702   2.739   2.361
 8422SOL    HW126165   4.714   2.670   2.289
 8422SOL    HW226166   4.754   2.821   2.337
 8423SOL     OW26167   4.751   4.526   5.673
 8423SOL    HW126168   4.689   4.603   5.683
 8423SOL    HW226169   4.783   4.497   5.763
 8424SOL     OW26170   1.890   0.343   3.549
 8424SOL    HW126171   1.847   0.388   3.627
 8424SOL    HW226172   1.962   0.402   3.513
 8425SOL     OW26173   3.368   3.814   3.758
 8425SOL    HW126174   3.316   3.853   3.682
 8425SOL    HW226175   3.324   3.838   3.845
 8426SOL     OW26176   3.619   3.321   2.389
 8426SOL    HW126177   3.524   3.325   2.358
 8426SOL    HW226178   3.665   3.407   2.366
 8427SOL     OW26179   2.899   3.541   3.396
 8427SOL    HW126180   2.907   3.637   3.368
 8427SOL    HW226181   2.942   3.529   3.485
 8428SOL     OW26182   0.157   0.184   0.839
 8428SOL    HW126183   0.139   0.096   0.882
 8428SOL    HW226184   0.202   0.245   0.904
 8429SOL     OW26185   1.903   5.791   6.072
 8429SOL    HW126186   1.902   5.713   6.134
 8429SOL    HW226187   1.895   5.875   6.125
 8430SOL     OW26188   3.998   5.047   4.740
 8430SOL    HW126189   3.947   5.045   4.654
 8430SOL    HW226190   4.063   4.971   4.742
 8431SOL     OW26191   3.007   3.644   6.424
 8431SOL    HW126192   2.982   3.550   6.404
 8431SOL    HW226193   3.099   3.662   6.388
 8432SOL     OW26194   6.616   5.510   6.363
 8432SOL    HW126195   6.517   5.519   6.369
 8432SOL    HW226196   6.659   5.556   6.440
 8433SOL     OW26197   4.428   2.833   1.018
 8433SOL    HW126198   4.399   2.769   1.089
 8433SOL    HW226199   4.477   2.784   0.946
 8434SOL     OW26200   1.975   5.428   4.613
 8434SOL    HW126201   2.060   5.415   4.563
 8434SOL    HW226202   1.898   5.430   4.548
 8435SOL     OW26203   5.368   0.895   2.724
 8435SOL    HW126204   5.375   0.894   2.625
 8435SOL    HW226205   5.436   0.959   2.761
 8436SOL     OW26206   2.928   6.272   3.550
 8436SOL    HW126207   2.932   6.227   3.639
 8436SOL    HW226208   2.908   6.205   3.478
 8437SOL     OW26209   2.119   3.203   2.712
 8437SOL    HW126210   2.083   3.201   2.619
 8437SOL    HW226211   2.169   3.119   2.731
 8438SOL     OW26212   1.599   3.600   3.204
 8438SOL    HW126213   1.608   3.699   3.218
 8438SOL    HW226214   1.686   3.556   3.222
 8439SOL     OW26215   6.234   5.428   3.860
 8439SOL    HW126216   6.241   5.330   3.844
 8439SOL    HW226217   6.313   5.474   3.820
 8440SOL     OW26218   2.292   1.485   3.799
 8440SOL    HW126219   2.277   1.522   3.891
 8440SOL    HW226220   2.218   1.422   3.777
 8441SOL     OW26221   5.235   5.775   5.366
 8441SOL    HW126222   5.283   5.761   5.279
 8441SOL    HW226223   5.284   5.843   5.420
 8442SOL     OW26224   3.813   1.128   5.145
 8442SOL    HW126225   3.833   1.075   5.062
 8442SOL    HW226226   3.893   1.128   5.204
 8443SOL     OW26227   1.733   4.838   3.495
 8443SOL    HW126228   1.777   4.783   3.425
 8443SOL    HW226229   1.776   4.821   3.584
 8444SOL     OW26230   4.485   6.737   3.140
 8444SOL    HW126231   4.574   6.771   3.172
 8444SOL    HW226232   4.432   6.705   3.219
 8445SOL     OW26233   2.709   0.066   6.880
 8445SOL    HW126234   2.770   0.007   6.932
 8445SOL    HW226235   2.635   0.098   6.940
 8446SOL     OW26236   0.082   6.569   5.096
 8446SOL    HW126237   0.047   6.520   5.016
 8446SOL    HW226238   0.155   6.516   5.139
 8447SOL     OW26239   4.458   1.619   2.468
 8447SOL    HW126240   4.391   1.619   2.543
 8447SOL    HW226241   4.548   1.594   2.504
 8448SOL     OW26242   4.640   6.275   3.685
 8448SOL    HW126243   4.624   6.179   3.709
 8448SOL    HW226244   4.697   6.318   3.755
 8449SOL     OW26245   1.839   3.107   3.375
 8449SOL    HW126246   1.752   3.092   3.422
 8449SOL    HW226247   1.868   3.202   3.387
 8450SOL     OW26248   0.508   0.823   6.892
 8450SOL    HW126249   0.585   0.885   6.907
 8450SOL    HW226250   0.483   0.780   6.979
 8451SOL     OW26251   3.518   1.134   0.905
 8451SOL    HW126252   3.552   1.048   0.941
 8451SOL    HW226253   3.555   1.149   0.813
 8452SOL     OW26254   5.430   1.887   4.458
 8452SOL    HW126255   5.380   1.855   4.539
 8452SOL    HW226256   5.390   1.846   4.376
 8453SOL     OW26257   0.849   5.354   6.973
 8453SOL    HW126258   0.875   5.422   6.904
 8453SOL    HW226259   0.823   5.401   0.037
 8454SOL     OW26260   0.860   4.261   6.761
 8454SOL    HW126261   0.895   4.338   6.815
 8454SOL    HW226262   0.922   4.183   6.770
 8455SOL     OW26263   0.988   0.335   2.468
 8455SOL    HW126264   1.078   0.375   2.451
 8455SOL    HW226265   0.971   0.260   2.404
 8456SOL     OW26266   5.050   0.297   3.371
 8456SOL    HW126267   5.028   0.346   3.287
 8456SOL    HW226268   5.092   0.361   3.437
 8457SOL     OW26269   6.166   6.809   4.816
 8457SOL    HW126270   6.089   6.831   4.876
 8457SOL    HW226271   6.227   6.744   4.861
 8458SOL     OW26272   0.836   0.018   0.307
 8458SOL    HW126273   0.891   0.098   0.283
 8458SOL    HW226274   0.739   0.042   0.302
 8459SOL     OW26275   1.510   5.710   3.137
 8459SOL    HW126276   1.416   5.743   3.130
 8459SOL    HW226277   1.573   5.787   3.130
 8460SOL     OW26278   4.262   3.916   5.343
 8460SOL    HW126279   4.312   3.830   5.360
 8460SOL    HW226280   4.327   3.992   5.346
 8461SOL     OW26281   6.832   3.131   4.708
 8461SOL    HW126282   6.875   3.113   4.796
 8461SOL    HW226283   6.748   3.076   4.700
 8462SOL     OW26284   3.029   1.692   1.147
 8462SOL    HW126285   2.953   1.636   1.116
 8462SOL    HW226286   3.031   1.693   1.247
 8463SOL     OW26287   5.917   0.444   2.219
 8463SOL    HW126288   5.944   0.439   2.123
 8463SOL    HW226289   5.840   0.507   2.229
 8464SOL     OW26290   5.814   3.384   4.542
 8464SOL    HW126291   5.897   3.409   4.492
 8464SOL    HW226292   5.739   3.373   4.477
 8465SOL     OW26293   1.592   1.996   0.575
 8465SOL    HW126294   1.638   2.084   0.559
 8465SOL    HW226295   1.526   2.006   0.650
 8466SOL     OW26296   1.220   5.462   3.148
 8466SOL    HW126297   1.234   5.561   3.143
 8466SOL    HW226298   1.262   5.426   3.232
 8467SOL     OW26299   2.756   5.804   0.659
 8467SOL    HW126300   2.782   5.813   0.755
 8467SOL    HW226301   2.762   5.708   0.632
 8468SOL     OW26302   3.830   2.305   0.312
 8468SOL    HW126303   3.828   2.276   0.216
 8468SOL    HW226304   3.750   2.269   0.360
 8469SOL     OW26305   3.256   2.989   6.587
 8469SOL    HW126306   3.348   3.025   6.572
 8469SOL    HW226307   3.229   3.005   6.682
 8470SOL     OW26308   2.003   2.571   1.098
 8470SOL    HW126309   2.035   2.570   1.003
 8470SOL    HW226310   2.081   2.573   1.160
 8471SOL     OW26311   3.409   0.673   4.233
 8471SOL    HW126312   3.402   0.670   4.332
 8471SOL    HW226313   3.414   0.580   4.197
 8472SOL     OW26314   0.671   6.764   4.593
 8472SOL    HW126315   0.605   6.692   4.616
 8472SOL    HW226316   0.627   6.832   4.535
 8473SOL     OW26317   6.848   5.757   0.292
 8473SOL    HW126318   6.853   5.803   0.380
 8473SOL    HW226319   6.804   5.668   0.303
 8474SOL     OW26320   3.197   3.011   1.877
 8474SOL    HW126321   3.130   2.953   1.832
 8474SOL    HW226322   3.282   2.960   1.889
 8475SOL     OW26323   6.139   1.653   2.801
 8475SOL    HW126324   6.140   1.590   2.879
 8475SOL    HW226325   6.191   1.614   2.725
 8476SOL     OW26326   5.593   0.077   1.882
 8476SOL    HW126327   5.536   7.018   1.862
 8476SOL    HW226328   5.663   0.052   1.949
 8477SOL     OW26329   2.786   6.677   1.018
 8477SOL    HW126330   2.870   6.638   1.054
 8477SOL    HW226331   2.732   6.605   0.974
 8478SOL     OW26332   1.754   0.717   5.340
 8478SOL    HW126333   1.668   0.688   5.300
 8478SOL    HW226334   1.805   0.637   5.373
 8479SOL     OW26335   5.995   1.083   0.475
 8479SOL    HW126336   6.075   1.124   0.430
 8479SOL    HW226337   5.982   1.126   0.564
 8480SOL     OW26338   3.398   0.514   1.196
 8480SOL    HW126339   3.385   0.417   1.175
 8480SOL    HW226340   3.353   0.570   1.126
 8481SOL     OW26341   3.815   1.587   4.590
 8481SOL    HW126342   3.777   1.629   4.507
 8481SOL    HW226343   3.899   1.538   4.567
 8482SOL     OW26344   1.842   0.119   2.077
 8482SOL    HW126345   1.875   0.208   2.108
 8482SOL    HW226346   1.911   0.049   2.096
 8483SOL     OW26347   3.188   5.828   2.197
 8483SOL    HW126348   3.092   5.807   2.211
 8483SOL    HW226349   3.203   5.926   2.210
 8484SOL     OW26350   0.465   4.602   4.010
 8484SOL    HW126351   0.552   4.586   4.056
 8484SOL    HW226352   0.411   4.517   4.012
 8485SOL     OW26353   2.491   4.138   0.175
 8485SOL    HW126354   2.426   4.154   0.100
 8485SOL    HW226355   2.522   4.226   0.211
 8486SOL     OW26356   5.578   1.273   2.450
 8486SOL    HW126357   5.657   1.211   2.455
 8486SOL    HW226358   5.568   1.306   2.356
 8487SOL     OW26359   5.152   0.256   1.309
 8487SOL    HW126360   5.187   0.305   1.389
 8487SOL    HW226361   5.105   0.320   1.249
 8488SOL     OW26362   5.359   4.534   4.552
 8488SOL    HW126363   5.398   4.524   4.643
 8488SOL    HW226364   5.421   4.586   4.494
 8489SOL     OW26365   5.589   4.310   1.492
 8489SOL    HW126366   5.536   4.243   1.441
 8489SOL    HW226367   5.542   4.398   1.489
 8490SOL     OW26368   4.418   5.726   2.665
 8490SOL    HW126369   4.413   5.811   2.718
 8490SOL    HW226370   4.329   5.708   2.623
 8491SOL     OW26371   2.524   0.702   2.157
 8491SOL    HW126372   2.606   0.735   2.204
 8491SOL    HW226373   2.444   0.752   2.191
 8492SOL     OW26374   5.694   3.259   5.570
 8492SOL    HW126375   5.628   3.281   5.642
 8492SOL    HW226376   5.654   3.279   5.481
 8493SOL     OW26377   3.976   2.062   6.915
 8493SOL    HW126378   4.054   2.014   6.875
 8493SOL    HW226379   4.003   2.155   6.939
 8494SOL     OW26380   2.864   5.923   6.860
 8494SOL    HW126381   2.780   5.905   6.809
 8494SOL    HW226382   2.874   5.856   6.934
 8495SOL     OW26383   6.793   2.535   0.582
 8495SOL    HW126384   6.704   2.550   0.539
 8495SOL    HW226385   6.863   2.586   0.532
 8496SOL     OW26386   0.640   2.114   3.622
 8496SOL    HW126387   0.566   2.152   3.566
 8496SOL    HW226388   0.612   2.026   3.660
 8497SOL     OW26389   5.694   5.557   4.504
 8497SOL    HW126390   5.599   5.535   4.528
 8497SOL    HW226391   5.710   5.533   4.409
 8498SOL     OW26392   0.307   0.069   1.138
 8498SOL    HW126393   0.289   7.020   1.208
 8498SOL    HW226394   0.339   0.152   1.183
 8499SOL     OW26395   3.283   4.998   6.405
 8499SOL    HW126396   3.309   5.092   6.427
 8499SOL    HW226397   3.299   4.940   6.485
 8500SOL     OW26398   2.093   6.712   5.840
 8500SOL    HW126399   2.044   6.631   5.806
 8500SOL    HW226400   2.142   6.689   5.923
 8501SOL     OW26401   1.864   3.383   6.549
 8501SOL    HW126402   1.770   3.366   6.580
 8501SOL    HW226403   1.869   3.473   6.506
 8502SOL     OW26404   6.953   6.246   1.202
 8502SOL    HW126405   0.024   6.277   1.229
 8502SOL    HW226406   6.957   6.211   1.108
 8503SOL     OW26407   1.906   5.052   3.675
 8503SOL    HW126408   1.996   5.087   3.699
 8503SOL    HW226409   1.903   4.953   3.690
 8504SOL     OW26410   1.893   6.143   3.337
 8504SOL    HW126411   1.874   6.237   3.366
 8504SOL    HW226412   1.984   6.139   3.296
 8505SOL     OW26413   5.523   4.232   3.995
 8505SOL    HW126414   5.450   4.167   4.018
 8505SOL    HW226415   5.538   4.294   4.072
 8506SOL     OW26416   1.224   6.218   0.666
 8506SOL    HW126417   1.296   6.165   0.710
 8506SOL    HW226418   1.197   6.173   0.581
 8507SOL     OW26419   2.310   0.822   6.094
 8507SOL    HW126420   2.231   0.849   6.148
 8507SOL    HW226421   2.381   0.786   6.153
 8508SOL     OW26422   6.709   2.505   5.324
 8508SOL    HW126423   6.641   2.462   5.264
 8508SOL    HW226424   6.683   2.600   5.341
 8509SOL     OW26425   5.952   1.266   4.491
 8509SOL    HW126426   5.876   1.331   4.482
 8509SOL    HW226427   5.920   1.182   4.535
 8510SOL     OW26428   5.574   5.814   3.125
 8510SOL    HW126429   5.532   5.726   3.100
 8510SOL    HW226430   5.546   5.884   3.059
 8511SOL     OW26431   6.557   4.239   0.677
 8511SOL    HW126432   6.482   4.249   0.611
 8511SOL    HW226433   6.629   4.305   0.656
 8512SOL     OW26434   4.032   2.324   0.030
 8512SOL    HW126435   4.073   2.251   0.085
 8512SOL    HW226436   4.026   2.408   0.084
 8513SOL     OW26437   5.430   3.574   0.677
 8513SOL    HW126438   5.338   3.606   0.653
 8513SOL    HW226439   5.428   3.534   0.768
 8514SOL     OW26440   2.711   1.475   4.422
 8514SOL    HW126441   2.617   1.446   4.406
 8514SOL    HW226442   2.747   1.520   4.340
 8515SOL     OW26443   0.384   1.415   6.513
 8515SOL    HW126444   0.362   1.497   6.566
 8515SOL    HW226445   0.419   1.442   6.423
 8516SOL     OW26446   5.621   3.057   2.657
 8516SOL    HW126447   5.524   3.050   2.682
 8516SOL    HW226448   5.678   3.032   2.735
 8517SOL     OW26449   2.352   2.562   5.774
 8517SOL    HW126450   2.329   2.660   5.775
 8517SOL    HW226451   2.420   2.545   5.704
 8518SOL     OW26452   5.081   4.539   6.606
 8518SOL    HW126453   5.042   4.552   6.515
 8518SOL    HW226454   5.115   4.626   6.641
 8519SOL     OW26455   1.376   4.764   0.599
 8519SOL    HW126456   1.414   4.672   0.587
 8519SOL    HW226457   1.294   4.759   0.656
 8520SOL     OW26458   4.122   3.745   5.156
 8520SOL    HW126459   4.134   3.771   5.060
 8520SOL    HW226460   4.192   3.790   5.211
 8521SOL     OW26461   1.526   6.653   5.790
 8521SOL    HW126462   1.515   6.556   5.814
 8521SOL    HW226463   1.437   6.695   5.777
 8522SOL     OW26464   0.900   0.255   0.748
 8522SOL    HW126465   0.921   0.292   0.657
 8522SOL    HW226466   0.837   0.316   0.795
 8523SOL     OW26467   2.898   6.724   6.295
 8523SOL    HW126468   2.806   6.764   6.291
 8523SOL    HW226469   2.923   6.690   6.205
 8524SOL     OW26470   1.370   5.008   4.849
 8524SOL    HW126471   1.287   5.035   4.800
 8524SOL    HW226472   1.422   4.944   4.794
 8525SOL     OW26473   6.317   4.623   0.783
 8525SOL    HW126474   6.338   4.569   0.865
 8525SOL    HW226475   6.258   4.570   0.723
 8526SOL     OW26476   2.576   6.872   1.045
 8526SOL    HW126477   2.639   6.794   1.038
 8526SOL    HW226478   2.482   6.838   1.047
 8527SOL     OW26479   3.221   0.215   6.681
 8527SOL    HW126480   3.180   0.304   6.701
 8527SOL    HW226481   3.168   0.143   6.725
 8528SOL     OW26482   4.495   1.770   1.260
 8528SOL    HW126483   4.531   1.783   1.353
 8528SOL    HW226484   4.433   1.846   1.239
 8529SOL     OW26485   1.026   6.371   6.760
 8529SOL    HW126486   0.972   6.287   6.764
 8529SOL    HW226487   1.071   6.378   6.672
 8530SOL     OW26488   2.956   3.414   4.032
 8530SOL    HW126489   2.960   3.514   4.029
 8530SOL    HW226490   2.963   3.378   3.939
 8531SOL     OW26491   6.670   5.755   3.551
 8531SOL    HW126492   6.708   5.662   3.545
 8531SOL    HW226493   6.714   5.814   3.484
 8532SOL     OW26494   3.074   6.402   3.938
 8532SOL    HW126495   3.031   6.328   3.887
 8532SOL    HW226496   3.149   6.366   3.993
 8533SOL     OW26497   0.905   6.155   6.850
 8533SOL    HW126498   0.947   6.070   6.881
 8533SOL    HW226499   0.845   6.190   6.922
 8534SOL     OW26500   4.545   2.432   4.054
 8534SOL    HW126501   4.447   2.431   4.036
 8534SOL    HW226502   4.595   2.417   3.969
 8535SOL     OW26503   5.399   1.132   4.120
 8535SOL    HW126504   5.493   1.156   4.097
 8535SOL    HW226505   5.394   1.102   4.215
 8536SOL     OW26506   0.549   1.702   4.723
 8536SOL    HW126507   0.642   1.723   4.753
 8536SOL    HW226508   0.502   1.651   4.795
 8537SOL     OW26509   5.956   1.048   3.395
 8537SOL    HW126510   5.909   1.073   3.479
 8537SOL    HW226511   6.034   1.109   3.381
 8538SOL     OW26512   1.628   1.339   0.039
 8538SOL    HW126513   1.552   1.382   7.011
 8538SOL    HW226514   1.714   1.374   0.003
 8539SOL     OW26515   5.954   2.571   2.707
 8539SOL    HW126516   5.947   2.632   2.786
 8539SOL    HW226517   6.047   2.576   2.670
 8540SOL     OW26518   4.464   0.019   6.868
 8540SOL    HW126519   4.434   0.032   6.774
 8540SOL    HW226520   4.536   0.085   6.890
 8541SOL     OW26521   2.692   2.288   3.878
 8541SOL    HW126522   2.699   2.340   3.963
 8541SOL    HW226523   2.653   2.346   3.807
 8542SOL     OW26524   3.536   4.603   6.626
 8542SOL    HW126525   3.607   4.674   6.619
 8542SOL    HW226526   3.482   4.601   6.542
 8543SOL     OW26527   2.189   2.115   0.271
 8543SOL    HW126528   2.122   2.143   0.339
 8543SOL    HW226529   2.223   2.195   0.222
 8544SOL     OW26530   5.295   2.511   4.403
 8544SOL    HW126531   5.227   2.537   4.471
 8544SOL    HW226532   5.377   2.568   4.415
 8545SOL     OW26533   4.937   6.559   5.939
 8545SOL    HW126534   5.014   6.578   5.878
 8545SOL    HW226535   4.969   6.565   6.034
 8546SOL     OW26536   6.066   1.578   3.582
 8546SOL    HW126537   6.161   1.556   3.560
 8546SOL    HW226538   6.046   1.671   3.550
 8547SOL     OW26539   1.789   5.476   5.005
 8547SOL    HW126540   1.764   5.420   5.084
 8547SOL    HW226541   1.876   5.446   4.968
 8548SOL     OW26542   5.881   1.526   5.883
 8548SOL    HW126543   5.922   1.552   5.970
 8548SOL    HW226544   5.924   1.579   5.809
 8549SOL     OW26545   6.542   4.000   3.443
 8549SOL    HW126546   6.596   4.023   3.524
 8549SOL    HW226547   6.471   3.934   3.468
 8550SOL     OW26548   1.509   5.209   6.617
 8550SOL    HW126549   1.583   5.271   6.592
 8550SOL    HW226550   1.539   5.115   6.607
 8551SOL     OW26551   3.361   4.473   6.770
 8551SOL    HW126552   3.437   4.513   6.719
 8551SOL    HW226553   3.381   4.377   6.789
 8552SOL     OW26554   3.023   5.588   3.309
 8552SOL    HW126555   3.115   5.554   3.288
 8552SOL    HW226556   2.994   5.651   3.238
 8553SOL     OW26557   5.167   6.447   6.929
 8553SOL    HW126558   5.247   6.478   6.980
 8553SOL    HW226559   5.085   6.459   6.985
 8554SOL     OW26560   0.258   4.317   0.324
 8554SOL    HW126561   0.159   4.329   0.315
 8554SOL    HW226562   0.294   4.273   0.242
 8555SOL     OW26563   0.598   0.595   3.393
 8555SOL    HW126564   0.526   0.527   3.383
 8555SOL    HW226565   0.562   0.686   3.373
 8556SOL     OW26566   0.085   0.635   3.119
 8556SOL    HW126567   7.019   0.682   3.103
 8556SOL    HW226568   0.098   0.622   3.217
 8557SOL     OW26569   6.703   6.725   1.621
 8557SOL    HW126570   6.788   6.713   1.570
 8557SOL    HW226571   6.658   6.809   1.591
 8558SOL     OW26572   2.235   5.504   2.395
 8558SOL    HW126573   2.144   5.516   2.354
 8558SOL    HW226574   2.229   5.437   2.469
 8559SOL     OW26575   0.996   1.202   1.843
 8559SOL    HW126576   0.974   1.211   1.940
 8559SOL    HW226577   0.944   1.127   1.803
 8560SOL     OW26578   0.048   1.342   0.396
 8560SOL    HW126579   0.129   1.342   0.336
 8560SOL    HW226580   0.077   1.354   0.491
 8561SOL     OW26581   4.702   5.989   2.135
 8561SOL    HW126582   4.614   6.007   2.091
 8561SOL    HW226583   4.749   6.076   2.152
 8562SOL     OW26584   4.049   6.825   4.412
 8562SOL    HW126585   3.964   6.860   4.371
 8562SOL    HW226586   4.050   6.725   4.407
 8563SOL     OW26587   2.713   3.248   6.991
 8563SOL    HW126588   2.698   3.174   6.926
 8563SOL    HW226589   2.788   3.306   6.960
 8564SOL     OW26590   0.960   0.321   3.702
 8564SOL    HW126591   0.947   0.339   3.799
 8564SOL    HW226592   0.881   0.272   3.666
 8565SOL     OW26593   3.848   0.101   0.766
 8565SOL    HW126594   3.945   0.092   0.788
 8565SOL    HW226595   3.834   0.186   0.715
 8566SOL     OW26596   1.071   2.259   2.984
 8566SOL    HW126597   1.080   2.180   2.924
 8566SOL    HW226598   0.998   2.242   3.051
 8567SOL     OW26599   5.538   1.561   1.260
 8567SOL    HW126600   5.487   1.478   1.237
 8567SOL    HW226601   5.506   1.597   1.347
 8568SOL     OW26602   4.900   2.058   0.375
 8568SOL    HW126603   4.938   2.099   0.458
 8568SOL    HW226604   4.805   2.086   0.365
 8569SOL     OW26605   4.784   0.397   4.512
 8569SOL    HW126606   4.685   0.381   4.515
 8569SOL    HW226607   4.805   0.485   4.555
 8570SOL     OW26608   1.310   4.301   6.302
 8570SOL    HW126609   1.405   4.298   6.272
 8570SOL    HW226610   1.254   4.245   6.241
 8571SOL     OW26611   0.072   4.425   4.410
 8571SOL    HW126612   0.062   4.494   4.482
 8571SOL    HW226613   0.023   4.455   4.328
 8572SOL     OW26614   1.894   5.048   5.504
 8572SOL    HW126615   1.851   5.127   5.461
 8572SOL    HW226616   1.994   5.057   5.498
 8573SOL     OW26617   4.472   6.259   6.897
 8573SOL    HW126618   4.432   6.333   6.842
 8573SOL    HW226619   4.409   6.182   6.898
 8574SOL     OW26620   0.710   4.224   6.041
 8574SOL    HW126621   0.669   4.169   6.113
 8574SOL    HW226622   0.726   4.317   6.075
 8575SOL     OW26623   3.020   3.232   6.985
 8575SOL    HW126624   3.102   3.174   6.987
 8575SOL    HW226625   3.045   3.325   7.010
 8576SOL     OW26626   0.957   6.902   1.798
 8576SOL    HW126627   0.976   6.805   1.781
 8576SOL    HW226628   1.040   6.947   1.831
 8577SOL     OW26629   6.464   5.597   3.268
 8577SOL    HW126630   6.475   5.498   3.275
 8577SOL    HW226631   6.367   5.620   3.266
 8578SOL     OW26632   4.697   0.121   3.962
 8578SOL    HW126633   4.678   0.206   4.012
 8578SOL    HW226634   4.766   0.068   4.011
 8579SOL     OW26635   1.158   4.876   3.435
 8579SOL    HW126636   1.200   4.845   3.521
 8579SOL    HW226637   1.110   4.799   3.392
 8580SOL     OW26638   1.489   6.295   1.893
 8580SOL    HW126639   1.486   6.383   1.846
 8580SOL    HW226640   1.558   6.236   1.848
 8581SOL     OW26641   3.165   2.051   1.124
 8581SOL    HW126642   3.198   1.977   1.183
 8581SOL    HW226643   3.065   2.050   1.123
 8582SOL     OW26644   4.402   4.567   2.340
 8582SOL    HW126645   4.420   4.478   2.383
 8582SOL    HW226646   4.465   4.579   2.263
 8583SOL     OW26647   6.705   0.223   6.304
 8583SOL    HW126648   6.660   0.290   6.245
 8583SOL    HW226649   6.800   0.211   6.274
 8584SOL     OW26650   6.881   4.702   0.572
 8584SOL    HW126651   6.821   4.642   0.625
 8584SOL    HW226652   6.914   4.654   0.491
 8585SOL     OW26653   0.474   0.760   0.574
 8585SOL    HW126654   0.402   0.825   0.548
 8585SOL    HW226655   0.524   0.794   0.653
 8586SOL     OW26656   3.784   6.178   3.156
 8586SOL    HW126657   3.719   6.163   3.081
 8586SOL    HW226658   3.845   6.099   3.163
 8587SOL     OW26659   0.610   2.258   2.691
 8587SOL    HW126660   0.525   2.310   2.698
 8587SOL    HW226661   0.675   2.308   2.634
 8588SOL     OW26662   3.688   2.661   0.790
 8588SOL    HW126663   3.701   2.754   0.757
 8588SOL    HW226664   3.758   2.602   0.750
 8589SOL     OW26665   3.823   0.981   4.902
 8589SOL    HW126666   3.767   0.922   4.844
 8589SOL    HW226667   3.849   1.063   4.851
 8590SOL     OW26668   6.399   5.312   4.308
 8590SOL    HW126669   6.419   5.231   4.253
 8590SOL    HW226670   6.453   5.310   4.392
 8591SOL     OW26671   1.188   3.487   6.252
 8591SOL    HW126672   1.225   3.492   6.159
 8591SOL    HW226673   1.240   3.546   6.312
 8592SOL     OW26674   6.919   4.129   0.961
 8592SOL    HW126675   7.001   4.081   0.993
 8592SOL    HW226676   6.842   4.104   1.019
 8593SOL     OW26677   1.410   6.909   2.337
 8593SOL    HW126678   1.388   7.006   2.348
 8593SOL    HW226679   1.343   6.867   2.276
 8594SOL     OW26680   3.029   3.924   4.181
 8594SOL    HW126681   3.090   3.847   4.203
 8594SOL    HW226682   3.040   3.996   4.250
 8595SOL     OW26683   2.036   1.999   2.319
 8595SOL    HW126684   2.082   1.975   2.233
 8595SOL    HW226685   2.105   2.020   2.388
 8596SOL     OW26686   5.437   5.061   1.460
 8596SOL    HW126687   5.530   5.048   1.426
 8596SOL    HW226688   5.388   4.974   1.459
 8597SOL     OW26689   2.656   1.489   0.605
 8597SOL    HW126690   2.689   1.525   0.518
 8597SOL    HW226691   2.723   1.423   0.640
 8598SOL     OW26692   6.175   3.997   0.972
 8598SOL    HW126693   6.204   3.932   1.042
 8598SOL    HW226694   6.191   3.959   0.882
 8599SOL     OW26695   0.611   2.878   3.735
 8599SOL    HW126696   0.655   2.933   3.806
 8599SOL    HW226697   0.653   2.898   3.647
 8600SOL     OW26698   6.679   4.788   6.708
 8600SOL    HW126699   6.663   4.817   6.614
 8600SOL    HW226700   6.629   4.848   6.770
 8601SOL     OW26701   0.131   1.246   4.120
 8601SOL    HW126702   0.037   1.218   4.103
 8601SOL    HW226703   0.183   1.243   4.035
 8602SOL     OW26704   2.834   5.907   2.512
 8602SOL    HW126705   2.921   5.921   2.558
 8602SOL    HW226706   2.768   5.869   2.577
 8603SOL     OW26707   3.888   3.565   0.451
 8603SOL    HW126708   3.947   3.641   0.423
 8603SOL    HW226709   3.840   3.588   0.535
 8604SOL     OW26710   5.564   3.112   3.460
 8604SOL    HW126711   5.542   3.015   3.470
 8604SOL    HW226712   5.662   3.125   3.472
 8605SOL     OW26713   3.330   5.566   3.843
 8605SOL    HW126714   3.311   5.581   3.746
 8605SOL    HW226715   3.424   5.591   3.863
 8606SOL     OW26716   2.979   4.769   6.154
 8606SOL    HW126717   2.996   4.816   6.068
 8606SOL    HW226718   2.953   4.674   6.136
 8607SOL     OW26719   3.750   5.665   1.954
 8607SOL    HW126720   3.691   5.660   2.035
 8607SOL    HW226721   3.840   5.700   1.980
 8608SOL     OW26722   4.117   4.834   2.731
 8608SOL    HW126723   4.121   4.934   2.731
 8608SOL    HW226724   4.153   4.799   2.817
 8609SOL     OW26725   3.502   0.331   4.932
 8609SOL    HW126726   3.450   0.368   4.855
 8609SOL    HW226727   3.500   0.231   4.930
 8610SOL     OW26728   0.843   6.812   3.388
 8610SOL    HW126729   0.917   6.795   3.324
 8610SOL    HW226730   0.807   6.726   3.422
 8611SOL     OW26731   1.391   1.877   4.655
 8611SOL    HW126732   1.339   1.887   4.570
 8611SOL    HW226733   1.393   1.964   4.703
 8612SOL     OW26734   3.134   3.283   6.635
 8612SOL    HW126735   3.069   3.345   6.677
 8612SOL    HW226736   3.096   3.190   6.634
 8613SOL     OW26737   1.857   1.702   1.108
 8613SOL    HW126738   1.841   1.603   1.103
 8613SOL    HW226739   1.802   1.748   1.039
 8614SOL     OW26740   0.833   3.518   3.105
 8614SOL    HW126741   0.824   3.492   3.201
 8614SOL    HW226742   0.907   3.584   3.094
 8615SOL     OW26743   4.196   2.047   5.991
 8615SOL    HW126744   4.127   1.985   5.953
 8615SOL    HW226745   4.150   2.127   6.031
 8616SOL     OW26746   1.133   4.855   6.953
 8616SOL    HW126747   1.179   4.767   6.946
 8616SOL    HW226748   1.169   4.905   0.012
 8617SOL     OW26749   6.440   2.161   0.800
 8617SOL    HW126750   6.379   2.167   0.722
 8617SOL    HW226751   6.398   2.106   0.872
 8618SOL     OW26752   4.702   6.887   2.208
 8618SOL    HW126753   4.722   6.963   2.269
 8618SOL    HW226754   4.778   6.822   2.209
 8619SOL     OW26755   4.476   4.977   6.995
 8619SOL    HW126756   4.378   4.965   6.985
 8619SOL    HW226757   4.523   4.893   6.966
 8620SOL     OW26758   5.630   6.878   2.448
 8620SOL    HW126759   5.545   6.828   2.468
 8620SOL    HW226760   5.612   6.976   2.454
 8621SOL     OW26761   6.122   1.037   4.122
 8621SOL    HW126762   6.083   1.021   4.031
 8621SOL    HW226763   6.082   1.120   4.161
 8622SOL     OW26764   4.806   4.721   0.153
 8622SOL    HW126765   4.887   4.699   0.098
 8622SOL    HW226766   4.763   4.636   0.184
 8623SOL     OW26767   0.960   3.951   2.878
 8623SOL    HW126768   0.908   3.966   2.963
 8623SOL    HW226769   0.922   3.873   2.829
 8624SOL     OW26770   1.338   4.215   3.120
 8624SOL    HW126771   1.297   4.124   3.118
 8624SOL    HW226772   1.396   4.224   3.201
 8625SOL     OW26773   4.843   0.642   4.625
 8625SOL    HW126774   4.917   0.684   4.572
 8625SOL    HW226775   4.823   0.699   4.705
 8626SOL     OW26776   3.245   3.545   4.012
 8626SOL    HW126777   3.221   3.610   3.941
 8626SOL    HW226778   3.191   3.461   4.001
 8627SOL     OW26779   0.860   0.478   1.138
 8627SOL    HW126780   0.931   0.425   1.091
 8627SOL    HW226781   0.778   0.422   1.150
 8628SOL     OW26782   6.486   0.996   0.072
 8628SOL    HW126783   6.516   1.014   6.999
 8628SOL    HW226784   6.490   1.080   0.126
 8629SOL     OW26785   1.089   5.014   3.941
 8629SOL    HW126786   1.058   5.026   3.846
 8629SOL    HW226787   1.123   4.921   3.953
 8630SOL     OW26788   5.864   3.406   4.203
 8630SOL    HW126789   5.792   3.355   4.251
 8630SOL    HW226790   5.861   3.385   4.106
 8631SOL     OW26791   4.121   5.627   5.342
 8631SOL    HW126792   4.216   5.659   5.346
 8631SOL    HW226793   4.116   5.548   5.281
 8632SOL     OW26794   3.837   0.111   3.704
 8632SOL    HW126795   3.759   0.166   3.674
 8632SOL    HW226796   3.805   0.023   3.737
 8633SOL     OW26797   5.632   1.232   4.040
 8633SOL    HW126798   5.698   1.258   4.110
 8633SOL    HW226799   5.653   1.281   3.955
 8634SOL     OW26800   6.521   4.161   1.942
 8634SOL    HW126801   6.451   4.094   1.918
 8634SOL    HW226802   6.537   4.223   1.865
 8635SOL     OW26803   6.401   3.862   6.115
 8635SOL    HW126804   6.378   3.954   6.148
 8635SOL    HW226805   6.325   3.800   6.132
 8636SOL     OW26806   5.954   5.582   0.268
 8636SOL    HW126807   5.966   5.599   0.366
 8636SOL    HW226808   5.876   5.635   0.234
 8637SOL     OW26809   1.526   1.107   0.524
 8637SOL    HW126810   1.487   1.018   0.499
 8637SOL    HW226811   1.547   1.158   0.441
 8638SOL     OW26812   2.254   4.402   0.148
 8638SOL    HW126813   2.345   4.437   0.168
 8638SOL    HW226814   2.197   4.409   0.230
 8639SOL     OW26815   5.165   2.831   2.154
 8639SOL    HW126816   5.106   2.882   2.092
 8639SOL    HW226817   5.224   2.769   2.102
 8640SOL     OW26818   4.441   4.096   0.622
 8640SOL    HW126819   4.479   4.185   0.646
 8640SOL    HW226820   4.487   4.025   0.676
 8641SOL     OW26821   0.349   4.350   3.340
 8641SOL    HW126822   0.390   4.416   3.278
 8641SOL    HW226823   0.406   4.267   3.342
 8642SOL     OW26824   4.803   1.052   1.790
 8642SOL    HW126825   4.848   1.073   1.877
 8642SOL    HW226826   4.771   1.137   1.748
 8643SOL     OW26827   4.426   0.371   6.927
 8643SOL    HW126828   4.464   0.440   6.866
 8643SOL    HW226829   4.496   0.303   6.950
 8644SOL     OW26830   5.766   2.310   5.048
 8644SOL    HW126831   5.670   2.307   5.076
 8644SOL    HW226832   5.784   2.395   4.999
 8645SOL     OW26833   6.671   4.053   1.067
 8645SOL    HW126834   6.620   4.001   0.999
 8645SOL    HW226835   6.612   4.071   1.146
 8646SOL     OW26836   4.879   1.319   0.836
 8646SOL    HW126837   4.837   1.267   0.762
 8646SOL    HW226838   4.825   1.401   0.853
 8647SOL     OW26839   3.873   4.888   6.879
 8647SOL    HW126840   3.816   4.968   6.896
 8647SOL    HW226841   3.908   4.852   6.966
 8648SOL     OW26842   5.651   0.737   4.302
 8648SOL    HW126843   5.699   0.666   4.354
 8648SOL    HW226844   5.714   0.812   4.282
 8649SOL     OW26845   6.359   4.010   5.574
 8649SOL    HW126846   6.363   3.937   5.643
 8649SOL    HW226847   6.408   3.981   5.492
 8650SOL     OW26848   1.710   4.863   4.197
 8650SOL    HW126849   1.704   4.794   4.269
 8650SOL    HW226850   1.720   4.953   4.238
 8651SOL     OW26851   3.648   1.383   0.333
 8651SOL    HW126852   3.576   1.358   0.269
 8651SOL    HW226853   3.621   1.465   0.383
 8652SOL     OW26854   2.062   4.179   3.793
 8652SOL    HW126855   1.995   4.185   3.867
 8652SOL    HW226856   2.095   4.271   3.770
 8653SOL     OW26857   0.124   2.340   5.963
 8653SOL    HW126858   0.175   2.255   5.976
 8653SOL    HW226859   0.167   2.394   5.891
 8654SOL     OW26860   7.004   6.374   3.078
 8654SOL    HW126861   6.967   6.462   3.106
 8654SOL    HW226862   7.013   6.314   3.158
 8655SOL     OW26863   5.827   6.834   3.653
 8655SOL    HW126864   5.806   6.736   3.652
 8655SOL    HW226865   5.747   6.884   3.686
 8656SOL     OW26866   6.377   0.973   1.174
 8656SOL    HW126867   6.299   1.032   1.152
 8656SOL    HW226868   6.450   0.988   1.108
 8657SOL     OW26869   5.045   5.113   6.300
 8657SOL    HW126870   4.948   5.092   6.291
 8657SOL    HW226871   5.096   5.029   6.319
 8658SOL     OW26872   5.263   4.847   0.085
 8658SOL    HW126873   5.207   4.925   0.115
 8658SOL    HW226874   5.222   4.762   0.118
 8659SOL     OW26875   4.765   0.504   3.365
 8659SOL    HW126876   4.778   0.603   3.354
 8659SOL    HW226877   4.805   0.456   3.287
 8660SOL     OW26878   6.468   4.207   0.228
 8660SOL    HW126879   6.504   4.120   0.196
 8660SOL    HW226880   6.402   4.242   0.162
 8661SOL     OW26881   6.285   4.041   1.877
 8661SOL    HW126882   6.230   4.038   1.793
 8661SOL    HW226883   6.248   4.111   1.938
 8662SOL     OW26884   5.833   6.479   1.165
 8662SOL    HW126885   5.825   6.470   1.264
 8662SOL    HW226886   5.907   6.543   1.143
 8663SOL     OW26887   2.034   5.483   0.664
 8663SOL    HW126888   2.081   5.503   0.578
 8663SOL    HW226889   2.046   5.386   0.687
 8664SOL     OW26890   4.773   5.902   6.749
 8664SOL    HW126891   4.817   5.917   6.838
 8664SOL    HW226892   4.730   5.987   6.719
 8665SOL     OW26893   4.802   6.088   5.674
 8665SOL    HW126894   4.778   6.136   5.759
 8665SOL    HW226895   4.882   6.030   5.690
 8666SOL     OW26896   4.674   1.994   5.217
 8666SOL    HW126897   4.679   2.073   5.156
 8666SOL    HW226898   4.757   1.989   5.273
 8667SOL     OW26899   5.045   1.744   3.264
 8667SOL    HW126900   5.095   1.672   3.216
 8667SOL    HW226901   5.095   1.830   3.256
 8668SOL     OW26902   5.358   2.534   4.101
 8668SOL    HW126903   5.296   2.542   4.180
 8668SOL    HW226904   5.304   2.522   4.018
 8669SOL     OW26905   4.131   0.816   6.214
 8669SOL    HW126906   4.132   0.824   6.115
 8669SOL    HW226907   4.183   0.892   6.254
 8670SOL     OW26908   3.517   5.606   4.854
 8670SOL    HW126909   3.481   5.694   4.823
 8670SOL    HW226910   3.450   5.562   4.915
 8671SOL     OW26911   6.044   6.998   3.661
 8671SOL    HW126912   6.055   0.005   3.756
 8671SOL    HW226913   5.961   6.943   3.652
 8672SOL     OW26914   2.621   5.680   4.522
 8672SOL    HW126915   2.718   5.691   4.501
 8672SOL    HW226916   2.574   5.768   4.516
 8673SOL     OW26917   0.254   2.260   7.008
 8673SOL    HW126918   0.300   2.173   0.004
 8673SOL    HW226919   0.200   2.254   6.925
 8674SOL     OW26920   0.010   6.712   2.756
 8674SOL    HW126921   0.058   6.640   2.806
 8674SOL    HW226922   7.004   6.678   2.666
 8675SOL     OW26923   2.627   2.103   4.241
 8675SOL    HW126924   2.701   2.052   4.286
 8675SOL    HW226925   2.663   2.190   4.208
 8676SOL     OW26926   3.502   0.442   2.477
 8676SOL    HW126927   3.412   0.402   2.495
 8676SOL    HW226928   3.499   0.494   2.391
 8677SOL     OW26929   2.816   5.456   6.366
 8677SOL    HW126930   2.730   5.430   6.322
 8677SOL    HW226931   2.806   5.451   6.465
 8678SOL     OW26932   1.076   0.611   0.142
 8678SOL    HW126933   1.119   0.701   0.142
 8678SOL    HW226934   0.986   0.617   0.099
 8679SOL     OW26935   5.904   1.776   4.811
 8679SOL    HW126936   5.891   1.678   4.824
 8679SOL    HW226937   5.885   1.824   4.896
 8680SOL     OW26938   1.873   4.000   0.833
 8680SOL    HW126939   1.859   3.936   0.758
 8680SOL    HW226940   1.791   4.005   0.890
 8681SOL     OW26941   4.919   4.279   0.000
 8681SOL    HW126942   4.951   4.270   0.095
 8681SOL    HW226943   4.828   4.321   7.020
 8682SOL     OW26944   3.320   6.691   2.875
 8682SOL    HW126945   3.366   6.772   2.911
 8682SOL    HW226946   3.333   6.614   2.937
 8683SOL     OW26947   1.322   3.305   1.519
 8683SOL    HW126948   1.331   3.216   1.564
 8683SOL    HW226949   1.388   3.369   1.559
 8684SOL     OW26950   6.252   2.938   5.017
 8684SOL    HW126951   6.347   2.929   4.988
 8684SOL    HW226952   6.244   2.912   5.114
 8685SOL     OW26953   1.470   2.029   6.180
 8685SOL    HW126954   1.552   2.085   6.173
 8685SOL    HW226955   1.462   1.971   6.099
 8686SOL     OW26956   7.006   1.938   1.950
 8686SOL    HW126957   6.976   2.016   2.005
 8686SOL    HW226958   0.031   1.872   2.009
 8687SOL     OW26959   3.644   6.298   2.688
 8687SOL    HW126960   3.645   6.389   2.730
 8687SOL    HW226961   3.608   6.305   2.595
 8688SOL     OW26962   2.572   0.051   0.850
 8688SOL    HW126963   2.656   0.066   0.798
 8688SOL    HW226964   2.592   7.017   0.931
 8689SOL     OW26965   4.113   6.177   0.053
 8689SOL    HW126966   4.025   6.129   0.061
 8689SOL    HW226967   4.186   6.111   0.037
 8690SOL     OW26968   1.158   1.618   4.110
 8690SOL    HW126969   1.234   1.666   4.067
 8690SOL    HW226970   1.174   1.519   4.106
 8691SOL     OW26971   4.497   2.772   6.417
 8691SOL    HW126972   4.430   2.730   6.357
 8691SOL    HW226973   4.464   2.862   6.446
 8692SOL     OW26974   3.397   1.960   3.337
 8692SOL    HW126975   3.415   1.863   3.351
 8692SOL    HW226976   3.483   2.011   3.338
 8693SOL     OW26977   5.448   2.709   0.772
 8693SOL    HW126978   5.381   2.717   0.846
 8693SOL    HW226979   5.449   2.615   0.738
 8694SOL     OW26980   4.953   0.159   6.333
 8694SOL    HW126981   4.952   0.107   6.419
 8694SOL    HW226982   4.886   0.233   6.338
 8695SOL     OW26983   4.477   2.866   5.748
 8695SOL    HW126984   4.456   2.796   5.680
 8695SOL    HW226985   4.495   2.823   5.836
 8696SOL     OW26986   3.545   5.644   0.911
 8696SOL    HW126987   3.554   5.625   0.814
 8696SOL    HW226988   3.457   5.609   0.944
 8697SOL     OW26989   6.519   3.526   0.294
 8697SOL    HW126990   6.427   3.542   0.259
 8697SOL    HW226991   6.536   3.585   0.373
 8698SOL     OW26992   5.224   5.822   3.879
 8698SOL    HW126993   5.305   5.872   3.908
 8698SOL    HW226994   5.249   5.729   3.853
 8699SOL     OW26995   1.336   2.584   5.430
 8699SOL    HW126996   1.267   2.609   5.363
 8699SOL    HW226997   1.291   2.542   5.509
 8700SOL     OW26998   2.325   0.877   4.606
 8700SOL    HW126999   2.319   0.921   4.516
 8700SOL    HW227000   2.373   0.937   4.670
 8701SOL     OW27001   0.811   1.476   6.045
 8701SOL    HW127002   0.763   1.561   6.067
 8701SOL    HW227003   0.910   1.491   6.053
 8702SOL     OW27004   5.343   4.583   0.238
 8702SOL    HW127005   5.250   4.562   0.209
 8702SOL    HW227006   5.408   4.545   0.173
 8703SOL     OW27007   3.161   5.923   1.225
 8703SOL    HW127008   3.186   5.973   1.307
 8703SOL    HW227009   3.241   5.914   1.166
 8704SOL     OW27010   6.440   4.234   2.620
 8704SOL    HW127011   6.359   4.260   2.674
 8704SOL    HW227012   6.506   4.308   2.622
 8705SOL     OW27013   4.842   1.002   6.701
 8705SOL    HW127014   4.848   1.095   6.736
 8705SOL    HW227015   4.756   0.990   6.651
 8706SOL     OW27016   4.416   2.106   6.767
 8706SOL    HW127017   4.439   2.199   6.793
 8706SOL    HW227018   4.499   2.056   6.742
 8707SOL     OW27019   3.901   2.858   0.203
 8707SOL    HW127020   3.837   2.923   0.163
 8707SOL    HW227021   3.991   2.872   0.163
 8708SOL     OW27022   3.740   0.656   2.093
 8708SOL    HW127023   3.816   0.661   2.158
 8708SOL    HW227024   3.760   0.714   2.013
 8709SOL     OW27025   6.892   4.577   0.033
 8709SOL    HW127026   6.852   4.503   0.088
 8709SOL    HW227027   6.991   4.562   0.024
 8710SOL     OW27028   1.434   3.167   3.290
 8710SOL    HW127029   1.485   3.133   3.369
 8710SOL    HW227030   1.461   3.116   3.208
 8711SOL     OW27031   0.494   0.067   2.864
 8711SOL    HW127032   0.456   6.995   2.857
 8711SOL    HW227033   0.424   0.134   2.842
 8712SOL     OW27034   3.810   1.860   3.617
 8712SOL    HW127035   3.811   1.786   3.550
 8712SOL    HW227036   3.752   1.835   3.694
 8713SOL     OW27037   6.945   4.148   3.584
 8713SOL    HW127038   0.010   4.099   3.564
 8713SOL    HW227039   6.913   4.193   3.501
 8714SOL     OW27040   1.216   0.804   5.747
 8714SOL    HW127041   1.295   0.827   5.804
 8714SOL    HW227042   1.182   0.887   5.703
 8715SOL     OW27043   5.714   0.392   1.007
 8715SOL    HW127044   5.667   0.454   1.070
 8715SOL    HW227045   5.787   0.344   1.055
 8716SOL     OW27046   0.703   1.514   1.357
 8716SOL    HW127047   0.762   1.476   1.285
 8716SOL    HW227048   0.759   1.549   1.432
 8717SOL     OW27049   4.028   3.666   2.411
 8717SOL    HW127050   3.981   3.728   2.473
 8717SOL    HW227051   3.968   3.589   2.390
 8718SOL     OW27052   0.155   2.777   5.040
 8718SOL    HW127053   0.198   2.688   5.027
 8718SOL    HW227054   0.150   2.824   4.952
 8719SOL     OW27055   1.387   0.711   5.538
 8719SOL    HW127056   1.483   0.693   5.560
 8719SOL    HW227057   1.337   0.733   5.622
 8720SOL     OW27058   6.428   4.823   5.341
 8720SOL    HW127059   6.362   4.873   5.396
 8720SOL    HW227060   6.430   4.861   5.248
 8721SOL     OW27061   5.935   2.412   4.445
 8721SOL    HW127062   6.035   2.420   4.442
 8721SOL    HW227063   5.897   2.482   4.505
 8722SOL     OW27064   3.385   1.442   0.512
 8722SOL    HW127065   3.406   1.431   0.415
 8722SOL    HW227066   3.286   1.456   0.523
 8723SOL     OW27067   6.307   5.521   0.835
 8723SOL    HW127068   6.277   5.512   0.930
 8723SOL    HW227069   6.242   5.577   0.784
 8724SOL     OW27070   6.036   0.047   5.743
 8724SOL    HW127071   5.955   0.026   5.798
 8724SOL    HW227072   6.063   0.142   5.759
 8725SOL     OW27073   1.852   0.476   0.193
 8725SOL    HW127074   1.810   0.397   0.236
 8725SOL    HW227075   1.936   0.449   0.147
 8726SOL     OW27076   6.099   0.137   1.380
 8726SOL    HW127077   6.048   0.214   1.420
 8726SOL    HW227078   6.181   0.172   1.336
 8727SOL     OW27079   6.512   6.730   2.115
 8727SOL    HW127080   6.415   6.715   2.099
 8727SOL    HW227081   6.525   6.815   2.167
 8728SOL     OW27082   3.374   7.018   5.340
 8728SOL    HW127083   3.409   0.083   5.377
 8728SOL    HW227084   3.276   0.007   5.320
 8729SOL     OW27085   4.588   5.540   2.730
 8729SOL    HW127086   4.553   5.450   2.706
 8729SOL    HW227087   4.516   5.608   2.718
 8730SOL     OW27088   6.934   5.930   2.503
 8730SOL    HW127089   6.874   5.962   2.576
 8730SOL    HW227090   6.898   5.958   2.415
 8731SOL     OW27091   1.667   1.834   3.303
 8731SOL    HW127092   1.580   1.784   3.297
 8731SOL    HW227093   1.658   1.909   3.368
 8732SOL     OW27094   5.125   4.479   1.801
 8732SOL    HW127095   5.058   4.507   1.870
 8732SOL    HW227096   5.151   4.558   1.746
 8733SOL     OW27097   1.195   6.134   2.910
 8733SOL    HW127098   1.150   6.088   2.986
 8733SOL    HW227099   1.126   6.176   2.851
 8734SOL     OW27100   0.892   4.788   1.362
 8734SOL    HW127101   0.904   4.819   1.457
 8734SOL    HW227102   0.937   4.700   1.350
 8735SOL     OW27103   1.042   1.759   0.061
 8735SOL    HW127104   1.077   1.724   0.148
 8735SOL    HW227105   0.943   1.747   0.057
 8736SOL     OW27106   0.941   6.404   0.122
 8736SOL    HW127107   0.847   6.429   0.145
 8736SOL    HW227108   0.956   6.417   0.024
 8737SOL     OW27109   3.851   6.002   6.095
 8737SOL    HW127110   3.886   5.944   6.022
 8737SOL    HW227111   3.797   5.947   6.159
 8738SOL     OW27112   1.434   3.663   4.725
 8738SOL    HW127113   1.340   3.669   4.760
 8738SOL    HW227114   1.469   3.754   4.706
 8739SOL     OW27115   6.946   4.443   6.036
 8739SOL    HW127116   6.882   4.478   6.105
 8739SOL    HW227117   6.954   4.344   6.046
 8740SOL     OW27118   3.497   0.684   5.869
 8740SOL    HW127119   3.563   0.758   5.879
 8740SOL    HW227120   3.433   0.685   5.947
 8741SOL     OW27121   1.650   2.250   2.262
 8741SOL    HW127122   1.598   2.199   2.330
 8741SOL    HW227123   1.744   2.260   2.292
 8742SOL     OW27124   5.101   6.004   1.253
 8742SOL    HW127125   5.183   6.037   1.206
 8742SOL    HW227126   5.023   6.062   1.229
 8743SOL     OW27127   2.171   5.355   2.602
 8743SOL    HW127128   2.152   5.297   2.681
 8743SOL    HW227129   2.108   5.433   2.602
 8744SOL     OW27130   4.222   2.931   6.289
 8744SOL    HW127131   4.283   2.994   6.240
 8744SOL    HW227132   4.252   2.837   6.275
 8745SOL     OW27133   6.036   1.642   5.393
 8745SOL    HW127134   6.002   1.550   5.375
 8745SOL    HW227135   5.962   1.709   5.378
 8746SOL     OW27136   4.634   4.143   5.869
 8746SOL    HW127137   4.687   4.183   5.944
 8746SOL    HW227138   4.536   4.148   5.891
 8747SOL     OW27139   0.940   2.680   3.599
 8747SOL    HW127140   0.929   2.698   3.502
 8747SOL    HW227141   0.974   2.587   3.613
 8748SOL     OW27142   0.690   0.443   6.940
 8748SOL    HW127143   0.652   0.432   0.011
 8748SOL    HW227144   0.737   0.359   6.913
 8749SOL     OW27145   3.080   0.846   4.191
 8749SOL    HW127146   3.095   0.788   4.110
 8749SOL    HW227147   3.055   0.789   4.269
 8750SOL     OW27148   2.243   2.433   5.327
 8750SOL    HW127149   2.203   2.443   5.418
 8750SOL    HW227150   2.340   2.410   5.336
 8751SOL     OW27151   0.043   0.170   2.263
 8751SOL    HW127152   0.114   0.178   2.193
 8751SOL    HW227153   0.043   0.252   2.319
 8752SOL     OW27154   2.773   4.385   6.733
 8752SOL    HW127155   2.861   4.374   6.778
 8752SOL    HW227156   2.784   4.376   6.634
 8753SOL     OW27157   4.961   1.770   4.529
 8753SOL    HW127158   5.033   1.790   4.595
 8753SOL    HW227159   4.950   1.671   4.519
 8754SOL     OW27160   0.543   2.014   5.743
 8754SOL    HW127161   0.522   2.043   5.836
 8754SOL    HW227162   0.618   2.071   5.708
 8755SOL     OW27163   2.223   0.990   6.961
 8755SOL    HW127164   2.273   0.911   6.926
 8755SOL    HW227165   2.244   1.071   6.905
 8756SOL     OW27166   2.111   3.155   3.707
 8756SOL    HW127167   2.036   3.091   3.696
 8756SOL    HW227168   2.170   3.152   3.626
 8757SOL     OW27169   4.827   6.189   5.148
 8757SOL    HW127170   4.877   6.275   5.151
 8757SOL    HW227171   4.791   6.168   5.239
 8758SOL     OW27172   5.572   6.361   1.940
 8758SOL    HW127173   5.486   6.315   1.917
 8758SOL    HW227174   5.648   6.313   1.895
 8759SOL     OW27175   4.966   1.077   5.975
 8759SOL    HW127176   5.057   1.069   6.016
 8759SOL    HW227177   4.974   1.114   5.883
 8760SOL     OW27178   1.885   1.505   4.563
 8760SOL    HW127179   1.965   1.457   4.600
 8760SOL    HW227180   1.807   1.442   4.561
 8761SOL     OW27181   5.195   0.462   0.543
 8761SOL    HW127182   5.246   0.376   0.533
 8761SOL    HW227183   5.173   0.498   0.452
 8762SOL     OW27184   1.336   3.408   2.301
 8762SOL    HW127185   1.429   3.395   2.336
 8762SOL    HW227186   1.275   3.340   2.340
 8763SOL     OW27187   6.764   5.882   5.377
 8763SOL    HW127188   6.760   5.956   5.310
 8763SOL    HW227189   6.764   5.921   5.470
 8764SOL     OW27190   5.104   1.829   3.851
 8764SOL    HW127191   5.032   1.760   3.836
 8764SOL    HW227192   5.063   1.919   3.859
 8765SOL     OW27193   5.645   6.616   4.562
 8765SOL    HW127194   5.584   6.690   4.591
 8765SOL    HW227195   5.727   6.617   4.619
 8766SOL     OW27196   2.963   4.854   3.649
 8766SOL    HW127197   2.959   4.825   3.745
 8766SOL    HW227198   3.054   4.891   3.629
 8767SOL     OW27199   4.418   0.837   3.024
 8767SOL    HW127200   4.496   0.790   3.064
 8767SOL    HW227201   4.426   0.936   3.041
 8768SOL     OW27202   1.882   2.861   0.490
 8768SOL    HW127203   1.811   2.844   0.422
 8768SOL    HW227204   1.972   2.855   0.447
 8769SOL     OW27205   0.454   0.238   5.355
 8769SOL    HW127206   0.444   0.252   5.256
 8769SOL    HW227207   0.453   0.327   5.401
 8770SOL     OW27208   5.163   4.235   1.959
 8770SOL    HW127209   5.144   4.320   1.910
 8770SOL    HW227210   5.165   4.253   2.057
 8771SOL     OW27211   1.718   1.660   6.651
 8771SOL    HW127212   1.768   1.595   6.594
 8771SOL    HW227213   1.621   1.658   6.626
 8772SOL     OW27214   6.585   1.085   6.855
 8772SOL    HW127215   6.576   1.092   6.756
 8772SOL    HW227216   6.644   1.007   6.877
 8773SOL     OW27217   3.611   2.121   3.350
 8773SOL    HW127218   3.700   2.143   3.311
 8773SOL    HW227219   3.616   2.125   3.449
 8774SOL     OW27220   0.722   1.221   0.937
 8774SOL    HW127221   0.698   1.266   0.852
 8774SOL    HW227222   0.804   1.166   0.924
 8775SOL     OW27223   5.656   6.694   3.389
 8775SOL    HW127224   5.594   6.665   3.317
 8775SOL    HW227225   5.668   6.793   3.384
 8776SOL     OW27226   3.494   3.246   4.909
 8776SOL    HW127227   3.501   3.270   5.006
 8776SOL    HW227228   3.442   3.316   4.860
 8777SOL     OW27229   6.313   4.720   1.545
 8777SOL    HW127230   6.377   4.781   1.499
 8777SOL    HW227231   6.346   4.626   1.538
 8778SOL     OW27232   0.419   2.228   3.502
 8778SOL    HW127233   0.399   2.321   3.472
 8778SOL    HW227234   0.353   2.201   3.573
 8779SOL     OW27235   1.638   4.435   1.973
 8779SOL    HW127236   1.624   4.420   1.875
 8779SOL    HW227237   1.557   4.480   2.011
 8780SOL     OW27238   1.598   5.692   4.308
 8780SOL    HW127239   1.684   5.663   4.266
 8780SOL    HW227240   1.614   5.775   4.362
 8781SOL     OW27241   0.725   1.582   2.947
 8781SOL    HW127242   0.695   1.677   2.960
 8781SOL    HW227243   0.793   1.579   2.874
 8782SOL     OW27244   4.999   1.211   2.434
 8782SOL    HW127245   4.944   1.200   2.352
 8782SOL    HW227246   5.023   1.121   2.471
 8783SOL     OW27247   6.060   3.788   4.128
 8783SOL    HW127248   6.070   3.884   4.154
 8783SOL    HW227249   5.994   3.744   4.189
 8784SOL     OW27250   5.472   5.355   5.385
 8784SOL    HW127251   5.569   5.338   5.398
 8784SOL    HW227252   5.455   5.383   5.290
 8785SOL     OW27253   5.656   4.001   6.797
 8785SOL    HW127254   5.697   4.072   6.856
 8785SOL    HW227255   5.695   3.912   6.821
 8786SOL     OW27256   1.304   6.623   6.665
 8786SOL    HW127257   1.241   6.700   6.653
 8786SOL    HW227258   1.326   6.613   6.762
 8787SOL     OW27259   2.171   3.240   1.780
 8787SOL    HW127260   2.214   3.324   1.815
 8787SOL    HW227261   2.101   3.264   1.713
 8788SOL     OW27262   6.824   1.993   5.329
 8788SOL    HW127263   6.877   2.074   5.305
 8788SOL    HW227264   6.874   1.911   5.299
 8789SOL     OW27265   6.756   0.692   6.183
 8789SOL    HW127266   6.707   0.620   6.134
 8789SOL    HW227267   6.761   0.669   6.280
 8790SOL     OW27268   6.812   1.509   0.084
 8790SOL    HW127269   6.769   1.527   0.172
 8790SOL    HW227270   6.806   1.411   0.064
 8791SOL     OW27271   5.278   0.097   5.556
 8791SOL    HW127272   5.316   0.033   5.490
 8791SOL    HW227273   5.300   0.191   5.529
 8792SOL     OW27274   4.441   0.058   3.119
 8792SOL    HW127275   4.447   7.009   3.191
 8792SOL    HW227276   4.345   0.087   3.109
 8793SOL     OW27277   2.791   5.926   4.157
 8793SOL    HW127278   2.786   5.903   4.254
 8793SOL    HW227279   2.729   6.002   4.137
 8794SOL     OW27280   2.461   6.602   2.586
 8794SOL    HW127281   2.524   6.677   2.566
 8794SOL    HW227282   2.511   6.526   2.629
 8795SOL     OW27283   1.417   6.903   5.614
 8795SOL    HW127284   1.402   6.984   5.670
 8795SOL    HW227285   1.335   6.846   5.615
 8796SOL     OW27286   4.528   1.670   5.441
 8796SOL    HW127287   4.569   1.711   5.522
 8796SOL    HW227288   4.595   1.669   5.367
 8797SOL     OW27289   1.039   6.613   6.104
 8797SOL    HW127290   1.128   6.642   6.070
 8797SOL    HW227291   0.999   6.545   6.042
 8798SOL     OW27292   6.138   3.616   5.086
 8798SOL    HW127293   6.038   3.620   5.087
 8798SOL    HW227294   6.176   3.704   5.115
 8799SOL     OW27295   2.485   4.528   3.255
 8799SOL    HW127296   2.478   4.433   3.223
 8799SOL    HW227297   2.563   4.572   3.210
 8800SOL     OW27298   4.130   4.100   5.750
 8800SOL    HW127299   4.078   4.018   5.728
 8800SOL    HW227300   4.097   4.177   5.696
 8801SOL     OW27301   2.052   1.188   4.120
 8801SOL    HW127302   2.008   1.111   4.073
 8801SOL    HW227303   2.005   1.273   4.097
 8802SOL     OW27304   1.221   6.570   2.343
 8802SOL    HW127305   1.211   6.542   2.439
 8802SOL    HW227306   1.137   6.547   2.293
 8803SOL     OW27307   2.135   5.391   6.930
 8803SOL    HW127308   2.090   5.477   6.906
 8803SOL    HW227309   2.190   5.359   6.853
 8804SOL     OW27310   3.645   0.753   1.662
 8804SOL    HW127311   3.627   0.755   1.564
 8804SOL    HW227312   3.583   0.688   1.706
 8805SOL     OW27313   1.378   6.893   3.382
 8805SOL    HW127314   1.392   6.938   3.470
 8805SOL    HW227315   1.313   6.948   3.328
 8806SOL     OW27316   1.215   5.221   0.386
 8806SOL    HW127317   1.277   5.145   0.366
 8806SOL    HW227318   1.142   5.223   0.318
 8807SOL     OW27319   6.288   5.830   5.849
 8807SOL    HW127320   6.233   5.888   5.909
 8807SOL    HW227321   6.377   5.873   5.833
 8808SOL     OW27322   5.619   1.295   0.794
 8808SOL    HW127323   5.640   1.266   0.701
 8808SOL    HW227324   5.527   1.332   0.798
 8809SOL     OW27325   5.586   3.599   1.857
 8809SOL    HW127326   5.673   3.604   1.907
 8809SOL    HW227327   5.588   3.521   1.795
 8810SOL     OW27328   5.229   1.973   4.170
 8810SOL    HW127329   5.310   1.990   4.113
 8810SOL    HW227330   5.180   2.059   4.184
 8811SOL     OW27331   2.191   1.559   4.031
 8811SOL    HW127332   2.131   1.632   4.000
 8811SOL    HW227333   2.139   1.474   4.041
 8812SOL     OW27334   0.437   1.194   0.779
 8812SOL    HW127335   0.508   1.264   0.774
 8812SOL    HW227336   0.354   1.232   0.820
 8813SOL     OW27337   0.999   6.134   1.776
 8813SOL    HW127338   0.960   6.046   1.804
 8813SOL    HW227339   1.088   6.146   1.822
 8814SOL     OW27340   6.763   0.608   6.911
 8814SOL    HW127341   6.687   0.576   6.854
 8814SOL    HW227342   6.850   0.594   6.862
 8815SOL     OW27343   6.826   5.544   1.630
 8815SOL    HW127344   6.817   5.567   1.727
 8815SOL    HW227345   6.869   5.620   1.582
 8816SOL     OW27346   1.075   6.125   1.059
 8816SOL    HW127347   1.130   6.100   0.980
 8816SOL    HW227348   1.093   6.061   1.134
 8817SOL     OW27349   1.345   5.637   5.151
 8817SOL    HW127350   1.308   5.566   5.091
 8817SOL    HW227351   1.366   5.719   5.097
 8818SOL     OW27352   0.149   4.044   3.761
 8818SOL    HW127353   0.138   4.022   3.664
 8818SOL    HW227354   0.097   4.126   3.783
 8819SOL     OW27355   4.615   6.543   4.275
 8819SOL    HW127356   4.582   6.461   4.227
 8819SOL    HW227357   4.630   6.616   4.209
 8820SOL     OW27358   1.722   2.879   4.879
 8820SOL    HW127359   1.652   2.835   4.823
 8820SOL    HW227360   1.732   2.829   4.965
 8821SOL     OW27361   2.148   0.325   6.199
 8821SOL    HW127362   2.162   0.421   6.221
 8821SOL    HW227363   2.190   0.304   6.110
 8822SOL     OW27364   0.942   0.718   2.961
 8822SOL    HW127365   0.955   0.735   3.059
 8822SOL    HW227366   0.985   0.792   2.909
 8823SOL     OW27367   1.984   0.153   0.797
 8823SOL    HW127368   1.948   0.060   0.800
 8823SOL    HW227369   2.005   0.184   0.889
 8824SOL     OW27370   2.720   3.982   1.076
 8824SOL    HW127371   2.771   4.006   0.993
 8824SOL    HW227372   2.708   3.883   1.080
 8825SOL     OW27373   2.114   1.120   2.078
 8825SOL    HW127374   2.078   1.213   2.071
 8825SOL    HW227375   2.089   1.081   2.167
 8826SOL     OW27376   5.992   1.411   6.765
 8826SOL    HW127377   6.033   1.330   6.807
 8826SOL    HW227378   6.021   1.493   6.815
 8827SOL     OW27379   2.335   1.633   3.420
 8827SOL    HW127380   2.391   1.716   3.428
 8827SOL    HW227381   2.388   1.554   3.451
 8828SOL     OW27382   3.250   6.130   3.718
 8828SOL    HW127383   3.244   6.055   3.652
 8828SOL    HW227384   3.312   6.104   3.792
 8829SOL     OW27385   0.416   3.028   6.796
 8829SOL    HW127386   0.355   2.961   6.837
 8829SOL    HW227387   0.510   2.993   6.797
 8830SOL     OW27388   0.597   1.128   6.931
 8830SOL    HW127389   0.602   1.189   6.852
 8830SOL    HW227390   0.505   1.133   6.971
 8831SOL     OW27391   6.003   0.639   3.041
 8831SOL    HW127392   6.037   0.564   3.099
 8831SOL    HW227393   5.903   0.641   3.044
 8832SOL     OW27394   0.616   6.933   2.186
 8832SOL    HW127395   0.653   6.941   2.094
 8832SOL    HW227396   0.615   6.837   2.214
 8833SOL     OW27397   2.468   5.930   4.489
 8833SOL    HW127398   2.429   5.945   4.580
 8833SOL    HW227399   2.399   5.946   4.419
 8834SOL     OW27400   5.954   3.189   4.717
 8834SOL    HW127401   6.002   3.247   4.784
 8834SOL    HW227402   5.893   3.246   4.662
 8835SOL     OW27403   6.769   6.737   5.590
 8835SOL    HW127404   6.751   6.742   5.689
 8835SOL    HW227405   6.705   6.796   5.541
 8836SOL     OW27406   3.825   0.941   0.597
 8836SOL    HW127407   3.916   0.962   0.560
 8836SOL    HW227408   3.835   0.897   0.687
 8837SOL     OW27409   0.610   1.059   1.966
 8837SOL    HW127410   0.524   1.064   2.016
 8837SOL    HW227411   0.666   0.985   2.002
 8838SOL     OW27412   2.605   5.114   3.488
 8838SOL    HW127413   2.687   5.140   3.538
 8838SOL    HW227414   2.524   5.153   3.533
 8839SOL     OW27415   6.140   6.450   3.015
 8839SOL    HW127416   6.069   6.480   2.951
 8839SOL    HW227417   6.158   6.522   3.082
 8840SOL     OW27418   5.555   2.381   2.204
 8840SOL    HW127419   5.583   2.413   2.295
 8840SOL    HW227420   5.464   2.340   2.209
 8841SOL     OW27421   0.894   1.828   5.316
 8841SOL    HW127422   0.867   1.849   5.410
 8841SOL    HW227423   0.923   1.913   5.271
 8842SOL     OW27424   2.622   2.668   1.470
 8842SOL    HW127425   2.675   2.626   1.396
 8842SOL    HW227426   2.583   2.597   1.528
 8843SOL     OW27427   1.440   2.864   5.239
 8843SOL    HW127428   1.359   2.868   5.297
 8843SOL    HW227429   1.522   2.873   5.296
 8844SOL     OW27430   5.866   1.147   6.333
 8844SOL    HW127431   5.864   1.177   6.428
 8844SOL    HW227432   5.938   1.079   6.321
 8845SOL     OW27433   4.482   3.707   0.175
 8845SOL    HW127434   4.555   3.767   0.208
 8845SOL    HW227435   4.522   3.637   0.115
 8846SOL     OW27436   2.062   4.719   4.054
 8846SOL    HW127437   1.965   4.696   4.050
 8846SOL    HW227438   2.114   4.653   3.999
 8847SOL     OW27439   2.701   0.375   2.677
 8847SOL    HW127440   2.766   0.405   2.607
 8847SOL    HW227441   2.694   0.445   2.748
 8848SOL     OW27442   1.923   0.768   1.682
 8848SOL    HW127443   1.946   0.818   1.766
 8848SOL    HW227444   1.961   0.816   1.603
 8849SOL     OW27445   1.652   6.124   2.435
 8849SOL    HW127446   1.581   6.189   2.463
 8849SOL    HW227447   1.652   6.117   2.335
 8850SOL     OW27448   3.191   2.410   6.555
 8850SOL    HW127449   3.185   2.455   6.644
 8850SOL    HW227450   3.116   2.442   6.497
 8851SOL     OW27451   1.696   4.585   2.512
 8851SOL    HW127452   1.683   4.655   2.582
 8851SOL    HW227453   1.748   4.509   2.551
 8852SOL     OW27454   1.248   1.689   5.418
 8852SOL    HW127455   1.186   1.661   5.492
 8852SOL    HW227456   1.199   1.690   5.331
 8853SOL     OW27457   2.981   0.956   1.311
 8853SOL    HW127458   2.946   1.016   1.239
 8853SOL    HW227459   3.058   0.999   1.356
 8854SOL     OW27460   1.667   2.705   5.087
 8854SOL    HW127461   1.616   2.745   5.163
 8854SOL    HW227462   1.609   2.640   5.038
 8855SOL     OW27463   5.859   4.973   1.697
 8855SOL    HW127464   5.882   4.968   1.599
 8855SOL    HW227465   5.761   4.982   1.708
 8856SOL     OW27466   0.265   5.257   6.210
 8856SOL    HW127467   0.175   5.279   6.248
 8856SOL    HW227468   0.315   5.200   6.274
 8857SOL     OW27469   6.446   1.419   5.197
 8857SOL    HW127470   6.530   1.460   5.234
 8857SOL    HW227471   6.425   1.460   5.108
 8858SOL     OW27472   5.948   5.031   5.488
 8858SOL    HW127473   6.006   5.108   5.512
 8858SOL    HW227474   5.909   4.991   5.570
 8859SOL     OW27475   0.668   0.839   3.655
 8859SOL    HW127476   0.623   0.927   3.640
 8859SOL    HW227477   0.724   0.816   3.575
 8860SOL     OW27478   6.720   2.567   1.495
 8860SOL    HW127479   6.801   2.599   1.445
 8860SOL    HW227480   6.748   2.537   1.586
 8861SOL     OW27481   4.138   1.702   1.448
 8861SOL    HW127482   4.140   1.641   1.369
 8861SOL    HW227483   4.072   1.775   1.432
 8862SOL     OW27484   4.627   5.501   5.168
 8862SOL    HW127485   4.662   5.414   5.132
 8862SOL    HW227486   4.677   5.525   5.251
 8863SOL     OW27487   1.891   4.459   3.680
 8863SOL    HW127488   1.884   4.421   3.587
 8863SOL    HW227489   1.835   4.405   3.742
 8864SOL     OW27490   5.180   2.467   6.670
 8864SOL    HW127491   5.260   2.413   6.646
 8864SOL    HW227492   5.104   2.442   6.610
 8865SOL     OW27493   2.803   1.560   6.564
 8865SOL    HW127494   2.737   1.605   6.624
 8865SOL    HW227495   2.822   1.619   6.485
 8866SOL     OW27496   5.577   6.237   2.216
 8866SOL    HW127497   5.577   6.278   2.125
 8866SOL    HW227498   5.574   6.309   2.285
 8867SOL     OW27499   6.526   3.482   2.567
 8867SOL    HW127500   6.432   3.505   2.591
 8867SOL    HW227501   6.570   3.562   2.526
 8868SOL     OW27502   0.060   3.587   3.171
 8868SOL    HW127503   7.011   3.659   3.169
 8868SOL    HW227504   0.149   3.626   3.149
 8869SOL     OW27505   3.535   5.830   3.763
 8869SOL    HW127506   3.552   5.752   3.823
 8869SOL    HW227507   3.503   5.907   3.819
 8870SOL     OW27508   1.714   0.102   1.824
 8870SOL    HW127509   1.745   0.090   1.918
 8870SOL    HW227510   1.778   0.162   1.775
 8871SOL     OW27511   1.452   0.638   2.608
 8871SOL    HW127512   1.452   0.733   2.579
 8871SOL    HW227513   1.423   0.632   2.704
 8872SOL     OW27514   0.648   4.503   5.606
 8872SOL    HW127515   0.618   4.464   5.693
 8872SOL    HW227516   0.569   4.539   5.556
 8873SOL     OW27517   1.544   0.373   2.093
 8873SOL    HW127518   1.624   0.421   2.128
 8873SOL    HW227519   1.561   0.274   2.093
 8874SOL     OW27520   2.099   5.457   0.410
 8874SOL    HW127521   2.057   5.370   0.387
 8874SOL    HW227522   2.146   5.494   0.330
 8875SOL     OW27523   0.205   2.939   3.539
 8875SOL    HW127524   0.262   3.021   3.549
 8875SOL    HW227525   0.264   2.859   3.529
 8876SOL     OW27526   3.627   0.516   6.109
 8876SOL    HW127527   3.710   0.569   6.092
 8876SOL    HW227528   3.645   0.447   6.179
 8877SOL     OW27529   1.918   3.818   1.339
 8877SOL    HW127530   1.984   3.887   1.369
 8877SOL    HW227531   1.967   3.740   1.300
 8878SOL     OW27532   4.031   5.020   0.730
 8878SOL    HW127533   4.050   4.932   0.688
 8878SOL    HW227534   3.933   5.028   0.749
 8879SOL     OW27535   6.076   4.709   3.185
 8879SOL    HW127536   6.090   4.792   3.131
 8879SOL    HW227537   6.159   4.654   3.182
 8880SOL     OW27538   4.737   6.617   3.639
 8880SOL    HW127539   4.835   6.614   3.621
 8880SOL    HW227540   4.706   6.712   3.641
 8881SOL     OW27541   3.756   4.868   3.949
 8881SOL    HW127542   3.673   4.889   4.001
 8881SOL    HW227543   3.836   4.889   4.005
 8882SOL     OW27544   3.694   0.662   1.037
 8882SOL    HW127545   3.706   0.631   1.131
 8882SOL    HW227546   3.631   0.600   0.990
 8883SOL     OW27547   0.248   6.312   5.748
 8883SOL    HW127548   0.165   6.355   5.783
 8883SOL    HW227549   0.231   6.215   5.733
 8884SOL     OW27550   5.653   3.806   4.853
 8884SOL    HW127551   5.615   3.763   4.935
 8884SOL    HW227552   5.656   3.739   4.779
 8885SOL     OW27553   5.569   5.244   0.343
 8885SOL    HW127554   5.651   5.204   0.382
 8885SOL    HW227555   5.592   5.294   0.259
 8886SOL     OW27556   2.836   5.733   0.051
 8886SOL    HW127557   2.854   5.638   0.028
 8886SOL    HW227558   2.804   5.740   0.145
 8887SOL     OW27559   4.504   1.572   1.043
 8887SOL    HW127560   4.484   1.628   1.123
 8887SOL    HW227561   4.450   1.604   0.966
 8888SOL     OW27562   1.995   1.904   3.589
 8888SOL    HW127563   2.063   1.855   3.534
 8888SOL    HW227564   2.024   1.907   3.684
 8889SOL     OW27565   6.863   6.612   6.491
 8889SOL    HW127566   6.942   6.645   6.440
 8889SOL    HW227567   6.833   6.524   6.454
 8890SOL     OW27568   7.013   0.075   7.010
 8890SOL    HW127569   6.949   0.005   6.977
 8890SOL    HW227570   0.086   0.049   6.985
 8891SOL     OW27571   5.903   4.662   6.660
 8891SOL    HW127572   5.807   4.660   6.634
 8891SOL    HW227573   5.944   4.572   6.643
 8892SOL     OW27574   3.212   4.966   3.592
 8892SOL    HW127575   3.260   5.054   3.593
 8892SOL    HW227576   3.179   4.947   3.500
 8893SOL     OW27577   1.321   5.155   4.583
 8893SOL    HW127578   1.223   5.160   4.560
 8893SOL    HW227579   1.363   5.080   4.532
 8894SOL     OW27580   4.054   2.530   0.569
 8894SOL    HW127581   4.086   2.571   0.483
 8894SOL    HW227582   3.956   2.514   0.563
 8895SOL     OW27583   0.689   3.711   0.839
 8895SOL    HW127584   0.684   3.663   0.927
 8895SOL    HW227585   0.625   3.788   0.839
 8896SOL     OW27586   0.229   2.316   4.284
 8896SOL    HW127587   0.314   2.368   4.275
 8896SOL    HW227588   0.153   2.378   4.302
 8897SOL     OW27589   1.772   3.856   3.707
 8897SOL    HW127590   1.696   3.802   3.671
 8897SOL    HW227591   1.764   3.950   3.673
 8898SOL     OW27592   5.042   3.529   2.658
 8898SOL    HW127593   4.976   3.578   2.600
 8898SOL    HW227594   5.133   3.566   2.643
 8899SOL     OW27595   0.148   3.759   6.054
 8899SOL    HW127596   0.115   3.724   6.142
 8899SOL    HW227597   0.070   3.781   5.996
 8900SOL     OW27598   5.779   2.224   3.753
 8900SOL    HW127599   5.751   2.277   3.834
 8900SOL    HW227600   5.871   2.188   3.767
 8901SOL     OW27601   0.763   2.479   4.365
 8901SOL    HW127602   0.794   2.536   4.440
 8901SOL    HW227603   0.698   2.411   4.399
 8902SOL     OW27604   1.144   4.493   6.723
 8902SOL    HW127605   1.213   4.441   6.672
 8902SOL    HW227606   1.097   4.555   6.661
 8903SOL     OW27607   1.546   0.921   4.628
 8903SOL    HW127608   1.456   0.886   4.601
 8903SOL    HW227609   1.554   1.017   4.601
 8904SOL     OW27610   1.009   1.084   2.853
 8904SOL    HW127611   0.910   1.072   2.859
 8904SOL    HW227612   1.051   0.997   2.828
 8905SOL     OW27613   1.455   3.361   2.011
 8905SOL    HW127614   1.430   3.311   2.093
 8905SOL    HW227615   1.529   3.425   2.031
 8906SOL     OW27616   0.081   6.951   0.485
 8906SOL    HW127617   0.010   6.897   0.439
 8906SOL    HW227618   0.048   0.024   0.498
 8907SOL     OW27619   3.548   2.871   5.051
 8907SOL    HW127620   3.620   2.858   4.981
 8907SOL    HW227621   3.459   2.848   5.012
 8908SOL     OW27622   1.210   5.927   0.577
 8908SOL    HW127623   1.213   5.843   0.632
 8908SOL    HW227624   1.137   5.920   0.509
 8909SOL     OW27625   2.561   1.265   6.640
 8909SOL    HW127626   2.614   1.223   6.713
 8909SOL    HW227627   2.503   1.338   6.678
 8910SOL     OW27628   1.340   2.846   4.979
 8910SOL    HW127629   1.400   2.832   5.057
 8910SOL    HW227630   1.247   2.817   5.003
 8911SOL     OW27631   4.774   2.020   3.987
 8911SOL    HW127632   4.798   2.015   4.084
 8911SOL    HW227633   4.708   1.949   3.966
 8912SOL     OW27634   3.743   3.787   5.196
 8912SOL    HW127635   3.819   3.722   5.194
 8912SOL    HW227636   3.774   3.876   5.163
 8913SOL     OW27637   5.122   5.693   6.809
 8913SOL    HW127638   5.131   5.772   6.870
 8913SOL    HW227639   5.059   5.627   6.850
 8914SOL     OW27640   5.306   6.417   5.299
 8914SOL    HW127641   5.209   6.441   5.286
 8914SOL    HW227642   5.317   6.318   5.292
 8915SOL     OW27643   0.553   1.428   3.543
 8915SOL    HW127644   0.482   1.358   3.541
 8915SOL    HW227645   0.525   1.502   3.604
 8916SOL     OW27646   5.419   1.405   6.689
 8916SOL    HW127647   5.437   1.368   6.780
 8916SOL    HW227648   5.408   1.330   6.624
 8917SOL     OW27649   5.610   1.670   0.430
 8917SOL    HW127650   5.626   1.762   0.466
 8917SOL    HW227651   5.677   1.607   0.470
 8918SOL     OW27652   1.723   4.973   1.465
 8918SOL    HW127653   1.669   5.033   1.524
 8918SOL    HW227654   1.791   4.925   1.520
 8919SOL     OW27655   5.767   4.296   6.693
 8919SOL    HW127656   5.756   4.270   6.789
 8919SOL    HW227657   5.863   4.311   6.673
 8920SOL     OW27658   0.017   1.281   6.541
 8920SOL    HW127659   0.007   1.381   6.537
 8920SOL    HW227660   0.107   1.255   6.505
 8921SOL     OW27661   1.842   2.774   1.119
 8921SOL    HW127662   1.796   2.767   1.030
 8921SOL    HW227663   1.907   2.699   1.129
 8922SOL     OW27664   3.799   0.413   3.610
 8922SOL    HW127665   3.825   0.366   3.526
 8922SOL    HW227666   3.879   0.459   3.648
 8923SOL     OW27667   1.979   2.023   5.768
 8923SOL    HW127668   1.960   2.092   5.698
 8923SOL    HW227669   1.943   2.053   5.856
 8924SOL     OW27670   5.302   4.833   4.830
 8924SOL    HW127671   5.217   4.851   4.781
 8924SOL    HW227672   5.282   4.775   4.910
 8925SOL     OW27673   1.117   0.850   2.772
 8925SOL    HW127674   1.203   0.848   2.824
 8925SOL    HW227675   1.114   0.773   2.709
 8926SOL     OW27676   6.661   3.902   5.667
 8926SOL    HW127677   6.757   3.885   5.691
 8926SOL    HW227678   6.627   3.980   5.719
 8927SOL     OW27679   6.540   2.174   5.798
 8927SOL    HW127680   6.535   2.097   5.861
 8927SOL    HW227681   6.600   2.151   5.721
 8928SOL     OW27682   2.312   0.061   5.217
 8928SOL    HW127683   2.242   0.131   5.207
 8928SOL    HW227684   2.280   7.010   5.278
 8929SOL     OW27685   6.637   2.434   5.029
 8929SOL    HW127686   6.599   2.375   4.958
 8929SOL    HW227687   6.732   2.456   5.006
 8930SOL     OW27688   1.218   3.960   3.168
 8930SOL    HW127689   1.128   3.930   3.200
 8930SOL    HW227690   1.242   3.909   3.085
 8931SOL     OW27691   3.553   3.201   1.746
 8931SOL    HW127692   3.581   3.119   1.794
 8931SOL    HW227693   3.458   3.192   1.716
 8932SOL     OW27694   0.324   2.256   2.942
 8932SOL    HW127695   0.257   2.324   2.911
 8932SOL    HW227696   0.384   2.297   3.010
 8933SOL     OW27697   3.493   2.351   5.974
 8933SOL    HW127698   3.521   2.337   5.879
 8933SOL    HW227699   3.557   2.413   6.019
 8934SOL     OW27700   3.720   5.377   3.833
 8934SOL    HW127701   3.712   5.299   3.896
 8934SOL    HW227702   3.816   5.391   3.809
 8935SOL     OW27703   6.848   5.191   0.909
 8935SOL    HW127704   6.893   5.118   0.857
 8935SOL    HW227705   6.754   5.164   0.929
 8936SOL     OW27706   1.986   3.639   0.332
 8936SOL    HW127707   1.940   3.657   0.419
 8936SOL    HW227708   2.056   3.569   0.346
 8937SOL     OW27709   0.018   6.734   5.488
 8937SOL    HW127710   6.944   6.719   5.518
 8937SOL    HW227711   0.039   6.832   5.491
 8938SOL     OW27712   6.591   4.938   1.666
 8938SOL    HW127713   6.563   4.856   1.716
 8938SOL    HW227714   6.651   4.993   1.725
 8939SOL     OW27715   4.823   1.988   4.510
 8939SOL    HW127716   4.888   1.913   4.523
 8939SOL    HW227717   4.734   1.961   4.548
 8940SOL     OW27718   6.567   0.700   3.815
 8940SOL    HW127719   6.638   0.768   3.833
 8940SOL    HW227720   6.477   0.740   3.828
 8941SOL     OW27721   5.738   1.981   5.484
 8941SOL    HW127722   5.739   2.039   5.566
 8941SOL    HW227723   5.654   1.998   5.433
 8942SOL     OW27724   0.340   2.570   5.335
 8942SOL    HW127725   0.335   2.481   5.291
 8942SOL    HW227726   0.254   2.620   5.320
 8943SOL     OW27727   4.742   3.719   1.268
 8943SOL    HW127728   4.832   3.680   1.247
 8943SOL    HW227729   4.693   3.737   1.182
 8944SOL     OW27730   5.359   5.702   0.067
 8944SOL    HW127731   5.378   5.604   0.080
 8944SOL    HW227732   5.304   5.735   0.144
 8945SOL     OW27733   2.829   0.413   5.103
 8945SOL    HW127734   2.863   0.331   5.148
 8945SOL    HW227735   2.730   0.405   5.090
 8946SOL     OW27736   3.345   1.679   5.123
 8946SOL    HW127737   3.312   1.734   5.200
 8946SOL    HW227738   3.343   1.582   5.148
 8947SOL     OW27739   3.396   3.662   5.617
 8947SOL    HW127740   3.429   3.577   5.657
 8947SOL    HW227741   3.330   3.706   5.678
 8948SOL     OW27742   5.505   4.933   3.403
 8948SOL    HW127743   5.542   4.874   3.475
 8948SOL    HW227744   5.442   4.999   3.443
 8949SOL     OW27745   1.783   6.719   6.790
 8949SOL    HW127746   1.834   6.656   6.849
 8949SOL    HW227747   1.702   6.752   6.839
 8950SOL     OW27748   4.985   2.902   5.462
 8950SOL    HW127749   5.054   2.845   5.506
 8950SOL    HW227750   4.902   2.848   5.446
 8951SOL     OW27751   1.743   2.694   5.557
 8951SOL    HW127752   1.744   2.696   5.657
 8951SOL    HW227753   1.812   2.630   5.523
 8952SOL     OW27754   1.478   0.953   3.122
 8952SOL    HW127755   1.522   0.895   3.053
 8952SOL    HW227756   1.394   0.991   3.084
 8953SOL     OW27757   1.571   3.349   6.873
 8953SOL    HW127758   1.565   3.428   6.934
 8953SOL    HW227759   1.647   3.291   6.899
 8954SOL     OW27760   0.911   6.153   6.049
 8954SOL    HW127761   0.985   6.087   6.063
 8954SOL    HW227762   0.853   6.123   5.973
 8955SOL     OW27763   0.153   4.557   3.422
 8955SOL    HW127764   0.236   4.501   3.416
 8955SOL    HW227765   0.131   4.571   3.519
 8956SOL     OW27766   0.820   1.153   5.994
 8956SOL    HW127767   0.763   1.230   5.968
 8956SOL    HW227768   0.765   1.083   6.039
 8957SOL     OW27769   2.815   4.788   1.763
 8957SOL    HW127770   2.798   4.706   1.817
 8957SOL    HW227771   2.888   4.842   1.806
 8958SOL     OW27772   0.932   0.107   4.077
 8958SOL    HW127773   0.871   0.171   4.030
 8958SOL    HW227774   0.884   0.021   4.095
 8959SOL     OW27775   1.150   5.037   0.839
 8959SOL    HW127776   1.133   5.026   0.937
 8959SOL    HW227777   1.134   4.949   0.794
 8960SOL     OW27778   4.493   5.682   2.163
 8960SOL    HW127779   4.548   5.762   2.140
 8960SOL    HW227780   4.438   5.655   2.084
 8961SOL     OW27781   1.077   1.528   4.520
 8961SOL    HW127782   1.137   1.602   4.492
 8961SOL    HW227783   1.007   1.563   4.583
 8962SOL     OW27784   5.567   0.118   2.516
 8962SOL    HW127785   5.492   0.135   2.580
 8962SOL    HW227786   5.649   0.164   2.547
 8963SOL     OW27787   5.081   0.134   4.484
 8963SOL    HW127788   5.102   0.036   4.476
 8963SOL    HW227789   5.144   0.186   4.426
 8964SOL     OW27790   5.217   5.166   2.023
 8964SOL    HW127791   5.291   5.146   2.088
 8964SOL    HW227792   5.130   5.168   2.073
 8965SOL     OW27793   1.462   5.287   1.365
 8965SOL    HW127794   1.560   5.301   1.374
 8965SOL    HW227795   1.430   5.230   1.441
 8966SOL     OW27796   1.544   2.650   6.010
 8966SOL    HW127797   1.544   2.729   6.072
 8966SOL    HW227798   1.465   2.655   5.949
 8967SOL     OW27799   3.738   6.959   1.453
 8967SOL    HW127800   3.686   0.021   1.429
 8967SOL    HW227801   3.682   6.901   1.512
 8968SOL     OW27802   5.369   5.828   1.630
 8968SOL    HW127803   5.414   5.912   1.660
 8968SOL    HW227804   5.431   5.776   1.570
 8969SOL     OW27805   5.788   0.507   3.430
 8969SOL    HW127806   5.826   0.598   3.413
 8969SOL    HW227807   5.857   0.438   3.412
 8970SOL     OW27808   3.088   2.453   1.047
 8970SOL    HW127809   3.012   2.500   1.090
 8970SOL    HW227810   3.173   2.474   1.096
 8971SOL     OW27811   3.700   6.314   2.362
 8971SOL    HW127812   3.784   6.286   2.408
 8971SOL    HW227813   3.683   6.254   2.283
 8972SOL     OW27814   5.024   6.406   6.563
 8972SOL    HW127815   5.028   6.306   6.570
 8972SOL    HW227816   5.117   6.442   6.554
 8973SOL     OW27817   1.308   4.276   1.153
 8973SOL    HW127818   1.381   4.323   1.103
 8973SOL    HW227819   1.305   4.180   1.126
 8974SOL     OW27820   1.320   4.324   6.603
 8974SOL    HW127821   1.329   4.240   6.657
 8974SOL    HW227822   1.311   4.300   6.506
 8975SOL     OW27823   2.745   0.115   0.453
 8975SOL    HW127824   2.700   0.204   0.464
 8975SOL    HW227825   2.754   0.095   0.355
 8976SOL     OW27826   1.586   5.280   4.668
 8976SOL    HW127827   1.513   5.240   4.612
 8976SOL    HW227828   1.673   5.237   4.644
 8977SOL     OW27829   6.180   1.159   5.770
 8977SOL    HW127830   6.149   1.190   5.860
 8977SOL    HW227831   6.228   1.234   5.724
 8978SOL     OW27832   5.783   5.799   0.203
 8978SOL    HW127833   5.870   5.841   0.232
 8978SOL    HW227834   5.794   5.757   0.113
 8979SOL     OW27835   1.871   4.123   5.054
 8979SOL    HW127836   1.855   4.025   5.055
 8979SOL    HW227837   1.964   4.143   5.085
 8980SOL     OW27838   3.138   3.540   5.451
 8980SOL    HW127839   3.198   3.619   5.466
 8980SOL    HW227840   3.154   3.503   5.359
 8981SOL     OW27841   3.787   1.544   5.436
 8981SOL    HW127842   3.848   1.467   5.455
 8981SOL    HW227843   3.804   1.577   5.343
 8982SOL     OW27844   1.967   3.523   6.965
 8982SOL    HW127845   1.986   3.620   6.972
 8982SOL    HW227846   1.929   3.489   0.031
 8983SOL     OW27847   3.854   6.083   0.160
 8983SOL    HW127848   3.784   6.038   0.103
 8983SOL    HW227849   3.889   6.019   0.228
 8984SOL     OW27850   2.320   6.147   3.025
 8984SOL    HW127851   2.343   6.098   2.940
 8984SOL    HW227852   2.251   6.217   3.005
 8985SOL     OW27853   3.375   2.464   0.618
 8985SOL    HW127854   3.281   2.494   0.604
 8985SOL    HW227855   3.414   2.511   0.697
 8986SOL     OW27856   3.243   4.937   3.047
 8986SOL    HW127857   3.196   4.856   3.012
 8986SOL    HW227858   3.328   4.951   2.995
 8987SOL     OW27859   4.924   6.280   3.063
 8987SOL    HW127860   4.986   6.286   2.985
 8987SOL    HW227861   4.912   6.370   3.104
 8988SOL     OW27862   0.469   5.985   3.492
 8988SOL    HW127863   0.542   6.049   3.513
 8988SOL    HW227864   0.474   5.957   3.396
 8989SOL     OW27865   4.626   3.234   6.219
 8989SOL    HW127866   4.669   3.179   6.290
 8989SOL    HW227867   4.674   3.219   6.132
 8990SOL     OW27868   0.731   5.129   3.702
 8990SOL    HW127869   0.725   5.228   3.688
 8990SOL    HW227870   0.642   5.094   3.732
 8991SOL     OW27871   1.613   3.103   4.668
 8991SOL    HW127872   1.711   3.092   4.677
 8991SOL    HW227873   1.591   3.201   4.663
 8992SOL     OW27874   5.050   1.470   0.620
 8992SOL    HW127875   5.011   1.522   0.696
 8992SOL    HW227876   4.980   1.452   0.552
 8993SOL     OW27877   4.272   3.444   6.579
 8993SOL    HW127878   4.174   3.430   6.564
 8993SOL    HW227879   4.323   3.420   6.497
 8994SOL     OW27880   1.945   4.551   4.332
 8994SOL    HW127881   1.927   4.518   4.239
 8994SOL    HW227882   1.907   4.487   4.398
 8995SOL     OW27883   6.147   1.631   1.498
 8995SOL    HW127884   6.231   1.686   1.491
 8995SOL    HW227885   6.105   1.623   1.408
 8996SOL     OW27886   5.708   3.750   6.419
 8996SOL    HW127887   5.780   3.793   6.475
 8996SOL    HW227888   5.740   3.661   6.387
 8997SOL     OW27889   4.685   1.059   6.035
 8997SOL    HW127890   4.667   1.121   6.111
 8997SOL    HW227891   4.780   1.068   6.007
 8998SOL     OW27892   6.103   3.774   3.836
 8998SOL    HW127893   6.104   3.806   3.930
 8998SOL    HW227894   6.113   3.675   3.834
 8999SOL     OW27895   4.586   6.939   6.254
 8999SOL    HW127896   4.652   6.915   6.183
 8999SOL    HW227897   4.550   0.010   6.236
 9000SOL     OW27898   1.609   3.308   1.786
 9000SOL    HW127899   1.551   3.300   1.867
 9000SOL    HW227900   1.645   3.401   1.780
 9001SOL     OW27901   0.194   4.882   1.801
 9001SOL    HW127902   0.114   4.935   1.776
 9001SOL    HW227903   0.173   4.784   1.797
 9002SOL     OW27904   1.376   4.924   5.162
 9002SOL    HW127905   1.388   5.023   5.160
 9002SOL    HW227906   1.309   4.900   5.231
 9003SOL     OW27907   5.028   3.272   1.292
 9003SOL    HW127908   4.980   3.309   1.371
 9003SOL    HW227909   5.105   3.216   1.323
 9004SOL     OW27910   4.511   4.931   1.033
 9004SOL    HW127911   4.433   4.977   0.992
 9004SOL    HW227912   4.483   4.840   1.064
 9005SOL     OW27913   5.679   1.325   5.956
 9005SOL    HW127914   5.717   1.396   5.898
 9005SOL    HW227915   5.707   1.340   6.051
 9006SOL     OW27916   2.771   6.384   1.083
 9006SOL    HW127917   2.719   6.386   1.168
 9006SOL    HW227918   2.737   6.310   1.025
 9007SOL     OW27919   2.371   1.228   2.110
 9007SOL    HW127920   2.297   1.165   2.089
 9007SOL    HW227921   2.366   1.308   2.050
 9008SOL     OW27922   0.325   4.905   3.054
 9008SOL    HW127923   0.225   4.903   3.060
 9008SOL    HW227924   0.354   4.976   2.990
 9009SOL     OW27925   3.431   5.258   1.023
 9009SOL    HW127926   3.464   5.260   1.117
 9009SOL    HW227927   3.507   5.281   0.961
 9010SOL     OW27928   2.631   6.539   4.479
 9010SOL    HW127929   2.593   6.450   4.506
 9010SOL    HW227930   2.605   6.608   4.546
 9011SOL     OW27931   3.687   1.268   1.958
 9011SOL    HW127932   3.605   1.295   2.006
 9011SOL    HW227933   3.686   1.307   1.866
 9012SOL     OW27934   2.240   5.786   0.072
 9012SOL    HW127935   2.297   5.830   0.004
 9012SOL    HW227936   2.271   5.812   0.164
 9013SOL     OW27937   0.972   0.623   4.657
 9013SOL    HW127938   0.924   0.538   4.634
 9013SOL    HW227939   1.051   0.602   4.714
 9014SOL     OW27940   6.085   2.897   1.437
 9014SOL    HW127941   6.060   2.972   1.376
 9014SOL    HW227942   6.184   2.899   1.453
 9015SOL     OW27943   4.751   2.617   1.387
 9015SOL    HW127944   4.822   2.658   1.331
 9015SOL    HW227945   4.696   2.555   1.331
 9016SOL     OW27946   5.547   4.911   6.541
 9016SOL    HW127947   5.540   4.957   6.630
 9016SOL    HW227948   5.618   4.955   6.486
 9017SOL     OW27949   4.046   1.005   4.653
 9017SOL    HW127950   4.038   1.101   4.680
 9017SOL    HW227951   4.110   0.958   4.714
 9018SOL     OW27952   3.934   3.874   6.414
 9018SOL    HW127953   3.906   3.968   6.398
 9018SOL    HW227954   3.857   3.821   6.449
 9019SOL     OW27955   1.102   4.188   2.755
 9019SOL    HW127956   1.059   4.114   2.806
 9019SOL    HW227957   1.200   4.193   2.777
 9020SOL     OW27958   6.887   4.491   1.075
 9020SOL    HW127959   6.814   4.541   1.029
 9020SOL    HW227960   6.939   4.438   1.007
 9021SOL     OW27961   6.809   0.849   3.794
 9021SOL    HW127962   6.838   0.822   3.886
 9021SOL    HW227963   6.882   0.900   3.749
 9022SOL     OW27964   3.539   1.904   0.095
 9022SOL    HW127965   3.491   1.904   0.007
 9022SOL    HW227966   3.633   1.935   0.082
 9023SOL     OW27967   4.152   3.285   1.436
 9023SOL    HW127968   4.205   3.213   1.480
 9023SOL    HW227969   4.130   3.356   1.503
 9024SOL     OW27970   1.061   4.536   5.131
 9024SOL    HW127971   1.088   4.489   5.047
 9024SOL    HW227972   1.062   4.635   5.116
 9025SOL     OW27973   6.566   5.855   0.646
 9025SOL    HW127974   6.615   5.784   0.697
 9025SOL    HW227975   6.560   5.937   0.703
 9026SOL     OW27976   3.011   2.119   0.663
 9026SOL    HW127977   2.999   2.162   0.752
 9026SOL    HW227978   3.097   2.149   0.623
 9027SOL     OW27979   0.836   3.794   3.547
 9027SOL    HW127980   0.802   3.754   3.632
 9027SOL    HW227981   0.875   3.721   3.490
 9028SOL     OW27982   4.075   2.742   5.354
 9028SOL    HW127983   4.100   2.689   5.273
 9028SOL    HW227984   4.014   2.817   5.328
 9029SOL     OW27985   4.218   0.618   4.837
 9029SOL    HW127986   4.140   0.662   4.880
 9029SOL    HW227987   4.193   0.589   4.745
 9030SOL     OW27988   2.219   2.695   4.181
 9030SOL    HW127989   2.125   2.660   4.180
 9030SOL    HW227990   2.227   2.768   4.248
 9031SOL     OW27991   4.210   0.284   4.665
 9031SOL    HW127992   4.308   0.268   4.658
 9031SOL    HW227993   4.186   0.302   4.761
 9032SOL     OW27994   4.547   3.909   0.814
 9032SOL    HW127995   4.621   3.869   0.759
 9032SOL    HW227996   4.586   3.973   0.881
 9033SOL     OW27997   0.569   4.613   2.786
 9033SOL    HW127998   0.478   4.635   2.752
 9033SOL    HW227999   0.610   4.695   2.827
 9034SOL     OW28000   3.633   6.179   4.591
 9034SOL    HW128001   3.566   6.105   4.582
 9034SOL    HW228002   3.663   6.208   4.500
 9035SOL     OW28003   1.680   6.027   6.930
 9035SOL    HW128004   1.610   5.960   6.905
 9035SOL    HW228005   1.636   6.108   6.969
 9036SOL     OW28006   1.648   3.791   5.673
 9036SOL    HW128007   1.612   3.818   5.584
 9036SOL    HW228008   1.747   3.778   5.666
 9037SOL     OW28009   1.157   3.014   4.531
 9037SOL    HW128010   1.193   3.010   4.625
 9037SOL    HW228011   1.231   3.035   4.468
 9038SOL     OW28012   4.485   3.323   6.686
 9038SOL    HW128013   4.467   3.243   6.744
 9038SOL    HW228014   4.403   3.380   6.680
 9039SOL     OW28015   3.119   4.761   0.373
 9039SOL    HW128016   3.092   4.687   0.435
 9039SOL    HW228017   3.170   4.723   0.296
 9040SOL     OW28018   2.884   2.161   2.255
 9040SOL    HW128019   2.884   2.221   2.175
 9040SOL    HW228020   2.978   2.150   2.289
 9041SOL     OW28021   0.945   2.556   1.119
 9041SOL    HW128022   0.897   2.562   1.031
 9041SOL    HW228023   0.961   2.460   1.141
 9042SOL     OW28024   3.579   6.333   5.104
 9042SOL    HW128025   3.532   6.291   5.182
 9042SOL    HW228026   3.618   6.261   5.047
 9043SOL     OW28027   2.183   1.491   6.388
 9043SOL    HW128028   2.266   1.453   6.347
 9043SOL    HW228029   2.208   1.548   6.466
 9044SOL     OW28030   0.800   0.989   6.429
 9044SOL    HW128031   0.862   0.915   6.455
 9044SOL    HW228032   0.711   0.974   6.471
 9045SOL     OW28033   4.255   0.494   3.126
 9045SOL    HW128034   4.205   0.408   3.135
 9045SOL    HW228035   4.265   0.537   3.216
 9046SOL     OW28036   3.880   3.828   2.592
 9046SOL    HW128037   3.802   3.870   2.638
 9046SOL    HW228038   3.951   3.808   2.659
 9047SOL     OW28039   1.203   4.241   5.199
 9047SOL    HW128040   1.131   4.278   5.257
 9047SOL    HW228041   1.291   4.281   5.226
 9048SOL     OW28042   6.234   2.637   6.125
 9048SOL    HW128043   6.204   2.678   6.211
 9048SOL    HW228044   6.333   2.652   6.114
 9049SOL     OW28045   3.418   6.541   5.516
 9049SOL    HW128046   3.460   6.513   5.602
 9049SOL    HW228047   3.469   6.618   5.478
 9050SOL     OW28048   0.868   3.933   1.423
 9050SOL    HW128049   0.833   3.947   1.331
 9050SOL    HW228050   0.792   3.930   1.488
 9051SOL     OW28051   2.479   0.250   1.593
 9051SOL    HW128052   2.516   0.162   1.624
 9051SOL    HW228053   2.384   0.238   1.565
 9052SOL     OW28054   1.822   3.265   4.105
 9052SOL    HW128055   1.913   3.236   4.133
 9052SOL    HW228056   1.830   3.341   4.041
 9053SOL     OW28057   2.375   1.257   0.681
 9053SOL    HW128058   2.297   1.299   0.728
 9053SOL    HW228059   2.401   1.313   0.603
 9054SOL     OW28060   2.132   5.420   4.268
 9054SOL    HW128061   2.057   5.366   4.229
 9054SOL    HW228062   2.178   5.367   4.338
 9055SOL     OW28063   6.528   4.374   4.679
 9055SOL    HW128064   6.520   4.311   4.756
 9055SOL    HW228065   6.437   4.390   4.639
 9056SOL     OW28066   6.905   1.956   2.334
 9056SOL    HW128067   6.986   1.990   2.382
 9056SOL    HW228068   6.823   1.983   2.384
 9057SOL     OW28069   4.586   1.980   4.231
 9057SOL    HW128070   4.666   2.037   4.249
 9057SOL    HW228071   4.524   1.984   4.309
 9058SOL     OW28072   1.653   0.591   6.785
 9058SOL    HW128073   1.620   0.635   6.869
 9058SOL    HW228074   1.606   0.503   6.772
 9059SOL     OW28075   1.095   2.566   2.600
 9059SOL    HW128076   1.158   2.502   2.556
 9059SOL    HW228077   1.003   2.555   2.561
 9060SOL     OW28078   5.544   3.095   5.176
 9060SOL    HW128079   5.520   3.176   5.230
 9060SOL    HW228080   5.622   3.116   5.117
 9061SOL     OW28081   3.939   5.353   2.631
 9061SOL    HW128082   4.016   5.351   2.567
 9061SOL    HW228083   3.856   5.379   2.582
 9062SOL     OW28084   1.023   5.192   1.722
 9062SOL    HW128085   0.974   5.124   1.777
 9062SOL    HW228086   0.981   5.198   1.631
 9063SOL     OW28087   2.944   1.481   3.717
 9063SOL    HW128088   2.924   1.460   3.813
 9063SOL    HW228089   2.914   1.574   3.696
 9064SOL     OW28090   6.550   3.330   6.717
 9064SOL    HW128091   6.587   3.245   6.679
 9064SOL    HW228092   6.475   3.362   6.660
 9065SOL     OW28093   3.416   0.157   0.273
 9065SOL    HW128094   3.485   0.088   0.249
 9065SOL    HW228095   3.405   0.222   0.198
 9066SOL     OW28096   5.916   0.389   0.212
 9066SOL    HW128097   5.904   0.465   0.276
 9066SOL    HW228098   5.981   0.323   0.251
 9067SOL     OW28099   1.628   0.097   3.288
 9067SOL    HW128100   1.582   0.011   3.266
 9067SOL    HW228101   1.656   0.096   3.384
 9068SOL     OW28102   1.228   6.275   5.168
 9068SOL    HW128103   1.141   6.228   5.180
 9068SOL    HW228104   1.298   6.230   5.222
 9069SOL     OW28105   1.346   2.894   6.425
 9069SOL    HW128106   1.375   2.948   6.504
 9069SOL    HW228107   1.262   2.934   6.387
 9070SOL     OW28108   1.894   3.957   4.389
 9070SOL    HW128109   1.921   4.053   4.390
 9070SOL    HW228110   1.962   3.904   4.339
 9071SOL     OW28111   6.610   6.588   0.636
 9071SOL    HW128112   6.596   6.579   0.537
 9071SOL    HW228113   6.681   6.657   0.653
 9072SOL     OW28114   0.228   3.802   0.647
 9072SOL    HW128115   0.204   3.716   0.604
 9072SOL    HW228116   0.302   3.846   0.595
 9073SOL     OW28117   2.076   0.948   1.510
 9073SOL    HW128118   2.018   1.029   1.519
 9073SOL    HW228119   2.169   0.977   1.488
 9074SOL     OW28120   1.571   0.013   2.583
 9074SOL    HW128121   1.483   6.987   2.580
 9074SOL    HW228122   1.557   0.112   2.577
 9075SOL     OW28123   6.690   0.602   2.420
 9075SOL    HW128124   6.614   0.624   2.481
 9075SOL    HW228125   6.753   0.680   2.415
 9076SOL     OW28126   6.800   1.355   6.006
 9076SOL    HW128127   6.762   1.416   6.076
 9076SOL    HW228128   6.869   1.295   6.049
 9077SOL     OW28129   4.586   6.663   2.462
 9077SOL    HW128130   4.622   6.612   2.384
 9077SOL    HW228131   4.488   6.645   2.472
 9078SOL     OW28132   3.759   3.366   4.908
 9078SOL    HW128133   3.806   3.280   4.927
 9078SOL    HW228134   3.662   3.348   4.890
 9079SOL     OW28135   3.103   6.629   4.584
 9079SOL    HW128136   3.052   6.695   4.639
 9079SOL    HW228137   3.061   6.539   4.593
 9080SOL     OW28138   5.348   2.703   7.015
 9080SOL    HW128139   5.336   2.784   6.959
 9080SOL    HW228140   5.444   2.693   0.021
 9081SOL     OW28141   5.309   6.484   2.624
 9081SOL    HW128142   5.356   6.406   2.582
 9081SOL    HW228143   5.306   6.472   2.723
 9082SOL     OW28144   2.596   0.544   3.565
 9082SOL    HW128145   2.503   0.567   3.594
 9082SOL    HW228146   2.639   0.625   3.526
 9083SOL     OW28147   4.841   4.599   5.202
 9083SOL    HW128148   4.796   4.683   5.230
 9083SOL    HW228149   4.862   4.543   5.282
 9084SOL     OW28150   3.278   3.781   3.073
 9084SOL    HW128151   3.280   3.840   2.993
 9084SOL    HW228152   3.211   3.708   3.059
 9085SOL     OW28153   2.342   1.509   1.051
 9085SOL    HW128154   2.423   1.508   0.992
 9085SOL    HW228155   2.293   1.423   1.041
 9086SOL     OW28156   0.511   3.860   1.176
 9086SOL    HW128157   0.527   3.769   1.214
 9086SOL    HW228158   0.597   3.899   1.144
 9087SOL     OW28159   4.930   3.664   2.142
 9087SOL    HW128160   4.914   3.629   2.050
 9087SOL    HW228161   4.891   3.600   2.209
 9088SOL     OW28162   6.666   0.814   6.531
 9088SOL    HW128163   6.737   0.753   6.496
 9088SOL    HW228164   6.705   0.872   6.602
 9089SOL     OW28165   4.837   6.994   5.590
 9089SOL    HW128166   4.914   0.035   5.610
 9089SOL    HW228167   4.840   6.917   5.653
 9090SOL     OW28168   5.471   0.136   4.812
 9090SOL    HW128169   5.478   0.167   4.907
 9090SOL    HW228170   5.405   0.193   4.763
 9091SOL     OW28171   3.667   3.981   0.007
 9091SOL    HW128172   3.653   3.915   0.081
 9091SOL    HW228173   3.751   4.032   0.023
 9092SOL     OW28174   0.079   1.902   0.176
 9092SOL    HW128175   0.034   1.928   0.091
 9092SOL    HW228176   0.109   1.984   0.225
 9093SOL     OW28177   1.477   6.973   5.229
 9093SOL    HW128178   1.536   0.021   5.272
 9093SOL    HW228179   1.504   6.882   5.259
 9094SOL     OW28180   0.342   3.038   2.024
 9094SOL    HW128181   0.387   3.113   2.072
 9094SOL    HW228182   0.397   2.955   2.033
 9095SOL     OW28183   5.257   5.733   5.679
 9095SOL    HW128184   5.266   5.652   5.621
 9095SOL    HW228185   5.182   5.719   5.743
 9096SOL     OW28186   6.813   5.319   2.885
 9096SOL    HW128187   6.813   5.223   2.858
 9096SOL    HW228188   6.725   5.343   2.927
 9097SOL     OW28189   0.267   2.885   5.726
 9097SOL    HW128190   0.329   2.892   5.648
 9097SOL    HW228191   0.250   2.977   5.763
 9098SOL     OW28192   1.918   2.436   4.689
 9098SOL    HW128193   1.819   2.448   4.683
 9098SOL    HW228194   1.939   2.343   4.720
 9099SOL     OW28195   2.127   3.283   6.167
 9099SOL    HW128196   2.206   3.296   6.108
 9099SOL    HW228197   2.094   3.372   6.200
 9100SOL     OW28198   1.495   4.395   2.258
 9100SOL    HW128199   1.455   4.317   2.209
 9100SOL    HW228200   1.443   4.412   2.342
 9101SOL     OW28201   2.315   1.436   1.954
 9101SOL    HW128202   2.292   1.529   1.984
 9101SOL    HW228203   2.250   1.406   1.884
 9102SOL     OW28204   4.301   6.169   2.775
 9102SOL    HW128205   4.366   6.225   2.724
 9102SOL    HW228206   4.351   6.096   2.823
 9103SOL     OW28207   6.391   1.616   0.247
 9103SOL    HW128208   6.302   1.599   0.289
 9103SOL    HW228209   6.421   1.536   0.195
 9104SOL     OW28210   6.891   0.915   0.167
 9104SOL    HW128211   6.814   0.890   0.226
 9104SOL    HW228212   6.950   0.980   0.215
 9105SOL     OW28213   1.764   0.052   6.215
 9105SOL    HW128214   1.835   0.117   6.186
 9105SOL    HW228215   1.800   6.980   6.208
 9106SOL     OW28216   0.811   4.948   6.513
 9106SOL    HW128217   0.787   4.886   6.587
 9106SOL    HW228218   0.898   4.921   6.472
 9107SOL     OW28219   2.509   0.743   0.064
 9107SOL    HW128220   2.538   0.828   0.020
 9107SOL    HW228221   2.412   0.728   0.047
 9108SOL     OW28222   5.437   5.353   5.794
 9108SOL    HW128223   5.529   5.331   5.828
 9108SOL    HW228224   5.425   5.452   5.793
 9109SOL     OW28225   5.269   2.346   2.288
 9109SOL    HW128226   5.319   2.365   2.372
 9109SOL    HW228227   5.172   2.368   2.301
 9110SOL     OW28228   1.803   5.686   4.727
 9110SOL    HW128229   1.794   5.667   4.825
 9110SOL    HW228230   1.895   5.662   4.697
 9111SOL     OW28231   4.639   2.666   4.926
 9111SOL    HW128232   4.638   2.729   5.003
 9111SOL    HW228233   4.701   2.700   4.855
 9112SOL     OW28234   2.238   5.202   2.377
 9112SOL    HW128235   2.201   5.292   2.352
 9112SOL    HW228236   2.255   5.200   2.476
 9113SOL     OW28237   4.616   1.998   3.453
 9113SOL    HW128238   4.597   2.069   3.521
 9113SOL    HW228239   4.715   1.989   3.441
 9114SOL     OW28240   1.236   6.392   4.865
 9114SOL    HW128241   1.238   6.337   4.948
 9114SOL    HW228242   1.266   6.336   4.788
 9115SOL     OW28243   5.506   4.599   3.951
 9115SOL    HW128244   5.564   4.608   4.032
 9115SOL    HW228245   5.559   4.558   3.877
 9116SOL     OW28246   0.616   0.067   3.722
 9116SOL    HW128247   0.551   0.126   3.674
 9116SOL    HW228248   0.703   0.065   3.671
 9117SOL     OW28249   3.680   1.075   0.069
 9117SOL    HW128250   3.672   1.170   0.039
 9117SOL    HW228251   3.618   1.059   0.146
 9118SOL     OW28252   5.766   4.073   0.484
 9118SOL    HW128253   5.847   4.015   0.485
 9118SOL    HW228254   5.707   4.050   0.562
 9119SOL     OW28255   3.378   6.840   0.906
 9119SOL    HW128256   3.402   6.746   0.882
 9119SOL    HW228257   3.455   6.900   0.885
 9120SOL     OW28258   5.451   2.626   5.753
 9120SOL    HW128259   5.388   2.562   5.796
 9120SOL    HW228260   5.504   2.579   5.682
 9121SOL     OW28261   3.312   0.256   5.491
 9121SOL    HW128262   3.311   0.326   5.420
 9121SOL    HW228263   3.406   0.230   5.512
 9122SOL     OW28264   2.299   4.482   2.117
 9122SOL    HW128265   2.293   4.412   2.189
 9122SOL    HW228266   2.395   4.506   2.102
 9123SOL     OW28267   0.839   0.709   3.451
 9123SOL    HW128268   0.759   0.666   3.410
 9123SOL    HW228269   0.888   0.642   3.507
 9124SOL     OW28270   3.370   5.551   1.530
 9124SOL    HW128271   3.314   5.578   1.609
 9124SOL    HW228272   3.436   5.481   1.559
 9125SOL     OW28273   4.527   6.141   0.644
 9125SOL    HW128274   4.617   6.155   0.686
 9125SOL    HW228275   4.457   6.185   0.699
 9126SOL     OW28276   3.780   4.874   0.435
 9126SOL    HW128277   3.709   4.806   0.416
 9126SOL    HW228278   3.801   4.873   0.533
 9127SOL     OW28279   0.189   3.894   5.125
 9127SOL    HW128280   0.177   3.795   5.136
 9127SOL    HW228281   0.286   3.915   5.114
 9128SOL     OW28282   5.857   3.665   5.039
 9128SOL    HW128283   5.916   3.735   4.998
 9128SOL    HW228284   5.803   3.707   5.112
 9129SOL     OW28285   1.428   1.697   0.838
 9129SOL    HW128286   1.371   1.745   0.905
 9129SOL    HW228287   1.376   1.685   0.753
 9130SOL     OW28288   2.731   3.874   5.364
 9130SOL    HW128289   2.641   3.892   5.323
 9130SOL    HW228290   2.763   3.784   5.334
 9131SOL     OW28291   5.997   2.450   0.901
 9131SOL    HW128292   5.899   2.462   0.917
 9131SOL    HW228293   6.018   2.352   0.896
 9132SOL     OW28294   0.635   4.165   3.765
 9132SOL    HW128295   0.719   4.156   3.818
 9132SOL    HW228296   0.651   4.226   3.687
 9133SOL     OW28297   4.440   0.787   0.889
 9133SOL    HW128298   4.400   0.728   0.819
 9133SOL    HW228299   4.495   0.858   0.846
 9134SOL     OW28300   4.624   5.491   0.677
 9134SOL    HW128301   4.635   5.582   0.716
 9134SOL    HW228302   4.703   5.435   0.699
 9135SOL     OW28303   0.602   6.379   2.616
 9135SOL    HW128304   0.683   6.390   2.559
 9135SOL    HW228305   0.549   6.464   2.616
 9136SOL     OW28306   6.582   4.853   6.425
 9136SOL    HW128307   6.592   4.828   6.328
 9136SOL    HW228308   6.644   4.928   6.446
 9137SOL     OW28309   4.837   6.502   6.754
 9137SOL    HW128310   4.888   6.450   6.686
 9137SOL    HW228311   4.879   6.489   6.844
 9138SOL     OW28312   2.982   3.231   1.118
 9138SOL    HW128313   3.060   3.197   1.066
 9138SOL    HW228314   2.909   3.162   1.116
 9139SOL     OW28315   0.100   0.488   1.426
 9139SOL    HW128316   0.079   0.505   1.523
 9139SOL    HW228317   0.020   0.509   1.370
 9140SOL     OW28318   0.780   4.015   2.673
 9140SOL    HW128319   0.779   4.112   2.650
 9140SOL    HW228320   0.829   4.001   2.759
 9141SOL     OW28321   6.614   5.709   5.747
 9141SOL    HW128322   6.589   5.638   5.681
 9141SOL    HW228323   6.575   5.796   5.718
 9142SOL     OW28324   1.005   4.054   3.474
 9142SOL    HW128325   0.933   4.053   3.544
 9142SOL    HW228326   0.978   3.996   3.398
 9143SOL     OW28327   6.619   3.335   2.299
 9143SOL    HW128328   6.546   3.350   2.367
 9143SOL    HW228329   6.579   3.301   2.214
 9144SOL     OW28330   2.666   4.328   5.341
 9144SOL    HW128331   2.581   4.277   5.327
 9144SOL    HW228332   2.739   4.264   5.366
 9145SOL     OW28333   1.187   6.255   5.886
 9145SOL    HW128334   1.261   6.289   5.828
 9145SOL    HW228335   1.138   6.183   5.839
 9146SOL     OW28336   6.171   3.153   3.026
 9146SOL    HW128337   6.265   3.119   3.023
 9146SOL    HW228338   6.116   3.103   2.960
 9147SOL     OW28339   4.544   0.252   4.421
 9147SOL    HW128340   4.554   0.152   4.419
 9147SOL    HW228341   4.485   0.281   4.346
 9148SOL     OW28342   6.243   6.760   1.783
 9148SOL    HW128343   6.159   6.714   1.758
 9148SOL    HW228344   6.312   6.745   1.712
 9149SOL     OW28345   6.925   3.486   1.361
 9149SOL    HW128346   6.854   3.506   1.428
 9149SOL    HW228347   6.987   3.565   1.354
 9150SOL     OW28348   2.728   2.826   0.864
 9150SOL    HW128349   2.791   2.867   0.798
 9150SOL    HW228350   2.635   2.854   0.843
 9151SOL     OW28351   1.866   3.260   3.781
 9151SOL    HW128352   1.858   3.347   3.829
 9151SOL    HW228353   1.963   3.241   3.761
 9152SOL     OW28354   2.487   4.466   3.737
 9152SOL    HW128355   2.532   4.508   3.816
 9152SOL    HW228356   2.517   4.513   3.654
 9153SOL     OW28357   6.633   3.365   0.084
 9153SOL    HW128358   6.596   3.438   0.027
 9153SOL    HW228359   6.659   3.402   0.173
 9154SOL     OW28360   5.617   4.586   3.070
 9154SOL    HW128361   5.582   4.675   3.100
 9154SOL    HW228362   5.714   4.579   3.092
 9155SOL     OW28363   0.713   6.426   2.869
 9155SOL    HW128364   0.667   6.424   2.780
 9155SOL    HW228365   0.645   6.443   2.941
 9156SOL     OW28366   6.829   3.619   0.030
 9156SOL    HW128367   6.830   3.717   0.045
 9156SOL    HW228368   6.755   3.596   6.986
 9157SOL     OW28369   2.383   5.038   6.110
 9157SOL    HW128370   2.428   4.995   6.189
 9157SOL    HW228371   2.442   5.031   6.030
 9158SOL     OW28372   6.672   3.570   4.668
 9158SOL    HW128373   6.623   3.538   4.749
 9158SOL    HW228374   6.653   3.508   4.591
 9159SOL     OW28375   4.003   1.211   3.786
 9159SOL    HW128376   3.908   1.183   3.799
 9159SOL    HW228377   4.062   1.159   3.849
 9160SOL     OW28378   6.913   4.353   0.811
 9160SOL    HW128379   6.915   4.276   0.875
 9160SOL    HW228380   6.890   4.319   0.720
 9161SOL     OW28381   6.239   3.869   1.445
 9161SOL    HW128382   6.292   3.913   1.372
 9161SOL    HW228383   6.297   3.858   1.526
 9162SOL     OW28384   4.615   2.174   1.589
 9162SOL    HW128385   4.622   2.194   1.491
 9162SOL    HW228386   4.612   2.260   1.640
 9163SOL     OW28387   1.504   2.502   3.368
 9163SOL    HW128388   1.458   2.421   3.331
 9163SOL    HW228389   1.504   2.575   3.301
 9164SOL     OW28390   2.262   0.709   6.969
 9164SOL    HW128391   2.296   0.701   6.875
 9164SOL    HW228392   2.162   0.714   6.969
 9165SOL     OW28393   5.112   1.536   6.117
 9165SOL    HW128394   5.158   1.623   6.130
 9165SOL    HW228395   5.075   1.503   6.204
 9166SOL     OW28396   5.181   5.630   1.707
 9166SOL    HW128397   5.262   5.688   1.701
 9166SOL    HW228398   5.209   5.534   1.707
 9167SOL     OW28399   1.614   1.188   4.546
 9167SOL    HW128400   1.680   1.243   4.495
 9167SOL    HW228401   1.612   1.216   4.641
 9168SOL     OW28402   6.075   6.178   4.241
 9168SOL    HW128403   6.132   6.236   4.298
 9168SOL    HW228404   6.078   6.084   4.274
 9169SOL     OW28405   6.380   6.188   0.583
 9169SOL    HW128406   6.456   6.184   0.648
 9169SOL    HW228407   6.412   6.229   0.497
 9170SOL     OW28408   1.271   1.381   5.633
 9170SOL    HW128409   1.351   1.433   5.659
 9170SOL    HW228410   1.295   1.316   5.560
 9171SOL     OW28411   3.433   4.818   0.328
 9171SOL    HW128412   3.448   4.750   0.399
 9171SOL    HW228413   3.369   4.782   0.260
 9172SOL     OW28414   4.651   1.622   4.424
 9172SOL    HW128415   4.637   1.653   4.330
 9172SOL    HW228416   4.577   1.656   4.482
 9173SOL     OW28417   5.474   3.053   4.217
 9173SOL    HW128418   5.435   2.965   4.190
 9173SOL    HW228419   5.508   3.101   4.136
 9174SOL     OW28420   7.003   4.359   0.206
 9174SOL    HW128421   6.908   4.329   0.209
 9174SOL    HW228422   0.026   4.325   0.122
 9175SOL     OW28423   1.575   6.639   6.605
 9175SOL    HW128424   1.484   6.606   6.629
 9175SOL    HW228425   1.635   6.632   6.685
 9176SOL     OW28426   2.139   1.392   2.572
 9176SOL    HW128427   2.161   1.335   2.651
 9176SOL    HW228428   2.188   1.478   2.578
 9177SOL     OW28429   0.876   3.750   4.078
 9177SOL    HW128430   0.803   3.700   4.032
 9177SOL    HW228431   0.964   3.707   4.058
 9178SOL     OW28432   2.048   6.164   0.704
 9178SOL    HW128433   2.125   6.226   0.723
 9178SOL    HW228434   2.083   6.076   0.671
 9179SOL     OW28435   3.537   5.705   5.298
 9179SOL    HW128436   3.629   5.724   5.331
 9179SOL    HW228437   3.472   5.707   5.374
 9180SOL     OW28438   0.041   0.801   4.486
 9180SOL    HW128439   0.101   0.841   4.417
 9180SOL    HW228440   0.089   0.727   4.533
 9181SOL     OW28441   3.708   1.993   3.932
 9181SOL    HW128442   3.670   2.008   4.023
 9181SOL    HW228443   3.713   1.894   3.915
 9182SOL     OW28444   1.710   1.063   2.736
 9182SOL    HW128445   1.752   1.145   2.698
 9182SOL    HW228446   1.619   1.085   2.771
 9183SOL     OW28447   6.864   2.678   5.632
 9183SOL    HW128448   6.798   2.624   5.685
 9183SOL    HW228449   6.928   2.616   5.586
 9184SOL     OW28450   3.226   3.161   1.036
 9184SOL    HW128451   3.241   3.098   1.112
 9184SOL    HW228452   3.307   3.162   0.977
 9185SOL     OW28453   1.336   0.775   6.658
 9185SOL    HW128454   1.335   0.847   6.588
 9185SOL    HW228455   1.297   0.810   6.743
 9186SOL     OW28456   5.362   1.217   6.503
 9186SOL    HW128457   5.309   1.133   6.519
 9186SOL    HW228458   5.385   1.223   6.406
 9187SOL     OW28459   4.778   1.960   0.923
 9187SOL    HW128460   4.829   1.946   0.838
 9187SOL    HW228461   4.681   1.974   0.902
 9188SOL     OW28462   1.308   0.226   1.499
 9188SOL    HW128463   1.369   0.208   1.576
 9188SOL    HW228464   1.213   0.217   1.530
 9189SOL     OW28465   3.971   1.096   4.177
 9189SOL    HW128466   3.912   1.041   4.236
 9189SOL    HW228467   4.047   1.132   4.230
 9190SOL     OW28468   6.110   3.396   5.478
 9190SOL    HW128469   6.047   3.470   5.453
 9190SOL    HW228470   6.201   3.416   5.441
 9191SOL     OW28471   5.616   6.252   0.385
 9191SOL    HW128472   5.574   6.342   0.396
 9191SOL    HW228473   5.661   6.247   0.296
 9192SOL     OW28474   6.008   4.806   4.777
 9192SOL    HW128475   5.919   4.849   4.793
 9192SOL    HW228476   6.001   4.708   4.796
 9193SOL     OW28477   3.739   3.237   3.763
 9193SOL    HW128478   3.727   3.205   3.857
 9193SOL    HW228479   3.749   3.157   3.702
 9194SOL     OW28480   2.931   5.773   2.291
 9194SOL    HW128481   2.908   5.822   2.375
 9194SOL    HW228482   2.864   5.701   2.274
 9195SOL     OW28483   6.583   3.539   2.901
 9195SOL    HW128484   6.598   3.461   2.842
 9195SOL    HW228485   6.511   3.518   2.967
 9196SOL     OW28486   4.700   7.009   3.435
 9196SOL    HW128487   4.685   6.967   3.525
 9196SOL    HW228488   4.635   0.064   3.422
 9197SOL     OW28489   3.411   3.301   6.147
 9197SOL    HW128490   3.346   3.274   6.218
 9197SOL    HW228491   3.458   3.385   6.174
 9198SOL     OW28492   5.294   2.630   5.206
 9198SOL    HW128493   5.281   2.588   5.116
 9198SOL    HW228494   5.208   2.626   5.258
 9199SOL     OW28495   1.358   4.086   6.735
 9199SOL    HW128496   1.420   4.095   6.814
 9199SOL    HW228497   1.321   3.994   6.732
 9200SOL     OW28498   6.159   0.639   6.989
 9200SOL    HW128499   6.256   0.648   7.013
 9200SOL    HW228500   6.139   0.543   6.968
 9201SOL     OW28501   1.360   3.884   3.417
 9201SOL    HW128502   1.302   3.879   3.336
 9201SOL    HW228503   1.309   3.927   3.492
 9202SOL     OW28504   3.208   5.371   4.472
 9202SOL    HW128505   3.125   5.424   4.454
 9202SOL    HW228506   3.183   5.279   4.503
 9203SOL     OW28507   5.173   0.255   6.074
 9203SOL    HW128508   5.146   0.312   6.152
 9203SOL    HW228509   5.103   0.261   6.003
 9204SOL     OW28510   4.723   4.325   2.228
 9204SOL    HW128511   4.684   4.276   2.306
 9204SOL    HW228512   4.670   4.304   2.145
 9205SOL     OW28513   5.069   2.901   2.806
 9205SOL    HW128514   4.983   2.929   2.849
 9205SOL    HW228515   5.076   2.944   2.716
 9206SOL     OW28516   0.596   0.353   3.734
 9206SOL    HW128517   0.662   0.326   3.804
 9206SOL    HW228518   0.639   0.343   3.644
 9207SOL     OW28519   4.368   6.973   0.361
 9207SOL    HW128520   4.428   6.893   0.363
 9207SOL    HW228521   4.386   0.005   0.278
 9208SOL     OW28522   5.113   4.673   2.333
 9208SOL    HW128523   5.052   4.679   2.412
 9208SOL    HW228524   5.096   4.586   2.285
 9209SOL     OW28525   4.153   1.324   2.613
 9209SOL    HW128526   4.202   1.363   2.535
 9209SOL    HW228527   4.146   1.225   2.602
 9210SOL     OW28528   1.378   0.232   1.181
 9210SOL    HW128529   1.418   0.169   1.248
 9210SOL    HW228530   1.390   0.326   1.212
 9211SOL     OW28531   5.044   1.062   6.883
 9211SOL    HW128532   5.014   1.059   6.979
 9211SOL    HW228533   4.980   1.011   6.826
 9212SOL     OW28534   6.093   3.765   4.837
 9212SOL    HW128535   6.125   3.713   4.916
 9212SOL    HW228536   6.042   3.845   4.868
 9213SOL     OW28537   6.147   7.014   2.752
 9213SOL    HW128538   6.156   0.092   2.733
 9213SOL    HW228539   6.238   6.972   2.751
 9214SOL     OW28540   2.171   2.248   5.096
 9214SOL    HW128541   2.196   2.289   5.183
 9214SOL    HW228542   2.220   2.162   5.084
 9215SOL     OW28543   1.018   3.024   2.903
 9215SOL    HW128544   1.065   3.015   2.815
 9215SOL    HW228545   0.995   3.120   2.919
 9216SOL     OW28546   2.190   5.927   4.951
 9216SOL    HW128547   2.283   5.902   4.976
 9216SOL    HW228548   2.142   5.847   4.914
 9217SOL     OW28549   4.654   0.925   6.506
 9217SOL    HW128550   4.637   0.828   6.525
 9217SOL    HW228551   4.723   0.934   6.434
 9218SOL     OW28552   5.930   5.284   6.258
 9218SOL    HW128553   6.009   5.345   6.249
 9218SOL    HW228554   5.944   5.225   6.338
 9219SOL     OW28555   3.456   2.854   5.527
 9219SOL    HW128556   3.451   2.951   5.549
 9219SOL    HW228557   3.453   2.842   5.427
 9220SOL     OW28558   1.095   6.345   3.417
 9220SOL    HW128559   1.183   6.392   3.419
 9220SOL    HW228560   1.108   6.249   3.444
 9221SOL     OW28561   2.481   0.793   0.633
 9221SOL    HW128562   2.422   0.873   0.622
 9221SOL    HW228563   2.569   0.810   0.588
 9222SOL     OW28564   1.194   3.550   3.299
 9222SOL    HW128565   1.185   3.453   3.275
 9222SOL    HW228566   1.283   3.566   3.341
 9223SOL     OW28567   0.753   3.677   4.989
 9223SOL    HW128568   0.673   3.735   4.975
 9223SOL    HW228569   0.804   3.669   4.903
 9224SOL     OW28570   1.687   4.315   3.788
 9224SOL    HW128571   1.646   4.271   3.868
 9224SOL    HW228572   1.664   4.263   3.706
 9225SOL     OW28573   4.929   6.817   6.870
 9225SOL    HW128574   4.982   6.789   6.950
 9225SOL    HW228575   4.843   6.767   6.868
 9226SOL     OW28576   0.880   0.741   1.137
 9226SOL    HW128577   0.879   0.641   1.144
 9226SOL    HW228578   0.804   0.771   1.079
 9227SOL     OW28579   2.355   5.420   0.716
 9227SOL    HW128580   2.340   5.327   0.750
 9227SOL    HW228581   2.368   5.482   0.794
 9228SOL     OW28582   2.876   3.061   5.559
 9228SOL    HW128583   2.874   2.986   5.625
 9228SOL    HW228584   2.818   3.038   5.481
 9229SOL     OW28585   0.337   4.276   0.079
 9229SOL    HW128586   0.278   4.308   0.005
 9229SOL    HW228587   0.409   4.217   0.041
 9230SOL     OW28588   4.736   1.921   4.810
 9230SOL    HW128589   4.638   1.931   4.791
 9230SOL    HW228590   4.748   1.888   4.904
 9231SOL     OW28591   6.729   5.865   3.812
 9231SOL    HW128592   6.694   5.829   3.726
 9231SOL    HW228593   6.706   5.803   3.887
 9232SOL     OW28594   1.449   4.981   1.717
 9232SOL    HW128595   1.477   4.925   1.795
 9232SOL    HW228596   1.514   4.971   1.643
 9233SOL     OW28597   0.688   6.510   0.195
 9233SOL    HW128598   0.624   6.522   0.271
 9233SOL    HW228599   0.680   6.587   0.132
 9234SOL     OW28600   2.353   4.445   0.499
 9234SOL    HW128601   2.376   4.357   0.458
 9234SOL    HW228602   2.433   4.482   0.546
 9235SOL     OW28603   2.069   2.126   3.931
 9235SOL    HW128604   2.148   2.121   3.870
 9235SOL    HW228605   2.048   2.035   3.966
 9236SOL     OW28606   2.586   3.293   6.657
 9236SOL    HW128607   2.511   3.238   6.694
 9236SOL    HW228608   2.559   3.332   6.569
 9237SOL     OW28609   5.545   4.824   3.121
 9237SOL    HW128610   5.521   4.868   3.207
 9237SOL    HW228611   5.622   4.873   3.079
 9238SOL     OW28612   2.142   2.728   5.177
 9238SOL    HW128613   2.153   2.784   5.259
 9238SOL    HW228614   2.223   2.670   5.166
 9239SOL     OW28615   0.780   4.818   6.749
 9239SOL    HW128616   0.685   4.796   6.770
 9239SOL    HW228617   0.833   4.822   6.834
 9240SOL     OW28618   4.408   2.502   2.638
 9240SOL    HW128619   4.440   2.451   2.717
 9240SOL    HW228620   4.463   2.585   2.627
 9241SOL     OW28621   5.714   6.935   0.875
 9241SOL    HW128622   5.768   6.965   0.795
 9241SOL    HW228623   5.771   6.877   0.933
 9242SOL     OW28624   1.831   2.459   0.434
 9242SOL    HW128625   1.843   2.536   0.496
 9242SOL    HW228626   1.740   2.464   0.392
 9243SOL     OW28627   0.849   0.650   0.008
 9243SOL    HW128628   0.796   0.579   6.983
 9243SOL    HW228629   0.870   0.723   6.963
 9244SOL     OW28630   3.835   6.272   5.501
 9244SOL    HW128631   3.859   6.325   5.420
 9244SOL    HW228632   3.903   6.200   5.515
 9245SOL     OW28633   1.169   4.442   3.079
 9245SOL    HW128634   1.215   4.354   3.089
 9245SOL    HW228635   1.131   4.450   2.986
 9246SOL     OW28636   6.299   0.318   5.663
 9246SOL    HW128637   6.273   0.383   5.592
 9246SOL    HW228638   6.221   0.301   5.723
 9247SOL     OW28639   3.978   6.672   3.248
 9247SOL    HW128640   3.879   6.680   3.254
 9247SOL    HW228641   4.006   6.579   3.273
 9248SOL     OW28642   2.374   1.041   5.958
 9248SOL    HW128643   2.292   1.094   5.980
 9248SOL    HW228644   2.357   0.945   5.979
 9249SOL     OW28645   3.506   5.277   1.611
 9249SOL    HW128646   3.546   5.283   1.702
 9249SOL    HW228647   3.545   5.197   1.563
 9250SOL     OW28648   0.541   2.921   4.194
 9250SOL    HW128649   0.610   2.988   4.167
 9250SOL    HW228650   0.580   2.858   4.261
 9251SOL     OW28651   3.360   2.894   1.304
 9251SOL    HW128652   3.344   2.821   1.371
 9251SOL    HW228653   3.348   2.858   1.211
 9252SOL     OW28654   4.671   2.033   5.981
 9252SOL    HW128655   4.645   2.011   6.075
 9252SOL    HW228656   4.764   2.002   5.964
 9253SOL     OW28657   1.153   5.234   5.331
 9253SOL    HW128658   1.092   5.161   5.359
 9253SOL    HW228659   1.247   5.201   5.329
 9254SOL     OW28660   0.065   5.439   2.483
 9254SOL    HW128661   0.131   5.373   2.448
 9254SOL    HW228662   0.015   5.480   2.407
 9255SOL     OW28663   0.161   4.021   0.824
 9255SOL    HW128664   0.167   3.999   0.921
 9255SOL    HW228665   0.143   3.938   0.772
 9256SOL     OW28666   1.770   6.303   1.854
 9256SOL    HW128667   1.740   6.385   1.903
 9256SOL    HW228668   1.870   6.302   1.849
 9257SOL     OW28669   6.348   6.002   4.140
 9257SOL    HW128670   6.373   5.998   4.043
 9257SOL    HW228671   6.298   6.086   4.159
 9258SOL     OW28672   3.492   5.271   1.285
 9258SOL    HW128673   3.546   5.197   1.324
 9258SOL    HW228674   3.519   5.358   1.327
 9259SOL     OW28675   2.024   1.413   6.732
 9259SOL    HW128676   2.072   1.494   6.769
 9259SOL    HW228677   2.035   1.410   6.633
 9260SOL     OW28678   6.309   4.139   4.893
 9260SOL    HW128679   6.293   4.114   4.798
 9260SOL    HW228680   6.222   4.165   4.936
 9261SOL     OW28681   3.543   2.548   1.733
 9261SOL    HW128682   3.606   2.624   1.748
 9261SOL    HW228683   3.578   2.467   1.780
 9262SOL     OW28684   6.028   5.924   4.363
 9262SOL    HW128685   6.112   5.877   4.389
 9262SOL    HW228686   5.980   5.954   4.445
 9263SOL     OW28687   1.478   3.803   3.860
 9263SOL    HW128688   1.482   3.731   3.791
 9263SOL    HW228689   1.459   3.890   3.815
 9264SOL     OW28690   4.394   3.629   0.417
 9264SOL    HW128691   4.420   3.676   0.332
 9264SOL    HW228692   4.367   3.535   0.396
 9265SOL     OW28693   5.477   1.553   0.170
 9265SOL    HW128694   5.568   1.562   0.212
 9265SOL    HW228695   5.412   1.520   0.239
 9266SOL     OW28696   0.702   4.325   1.340
 9266SOL    HW128697   0.633   4.338   1.412
 9266SOL    HW228698   0.718   4.411   1.293
 9267SOL     OW28699   6.811   1.028   4.774
 9267SOL    HW128700   6.758   1.112   4.762
 9267SOL    HW228701   6.766   0.952   4.728
 9268SOL     OW28702   0.735   6.895   1.954
 9268SOL    HW128703   0.782   6.831   2.014
 9268SOL    HW228704   0.794   6.917   1.876
 9269SOL     OW28705   4.266   1.046   0.851
 9269SOL    HW128706   4.318   1.083   0.928
 9269SOL    HW228707   4.201   1.115   0.819
 9270SOL     OW28708   1.707   0.583   5.820
 9270SOL    HW128709   1.655   0.526   5.884
 9270SOL    HW228710   1.734   0.668   5.866
 9271SOL     OW28711   1.322   0.083   4.547
 9271SOL    HW128712   1.418   0.108   4.534
 9271SOL    HW228713   1.316   7.007   4.573
 9272SOL     OW28714   6.582   6.954   6.251
 9272SOL    HW128715   6.680   6.977   6.253
 9272SOL    HW228716   6.544   6.962   6.343
 9273SOL     OW28717   4.789   5.033   4.624
 9273SOL    HW128718   4.861   5.038   4.555
 9273SOL    HW228719   4.776   4.938   4.653
 9274SOL     OW28720   1.170   2.698   6.868
 9274SOL    HW128721   1.075   2.699   6.898
 9274SOL    HW228722   1.230   2.685   6.948
 9275SOL     OW28723   0.039   0.723   0.104
 9275SOL    HW128724   0.131   0.759   0.119
 9275SOL    HW228725   6.993   0.795   0.122
 9276SOL     OW28726   2.711   5.184   0.054
 9276SOL    HW128727   2.681   5.274   0.024
 9276SOL    HW228728   2.811   5.179   0.050
 9277SOL     OW28729   5.374   5.890   1.950
 9277SOL    HW128730   5.455   5.884   1.892
 9277SOL    HW228731   5.296   5.921   1.896
 9278SOL     OW28732   0.497   0.777   4.854
 9278SOL    HW128733   0.499   0.864   4.805
 9278SOL    HW228734   0.584   0.729   4.840
 9279SOL     OW28735   4.797   6.314   1.538
 9279SOL    HW128736   4.809   6.288   1.634
 9279SOL    HW228737   4.723   6.261   1.497
 9280SOL     OW28738   1.652   0.058   2.929
 9280SOL    HW128739   1.565   0.016   2.955
 9280SOL    HW228740   1.701   7.017   2.867
 9281SOL     OW28741   2.637   5.039   6.839
 9281SOL    HW128742   2.606   5.122   6.792
 9281SOL    HW228743   2.659   5.062   6.934
 9282SOL     OW28744   2.767   6.814   4.923
 9282SOL    HW128745   2.841   6.843   4.984
 9282SOL    HW228746   2.776   6.862   4.835
 9283SOL     OW28747   4.773   6.162   0.208
 9283SOL    HW128748   4.727   6.239   0.163
 9283SOL    HW228749   4.728   6.077   0.182
 9284SOL     OW28750   3.415   3.912   5.029
 9284SOL    HW128751   3.478   3.978   4.987
 9284SOL    HW228752   3.447   3.889   5.121
 9285SOL     OW28753   0.291   4.687   2.738
 9285SOL    HW128754   0.326   4.641   2.657
 9285SOL    HW228755   0.283   4.785   2.719
 9286SOL     OW28756   4.934   5.829   1.073
 9286SOL    HW128757   4.834   5.827   1.069
 9286SOL    HW228758   4.964   5.850   1.166
 9287SOL     OW28759   3.580   4.856   6.310
 9287SOL    HW128760   3.551   4.900   6.395
 9287SOL    HW228761   3.572   4.922   6.234
 9288SOL     OW28762   4.220   2.279   2.656
 9288SOL    HW128763   4.191   2.246   2.566
 9288SOL    HW228764   4.274   2.363   2.645
 9289SOL     OW28765   4.914   6.525   0.041
 9289SOL    HW128766   4.976   6.552   0.116
 9289SOL    HW228767   4.822   6.514   0.077
 9290SOL     OW28768   4.989   0.584   4.183
 9290SOL    HW128769   4.962   0.593   4.087
 9290SOL    HW228770   5.075   0.631   4.198
 9291SOL     OW28771   0.980   5.099   5.850
 9291SOL    HW128772   1.053   5.126   5.912
 9291SOL    HW228773   0.904   5.060   5.903
 9292SOL     OW28774   2.119   1.780   6.289
 9292SOL    HW128775   2.030   1.820   6.309
 9292SOL    HW228776   2.123   1.686   6.325
 9293SOL     OW28777   5.315   2.914   4.835
 9293SOL    HW128778   5.336   2.965   4.918
 9293SOL    HW228779   5.225   2.871   4.844
 9294SOL     OW28780   4.345   1.389   0.161
 9294SOL    HW128781   4.292   1.465   0.124
 9294SOL    HW228782   4.306   1.302   0.129
 9295SOL     OW28783   0.395   1.338   5.107
 9295SOL    HW128784   0.353   1.355   5.018
 9295SOL    HW228785   0.481   1.288   5.094
 9296SOL     OW28786   1.509   4.739   0.218
 9296SOL    HW128787   1.597   4.694   0.236
 9296SOL    HW228788   1.494   4.811   0.286
 9297SOL     OW28789   5.915   5.981   2.487
 9297SOL    HW128790   5.831   6.026   2.516
 9297SOL    HW228791   5.984   5.991   2.559
 9298SOL     OW28792   1.285   5.482   6.202
 9298SOL    HW128793   1.349   5.493   6.278
 9298SOL    HW228794   1.209   5.424   6.230
 9299SOL     OW28795   1.998   2.234   4.838
 9299SOL    HW128796   1.970   2.139   4.831
 9299SOL    HW228797   2.090   2.239   4.878
 9300SOL     OW28798   1.370   5.253   5.745
 9300SOL    HW128799   1.384   5.237   5.843
 9300SOL    HW228800   1.368   5.351   5.727
 9301SOL     OW28801   7.017   4.200   4.908
 9301SOL    HW128802   6.987   4.197   5.003
 9301SOL    HW228803   0.063   4.273   4.896
 9302SOL     OW28804   1.916   3.592   5.156
 9302SOL    HW128805   2.003   3.586   5.204
 9302SOL    HW228806   1.932   3.607   5.058
 9303SOL     OW28807   2.088   4.779   0.750
 9303SOL    HW128808   2.024   4.747   0.820
 9303SOL    HW228809   2.148   4.850   0.789
 9304SOL     OW28810   4.847   5.325   0.232
 9304SOL    HW128811   4.865   5.276   0.317
 9304SOL    HW228812   4.800   5.265   0.168
 9305SOL     OW28813   2.134   1.935   1.391
 9305SOL    HW128814   2.227   1.903   1.376
 9305SOL    HW228815   2.129   2.033   1.375
 9306SOL     OW28816   6.571   5.077   4.727
 9306SOL    HW128817   6.603   4.986   4.754
 9306SOL    HW228818   6.539   5.127   4.807
 9307SOL     OW28819   2.556   3.135   1.669
 9307SOL    HW128820   2.593   3.138   1.576
 9307SOL    HW228821   2.557   3.041   1.703
 9308SOL     OW28822   2.175   3.814   2.137
 9308SOL    HW128823   2.257   3.867   2.116
 9308SOL    HW228824   2.191   3.718   2.116
 9309SOL     OW28825   5.157   5.527   6.090
 9309SOL    HW128826   5.257   5.534   6.086
 9309SOL    HW228827   5.119   5.613   6.123
 9310SOL     OW28828   5.730   6.218   0.145
 9310SOL    HW128829   5.819   6.174   0.132
 9310SOL    HW228830   5.706   6.269   0.062
 9311SOL     OW28831   4.372   3.633   1.453
 9311SOL    HW128832   4.377   3.612   1.356
 9311SOL    HW228833   4.392   3.730   1.468
 9312SOL     OW28834   0.766   2.665   2.154
 9312SOL    HW128835   0.833   2.594   2.177
 9312SOL    HW228836   0.693   2.625   2.098
 9313SOL     OW28837   0.569   6.674   2.688
 9313SOL    HW128838   0.645   6.706   2.745
 9313SOL    HW228839   0.492   6.737   2.698
 9314SOL     OW28840   4.888   3.166   0.278
 9314SOL    HW128841   4.885   3.250   0.222
 9314SOL    HW228842   4.855   3.089   0.223
 9315SOL     OW28843   5.683   0.971   6.200
 9315SOL    HW128844   5.725   1.054   6.238
 9315SOL    HW228845   5.665   0.906   6.273
 9316SOL     OW28846   4.280   0.852   5.404
 9316SOL    HW128847   4.353   0.807   5.456
 9316SOL    HW228848   4.290   0.831   5.307
 9317SOL     OW28849   4.053   6.431   3.339
 9317SOL    HW128850   4.096   6.406   3.425
 9317SOL    HW228851   4.091   6.376   3.265
 9318SOL     OW28852   4.794   6.735   1.161
 9318SOL    HW128853   4.834   6.677   1.089
 9318SOL    HW228854   4.817   6.697   1.250
 9319SOL     OW28855   2.616   3.914   6.781
 9319SOL    HW128856   2.631   3.908   6.880
 9319SOL    HW228857   2.633   4.008   6.751
 9320SOL     OW28858   6.453   6.333   6.611
 9320SOL    HW128859   6.429   6.413   6.667
 9320SOL    HW228860   6.483   6.259   6.670
 9321SOL     OW28861   0.838   3.643   4.698
 9321SOL    HW128862   0.916   3.582   4.715
 9321SOL    HW228863   0.789   3.613   4.617
 9322SOL     OW28864   6.079   3.478   5.797
 9322SOL    HW128865   6.077   3.411   5.871
 9322SOL    HW228866   5.996   3.468   5.741
 9323SOL     OW28867   1.628   2.457   4.679
 9323SOL    HW128868   1.646   2.386   4.747
 9323SOL    HW228869   1.589   2.537   4.725
 9324SOL     OW28870   0.527   4.470   1.537
 9324SOL    HW128871   0.487   4.379   1.535
 9324SOL    HW228872   0.457   4.537   1.511
 9325SOL     OW28873   1.010   4.996   2.828
 9325SOL    HW128874   0.952   4.923   2.865
 9325SOL    HW228875   1.021   5.068   2.896
 9326SOL     OW28876   4.284   4.780   1.182
 9326SOL    HW128877   4.218   4.853   1.163
 9326SOL    HW228878   4.283   4.759   1.280
 9327SOL     OW28879   4.151   0.153   4.169
 9327SOL    HW128880   4.074   0.179   4.227
 9327SOL    HW228881   4.117   0.123   4.080
 9328SOL     OW28882   2.729   0.105   4.670
 9328SOL    HW128883   2.664   0.046   4.622
 9328SOL    HW228884   2.822   0.077   4.648
 9329SOL     OW28885   0.043   5.473   6.602
 9329SOL    HW128886   0.130   5.490   6.648
 9329SOL    HW228887   0.058   5.465   6.503
 9330SOL     OW28888   5.965   5.367   6.680
 9330SOL    HW128889   5.898   5.434   6.647
 9330SOL    HW228890   6.037   5.415   6.729
 9331SOL     OW28891   1.517   2.778   4.726
 9331SOL    HW128892   1.452   2.830   4.782
 9331SOL    HW228893   1.554   2.837   4.654
 9332SOL     OW28894   4.935   5.495   0.775
 9332SOL    HW128895   4.995   5.449   0.840
 9332SOL    HW228896   4.983   5.507   0.688
 9333SOL     OW28897   3.887   4.771   0.933
 9333SOL    HW128898   3.829   4.694   0.905
 9333SOL    HW228899   3.979   4.758   0.897
 9334SOL     OW28900   5.507   5.878   5.529
 9334SOL    HW128901   5.507   5.902   5.431
 9334SOL    HW228902   5.537   5.958   5.582
 9335SOL     OW28903   1.946   3.028   1.516
 9335SOL    HW128904   1.942   3.088   1.436
 9335SOL    HW228905   1.884   3.061   1.586
 9336SOL     OW28906   6.364   6.660   5.579
 9336SOL    HW128907   6.310   6.591   5.626
 9336SOL    HW228908   6.400   6.621   5.494
 9337SOL     OW28909   2.570   0.360   6.664
 9337SOL    HW128910   2.665   0.327   6.667
 9337SOL    HW228911   2.550   0.410   6.748
 9338SOL     OW28912   5.916   0.011   0.020
 9338SOL    HW128913   6.013   0.029   0.004
 9338SOL    HW228914   5.862   0.091   7.012
 9339SOL     OW28915   6.591   4.233   5.417
 9339SOL    HW128916   6.649   4.296   5.364
 9339SOL    HW228917   6.600   4.140   5.380
 9340SOL     OW28918   4.220   5.803   1.914
 9340SOL    HW128919   4.195   5.874   1.847
 9340SOL    HW228920   4.304   5.758   1.884
 9341SOL     OW28921   5.101   3.636   6.739
 9341SOL    HW128922   5.195   3.650   6.769
 9341SOL    HW228923   5.050   3.722   6.746
 9342SOL     OW28924   2.946   0.422   4.094
 9342SOL    HW128925   3.045   0.419   4.102
 9342SOL    HW228926   2.915   0.517   4.095
 9343SOL     OW28927   4.602   4.729   1.744
 9343SOL    HW128928   4.503   4.728   1.757
 9343SOL    HW228929   4.640   4.639   1.766
 9344SOL     OW28930   5.664   5.629   4.832
 9344SOL    HW128931   5.720   5.639   4.914
 9344SOL    HW228932   5.652   5.532   4.811
 9345SOL     OW28933   6.929   6.556   1.218
 9345SOL    HW128934   6.919   6.613   1.136
 9345SOL    HW228935   6.847   6.500   1.230
 9346SOL     OW28936   6.126   6.130   0.838
 9346SOL    HW128937   6.092   6.216   0.875
 9346SOL    HW228938   6.050   6.068   0.821
 9347SOL     OW28939   3.616   5.220   0.826
 9347SOL    HW128940   3.564   5.211   0.740
 9347SOL    HW228941   3.711   5.241   0.805
 9348SOL     OW28942   1.892   5.851   1.503
 9348SOL    HW128943   1.823   5.881   1.437
 9348SOL    HW228944   1.852   5.782   1.564
 9349SOL     OW28945   6.319   5.504   1.733
 9349SOL    HW128946   6.232   5.552   1.744
 9349SOL    HW228947   6.347   5.506   1.637
 9350SOL     OW28948   0.022   0.390   5.375
 9350SOL    HW128949   0.099   0.418   5.317
 9350SOL    HW228950   7.003   0.472   5.418
 9351SOL     OW28951   3.107   1.452   6.562
 9351SOL    HW128952   3.017   1.493   6.549
 9351SOL    HW228953   3.139   1.470   6.655
 9352SOL     OW28954   3.797   2.146   6.444
 9352SOL    HW128955   3.757   2.111   6.529
 9352SOL    HW228956   3.761   2.093   6.366
 9353SOL     OW28957   1.730   3.380   0.928
 9353SOL    HW128958   1.819   3.386   0.883
 9353SOL    HW228959   1.730   3.304   0.993
 9354SOL     OW28960   4.997   2.129   1.296
 9354SOL    HW128961   5.004   2.215   1.346
 9354SOL    HW228962   4.918   2.133   1.234
 9355SOL     OW28963   6.714   6.931   3.471
 9355SOL    HW128964   6.633   6.874   3.488
 9355SOL    HW228965   6.696   6.991   3.393
 9356SOL     OW28966   4.154   4.684   2.348
 9356SOL    HW128967   4.244   4.641   2.351
 9356SOL    HW228968   4.118   4.681   2.255
 9357SOL     OW28969   2.918   2.581   1.222
 9357SOL    HW128970   2.974   2.574   1.304
 9357SOL    HW228971   2.871   2.669   1.222
 9358SOL     OW28972   6.453   4.763   2.180
 9358SOL    HW128973   6.475   4.669   2.205
 9358SOL    HW228974   6.369   4.791   2.226
 9359SOL     OW28975   6.717   4.134   5.853
 9359SOL    HW128976   6.768   4.165   5.772
 9359SOL    HW228977   6.706   4.211   5.917
 9360SOL     OW28978   2.378   0.986   6.721
 9360SOL    HW128979   2.319   1.066   6.710
 9360SOL    HW228980   2.464   1.002   6.673
 9361SOL     OW28981   2.688   6.306   2.439
 9361SOL    HW128982   2.605   6.250   2.446
 9361SOL    HW228983   2.672   6.380   2.372
 9362SOL     OW28984   2.393   1.124   2.481
 9362SOL    HW128985   2.343   1.137   2.395
 9362SOL    HW228986   2.485   1.092   2.461
 9363SOL     OW28987   3.394   6.133   2.599
 9363SOL    HW128988   3.359   6.184   2.521
 9363SOL    HW228989   3.346   6.160   2.682
 9364SOL     OW28990   4.574   3.285   0.205
 9364SOL    HW128991   4.627   3.264   0.287
 9364SOL    HW228992   4.636   3.309   0.130
 9365SOL     OW28993   2.291   1.993   5.090
 9365SOL    HW128994   2.291   1.932   5.170
 9365SOL    HW228995   2.377   1.982   5.040
 9366SOL     OW28996   2.838   1.669   0.216
 9366SOL    HW128997   2.846   1.724   0.133
 9366SOL    HW228998   2.809   1.728   0.292
 9367SOL     OW28999   6.478   5.759   2.833
 9367SOL    HW129000   6.524   5.824   2.895
 9367SOL    HW229001   6.484   5.667   2.872
 9368SOL     OW29002   2.881   1.925   1.714
 9368SOL    HW129003   2.958   1.908   1.652
 9368SOL    HW229004   2.908   1.992   1.783
 9369SOL     OW29005   0.249   2.337   4.764
 9369SOL    HW129006   0.217   2.247   4.795
 9369SOL    HW229007   0.208   2.358   4.675
 9370SOL     OW29008   6.173   0.683   2.567
 9370SOL    HW129009   6.144   0.665   2.661
 9370SOL    HW229010   6.116   0.754   2.527
 9371SOL     OW29011   0.400   6.341   0.533
 9371SOL    HW129012   0.440   6.266   0.480
 9371SOL    HW229013   0.418   6.326   0.631
 9372SOL     OW29014   5.954   6.771   3.933
 9372SOL    HW129015   5.889   6.716   3.986
 9372SOL    HW229016   5.904   6.835   3.875
 9373SOL     OW29017   4.150   1.749   3.056
 9373SOL    HW129018   4.081   1.786   2.994
 9373SOL    HW229019   4.224   1.816   3.067
 9374SOL     OW29020   5.301   2.868   0.503
 9374SOL    HW129021   5.348   2.936   0.558
 9374SOL    HW229022   5.202   2.873   0.521
 9375SOL     OW29023   0.369   1.262   2.957
 9375SOL    HW129024   0.389   1.324   2.880
 9375SOL    HW229025   0.330   1.314   3.032
 9376SOL     OW29026   2.608   3.995   0.371
 9376SOL    HW129027   2.564   4.051   0.301
 9376SOL    HW229028   2.572   4.018   0.461
 9377SOL     OW29029   6.418   5.857   3.567
 9377SOL    HW129030   6.508   5.818   3.588
 9377SOL    HW229031   6.424   5.956   3.565
 9378SOL     OW29032   2.043   0.117   6.992
 9378SOL    HW129033   1.959   0.084   0.013
 9378SOL    HW229034   2.036   0.110   6.892
 9379SOL     OW29035   4.868   5.196   3.557
 9379SOL    HW129036   4.878   5.229   3.464
 9379SOL    HW229037   4.865   5.274   3.620
 9380SOL     OW29038   6.423   6.670   5.926
 9380SOL    HW129039   6.394   6.755   5.883
 9380SOL    HW229040   6.504   6.686   5.982
 9381SOL     OW29041   2.491   2.221   5.685
 9381SOL    HW129042   2.553   2.287   5.642
 9381SOL    HW229043   2.451   2.162   5.614
 9382SOL     OW29044   4.116   1.515   2.371
 9382SOL    HW129045   4.039   1.493   2.431
 9382SOL    HW229046   4.144   1.434   2.320
 9383SOL     OW29047   3.990   6.342   4.155
 9383SOL    HW129048   3.894   6.331   4.132
 9383SOL    HW229049   4.022   6.262   4.206
 9384SOL     OW29050   5.072   6.501   2.506
 9384SOL    HW129051   5.161   6.493   2.552
 9384SOL    HW229052   5.085   6.530   2.412
 9385SOL     OW29053   4.216   0.737   3.650
 9385SOL    HW129054   4.230   0.830   3.617
 9385SOL    HW229055   4.304   0.689   3.650
 9386SOL     OW29056   2.947   6.612   5.788
 9386SOL    HW129057   2.993   6.587   5.703
 9386SOL    HW229058   2.866   6.554   5.799
 9387SOL     OW29059   3.034   6.480   1.666
 9387SOL    HW129060   3.070   6.436   1.748
 9387SOL    HW229061   2.939   6.451   1.652
 9388SOL     OW29062   0.079   0.333   2.771
 9388SOL    HW129063   0.092   0.431   2.788
 9388SOL    HW229064   0.135   0.281   2.836
 9389SOL     OW29065   2.316   1.068   5.673
 9389SOL    HW129066   2.249   0.998   5.651
 9389SOL    HW229067   2.351   1.053   5.766
 9390SOL     OW29068   3.314   5.473   2.487
 9390SOL    HW129069   3.280   5.483   2.581
 9390SOL    HW229070   3.343   5.563   2.453
 9391SOL     OW29071   1.092   1.692   5.658
 9391SOL    HW129072   1.013   1.753   5.648
 9391SOL    HW229073   1.060   1.600   5.678
 9392SOL     OW29074   1.708   6.649   4.639
 9392SOL    HW129075   1.687   6.635   4.543
 9392SOL    HW229076   1.650   6.722   4.676
 9393SOL     OW29077   3.620   2.154   5.215
 9393SOL    HW129078   3.640   2.252   5.215
 9393SOL    HW229079   3.522   2.140   5.200
 9394SOL     OW29080   6.492   2.766   2.921
 9394SOL    HW129081   6.523   2.773   2.827
 9394SOL    HW229082   6.404   2.720   2.925
 9395SOL     OW29083   2.690   3.425   0.804
 9395SOL    HW129084   2.714   3.368   0.883
 9395SOL    HW229085   2.592   3.414   0.784
 9396SOL     OW29086   6.367   6.914   5.857
 9396SOL    HW129087   6.418   6.990   5.897
 9396SOL    HW229088   6.308   6.948   5.784
 9397SOL     OW29089   2.079   0.363   0.090
 9397SOL    HW129090   2.076   0.275   0.043
 9397SOL    HW229091   2.174   0.394   0.097
 9398SOL     OW29092   2.716   1.200   6.850
 9398SOL    HW129093   2.767   1.277   6.889
 9398SOL    HW229094   2.705   1.129   6.920
 9399SOL     OW29095   6.405   1.459   6.145
 9399SOL    HW129096   6.501   1.459   6.173
 9399SOL    HW229097   6.351   1.509   6.213
 9400SOL     OW29098   5.145   3.422   1.787
 9400SOL    HW129099   5.120   3.326   1.773
 9400SOL    HW229100   5.229   3.427   1.842
 9401SOL     OW29101   2.984   6.162   3.810
 9401SOL    HW129102   2.953   6.083   3.862
 9401SOL    HW229103   3.080   6.151   3.787
 9402SOL     OW29104   2.665   5.077   6.464
 9402SOL    HW129105   2.743   5.029   6.423
 9402SOL    HW229106   2.581   5.026   6.446
 9403SOL     OW29107   5.394   1.500   3.678
 9403SOL    HW129108   5.330   1.541   3.613
 9403SOL    HW229109   5.347   1.483   3.765
 9404SOL     OW29110   0.751   5.109   6.913
 9404SOL    HW129111   0.802   5.028   6.942
 9404SOL    HW229112   0.803   5.191   6.936
 9405SOL     OW29113   6.006   6.667   1.628
 9405SOL    HW129114   5.922   6.709   1.663
 9405SOL    HW229115   6.058   6.735   1.575
 9406SOL     OW29116   6.972   2.186   5.221
 9406SOL    HW129117   0.028   2.148   5.168
 9406SOL    HW229118   6.984   2.285   5.229
 9407SOL     OW29119   3.336   5.905   3.564
 9407SOL    HW129120   3.299   5.813   3.575
 9407SOL    HW229121   3.414   5.916   3.626
 9408SOL     OW29122   3.793   1.939   0.066
 9408SOL    HW129123   3.798   1.852   0.115
 9408SOL    HW229124   3.865   1.942   7.016
 9409SOL     OW29125   5.763   3.396   3.945
 9409SOL    HW129126   5.688   3.350   3.992
 9409SOL    HW229127   5.765   3.367   3.849
 9410SOL     OW29128   4.485   6.245   2.272
 9410SOL    HW129129   4.418   6.171   2.276
 9410SOL    HW229130   4.456   6.312   2.203
 9411SOL     OW29131   4.588   5.866   0.773
 9411SOL    HW129132   4.680   5.828   0.762
 9411SOL    HW229133   4.578   5.945   0.712
 9412SOL     OW29134   0.414   2.871   0.785
 9412SOL    HW129135   0.425   2.970   0.779
 9412SOL    HW229136   0.502   2.829   0.809
 9413SOL     OW29137   4.411   5.721   5.328
 9413SOL    HW129138   4.459   5.774   5.258
 9413SOL    HW229139   4.477   5.678   5.389
 9414SOL     OW29140   2.985   1.432   2.632
 9414SOL    HW129141   3.061   1.496   2.617
 9414SOL    HW229142   3.010   1.342   2.596
 9415SOL     OW29143   1.911   6.449   2.612
 9415SOL    HW129144   1.949   6.540   2.631
 9415SOL    HW229145   1.840   6.457   2.542
 9416SOL     OW29146   1.320   1.830   1.888
 9416SOL    HW129147   1.290   1.851   1.981
 9416SOL    HW229148   1.404   1.777   1.890
 9417SOL     OW29149   2.430   5.851   5.542
 9417SOL    HW129150   2.338   5.888   5.541
 9417SOL    HW229151   2.496   5.923   5.520
 9418SOL     OW29152   2.042   5.601   2.020
 9418SOL    HW129153   2.133   5.621   1.985
 9418SOL    HW229154   2.032   5.502   2.030
 9419SOL     OW29155   2.660   6.559   4.933
 9419SOL    HW129156   2.718   6.641   4.932
 9419SOL    HW229157   2.576   6.578   4.984
 9420SOL     OW29158   6.459   1.405   4.878
 9420SOL    HW129159   6.557   1.410   4.895
 9420SOL    HW229160   6.438   1.320   4.829
 9421SOL     OW29161   1.435   4.448   5.520
 9421SOL    HW129162   1.401   4.355   5.536
 9421SOL    HW229163   1.495   4.475   5.595
 9422SOL     OW29164   5.458   0.239   2.108
 9422SOL    HW129165   5.470   0.184   2.026
 9422SOL    HW229166   5.425   0.182   2.183
 9423SOL     OW29167   4.213   1.068   3.612
 9423SOL    HW129168   4.210   1.035   3.518
 9423SOL    HW229169   4.150   1.145   3.623
 9424SOL     OW29170   4.370   0.435   5.367
 9424SOL    HW129171   4.401   0.344   5.338
 9424SOL    HW229172   4.279   0.428   5.407
 9425SOL     OW29173   0.672   3.892   5.287
 9425SOL    HW129174   0.636   3.948   5.361
 9425SOL    HW229175   0.671   3.795   5.314
 9426SOL     OW29176   2.863   0.513   6.829
 9426SOL    HW129177   2.842   0.430   6.776
 9426SOL    HW229178   2.840   0.594   6.775
 9427SOL     OW29179   2.802   5.274   5.206
 9427SOL    HW129180   2.835   5.183   5.182
 9427SOL    HW229181   2.880   5.331   5.235
 9428SOL     OW29182   5.604   0.359   2.848
 9428SOL    HW129183   5.631   0.451   2.875
 9428SOL    HW229184   5.623   0.295   2.923
 9429SOL     OW29185   1.329   4.285   1.855
 9429SOL    HW129186   1.359   4.257   1.946
 9429SOL    HW229187   1.333   4.206   1.793
 9430SOL     OW29188   6.689   6.640   1.888
 9430SOL    HW129189   6.695   6.686   1.799
 9430SOL    HW229190   6.673   6.708   1.960
 9431SOL     OW29191   6.603   3.555   6.901
 9431SOL    HW129192   6.610   3.634   6.841
 9431SOL    HW229193   6.601   3.472   6.846
 9432SOL     OW29194   5.873   0.222   3.284
 9432SOL    HW129195   5.969   0.191   3.283
 9432SOL    HW229196   5.836   0.211   3.376
 9433SOL     OW29197   3.371   4.814   5.110
 9433SOL    HW129198   3.403   4.724   5.140
 9433SOL    HW229199   3.272   4.818   5.119
 9434SOL     OW29200   5.702   3.726   2.859
 9434SOL    HW129201   5.716   3.627   2.867
 9434SOL    HW229202   5.782   3.774   2.892
 9435SOL     OW29203   1.796   1.633   4.110
 9435SOL    HW129204   1.773   1.730   4.106
 9435SOL    HW229205   1.876   1.619   4.168
 9436SOL     OW29206   2.063   4.177   0.659
 9436SOL    HW129207   1.966   4.154   0.650
 9436SOL    HW229208   2.072   4.266   0.704
 9437SOL     OW29209   1.041   5.174   3.043
 9437SOL    HW129210   1.121   5.224   3.012
 9437SOL    HW229211   0.973   5.237   3.081
 9438SOL     OW29212   0.421   6.583   2.330
 9438SOL    HW129213   0.416   6.484   2.348
 9438SOL    HW229214   0.514   6.615   2.346
 9439SOL     OW29215   6.966   3.803   1.874
 9439SOL    HW129216   0.029   3.747   1.873
 9439SOL    HW229217   6.990   3.898   1.891
 9440SOL     OW29218   5.079   6.382   4.929
 9440SOL    HW129219   5.091   6.295   4.977
 9440SOL    HW229220   5.010   6.372   4.857
 9441SOL     OW29221   1.829   5.083   4.845
 9441SOL    HW129222   1.916   5.038   4.861
 9441SOL    HW229223   1.781   5.097   4.932
 9442SOL     OW29224   6.829   2.437   0.008
 9442SOL    HW129225   6.912   2.395   0.044
 9442SOL    HW229226   6.750   2.380   0.031
 9443SOL     OW29227   1.721   4.675   1.071
 9443SOL    HW129228   1.748   4.613   1.145
 9443SOL    HW229229   1.710   4.768   1.107
 9444SOL     OW29230   0.624   2.888   0.264
 9444SOL    HW129231   0.541   2.936   0.292
 9444SOL    HW229232   0.679   2.866   0.345
 9445SOL     OW29233   5.380   3.753   2.379
 9445SOL    HW129234   5.315   3.829   2.378
 9445SOL    HW229235   5.417   3.739   2.287
 9446SOL     OW29236   6.613   6.312   2.286
 9446SOL    HW129237   6.573   6.248   2.221
 9446SOL    HW229238   6.664   6.261   2.355
 9447SOL     OW29239   4.977   3.896   2.263
 9447SOL    HW129240   4.937   3.970   2.210
 9447SOL    HW229241   4.950   3.808   2.224
 9448SOL     OW29242   5.589   6.364   6.292
 9448SOL    HW129243   5.641   6.424   6.352
 9448SOL    HW229244   5.525   6.310   6.346
 9449SOL     OW29245   6.261   5.665   5.164
 9449SOL    HW129246   6.355   5.667   5.196
 9449SOL    HW229247   6.258   5.693   5.067
 9450SOL     OW29248   2.233   5.348   4.552
 9450SOL    HW129249   2.330   5.364   4.567
 9450SOL    HW229250   2.207   5.261   4.594
 9451SOL     OW29251   5.018   5.334   6.529
 9451SOL    HW129252   5.071   5.316   6.446
 9451SOL    HW229253   5.071   5.305   6.609
 9452SOL     OW29254   2.487   3.757   0.749
 9452SOL    HW129255   2.397   3.765   0.705
 9452SOL    HW229256   2.517   3.662   0.746
 9453SOL     OW29257   1.990   4.827   3.200
 9453SOL    HW129258   2.067   4.788   3.149
 9453SOL    HW229259   1.920   4.856   3.135
 9454SOL     OW29260   1.611   4.411   6.371
 9454SOL    HW129261   1.601   4.356   6.288
 9454SOL    HW229262   1.627   4.351   6.449
 9455SOL     OW29263   3.228   1.196   3.098
 9455SOL    HW129264   3.320   1.197   3.136
 9455SOL    HW229265   3.224   1.257   3.019
 9456SOL     OW29266   0.959   3.827   0.815
 9456SOL    HW129267   0.876   3.789   0.855
 9456SOL    HW229268   0.939   3.860   0.722
 9457SOL     OW29269   2.015   3.338   6.754
 9457SOL    HW129270   1.938   3.355   6.692
 9457SOL    HW229271   2.003   3.392   6.838
 9458SOL     OW29272   6.791   4.994   6.004
 9458SOL    HW129273   6.837   5.080   6.026
 9458SOL    HW229274   6.845   4.917   6.041
 9459SOL     OW29275   6.163   5.337   1.934
 9459SOL    HW129276   6.219   5.293   2.004
 9459SOL    HW229277   6.220   5.362   1.856
 9460SOL     OW29278   0.554   2.463   5.030
 9460SOL    HW129279   0.583   2.404   4.955
 9460SOL    HW229280   0.510   2.408   5.101
 9461SOL     OW29281   0.428   1.113   3.239
 9461SOL    HW129282   0.497   1.181   3.263
 9461SOL    HW229283   0.430   1.097   3.141
 9462SOL     OW29284   1.574   3.004   3.090
 9462SOL    HW129285   1.664   3.040   3.065
 9462SOL    HW229286   1.504   3.048   3.035
 9463SOL     OW29287   6.687   1.035   0.841
 9463SOL    HW129288   6.703   1.128   0.872
 9463SOL    HW229289   6.768   0.979   0.860
 9464SOL     OW29290   5.787   6.824   6.519
 9464SOL    HW129291   5.754   6.773   6.598
 9464SOL    HW229292   5.885   6.807   6.507
 9465SOL     OW29293   6.436   0.955   3.432
 9465SOL    HW129294   6.500   1.012   3.483
 9465SOL    HW229295   6.419   0.870   3.482
 9466SOL     OW29296   2.568   3.056   5.784
 9466SOL    HW129297   2.626   3.069   5.864
 9466SOL    HW229298   2.534   2.962   5.782
 9467SOL     OW29299   2.021   2.348   2.009
 9467SOL    HW129300   1.933   2.301   2.003
 9467SOL    HW229301   2.090   2.295   1.961
 9468SOL     OW29302   6.507   2.918   6.053
 9468SOL    HW129303   6.496   2.998   5.995
 9468SOL    HW229304   6.444   2.924   6.131
 9469SOL     OW29305   6.256   5.782   2.057
 9469SOL    HW129306   6.311   5.806   2.137
 9469SOL    HW229307   6.197   5.858   2.033
 9470SOL     OW29308   4.792   3.343   0.060
 9470SOL    HW129309   4.877   3.389   0.035
 9470SOL    HW229310   4.748   3.307   6.998
 9471SOL     OW29311   6.659   2.808   5.790
 9471SOL    HW129312   6.638   2.882   5.854
 9471SOL    HW229313   6.690   2.847   5.703
 9472SOL     OW29314   6.281   4.479   4.326
 9472SOL    HW129315   6.262   4.545   4.399
 9472SOL    HW229316   6.325   4.526   4.249
 9473SOL     OW29317   3.387   6.351   6.204
 9473SOL    HW129318   3.481   6.377   6.183
 9473SOL    HW229319   3.383   6.309   6.295
 9474SOL     OW29320   5.501   4.249   2.120
 9474SOL    HW129321   5.502   4.320   2.050
 9474SOL    HW229322   5.407   4.226   2.144
 9475SOL     OW29323   3.147   3.472   1.105
 9475SOL    HW129324   3.238   3.448   1.138
 9475SOL    HW229325   3.078   3.415   1.151
 9476SOL     OW29326   4.050   3.249   5.518
 9476SOL    HW129327   4.036   3.333   5.465
 9476SOL    HW229328   4.143   3.248   5.555
 9477SOL     OW29329   1.390   2.438   0.815
 9477SOL    HW129330   1.317   2.387   0.770
 9477SOL    HW229331   1.461   2.374   0.846
 9478SOL     OW29332   5.373   4.129   5.424
 9478SOL    HW129333   5.334   4.214   5.387
 9478SOL    HW229334   5.448   4.152   5.486
 9479SOL     OW29335   5.645   5.269   6.533
 9479SOL    HW129336   5.705   5.347   6.516
 9479SOL    HW229337   5.657   5.238   6.627
 9480SOL     OW29338   4.627   4.181   6.872
 9480SOL    HW129339   4.693   4.144   6.806
 9480SOL    HW229340   4.561   4.110   6.896
 9481SOL     OW29341   0.057   4.094   1.885
 9481SOL    HW129342   0.141   4.126   1.930
 9481SOL    HW229343   0.080   4.055   1.795
 9482SOL     OW29344   4.933   0.883   3.236
 9482SOL    HW129345   4.971   0.908   3.147
 9482SOL    HW229346   4.974   0.940   3.307
 9483SOL     OW29347   1.717   1.820   0.924
 9483SOL    HW129348   1.645   1.782   0.866
 9483SOL    HW229349   1.749   1.907   0.885
 9484SOL     OW29350   5.820   1.146   3.615
 9484SOL    HW129351   5.863   1.201   3.687
 9484SOL    HW229352   5.721   1.160   3.618
 9485SOL     OW29353   1.098   0.822   1.917
 9485SOL    HW129354   1.057   0.880   1.847
 9485SOL    HW229355   1.097   0.726   1.888
 9486SOL     OW29356   2.192   5.720   0.706
 9486SOL    HW129357   2.126   5.651   0.677
 9486SOL    HW229358   2.259   5.678   0.767
 9487SOL     OW29359   3.633   4.081   3.685
 9487SOL    HW129360   3.697   4.063   3.760
 9487SOL    HW229361   3.584   4.166   3.702
 9488SOL     OW29362   1.630   6.076   1.079
 9488SOL    HW129363   1.580   6.160   1.059
 9488SOL    HW229364   1.717   6.078   1.030
 9489SOL     OW29365   3.819   4.382   1.300
 9489SOL    HW129366   3.730   4.391   1.254
 9489SOL    HW229367   3.862   4.296   1.274
 9490SOL     OW29368   4.888   0.665   0.790
 9490SOL    HW129369   4.983   0.638   0.777
 9490SOL    HW229370   4.869   0.676   0.888
 9491SOL     OW29371   6.378   5.103   4.142
 9491SOL    HW129372   6.413   5.025   4.194
 9491SOL    HW229373   6.285   5.083   4.110
 9492SOL     OW29374   3.225   3.951   2.169
 9492SOL    HW129375   3.293   4.024   2.157
 9492SOL    HW229376   3.188   3.925   2.080
 9493SOL     OW29377   4.931   5.292   3.293
 9493SOL    HW129378   5.013   5.270   3.241
 9493SOL    HW229379   4.951   5.362   3.360
 9494SOL     OW29380   4.995   3.424   0.298
 9494SOL    HW129381   4.981   3.345   0.358
 9494SOL    HW229382   4.910   3.447   0.252
 9495SOL     OW29383   6.311   2.223   3.988
 9495SOL    HW129384   6.338   2.136   3.948
 9495SOL    HW229385   6.219   2.247   3.957
 9496SOL     OW29386   5.447   3.739   6.496
 9496SOL    HW129387   5.544   3.756   6.480
 9496SOL    HW229388   5.401   3.825   6.519
 9497SOL     OW29389   5.078   4.635   1.201
 9497SOL    HW129390   4.998   4.618   1.145
 9497SOL    HW229391   5.098   4.733   1.202
 9498SOL     OW29392   3.757   6.650   5.387
 9498SOL    HW129393   3.691   6.702   5.441
 9498SOL    HW229394   3.813   6.713   5.333
 9499SOL     OW29395   2.901   3.652   5.681
 9499SOL    HW129396   2.844   3.724   5.641
 9499SOL    HW229397   2.886   3.566   5.631
 9500SOL     OW29398   4.476   6.301   1.636
 9500SOL    HW129399   4.436   6.371   1.577
 9500SOL    HW229400   4.525   6.234   1.581
 9501SOL     OW29401   3.536   1.765   4.266
 9501SOL    HW129402   3.498   1.832   4.203
 9501SOL    HW229403   3.635   1.756   4.250
 9502SOL     OW29404   6.577   2.555   4.736
 9502SOL    HW129405   6.515   2.607   4.678
 9502SOL    HW229406   6.525   2.492   4.793
 9503SOL     OW29407   0.474   0.744   1.900
 9503SOL    HW129408   0.419   0.726   1.982
 9503SOL    HW229409   0.553   0.682   1.899
 9504SOL     OW29410   0.216   2.753   0.511
 9504SOL    HW129411   0.194   2.760   0.608
 9504SOL    HW229412   0.165   2.677   0.471
 9505SOL     OW29413   6.138   3.648   3.006
 9505SOL    HW129414   6.171   3.587   3.078
 9505SOL    HW229415   6.168   3.741   3.026
 9506SOL     OW29416   0.300   3.197   6.964
 9506SOL    HW129417   0.203   3.201   6.941
 9506SOL    HW229418   0.346   3.131   6.905
 9507SOL     OW29419   1.466   1.165   4.337
 9507SOL    HW129420   1.380   1.208   4.366
 9507SOL    HW229421   1.536   1.180   4.407
 9508SOL     OW29422   5.460   1.945   0.538
 9508SOL    HW129423   5.367   1.916   0.516
 9508SOL    HW229424   5.495   1.890   0.614
 9509SOL     OW29425   1.503   6.739   5.392
 9509SOL    HW129426   1.594   6.698   5.391
 9509SOL    HW229427   1.497   6.807   5.465
 9510SOL     OW29428   6.982   4.121   2.319
 9510SOL    HW129429   6.983   4.220   2.335
 9510SOL    HW229430   6.918   4.100   2.244
 9511SOL     OW29431   0.650   2.383   0.130
 9511SOL    HW129432   0.571   2.444   0.136
 9511SOL    HW229433   0.650   2.320   0.207
 9512SOL     OW29434   6.990   2.298   3.762
 9512SOL    HW129435   0.065   2.291   3.788
 9512SOL    HW229436   6.962   2.395   3.764
 9513SOL     OW29437   2.132   4.031   4.691
 9513SOL    HW129438   2.039   4.053   4.660
 9513SOL    HW229439   2.185   4.115   4.699
 9514SOL     OW29440   1.880   3.642   6.470
 9514SOL    HW129441   1.960   3.693   6.437
 9514SOL    HW229442   1.805   3.652   6.405
 9515SOL     OW29443   1.215   6.215   6.881
 9515SOL    HW129444   1.231   6.262   6.968
 9515SOL    HW229445   1.125   6.241   6.845
 9516SOL     OW29446   4.891   3.456   4.135
 9516SOL    HW129447   4.867   3.388   4.066
 9516SOL    HW229448   4.927   3.410   4.216
 9517SOL     OW29449   1.006   5.399   1.320
 9517SOL    HW129450   0.961   5.396   1.230
 9517SOL    HW229451   1.090   5.453   1.313
 9518SOL     OW29452   0.892   2.900   5.752
 9518SOL    HW129453   0.922   2.831   5.686
 9518SOL    HW229454   0.918   2.991   5.719
 9519SOL     OW29455   2.875   3.546   2.919
 9519SOL    HW129456   2.863   3.562   2.821
 9519SOL    HW229457   2.809   3.478   2.950
 9520SOL     OW29458   6.902   1.168   5.030
 9520SOL    HW129459   6.964   1.243   5.009
 9520SOL    HW229460   6.894   1.108   4.950
 9521SOL     OW29461   3.410   5.914   1.764
 9521SOL    HW129462   3.318   5.881   1.745
 9521SOL    HW229463   3.474   5.872   1.699
 9522SOL     OW29464   4.210   5.119   2.139
 9522SOL    HW129465   4.268   5.189   2.180
 9522SOL    HW229466   4.262   5.034   2.129
 9523SOL     OW29467   2.558   5.302   4.778
 9523SOL    HW129468   2.585   5.214   4.817
 9523SOL    HW229469   2.585   5.376   4.840
 9524SOL     OW29470   1.238   4.004   1.124
 9524SOL    HW129471   1.319   3.945   1.128
 9524SOL    HW229472   1.196   3.998   1.034
 9525SOL     OW29473   1.548   2.328   5.801
 9525SOL    HW129474   1.477   2.388   5.838
 9525SOL    HW229475   1.545   2.331   5.701
 9526SOL     OW29476   5.495   5.043   6.811
 9526SOL    HW129477   5.575   5.104   6.810
 9526SOL    HW229478   5.477   5.014   6.905
 9527SOL     OW29479   2.851   6.991   3.964
 9527SOL    HW129480   2.807   6.902   3.953
 9527SOL    HW229481   2.786   0.035   4.005
 9528SOL     OW29482   6.525   0.822   0.765
 9528SOL    HW129483   6.454   0.861   0.707
 9528SOL    HW229484   6.568   0.894   0.818
 9529SOL     OW29485   6.032   3.170   1.679
 9529SOL    HW129486   6.029   3.239   1.751
 9529SOL    HW229487   6.070   3.211   1.596
 9530SOL     OW29488   1.280   5.609   4.555
 9530SOL    HW129489   1.224   5.630   4.476
 9530SOL    HW229490   1.377   5.618   4.531
 9531SOL     OW29491   4.285   4.963   3.432
 9531SOL    HW129492   4.384   4.967   3.446
 9531SOL    HW229493   4.249   4.880   3.473
 9532SOL     OW29494   6.323   4.940   1.909
 9532SOL    HW129495   6.401   4.951   1.970
 9532SOL    HW229496   6.252   5.006   1.935
 9533SOL     OW29497   1.220   5.372   4.316
 9533SOL    HW129498   1.189   5.291   4.366
 9533SOL    HW229499   1.144   5.435   4.304
 9534SOL     OW29500   6.146   4.932   4.309
 9534SOL    HW129501   6.219   4.872   4.277
 9534SOL    HW229502   6.178   4.985   4.387
 9535SOL     OW29503   1.893   1.496   5.959
 9535SOL    HW129504   1.847   1.577   5.922
 9535SOL    HW229505   1.970   1.471   5.900
 9536SOL     OW29506   3.690   3.067   5.175
 9536SOL    HW129507   3.626   2.998   5.140
 9536SOL    HW229508   3.650   3.158   5.163
 9537SOL     OW29509   2.183   1.907   4.133
 9537SOL    HW129510   2.266   1.962   4.130
 9537SOL    HW229511   2.180   1.856   4.219
 9538SOL     OW29512   3.903   0.955   4.412
 9538SOL    HW129513   3.972   0.893   4.375
 9538SOL    HW229514   3.922   0.973   4.508
 9539SOL     OW29515   3.426   2.905   3.917
 9539SOL    HW129516   3.395   2.970   3.847
 9539SOL    HW229517   3.392   2.934   4.006
 9540SOL     OW29518   4.939   5.119   3.991
 9540SOL    HW129519   4.840   5.105   3.996
 9540SOL    HW229520   4.985   5.054   4.052
 9541SOL     OW29521   1.102   0.598   5.526
 9541SOL    HW129522   1.198   0.574   5.512
 9541SOL    HW229523   1.092   0.640   5.616
 9542SOL     OW29524   5.640   4.635   4.185
 9542SOL    HW129525   5.733   4.664   4.160
 9542SOL    HW229526   5.618   4.668   4.276
 9543SOL     OW29527   3.405   6.859   6.118
 9543SOL    HW129528   3.371   6.953   6.124
 9543SOL    HW229529   3.368   6.805   6.193
 9544SOL     OW29530   4.860   3.780   3.876
 9544SOL    HW129531   4.861   3.752   3.972
 9544SOL    HW229532   4.827   3.874   3.869
 9545SOL     OW29533   0.869   4.665   1.945
 9545SOL    HW129534   0.840   4.754   1.979
 9545SOL    HW229535   0.800   4.596   1.968
 9546SOL     OW29536   3.023   1.603   5.829
 9546SOL    HW129537   3.081   1.597   5.911
 9546SOL    HW229538   3.034   1.693   5.788
 9547SOL     OW29539   3.656   5.800   4.472
 9547SOL    HW129540   3.743   5.844   4.452
 9547SOL    HW229541   3.668   5.731   4.543
 9548SOL     OW29542   0.905   5.510   5.562
 9548SOL    HW129543   0.877   5.435   5.621
 9548SOL    HW229544   1.003   5.501   5.542
 9549SOL     OW29545   3.903   1.115   2.368
 9549SOL    HW129546   3.825   1.153   2.419
 9549SOL    HW229547   3.988   1.142   2.413
 9550SOL     OW29548   6.252   2.507   1.294
 9550SOL    HW129549   6.298   2.586   1.255
 9550SOL    HW229550   6.153   2.521   1.292
 9551SOL     OW29551   5.815   2.851   5.951
 9551SOL    HW129552   5.800   2.818   6.045
 9551SOL    HW229553   5.727   2.859   5.905
 9552SOL     OW29554   2.342   0.713   6.715
 9552SOL    HW129555   2.435   0.684   6.739
 9552SOL    HW229556   2.340   0.812   6.703
 9553SOL     OW29557   5.132   1.767   0.764
 9553SOL    HW129558   5.183   1.850   0.785
 9553SOL    HW229559   5.133   1.707   0.844
 9554SOL     OW29560   2.356   6.589   3.737
 9554SOL    HW129561   2.345   6.593   3.836
 9554SOL    HW229562   2.386   6.679   3.703
 9555SOL     OW29563   6.706   1.575   3.748
 9555SOL    HW129564   6.801   1.582   3.718
 9555SOL    HW229565   6.657   1.510   3.689
 9556SOL     OW29566   1.359   4.424   1.471
 9556SOL    HW129567   1.311   4.342   1.441
 9556SOL    HW229568   1.404   4.467   1.393
 9557SOL     OW29569   4.699   0.113   1.711
 9557SOL    HW129570   4.693   0.051   1.790
 9557SOL    HW229571   4.794   0.124   1.684
 9558SOL     OW29572   5.510   6.317   5.631
 9558SOL    HW129573   5.420   6.352   5.657
 9558SOL    HW229574   5.579   6.348   5.697
 9559SOL     OW29575   1.537   3.761   6.886
 9559SOL    HW129576   1.590   3.690   6.933
 9559SOL    HW229577   1.565   3.764   6.790
 9560SOL     OW29578   3.429   0.886   2.393
 9560SOL    HW129579   3.451   0.921   2.302
 9560SOL    HW229580   3.354   0.939   2.433
 9561SOL     OW29581   0.504   0.248   1.559
 9561SOL    HW129582   0.535   0.333   1.517
 9561SOL    HW229583   0.528   0.249   1.657
 9562SOL     OW29584   3.422   5.976   4.568
 9562SOL    HW129585   3.343   6.010   4.516
 9562SOL    HW229586   3.484   5.928   4.507
 9563SOL     OW29587   0.269   6.608   0.724
 9563SOL    HW129588   0.275   6.663   0.641
 9563SOL    HW229589   0.337   6.534   0.720
 9564SOL     OW29590   1.672   1.103   1.124
 9564SOL    HW129591   1.652   1.103   1.026
 9564SOL    HW229592   1.757   1.152   1.140
 9565SOL     OW29593   2.837   1.216   4.420
 9565SOL    HW129594   2.813   1.313   4.417
 9565SOL    HW229595   2.849   1.182   4.326
 9566SOL     OW29596   2.445   6.137   0.738
 9566SOL    HW129597   2.437   6.048   0.694
 9566SOL    HW229598   2.452   6.209   0.669
 9567SOL     OW29599   6.124   4.256   0.317
 9567SOL    HW129600   6.142   4.257   0.219
 9567SOL    HW229601   6.147   4.346   0.356
 9568SOL     OW29602   3.649   1.165   0.665
 9568SOL    HW129603   3.706   1.087   0.642
 9568SOL    HW229604   3.561   1.158   0.618
 9569SOL     OW29605   6.966   0.880   2.564
 9569SOL    HW129606   6.938   0.795   2.609
 9569SOL    HW229607   0.018   0.861   2.498
 9570SOL     OW29608   0.704   2.773   0.832
 9570SOL    HW129609   0.756   2.692   0.858
 9570SOL    HW229610   0.753   2.855   0.863
 9571SOL     OW29611   2.090   2.700   6.005
 9571SOL    HW129612   2.055   2.633   5.940
 9571SOL    HW229613   2.014   2.737   6.058
 9572SOL     OW29614   2.268   4.145   2.858
 9572SOL    HW129615   2.212   4.069   2.893
 9572SOL    HW229616   2.249   4.157   2.761
 9573SOL     OW29617   6.320   0.965   5.514
 9573SOL    HW129618   6.418   0.987   5.513
 9573SOL    HW229619   6.267   1.049   5.498
 9574SOL     OW29620   3.882   2.989   2.068
 9574SOL    HW129621   3.911   3.053   2.138
 9574SOL    HW229622   3.909   2.896   2.094
 9575SOL     OW29623   5.946   0.444   2.810
 9575SOL    HW129624   5.889   0.472   2.733
 9575SOL    HW229625   5.928   0.502   2.889
 9576SOL     OW29626   1.822   1.870   0.048
 9576SOL    HW129627   1.754   1.799   0.030
 9576SOL    HW229628   1.810   1.906   0.141
 9577SOL     OW29629   0.205   5.504   7.018
 9577SOL    HW129630   0.166   5.568   0.063
 9577SOL    HW229631   0.305   5.507   0.003
 9578SOL     OW29632   1.246   2.414   3.213
 9578SOL    HW129633   1.210   2.359   3.138
 9578SOL    HW229634   1.257   2.509   3.182
 9579SOL     OW29635   6.136   6.489   2.319
 9579SOL    HW129636   6.042   6.459   2.339
 9579SOL    HW229637   6.199   6.413   2.334
 9580SOL     OW29638   4.864   4.060   1.385
 9580SOL    HW129639   4.956   4.022   1.392
 9580SOL    HW229640   4.802   4.010   1.445
 9581SOL     OW29641   0.469   0.560   6.227
 9581SOL    HW129642   0.517   0.586   6.311
 9581SOL    HW229643   0.514   0.481   6.186
 9582SOL     OW29644   3.690   5.572   4.621
 9582SOL    HW129645   3.755   5.498   4.642
 9582SOL    HW229646   3.614   5.569   4.686
 9583SOL     OW29647   3.187   4.704   1.387
 9583SOL    HW129648   3.162   4.642   1.461
 9583SOL    HW229649   3.151   4.795   1.407
 9584SOL     OW29650   1.776   5.136   5.873
 9584SOL    HW129651   1.798   5.072   5.947
 9584SOL    HW229652   1.735   5.085   5.797
 9585SOL     OW29653   5.310   6.576   2.019
 9585SOL    HW129654   5.237   6.644   2.010
 9585SOL    HW229655   5.328   6.559   2.116
 9586SOL     OW29656   4.510   5.288   2.090
 9586SOL    HW129657   4.500   5.214   2.023
 9586SOL    HW229658   4.599   5.331   2.077
 9587SOL     OW29659   1.661   5.910   2.628
 9587SOL    HW129660   1.674   5.968   2.548
 9587SOL    HW229661   1.688   5.961   2.710
 9588SOL     OW29662   6.134   6.000   0.517
 9588SOL    HW129663   6.215   6.037   0.561
 9588SOL    HW229664   6.069   5.968   0.586
 9589SOL     OW29665   1.903   4.038   0.033
 9589SOL    HW129666   1.866   4.093   0.108
 9589SOL    HW229667   1.877   4.079   6.966
 9590SOL     OW29668   6.180   2.406   2.128
 9590SOL    HW129669   6.183   2.306   2.131
 9590SOL    HW229670   6.234   2.439   2.050
 9591SOL     OW29671   3.606   6.228   6.409
 9591SOL    HW129672   3.635   6.276   6.327
 9591SOL    HW229673   3.570   6.294   6.476
 9592SOL     OW29674   3.361   5.046   0.486
 9592SOL    HW129675   3.376   4.977   0.414
 9592SOL    HW229676   3.264   5.067   0.493
 9593SOL     OW29677   1.271   2.137   5.661
 9593SOL    HW129678   1.320   2.212   5.616
 9593SOL    HW229679   1.172   2.153   5.655
 9594SOL     OW29680   2.689   6.199   4.552
 9594SOL    HW129681   2.718   6.153   4.636
 9594SOL    HW229682   2.739   6.285   4.543
 9595SOL     OW29683   0.422   3.128   3.443
 9595SOL    HW129684   0.470   3.083   3.368
 9595SOL    HW229685   0.489   3.172   3.503
 9596SOL     OW29686   0.819   5.353   0.480
 9596SOL    HW129687   0.884   5.418   0.520
 9596SOL    HW229688   0.856   5.261   0.486
 9597SOL     OW29689   0.116   4.319   1.362
 9597SOL    HW129690   0.072   4.406   1.344
 9597SOL    HW229691   0.169   4.291   1.281
 9598SOL     OW29692   2.167   4.000   3.198
 9598SOL    HW129693   2.210   3.925   3.146
 9598SOL    HW229694   2.142   3.967   3.289
 9599SOL     OW29695   2.847   7.009   4.328
 9599SOL    HW129696   2.782   0.049   4.282
 9599SOL    HW229697   2.903   6.963   4.260
 9600SOL     OW29698   2.808   0.080   0.723
 9600SOL    HW129699   2.908   0.079   0.719
 9600SOL    HW229700   2.771   0.085   0.631
 9601SOL     OW29701   5.665   4.229   0.233
 9601SOL    HW129702   5.693   4.179   0.315
 9601SOL    HW229703   5.629   4.165   0.165
 9602SOL     OW29704   5.077   3.619   5.481
 9602SOL    HW129705   5.163   3.663   5.505
 9602SOL    HW229706   5.070   3.612   5.382
 9603SOL     OW29707   5.118   6.776   6.450
 9603SOL    HW129708   5.203   6.828   6.448
 9603SOL    HW229709   5.137   6.680   6.432
 9604SOL     OW29710   4.995   0.035   1.397
 9604SOL    HW129711   4.922   0.018   1.331
 9604SOL    HW229712   5.056   0.107   1.362
 9605SOL     OW29713   0.605   5.448   2.705
 9605SOL    HW129714   0.697   5.481   2.725
 9605SOL    HW229715   0.591   5.442   2.607
 9606SOL     OW29716   1.364   0.260   6.452
 9606SOL    HW129717   1.448   0.209   6.470
 9606SOL    HW229718   1.373   0.353   6.486
 9607SOL     OW29719   2.849   1.037   0.152
 9607SOL    HW129720   2.770   1.016   0.095
 9607SOL    HW229721   2.823   1.103   0.222
 9608SOL     OW29722   0.170   4.629   2.129
 9608SOL    HW129723   0.231   4.667   2.060
 9608SOL    HW229724   0.077   4.622   2.091
 9609SOL     OW29725   3.932   3.289   0.148
 9609SOL    HW129726   3.937   3.209   0.087
 9609SOL    HW229727   3.879   3.361   0.103
 9610SOL     OW29728   1.841   4.719   2.963
 9610SOL    HW129729   1.766   4.721   3.029
 9610SOL    HW229730   1.913   4.658   2.995
 9611SOL     OW29731   1.412   6.284   0.307
 9611SOL    HW129732   1.409   6.189   0.339
 9611SOL    HW229733   1.474   6.337   0.366
 9612SOL     OW29734   0.406   3.459   1.776
 9612SOL    HW129735   0.407   3.477   1.678
 9612SOL    HW229736   0.388   3.363   1.793
 9613SOL     OW29737   5.082   6.519   3.360
 9613SOL    HW129738   5.001   6.516   3.301
 9613SOL    HW229739   5.114   6.426   3.378
 9614SOL     OW29740   3.760   1.949   1.937
 9614SOL    HW129741   3.720   2.041   1.947
 9614SOL    HW229742   3.860   1.956   1.937
 9615SOL     OW29743   2.710   1.389   1.200
 9615SOL    HW129744   2.633   1.329   1.177
 9615SOL    HW229745   2.677   1.465   1.257
 9616SOL     OW29746   3.658   3.697   1.137
 9616SOL    HW129747   3.574   3.705   1.083
 9616SOL    HW229748   3.660   3.769   1.206
 9617SOL     OW29749   1.926   2.971   3.604
 9617SOL    HW129750   1.918   2.873   3.621
 9617SOL    HW229751   1.908   2.990   3.508
 9618SOL     OW29752   2.858   0.348   1.093
 9618SOL    HW129753   2.786   0.345   1.162
 9618SOL    HW229754   2.819   0.330   1.003
 9619SOL     OW29755   2.149   0.675   5.616
 9619SOL    HW129756   2.207   0.671   5.697
 9619SOL    HW229757   2.156   0.766   5.575
 9620SOL     OW29758   4.180   0.262   4.962
 9620SOL    HW129759   4.151   0.313   5.043
 9620SOL    HW229760   4.172   0.163   4.979
 9621SOL     OW29761   1.751   3.097   1.715
 9621SOL    HW129762   1.708   3.186   1.729
 9621SOL    HW229763   1.822   3.083   1.783
 9622SOL     OW29764   5.942   1.788   0.575
 9622SOL    HW129765   6.027   1.802   0.625
 9622SOL    HW229766   5.866   1.829   0.626
 9623SOL     OW29767   2.350   3.319   5.997
 9623SOL    HW129768   2.353   3.419   5.986
 9623SOL    HW229769   2.434   3.287   6.039
 9624SOL     OW29770   5.873   4.021   3.113
 9624SOL    HW129771   5.949   3.971   3.073
 9624SOL    HW229772   5.889   4.119   3.103
 9625SOL     OW29773   5.347   5.084   0.343
 9625SOL    HW129774   5.269   5.133   0.304
 9625SOL    HW229775   5.426   5.145   0.345
 9626SOL     OW29776   4.322   5.220   0.468
 9626SOL    HW129777   4.245   5.181   0.520
 9626SOL    HW229778   4.286   5.274   0.392
 9627SOL     OW29779   0.863   6.424   6.423
 9627SOL    HW129780   0.853   6.350   6.490
 9627SOL    HW229781   0.945   6.409   6.369
 9628SOL     OW29782   5.467   4.782   1.169
 9628SOL    HW129783   5.563   4.800   1.149
 9628SOL    HW229784   5.433   4.712   1.107
 9629SOL     OW29785   1.954   0.418   1.354
 9629SOL    HW129786   2.042   0.443   1.313
 9629SOL    HW229787   1.890   0.495   1.347
 9630SOL     OW29788   6.135   6.521   4.670
 9630SOL    HW129789   6.123   6.572   4.585
 9630SOL    HW229790   6.054   6.531   4.727
 9631SOL     OW29791   6.900   6.702   6.123
 9631SOL    HW129792   6.976   6.672   6.065
 9631SOL    HW229793   6.937   6.746   6.205
 9632SOL     OW29794   1.471   6.647   2.781
 9632SOL    HW129795   1.532   6.568   2.770
 9632SOL    HW229796   1.463   6.669   2.878
 9633SOL     OW29797   5.286   4.691   6.774
 9633SOL    HW129798   5.380   4.714   6.797
 9633SOL    HW229799   5.238   4.659   6.855
 9634SOL     OW29800   1.222   6.312   3.924
 9634SOL    HW129801   1.262   6.345   3.838
 9634SOL    HW229802   1.189   6.218   3.911
 9635SOL     OW29803   2.010   6.671   4.947
 9635SOL    HW129804   1.933   6.624   4.990
 9635SOL    HW229805   2.002   6.665   4.847
 9636SOL     OW29806   4.031   1.609   5.719
 9636SOL    HW129807   4.073   1.605   5.628
 9636SOL    HW229808   4.004   1.517   5.747
 9637SOL     OW29809   2.465   2.689   6.580
 9637SOL    HW129810   2.402   2.761   6.611
 9637SOL    HW229811   2.416   2.626   6.521
 9638SOL     OW29812   0.328   3.483   6.072
 9638SOL    HW129813   0.426   3.495   6.061
 9638SOL    HW229814   0.282   3.571   6.058
 9639SOL     OW29815   4.169   1.748   1.917
 9639SOL    HW129816   4.134   1.682   1.984
 9639SOL    HW229817   4.256   1.784   1.949
 9640SOL     OW29818   2.241   2.890   3.828
 9640SOL    HW129819   2.169   2.822   3.846
 9640SOL    HW229820   2.208   2.955   3.760
 9641SOL     OW29821   4.555   0.396   0.422
 9641SOL    HW129822   4.459   0.383   0.399
 9641SOL    HW229823   4.572   0.361   0.515
 9642SOL     OW29824   2.582   0.190   4.895
 9642SOL    HW129825   2.573   0.127   4.972
 9642SOL    HW229826   2.647   0.153   4.828
 9643SOL     OW29827   5.513   4.144   3.517
 9643SOL    HW129828   5.451   4.075   3.479
 9643SOL    HW229829   5.463   4.230   3.531
 9644SOL     OW29830   1.060   3.296   6.426
 9644SOL    HW129831   1.063   3.376   6.366
 9644SOL    HW229832   1.070   3.325   6.521
 9645SOL     OW29833   2.569   5.056   4.937
 9645SOL    HW129834   2.500   5.097   4.996
 9645SOL    HW229835   2.540   4.965   4.909
 9646SOL     OW29836   3.775   5.163   2.795
 9646SOL    HW129837   3.814   5.184   2.705
 9646SOL    HW229838   3.755   5.065   2.801
 9647SOL     OW29839   6.203   3.812   1.164
 9647SOL    HW129840   6.175   3.743   1.097
 9647SOL    HW229841   6.190   3.777   1.256
 9648SOL     OW29842   3.803   1.785   1.086
 9648SOL    HW129843   3.832   1.827   1.001
 9648SOL    HW229844   3.765   1.694   1.068
 9649SOL     OW29845   2.822   6.587   0.166
 9649SOL    HW129846   2.828   6.629   0.256
 9649SOL    HW229847   2.744   6.624   0.116
 9650SOL     OW29848   0.269   5.227   2.457
 9650SOL    HW129849   0.293   5.243   2.361
 9650SOL    HW229850   0.222   5.139   2.466
 9651SOL     OW29851   6.951   2.291   5.729
 9651SOL    HW129852   0.001   2.359   5.706
 9651SOL    HW229853   6.882   2.289   5.656
 9652SOL     OW29854   0.957   4.959   1.176
 9652SOL    HW129855   1.037   4.910   1.142
 9652SOL    HW229856   0.902   4.899   1.234
 9653SOL     OW29857   4.102   4.801   5.082
 9653SOL    HW129858   4.136   4.795   4.988
 9653SOL    HW229859   4.124   4.892   5.118
 9654SOL     OW29860   2.937   2.159   1.503
 9654SOL    HW129861   2.980   2.082   1.549
 9654SOL    HW229862   3.005   2.206   1.446
 9655SOL     OW29863   6.991   2.031   5.930
 9655SOL    HW129864   0.067   2.008   5.934
 9655SOL    HW229865   6.978   2.116   5.878
 9656SOL     OW29866   2.858   0.453   2.460
 9656SOL    HW129867   2.808   0.480   2.377
 9656SOL    HW229868   2.956   0.458   2.442
 9657SOL     OW29869   5.168   1.014   4.524
 9657SOL    HW129870   5.156   1.109   4.495
 9657SOL    HW229871   5.212   1.013   4.614
 9658SOL     OW29872   0.243   2.214   2.098
 9658SOL    HW129873   0.179   2.264   2.155
 9658SOL    HW229874   0.327   2.197   2.149
 9659SOL     OW29875   6.994   3.840   0.592
 9659SOL    HW129876   0.071   3.831   0.612
 9659SOL    HW229877   6.943   3.852   0.677
 9660SOL     OW29878   0.431   6.149   1.270
 9660SOL    HW129879   0.527   6.169   1.248
 9660SOL    HW229880   0.372   6.199   1.207
 9661SOL     OW29881   4.895   6.160   1.170
 9661SOL    HW129882   4.941   6.235   1.218
 9661SOL    HW229883   4.904   6.174   1.071
 9662SOL     OW29884   6.035   2.813   4.936
 9662SOL    HW129885   6.111   2.866   4.974
 9662SOL    HW229886   6.064   2.719   4.922
 9663SOL     OW29887   1.546   5.488   3.557
 9663SOL    HW129888   1.502   5.484   3.646
 9663SOL    HW229889   1.631   5.436   3.559
 9664SOL     OW29890   4.512   6.566   2.732
 9664SOL    HW129891   4.467   6.609   2.810
 9664SOL    HW229892   4.571   6.633   2.686
 9665SOL     OW29893   6.076   4.804   5.144
 9665SOL    HW129894   6.054   4.766   5.234
 9665SOL    HW229895   6.155   4.756   5.106
 9666SOL     OW29896   6.077   4.014   1.695
 9666SOL    HW129897   6.107   3.982   1.604
 9666SOL    HW229898   6.065   4.113   1.692
 9667SOL     OW29899   3.959   3.887   3.958
 9667SOL    HW129900   3.913   3.969   3.991
 9667SOL    HW229901   4.049   3.879   4.000
 9668SOL     OW29902   6.926   1.181   5.667
 9668SOL    HW129903   7.004   1.198   5.727
 9668SOL    HW229904   6.845   1.159   5.723
 9669SOL     OW29905   0.457   0.517   0.386
 9669SOL    HW129906   0.368   0.475   0.400
 9669SOL    HW229907   0.471   0.589   0.454
 9670SOL     OW29908   4.693   4.728   5.967
 9670SOL    HW129909   4.609   4.676   5.954
 9670SOL    HW229910   4.687   4.781   6.051
 9671SOL     OW29911   6.957   5.459   5.865
 9671SOL    HW129912   6.957   5.377   5.922
 9671SOL    HW229913   6.927   5.537   5.919
 9672SOL     OW29914   1.392   6.629   4.850
 9672SOL    HW129915   1.353   6.690   4.920
 9672SOL    HW229916   1.333   6.548   4.840
 9673SOL     OW29917   3.812   4.462   6.672
 9673SOL    HW129918   3.814   4.469   6.572
 9673SOL    HW229919   3.721   4.489   6.705
 9674SOL     OW29920   2.965   5.988   1.706
 9674SOL    HW129921   2.960   6.055   1.780
 9674SOL    HW229922   2.881   5.993   1.651
 9675SOL     OW29923   6.138   0.885   2.166
 9675SOL    HW129924   6.216   0.826   2.145
 9675SOL    HW229925   6.159   0.979   2.141
 9676SOL     OW29926   1.181   3.522   5.194
 9676SOL    HW129927   1.259   3.580   5.168
 9676SOL    HW229928   1.183   3.508   5.293
 9677SOL     OW29929   2.587   4.058   6.157
 9677SOL    HW129930   2.670   4.062   6.213
 9677SOL    HW229931   2.607   4.095   6.066
 9678SOL     OW29932   4.118   3.633   2.699
 9678SOL    HW129933   4.149   3.604   2.609
 9678SOL    HW229934   4.068   3.559   2.743
 9679SOL     OW29935   1.314   3.086   1.836
 9679SOL    HW129936   1.287   3.174   1.874
 9679SOL    HW229937   1.348   3.027   1.909
 9680SOL     OW29938   5.605   6.044   3.395
 9680SOL    HW129939   5.682   5.988   3.364
 9680SOL    HW229940   5.572   6.010   3.483
 9681SOL     OW29941   1.982   0.824   1.269
 9681SOL    HW129942   2.040   0.819   1.188
 9681SOL    HW229943   2.035   0.860   1.346
 9682SOL     OW29944   5.226   4.789   3.200
 9682SOL    HW129945   5.312   4.761   3.242
 9682SOL    HW229946   5.230   4.770   3.102
 9683SOL     OW29947   3.842   5.353   0.191
 9683SOL    HW129948   3.800   5.263   0.206
 9683SOL    HW229949   3.905   5.373   0.266
 9684SOL     OW29950   0.155   3.925   4.638
 9684SOL    HW129951   0.247   3.961   4.653
 9684SOL    HW229952   0.095   3.999   4.609
 9685SOL     OW29953   2.517   3.179   0.855
 9685SOL    HW129954   2.563   3.154   0.770
 9685SOL    HW229955   2.439   3.118   0.871
 9686SOL     OW29956   6.888   1.081   1.473
 9686SOL    HW129957   6.844   1.147   1.413
 9686SOL    HW229958   6.837   1.075   1.559
 9687SOL     OW29959   2.679   0.581   2.894
 9687SOL    HW129960   2.713   0.659   2.841
 9687SOL    HW229961   2.584   0.597   2.919
 9688SOL     OW29962   0.465   2.125   3.230
 9688SOL    HW129963   0.385   2.069   3.207
 9688SOL    HW229964   0.454   2.163   3.321
 9689SOL     OW29965   2.067   6.419   6.782
 9689SOL    HW129966   2.097   6.455   6.694
 9689SOL    HW229967   2.130   6.448   6.854
 9690SOL     OW29968   6.240   4.842   0.131
 9690SOL    HW129969   6.167   4.836   0.200
 9690SOL    HW229970   6.323   4.878   0.173
 9691SOL     OW29971   1.926   5.199   1.679
 9691SOL    HW129972   1.938   5.282   1.624
 9691SOL    HW229973   2.015   5.154   1.690
 9692SOL     OW29974   2.772   5.057   2.030
 9692SOL    HW129975   2.802   5.114   2.107
 9692SOL    HW229976   2.835   4.979   2.021
 9693SOL     OW29977   6.615   5.314   1.908
 9693SOL    HW129978   6.535   5.266   1.873
 9693SOL    HW229979   6.617   5.407   1.872
 9694SOL     OW29980   2.129   1.887   0.028
 9694SOL    HW129981   2.040   1.927   0.047
 9694SOL    HW229982   2.177   1.869   0.115
 9695SOL     OW29983   5.784   4.319   0.575
 9695SOL    HW129984   5.792   4.242   0.512
 9695SOL    HW229985   5.853   4.311   0.647
 9696SOL     OW29986   3.729   2.744   1.797
 9696SOL    HW129987   3.722   2.842   1.815
 9696SOL    HW229988   3.824   2.722   1.775
 9697SOL     OW29989   0.882   4.896   7.002
 9697SOL    HW129990   0.853   4.833   0.053
 9697SOL    HW229991   0.975   4.874   6.974
 9698SOL     OW29992   5.966   0.651   4.828
 9698SOL    HW129993   6.029   0.575   4.809
 9698SOL    HW229994   6.010   0.737   4.802
 9699SOL     OW29995   1.065   3.651   6.683
 9699SOL    HW129996   1.023   3.700   6.759
 9699SOL    HW229997   1.034   3.692   6.596
 9700SOL     OW29998   3.839   4.794   5.197
 9700SOL    HW129999   3.823   4.893   5.198
 9700SOL    HW230000   3.914   4.774   5.134
 9701SOL     OW30001   3.726   5.575   5.051
 9701SOL    HW130002   3.670   5.578   4.968
 9701SOL    HW230003   3.675   5.615   5.127
 9702SOL     OW30004   5.200   1.234   0.641
 9702SOL    HW130005   5.143   1.315   0.653
 9702SOL    HW230006   5.289   1.260   0.603
 9703SOL     OW30007   3.197   5.661   4.317
 9703SOL    HW130008   3.120   5.624   4.265
 9703SOL    HW230009   3.272   5.594   4.318
 9704SOL     OW30010   3.236   0.004   2.986
 9704SOL    HW130011   3.150   7.009   3.035
 9704SOL    HW230012   3.308   6.968   3.027
 9705SOL     OW30013   4.007   5.207   0.426
 9705SOL    HW130014   3.917   5.231   0.463
 9705SOL    HW230015   3.998   5.128   0.366
 9706SOL     OW30016   6.577   2.855   1.030
 9706SOL    HW130017   6.667   2.877   1.069
 9706SOL    HW230018   6.533   2.785   1.086
 9707SOL     OW30019   1.037   4.014   2.361
 9707SOL    HW130020   1.094   3.972   2.290
 9707SOL    HW230021   0.941   3.987   2.346
 9708SOL     OW30022   1.786   2.448   3.918
 9708SOL    HW130023   1.788   2.438   4.018
 9708SOL    HW230024   1.879   2.441   3.882
 9709SOL     OW30025   0.933   6.431   3.636
 9709SOL    HW130026   1.009   6.388   3.588
 9709SOL    HW230027   0.909   6.376   3.716
 9710SOL     OW30028   0.131   1.130   2.848
 9710SOL    HW130029   0.150   1.034   2.827
 9710SOL    HW230030   0.210   1.170   2.894
 9711SOL     OW30031   1.448   3.009   5.966
 9711SOL    HW130032   1.419   3.095   6.009
 9711SOL    HW230033   1.452   2.937   6.035
 9712SOL     OW30034   5.568   2.240   4.768
 9712SOL    HW130035   5.479   2.269   4.804
 9712SOL    HW230036   5.617   2.320   4.732
 9713SOL     OW30037   0.456   4.570   3.225
 9713SOL    HW130038   0.423   4.563   3.131
 9713SOL    HW230039   0.518   4.647   3.233
 9714SOL     OW30040   2.230   1.429   1.512
 9714SOL    HW130041   2.288   1.462   1.438
 9714SOL    HW230042   2.144   1.481   1.512
 9715SOL     OW30043   5.963   5.519   4.933
 9715SOL    HW130044   5.930   5.536   4.840
 9715SOL    HW230045   5.976   5.421   4.946
 9716SOL     OW30046   4.072   2.077   6.516
 9716SOL    HW130047   3.977   2.046   6.512
 9716SOL    HW230048   4.119   2.050   6.432
 9717SOL     OW30049   5.051   5.666   4.047
 9717SOL    HW130050   5.066   5.763   4.034
 9717SOL    HW230051   4.958   5.651   4.083
 9718SOL     OW30052   3.959   3.348   1.239
 9718SOL    HW130053   4.027   3.307   1.300
 9718SOL    HW230054   3.899   3.408   1.292
 9719SOL     OW30055   0.733   2.205   0.472
 9719SOL    HW130056   0.803   2.263   0.431
 9719SOL    HW230057   0.649   2.210   0.417
 9720SOL     OW30058   0.272   6.089   2.230
 9720SOL    HW130059   0.199   6.158   2.230
 9720SOL    HW230060   0.241   6.007   2.183
 9721SOL     OW30061   0.549   3.281   2.028
 9721SOL    HW130062   0.586   3.374   2.019
 9721SOL    HW230063   0.604   3.218   1.973
 9722SOL     OW30064   0.117   0.945   3.429
 9722SOL    HW130065   0.156   0.854   3.412
 9722SOL    HW230066   0.144   1.008   3.356
 9723SOL     OW30067   0.591   6.740   3.044
 9723SOL    HW130068   0.648   6.750   2.962
 9723SOL    HW230069   0.640   6.683   3.111
 9724SOL     OW30070   3.067   2.622   1.705
 9724SOL    HW130071   3.023   2.711   1.695
 9724SOL    HW230072   3.013   2.565   1.767
 9725SOL     OW30073   4.425   3.383   6.341
 9725SOL    HW130074   4.375   3.438   6.275
 9725SOL    HW230075   4.491   3.325   6.293
 9726SOL     OW30076   5.387   6.879   4.885
 9726SOL    HW130077   5.417   6.974   4.884
 9726SOL    HW230078   5.409   6.836   4.798
 9727SOL     OW30079   1.103   3.499   5.465
 9727SOL    HW130080   1.004   3.484   5.454
 9727SOL    HW230081   1.139   3.434   5.531
 9728SOL     OW30082   1.608   6.357   6.160
 9728SOL    HW130083   1.612   6.448   6.201
 9728SOL    HW230084   1.598   6.366   6.061
 9729SOL     OW30085   1.449   4.578   2.990
 9729SOL    HW130086   1.466   4.578   2.891
 9729SOL    HW230087   1.379   4.510   3.012
 9730SOL     OW30088   6.848   3.427   2.470
 9730SOL    HW130089   6.915   3.500   2.456
 9730SOL    HW230090   6.757   3.461   2.447
 9731SOL     OW30091   4.204   5.226   0.749
 9731SOL    HW130092   4.129   5.160   0.754
 9731SOL    HW230093   4.269   5.208   0.823
 9732SOL     OW30094   0.198   5.889   2.522
 9732SOL    HW130095   0.229   5.901   2.616
 9732SOL    HW230096   0.108   5.932   2.511
 9733SOL     OW30097   5.809   4.885   5.091
 9733SOL    HW130098   5.754   4.804   5.113
 9733SOL    HW230099   5.906   4.861   5.094
 9734SOL     OW30100   5.589   1.745   4.147
 9734SOL    HW130101   5.525   1.811   4.106
 9734SOL    HW230102   5.559   1.652   4.124
 9735SOL     OW30103   2.153   5.303   2.873
 9735SOL    HW130104   2.109   5.215   2.858
 9735SOL    HW230105   2.108   5.350   2.949
 9736SOL     OW30106   5.477   0.851   6.902
 9736SOL    HW130107   5.571   0.864   6.871
 9736SOL    HW230108   5.420   0.924   6.866
 9737SOL     OW30109   4.171   2.220   4.860
 9737SOL    HW130110   4.194   2.302   4.912
 9737SOL    HW230111   4.184   2.139   4.917
 9738SOL     OW30112   1.467   0.746   3.633
 9738SOL    HW130113   1.466   0.653   3.670
 9738SOL    HW230114   1.516   0.747   3.546
 9739SOL     OW30115   7.020   4.697   1.545
 9739SOL    HW130116   6.958   4.675   1.620
 9739SOL    HW230117   0.079   4.637   1.548
 9740SOL     OW30118   5.977   3.818   2.853
 9740SOL    HW130119   5.949   3.796   2.760
 9740SOL    HW230120   6.043   3.749   2.885
 9741SOL     OW30121   4.524   1.404   2.290
 9741SOL    HW130122   4.496   1.481   2.348
 9741SOL    HW230123   4.479   1.320   2.322
 9742SOL     OW30124   5.402   0.707   3.046
 9742SOL    HW130125   5.482   0.758   3.079
 9742SOL    HW230126   5.374   0.742   2.957
 9743SOL     OW30127   1.759   2.734   5.840
 9743SOL    HW130128   1.680   2.702   5.893
 9743SOL    HW230129   1.837   2.674   5.856
 9744SOL     OW30130   1.561   0.736   2.123
 9744SOL    HW130131   1.611   0.815   2.088
 9744SOL    HW230132   1.493   0.767   2.190
 9745SOL     OW30133   0.940   2.160   4.918
 9745SOL    HW130134   1.032   2.188   4.891
 9745SOL    HW230135   0.874   2.191   4.850
 9746SOL     OW30136   5.271   1.088   5.422
 9746SOL    HW130137   5.328   1.156   5.469
 9746SOL    HW230138   5.261   1.008   5.480
 9747SOL     OW30139   1.143   0.787   0.957
 9747SOL    HW130140   1.062   0.822   1.005
 9747SOL    HW230141   1.143   0.687   0.959
 9748SOL     OW30142   1.558   5.950   4.482
 9748SOL    HW130143   1.521   6.017   4.417
 9748SOL    HW230144   1.488   5.924   4.547
 9749SOL     OW30145   1.320   3.189   5.204
 9749SOL    HW130146   1.306   3.284   5.174
 9749SOL    HW230147   1.416   3.177   5.232
 9750SOL     OW30148   5.253   4.509   3.931
 9750SOL    HW130149   5.350   4.532   3.939
 9750SOL    HW230150   5.207   4.575   3.872
 9751SOL     OW30151   1.436   1.981   1.023
 9751SOL    HW130152   1.396   1.993   0.932
 9751SOL    HW230153   1.534   2.000   1.019
 9752SOL     OW30154   4.182   0.358   6.066
 9752SOL    HW130155   4.131   0.360   6.152
 9752SOL    HW230156   4.222   0.447   6.049
 9753SOL     OW30157   6.815   5.766   5.027
 9753SOL    HW130158   6.894   5.721   5.068
 9753SOL    HW230159   6.824   5.866   5.036
 9754SOL     OW30160   1.389   1.419   6.916
 9754SOL    HW130161   1.318   1.442   6.849
 9754SOL    HW230162   1.359   1.445   7.007
 9755SOL     OW30163   4.029   3.207   5.155
 9755SOL    HW130164   3.956   3.166   5.101
 9755SOL    HW230165   4.089   3.135   5.190
 9756SOL     OW30166   6.006   3.145   6.886
 9756SOL    HW130167   5.951   3.150   6.970
 9756SOL    HW230168   6.005   3.051   6.852
 9757SOL     OW30169   5.018   2.666   3.335
 9757SOL    HW130170   5.030   2.764   3.322
 9757SOL    HW230171   5.088   2.631   3.397
 9758SOL     OW30172   2.068   0.112   6.320
 9758SOL    HW130173   2.075   0.199   6.272
 9758SOL    HW230174   2.024   0.125   6.408
 9759SOL     OW30175   1.897   6.210   1.481
 9759SOL    HW130176   1.823   6.144   1.486
 9759SOL    HW230177   1.860   6.300   1.457
 9760SOL     OW30178   5.570   4.729   4.887
 9760SOL    HW130179   5.516   4.645   4.882
 9760SOL    HW230180   5.527   4.799   4.830
 9761SOL     OW30181   5.411   4.800   1.642
 9761SOL    HW130182   5.478   4.763   1.706
 9761SOL    HW230183   5.321   4.759   1.660
 9762SOL     OW30184   2.117   1.658   4.872
 9762SOL    HW130185   2.026   1.617   4.875
 9762SOL    HW230186   2.122   1.735   4.935
 9763SOL     OW30187   4.276   1.163   1.851
 9763SOL    HW130188   4.299   1.214   1.768
 9763SOL    HW230189   4.218   1.220   1.909
 9764SOL     OW30190   1.209   2.400   3.711
 9764SOL    HW130191   1.165   2.357   3.633
 9764SOL    HW230192   1.300   2.432   3.685
 9765SOL     OW30193   6.435   2.247   5.447
 9765SOL    HW130194   6.414   2.152   5.470
 9765SOL    HW230195   6.505   2.250   5.376
 9766SOL     OW30196   3.419   0.722   3.296
 9766SOL    HW130197   3.401   0.807   3.345
 9766SOL    HW230198   3.487   0.669   3.347
 9767SOL     OW30199   5.591   0.964   5.383
 9767SOL    HW130200   5.551   0.902   5.451
 9767SOL    HW230201   5.563   0.935   5.291
 9768SOL     OW30202   4.442   2.126   2.607
 9768SOL    HW130203   4.463   2.204   2.549
 9768SOL    HW230204   4.344   2.126   2.629
 9769SOL     OW30205   1.273   2.254   1.042
 9769SOL    HW130206   1.252   2.346   1.007
 9769SOL    HW230207   1.357   2.257   1.096
 9770SOL     OW30208   5.757   5.438   5.615
 9770SOL    HW130209   5.733   5.374   5.542
 9770SOL    HW230210   5.687   5.510   5.622
 9771SOL     OW30211   4.745   4.826   0.585
 9771SOL    HW130212   4.742   4.874   0.673
 9771SOL    HW230213   4.818   4.864   0.529
 9772SOL     OW30214   0.081   6.886   1.996
 9772SOL    HW130215   0.109   6.791   1.985
 9772SOL    HW230216   0.091   6.933   1.908
 9773SOL     OW30217   5.723   5.537   3.737
 9773SOL    HW130218   5.687   5.611   3.795
 9773SOL    HW230219   5.681   5.451   3.763
 9774SOL     OW30220   5.841   5.294   3.642
 9774SOL    HW130221   5.785   5.247   3.710
 9774SOL    HW230222   5.840   5.392   3.660
 9775SOL     OW30223   1.945   2.791   4.758
 9775SOL    HW130224   2.010   2.732   4.806
 9775SOL    HW230225   1.864   2.805   4.815
 9776SOL     OW30226   6.826   5.565   4.358
 9776SOL    HW130227   6.780   5.521   4.435
 9776SOL    HW230228   6.835   5.663   4.376
 9777SOL     OW30229   6.022   4.259   6.106
 9777SOL    HW130230   6.070   4.189   6.159
 9777SOL    HW230231   6.078   4.341   6.100
 9778SOL     OW30232   4.797   6.682   2.985
 9778SOL    HW130233   4.742   6.740   3.045
 9778SOL    HW230234   4.787   6.713   2.890
 9779SOL     OW30235   2.783   1.619   4.989
 9779SOL    HW130236   2.711   1.588   5.051
 9779SOL    HW230237   2.872   1.585   5.020
 9780SOL     OW30238   2.238   3.041   0.256
 9780SOL    HW130239   2.157   3.097   0.276
 9780SOL    HW230240   2.214   2.944   0.265
 9781SOL     OW30241   2.497   4.526   4.961
 9781SOL    HW130242   2.411   4.486   4.994
 9781SOL    HW230243   2.559   4.541   5.038
 9782SOL     OW30244   6.764   0.344   1.458
 9782SOL    HW130245   6.822   0.424   1.441
 9782SOL    HW230246   6.691   0.340   1.390
 9783SOL     OW30247   6.114   1.317   2.257
 9783SOL    HW130248   6.169   1.400   2.247
 9783SOL    HW230249   6.027   1.329   2.209
 9784SOL     OW30250   4.382   1.346   2.946
 9784SOL    HW130251   4.318   1.301   2.884
 9784SOL    HW230252   4.332   1.410   3.004
 9785SOL     OW30253   0.216   2.661   2.742
 9785SOL    HW130254   0.256   2.717   2.815
 9785SOL    HW230255   0.277   2.663   2.662
 9786SOL     OW30256   2.532   5.227   5.847
 9786SOL    HW130257   2.544   5.324   5.824
 9786SOL    HW230258   2.592   5.204   5.924
 9787SOL     OW30259   5.120   4.100   1.694
 9787SOL    HW130260   5.210   4.140   1.711
 9787SOL    HW230261   5.119   4.005   1.724
 9788SOL     OW30262   6.936   0.239   4.365
 9788SOL    HW130263   6.984   0.193   4.290
 9788SOL    HW230264   6.968   0.202   4.453
 9789SOL     OW30265   2.186   6.160   5.175
 9789SOL    HW130266   2.126   6.183   5.099
 9789SOL    HW230267   2.275   6.131   5.140
 9790SOL     OW30268   5.799   2.030   4.077
 9790SOL    HW130269   5.760   1.940   4.096
 9790SOL    HW230270   5.829   2.072   4.163
 9791SOL     OW30271   1.474   0.944   1.266
 9791SOL    HW130272   1.498   1.034   1.231
 9791SOL    HW230273   1.456   0.882   1.189
 9792SOL     OW30274   4.539   4.670   1.139
 9792SOL    HW130275   4.439   4.682   1.144
 9792SOL    HW230276   4.567   4.604   1.209
 9793SOL     OW30277   5.632   5.975   2.320
 9793SOL    HW130278   5.633   6.060   2.266
 9793SOL    HW230279   5.542   5.932   2.311
 9794SOL     OW30280   5.115   2.970   5.787
 9794SOL    HW130281   5.147   2.915   5.710
 9794SOL    HW230282   5.054   3.042   5.754
 9795SOL     OW30283   1.512   3.585   4.278
 9795SOL    HW130284   1.600   3.537   4.274
 9795SOL    HW230285   1.521   3.669   4.331
 9796SOL     OW30286   2.888   5.334   0.676
 9796SOL    HW130287   2.943   5.414   0.654
 9796SOL    HW230288   2.948   5.260   0.708
 9797SOL     OW30289   4.667   3.520   6.450
 9797SOL    HW130290   4.593   3.454   6.435
 9797SOL    HW230291   4.682   3.571   6.366
 9798SOL     OW30292   2.837   0.555   1.329
 9798SOL    HW130293   2.838   0.484   1.399
 9798SOL    HW230294   2.745   0.563   1.291
 9799SOL     OW30295   2.991   3.194   2.480
 9799SOL    HW130296   3.027   3.102   2.463
 9799SOL    HW230297   2.958   3.199   2.574
 9800SOL     OW30298   4.373   5.389   6.953
 9800SOL    HW130299   4.451   5.449   6.936
 9800SOL    HW230300   4.374   5.359   0.028
 9801SOL     OW30301   4.385   5.991   0.051
 9801SOL    HW130302   4.462   6.002   0.114
 9801SOL    HW230303   4.402   5.911   7.013
 9802SOL     OW30304   1.021   3.309   0.936
 9802SOL    HW130305   1.048   3.239   0.869
 9802SOL    HW230306   1.103   3.351   0.975
 9803SOL     OW30307   6.425   0.360   6.840
 9803SOL    HW130308   6.345   0.381   6.896
 9803SOL    HW230309   6.488   0.303   6.893
 9804SOL     OW30310   6.720   5.680   4.031
 9804SOL    HW130311   6.799   5.623   4.005
 9804SOL    HW230312   6.669   5.634   4.104
 9805SOL     OW30313   1.460   5.345   6.874
 9805SOL    HW130314   1.492   5.290   6.797
 9805SOL    HW230315   1.534   5.405   6.904
 9806SOL     OW30316   7.008   2.826   1.617
 9806SOL    HW130317   6.915   2.822   1.651
 9806SOL    HW230318   0.044   2.881   1.679
 9807SOL     OW30319   4.142   2.147   0.197
 9807SOL    HW130320   4.077   2.114   0.266
 9807SOL    HW230321   4.203   2.073   0.170
 9808SOL     OW30322   6.963   1.824   4.999
 9808SOL    HW130323   6.927   1.772   5.077
 9808SOL    HW230324   6.908   1.804   4.918
 9809SOL     OW30325   0.188   1.490   4.228
 9809SOL    HW130326   0.205   1.398   4.191
 9809SOL    HW230327   0.091   1.501   4.247
 9810SOL     OW30328   2.648   1.361   3.115
 9810SOL    HW130329   2.648   1.460   3.097
 9810SOL    HW230330   2.627   1.312   3.031
 9811SOL     OW30331   6.575   6.147   2.812
 9811SOL    HW130332   6.578   6.070   2.877
 9811SOL    HW230333   6.632   6.221   2.846
 9812SOL     OW30334   4.905   2.179   6.196
 9812SOL    HW130335   4.959   2.223   6.267
 9812SOL    HW230336   4.813   2.219   6.193
 9813SOL     OW30337   6.554   4.927   6.915
 9813SOL    HW130338   6.467   4.924   6.866
 9813SOL    HW230339   6.538   4.950   7.011
 9814SOL     OW30340   6.745   6.825   5.863
 9814SOL    HW130341   6.706   6.817   5.954
 9814SOL    HW230342   6.732   6.919   5.830
 9815SOL     OW30343   6.343   3.170   1.597
 9815SOL    HW130344   6.376   3.217   1.678
 9815SOL    HW230345   6.268   3.222   1.555
 9816SOL     OW30346   0.064   0.334   6.862
 9816SOL    HW130347   0.126   0.292   6.795
 9816SOL    HW230348   0.031   0.422   6.827
 9817SOL     OW30349   3.628   5.867   1.321
 9817SOL    HW130350   3.685   5.804   1.269
 9817SOL    HW230351   3.592   5.821   1.402
 9818SOL     OW30352   1.130   0.034   3.693
 9818SOL    HW130353   1.226   0.009   3.682
 9818SOL    HW230354   1.121   0.100   3.768
 9819SOL     OW30355   6.534   4.242   5.038
 9819SOL    HW130356   6.459   4.271   5.098
 9819SOL    HW230357   6.501   4.172   4.974
 9820SOL     OW30358   3.284   1.958   6.084
 9820SOL    HW130359   3.357   1.935   6.149
 9820SOL    HW230360   3.324   1.972   5.993
 9821SOL     OW30361   4.840   2.509   1.637
 9821SOL    HW130362   4.915   2.574   1.632
 9821SOL    HW230363   4.800   2.496   1.547
 9822SOL     OW30364   3.980   6.101   5.065
 9822SOL    HW130365   3.904   6.165   5.053
 9822SOL    HW230366   3.961   6.017   5.013
 9823SOL     OW30367   1.743   0.611   3.078
 9823SOL    HW130368   1.647   0.600   3.104
 9823SOL    HW230369   1.794   0.530   3.105
 9824SOL     OW30370   1.472   5.898   5.572
 9824SOL    HW130371   1.495   5.856   5.659
 9824SOL    HW230372   1.534   5.865   5.501
 9825SOL     OW30373   5.321   6.257   6.229
 9825SOL    HW130374   5.345   6.274   6.134
 9825SOL    HW230375   5.241   6.198   6.234
 9826SOL     OW30376   2.717   6.470   5.860
 9826SOL    HW130377   2.651   6.503   5.928
 9826SOL    HW230378   2.684   6.493   5.768
 9827SOL     OW30379   1.596   5.145   2.022
 9827SOL    HW130380   1.566   5.115   1.932
 9827SOL    HW230381   1.613   5.065   2.080
 9828SOL     OW30382   3.604   1.787   5.149
 9828SOL    HW130383   3.523   1.760   5.097
 9828SOL    HW230384   3.580   1.795   5.246
 9829SOL     OW30385   4.487   5.662   5.786
 9829SOL    HW130386   4.557   5.695   5.722
 9829SOL    HW230387   4.503   5.566   5.807
 9830SOL     OW30388   5.735   1.924   2.998
 9830SOL    HW130389   5.681   1.843   2.971
 9830SOL    HW230390   5.822   1.924   2.949
 9831SOL     OW30391   0.666   3.778   1.703
 9831SOL    HW130392   0.694   3.869   1.671
 9831SOL    HW230393   0.736   3.742   1.765
 9832SOL     OW30394   4.506   4.676   4.488
 9832SOL    HW130395   4.540   4.743   4.422
 9832SOL    HW230396   4.535   4.584   4.461
 9833SOL     OW30397   3.639   4.037   4.540
 9833SOL    HW130398   3.541   4.021   4.551
 9833SOL    HW230399   3.691   3.963   4.583
 9834SOL     OW30400   2.493   5.596   5.175
 9834SOL    HW130401   2.507   5.500   5.197
 9834SOL    HW230402   2.566   5.651   5.217
 9835SOL     OW30403   3.683   4.104   4.934
 9835SOL    HW130404   3.741   4.084   4.856
 9835SOL    HW230405   3.595   4.140   4.903
 9836SOL     OW30406   0.637   3.650   5.395
 9836SOL    HW130407   0.695   3.571   5.413
 9836SOL    HW230408   0.553   3.643   5.449
 9837SOL     OW30409   5.044   2.225   1.632
 9837SOL    HW130410   4.968   2.246   1.693
 9837SOL    HW230411   5.068   2.128   1.641
 9838SOL     OW30412   0.630   6.464   1.856
 9838SOL    HW130413   0.658   6.377   1.815
 9838SOL    HW230414   0.583   6.519   1.788
 9839SOL     OW30415   4.317   0.591   2.744
 9839SOL    HW130416   4.350   0.626   2.656
 9839SOL    HW230417   4.377   0.623   2.817
 9840SOL     OW30418   6.172   1.174   6.831
 9840SOL    HW130419   6.224   1.089   6.838
 9840SOL    HW230420   6.191   1.231   6.910
 9841SOL     OW30421   6.720   6.433   3.788
 9841SOL    HW130422   6.690   6.428   3.884
 9841SOL    HW230423   6.819   6.448   3.785
 9842SOL     OW30424   2.936   2.456   6.379
 9842SOL    HW130425   2.841   2.468   6.407
 9842SOL    HW230426   2.940   2.409   6.291
 9843SOL     OW30427   0.036   6.886   0.997
 9843SOL    HW130428   0.038   6.838   0.909
 9843SOL    HW230429   0.088   6.834   1.065
 9844SOL     OW30430   4.882   0.087   4.170
 9844SOL    HW130431   4.881   0.184   4.197
 9844SOL    HW230432   4.951   0.039   4.224
 9845SOL     OW30433   1.792   3.416   1.498
 9845SOL    HW130434   1.750   3.485   1.557
 9845SOL    HW230435   1.831   3.461   1.417
 9846SOL     OW30436   5.073   1.295   1.126
 9846SOL    HW130437   5.031   1.220   1.075
 9846SOL    HW230438   5.003   1.344   1.178
 9847SOL     OW30439   4.253   4.117   0.389
 9847SOL    HW130440   4.286   4.187   0.326
 9847SOL    HW230441   4.326   4.095   0.455
 9848SOL     OW30442   3.470   3.585   5.149
 9848SOL    HW130443   3.370   3.583   5.144
 9848SOL    HW230444   3.499   3.660   5.208
 9849SOL     OW30445   0.752   1.768   4.894
 9849SOL    HW130446   0.800   1.843   4.850
 9849SOL    HW230447   0.682   1.805   4.956
 9850SOL     OW30448   0.461   0.793   4.408
 9850SOL    HW130449   0.495   0.886   4.390
 9850SOL    HW230450   0.538   0.730   4.409
 9851SOL     OW30451   4.013   4.883   4.455
 9851SOL    HW130452   3.979   4.809   4.398
 9851SOL    HW230453   4.095   4.853   4.504
 9852SOL     OW30454   2.212   1.545   0.042
 9852SOL    HW130455   2.238   1.636   0.009
 9852SOL    HW230456   2.283   1.510   0.103
 9853SOL     OW30457   6.854   4.689   3.559
 9853SOL    HW130458   6.933   4.748   3.545
 9853SOL    HW230459   6.832   4.685   3.657
 9854SOL     OW30460   0.977   5.362   6.221
 9854SOL    HW130461   0.951   5.452   6.185
 9854SOL    HW230462   1.006   5.372   6.316
 9855SOL     OW30463   2.022   4.058   1.655
 9855SOL    HW130464   1.946   4.107   1.612
 9855SOL    HW230465   1.997   3.962   1.669
 9856SOL     OW30466   5.666   3.991   3.310
 9856SOL    HW130467   5.585   4.047   3.290
 9856SOL    HW230468   5.736   4.009   3.241
 9857SOL     OW30469   4.047   1.474   4.400
 9857SOL    HW130470   4.088   1.527   4.326
 9857SOL    HW230471   4.090   1.384   4.406
 9858SOL     OW30472   6.363   6.375   2.443
 9858SOL    HW130473   6.392   6.466   2.470
 9858SOL    HW230474   6.407   6.350   2.356
 9859SOL     OW30475   0.067   5.589   3.688
 9859SOL    HW130476   0.083   5.622   3.781
 9859SOL    HW230477   0.036   5.665   3.630
 9860SOL     OW30478   1.619   3.386   4.662
 9860SOL    HW130479   1.621   3.391   4.762
 9860SOL    HW230480   1.591   3.475   4.625
 9861SOL     OW30481   3.618   1.277   4.402
 9861SOL    HW130482   3.605   1.362   4.350
 9861SOL    HW230483   3.534   1.224   4.402
 9862SOL     OW30484   1.020   5.512   0.661
 9862SOL    HW130485   1.053   5.420   0.684
 9862SOL    HW230486   1.093   5.579   0.675
 9863SOL     OW30487   4.042   6.303   0.667
 9863SOL    HW130488   3.980   6.226   0.671
 9863SOL    HW230489   4.011   6.374   0.730
 9864SOL     OW30490   2.527   6.285   5.356
 9864SOL    HW130491   2.602   6.347   5.332
 9864SOL    HW230492   2.563   6.196   5.382
 9865SOL     OW30493   0.323   6.444   5.165
 9865SOL    HW130494   0.322   6.503   5.246
 9865SOL    HW230495   0.367   6.491   5.089
 9866SOL     OW30496   6.120   5.365   4.308
 9866SOL    HW130497   6.100   5.397   4.215
 9866SOL    HW230498   6.207   5.316   4.308
 9867SOL     OW30499   5.017   2.423   1.400
 9867SOL    HW130500   4.964   2.497   1.440
 9867SOL    HW230501   5.055   2.366   1.473
 9868SOL     OW30502   1.899   4.525   3.241
 9868SOL    HW130503   1.808   4.521   3.199
 9868SOL    HW230504   1.923   4.620   3.259
 9869SOL     OW30505   6.813   2.433   0.821
 9869SOL    HW130506   6.823   2.484   0.735
 9869SOL    HW230507   6.719   2.445   0.854
 9870SOL     OW30508   3.104   1.430   2.293
 9870SOL    HW130509   3.116   1.442   2.194
 9870SOL    HW230510   3.017   1.382   2.310
 9871SOL     OW30511   0.244   4.184   4.434
 9871SOL    HW130512   0.292   4.267   4.404
 9871SOL    HW230513   0.164   4.211   4.488
 9872SOL     OW30514   1.683   4.958   5.660
 9872SOL    HW130515   1.671   4.859   5.664
 9872SOL    HW230516   1.760   4.980   5.601
 9873SOL     OW30517   1.922   1.430   5.540
 9873SOL    HW130518   1.994   1.365   5.562
 9873SOL    HW230519   1.933   1.512   5.596
 9874SOL     OW30520   0.425   3.085   5.047
 9874SOL    HW130521   0.327   3.085   5.063
 9874SOL    HW230522   0.473   3.083   5.135
 9875SOL     OW30523   6.618   5.396   0.597
 9875SOL    HW130524   6.653   5.309   0.563
 9875SOL    HW230525   6.596   5.386   0.695
 9876SOL     OW30526   2.172   6.742   3.359
 9876SOL    HW130527   2.202   6.682   3.285
 9876SOL    HW230528   2.243   6.809   3.378
 9877SOL     OW30529   0.771   5.488   5.329
 9877SOL    HW130530   0.825   5.508   5.410
 9877SOL    HW230531   0.830   5.487   5.249
 9878SOL     OW30532   2.246   2.677   6.942
 9878SOL    HW130533   2.330   2.637   6.977
 9878SOL    HW230534   2.179   2.684   7.016
 9879SOL     OW30535   0.383   5.121   6.425
 9879SOL    HW130536   0.335   5.099   6.510
 9879SOL    HW230537   0.366   5.049   6.357
 9880SOL     OW30538   2.687   1.443   0.125
 9880SOL    HW130539   2.714   1.531   0.164
 9880SOL    HW230540   2.708   1.370   0.191
 9881SOL     OW30541   5.565   0.295   4.339
 9881SOL    HW130542   5.627   0.332   4.408
 9881SOL    HW230543   5.540   0.367   4.274
 9882SOL     OW30544   4.092   3.207   4.701
 9882SOL    HW130545   4.113   3.295   4.743
 9882SOL    HW230546   4.176   3.153   4.692
 9883SOL     OW30547   2.215   6.805   1.551
 9883SOL    HW130548   2.176   6.891   1.583
 9883SOL    HW230549   2.287   6.825   1.483
 9884SOL     OW30550   2.141   3.727   5.959
 9884SOL    HW130551   2.146   3.822   5.927
 9884SOL    HW230552   2.144   3.665   5.881
 9885SOL     OW30553   6.447   3.585   4.290
 9885SOL    HW130554   6.481   3.658   4.349
 9885SOL    HW230555   6.517   3.561   4.223
 9886SOL     OW30556   4.759   5.957   1.298
 9886SOL    HW130557   4.700   5.934   1.220
 9886SOL    HW230558   4.819   6.033   1.273
 9887SOL     OW30559   3.769   0.353   6.830
 9887SOL    HW130560   3.787   0.292   6.753
 9887SOL    HW230561   3.799   0.311   6.915
 9888SOL     OW30562   5.807   5.346   2.732
 9888SOL    HW130563   5.868   5.310   2.803
 9888SOL    HW230564   5.742   5.409   2.773
 9889SOL     OW30565   0.033   5.140   3.241
 9889SOL    HW130566   0.045   5.120   3.338
 9889SOL    HW230567   0.017   5.238   3.229
 9890SOL     OW30568   6.843   4.028   2.068
 9890SOL    HW130569   6.912   3.958   2.052
 9890SOL    HW230570   6.762   3.985   2.109
 9891SOL     OW30571   6.138   4.815   0.904
 9891SOL    HW130572   6.106   4.774   0.989
 9891SOL    HW230573   6.221   4.770   0.873
 9892SOL     OW30574   2.432   5.235   4.216
 9892SOL    HW130575   2.453   5.144   4.250
 9892SOL    HW230576   2.450   5.303   4.287
 9893SOL     OW30577   5.309   5.154   3.524
 9893SOL    HW130578   5.225   5.103   3.545
 9893SOL    HW230579   5.301   5.246   3.561
 9894SOL     OW30580   4.101   3.385   5.902
 9894SOL    HW130581   4.019   3.417   5.949
 9894SOL    HW230582   4.119   3.443   5.822
 9895SOL     OW30583   5.221   2.326   0.068
 9895SOL    HW130584   5.174   2.364   7.009
 9895SOL    HW230585   5.162   2.334   0.148
 9896SOL     OW30586   4.545   4.349   0.686
 9896SOL    HW130587   4.489   4.358   0.769
 9896SOL    HW230588   4.556   4.439   0.643
 9897SOL     OW30589   5.823   2.568   3.170
 9897SOL    HW130590   5.815   2.495   3.102
 9897SOL    HW230591   5.789   2.536   3.258
 9898SOL     OW30592   1.552   5.163   5.541
 9898SOL    HW130593   1.472   5.197   5.591
 9898SOL    HW230594   1.599   5.094   5.597
 9899SOL     OW30595   4.828   5.308   1.875
 9899SOL    HW130596   4.741   5.356   1.884
 9899SOL    HW230597   4.882   5.349   1.803
 9900SOL     OW30598   1.334   2.779   4.186
 9900SOL    HW130599   1.324   2.718   4.265
 9900SOL    HW230600   1.422   2.826   4.191
 9901SOL     OW30601   2.888   2.773   5.647
 9901SOL    HW130602   2.874   2.675   5.658
 9901SOL    HW230603   2.975   2.800   5.688
 9902SOL     OW30604   4.121   3.482   0.196
 9902SOL    HW130605   4.191   3.431   0.247
 9902SOL    HW230606   4.043   3.423   0.178
 9903SOL     OW30607   4.307   2.407   1.557
 9903SOL    HW130608   4.404   2.383   1.564
 9903SOL    HW230609   4.289   2.490   1.611
 9904SOL     OW30610   6.725   1.520   1.224
 9904SOL    HW130611   6.791   1.583   1.264
 9904SOL    HW230612   6.642   1.519   1.280
 9905SOL     OW30613   1.299   0.081   5.403
 9905SOL    HW130614   1.282   0.119   5.313
 9905SOL    HW230615   1.373   0.013   5.398
 9906SOL     OW30616   2.403   3.205   6.321
 9906SOL    HW130617   2.389   3.296   6.358
 9906SOL    HW230618   2.487   3.203   6.267
 9907SOL     OW30619   2.656   6.413   2.699
 9907SOL    HW130620   2.592   6.345   2.736
 9907SOL    HW230621   2.696   6.378   2.614
 9908SOL     OW30622   1.374   3.742   5.937
 9908SOL    HW130623   1.350   3.822   5.882
 9908SOL    HW230624   1.432   3.680   5.883
 9909SOL     OW30625   3.387   0.563   2.880
 9909SOL    HW130626   3.304   0.517   2.850
 9909SOL    HW230627   3.428   0.611   2.803
 9910SOL     OW30628   6.849   3.917   0.822
 9910SOL    HW130629   6.754   3.940   0.802
 9910SOL    HW230630   6.893   3.993   0.869
 9911SOL     OW30631   3.539   4.905   3.454
 9911SOL    HW130632   3.547   4.891   3.552
 9911SOL    HW230633   3.442   4.908   3.428
 9912SOL     OW30634   4.706   0.412   1.028
 9912SOL    HW130635   4.668   0.504   1.039
 9912SOL    HW230636   4.637   0.344   1.053
 9913SOL     OW30637   4.588   1.732   2.956
 9913SOL    HW130638   4.677   1.775   2.940
 9913SOL    HW230639   4.588   1.640   2.919
 9914SOL     OW30640   0.860   0.282   4.858
 9914SOL    HW130641   0.888   0.193   4.821
 9914SOL    HW230642   0.811   0.268   4.945
 9915SOL     OW30643   5.447   3.461   4.297
 9915SOL    HW130644   5.387   3.483   4.220
 9915SOL    HW230645   5.393   3.430   4.375
 9916SOL     OW30646   2.359   2.755   2.335
 9916SOL    HW130647   2.431   2.701   2.292
 9916SOL    HW230648   2.367   2.747   2.434
 9917SOL     OW30649   2.644   3.429   5.938
 9917SOL    HW130650   2.660   3.524   5.912
 9917SOL    HW230651   2.605   3.380   5.861
 9918SOL     OW30652   2.108   1.441   5.799
 9918SOL    HW130653   2.095   1.341   5.798
 9918SOL    HW230654   2.192   1.464   5.749
 9919SOL     OW30655   0.792   5.812   2.604
 9919SOL    HW130656   0.829   5.738   2.660
 9919SOL    HW230657   0.709   5.781   2.557
 9920SOL     OW30658   4.240   6.348   1.261
 9920SOL    HW130659   4.253   6.407   1.341
 9920SOL    HW230660   4.316   6.283   1.254
 9921SOL     OW30661   5.541   0.385   3.313
 9921SOL    HW130662   5.614   0.427   3.367
 9921SOL    HW230663   5.579   0.346   3.229
 9922SOL     OW30664   4.385   4.664   0.813
 9922SOL    HW130665   4.441   4.638   0.734
 9922SOL    HW230666   4.379   4.586   0.875
 9923SOL     OW30667   6.476   2.219   6.196
 9923SOL    HW130668   6.415   2.237   6.273
 9923SOL    HW230669   6.426   2.227   6.110
 9924SOL     OW30670   6.687   1.220   3.181
 9924SOL    HW130671   6.750   1.143   3.193
 9924SOL    HW230672   6.650   1.219   3.088
 9925SOL     OW30673   2.733   2.647   5.335
 9925SOL    HW130674   2.810   2.604   5.380
 9925SOL    HW230675   2.682   2.579   5.282
 9926SOL     OW30676   1.430   0.865   0.120
 9926SOL    HW130677   1.482   0.946   0.147
 9926SOL    HW230678   1.337   0.871   0.158
 9927SOL     OW30679   0.780   1.868   1.976
 9927SOL    HW130680   0.759   1.770   1.974
 9927SOL    HW230681   0.862   1.883   2.031
 9928SOL     OW30682   0.235   3.992   2.599
 9928SOL    HW130683   0.187   3.909   2.627
 9928SOL    HW230684   0.328   3.990   2.637
 9929SOL     OW30685   2.655   3.997   0.009
 9929SOL    HW130686   2.747   4.037   0.019
 9929SOL    HW230687   2.601   4.018   0.091
 9930SOL     OW30688   0.146   6.650   5.968
 9930SOL    HW130689   0.236   6.645   5.923
 9930SOL    HW230690   0.074   6.641   5.899
 9931SOL     OW30691   1.594   5.722   5.788
 9931SOL    HW130692   1.514   5.763   5.833
 9931SOL    HW230693   1.648   5.673   5.856
 9932SOL     OW30694   1.457   1.339   0.291
 9932SOL    HW130695   1.534   1.325   0.230
 9932SOL    HW230696   1.385   1.390   0.244
 9933SOL     OW30697   1.748   1.222   3.710
 9933SOL    HW130698   1.657   1.250   3.680
 9933SOL    HW230699   1.815   1.249   3.641
 9934SOL     OW30700   4.045   1.393   6.064
 9934SOL    HW130701   3.971   1.334   6.098
 9934SOL    HW230702   4.132   1.345   6.073
 9935SOL     OW30703   2.817   1.888   0.825
 9935SOL    HW130704   2.782   1.982   0.826
 9935SOL    HW230705   2.902   1.885   0.773
 9936SOL     OW30706   5.998   5.915   5.656
 9936SOL    HW130707   5.953   6.004   5.656
 9936SOL    HW230708   6.064   5.911   5.581
 9937SOL     OW30709   0.436   0.113   3.413
 9937SOL    HW130710   0.356   0.067   3.452
 9937SOL    HW230711   0.507   0.045   3.392
 9938SOL     OW30712   6.438   1.490   4.119
 9938SOL    HW130713   6.385   1.573   4.133
 9938SOL    HW230714   6.417   1.424   4.192
 9939SOL     OW30715   2.647   4.335   1.364
 9939SOL    HW130716   2.635   4.248   1.317
 9939SOL    HW230717   2.567   4.354   1.421
 9940SOL     OW30718   0.310   0.819   3.154
 9940SOL    HW130719   0.368   0.855   3.081
 9940SOL    HW230720   0.233   0.769   3.114
 9941SOL     OW30721   5.256   4.901   6.339
 9941SOL    HW130722   5.225   4.856   6.256
 9941SOL    HW230723   5.301   4.834   6.399
 9942SOL     OW30724   4.781   4.969   3.149
 9942SOL    HW130725   4.801   4.884   3.100
 9942SOL    HW230726   4.862   4.996   3.202
 9943SOL     OW30727   2.569   3.873   6.500
 9943SOL    HW130728   2.491   3.898   6.443
 9943SOL    HW230729   2.545   3.885   6.596
 9944SOL     OW30730   1.279   4.592   0.189
 9944SOL    HW130731   1.358   4.653   0.202
 9944SOL    HW230732   1.264   4.578   0.091
 9945SOL     OW30733   5.678   3.459   6.672
 9945SOL    HW130734   5.652   3.430   6.764
 9945SOL    HW230735   5.761   3.516   6.677
 9946SOL     OW30736   5.435   1.765   2.495
 9946SOL    HW130737   5.387   1.807   2.571
 9946SOL    HW230738   5.390   1.789   2.409
 9947SOL     OW30739   1.349   1.839   4.098
 9947SOL    HW130740   1.430   1.873   4.049
 9947SOL    HW230741   1.266   1.864   4.048
 9948SOL     OW30742   5.965   6.926   4.278
 9948SOL    HW130743   5.885   6.901   4.223
 9948SOL    HW230744   6.011   7.004   4.236
 9949SOL     OW30745   6.041   4.963   4.067
 9949SOL    HW130746   5.985   4.887   4.032
 9949SOL    HW230747   6.067   4.944   4.162
 9950SOL     OW30748   6.262   4.997   5.469
 9950SOL    HW130749   6.225   5.035   5.553
 9950SOL    HW230750   6.272   5.070   5.401
 9951SOL     OW30751   0.966   2.250   2.015
 9951SOL    HW130752   1.054   2.270   2.059
 9951SOL    HW230753   0.982   2.191   1.935
 9952SOL     OW30754   0.608   4.456   1.802
 9952SOL    HW130755   0.551   4.379   1.830
 9952SOL    HW230756   0.575   4.492   1.715
 9953SOL     OW30757   6.139   2.425   3.584
 9953SOL    HW130758   6.122   2.461   3.675
 9953SOL    HW230759   6.238   2.411   3.572
 9954SOL     OW30760   3.369   1.978   5.844
 9954SOL    HW130761   3.352   2.061   5.790
 9954SOL    HW230762   3.459   1.941   5.820
 9955SOL     OW30763   5.907   3.105   0.124
 9955SOL    HW130764   5.879   3.184   0.179
 9955SOL    HW230765   5.888   3.021   0.175
 9956SOL     OW30766   1.867   3.978   3.333
 9956SOL    HW130767   1.879   4.059   3.391
 9956SOL    HW230768   1.930   3.906   3.363
 9957SOL     OW30769   5.035   0.066   0.958
 9957SOL    HW130770   5.109   0.003   0.935
 9957SOL    HW230771   4.985   0.031   1.037
 9958SOL     OW30772   5.113   4.489   0.144
 9958SOL    HW130773   5.066   4.534   0.068
 9958SOL    HW230774   5.048   4.475   0.219
 9959SOL     OW30775   4.966   4.573   0.388
 9959SOL    HW130776   4.883   4.543   0.340
 9959SOL    HW230777   4.966   4.536   0.481
 9960SOL     OW30778   0.827   0.205   6.656
 9960SOL    HW130779   0.918   0.182   6.691
 9960SOL    HW230780   0.816   0.304   6.652
 9961SOL     OW30781   2.850   5.092   1.538
 9961SOL    HW130782   2.826   5.168   1.477
 9961SOL    HW230783   2.792   5.095   1.619
 9962SOL     OW30784   3.224   6.310   1.580
 9962SOL    HW130785   3.318   6.315   1.615
 9962SOL    HW230786   3.175   6.393   1.606
 9963SOL     OW30787   1.402   1.330   6.137
 9963SOL    HW130788   1.414   1.338   6.236
 9963SOL    HW230789   1.437   1.412   6.093
 9964SOL     OW30790   4.854   3.800   5.508
 9964SOL    HW130791   4.785   3.744   5.461
 9964SOL    HW230792   4.945   3.769   5.482
 9965SOL     OW30793   3.135   5.648   4.833
 9965SOL    HW130794   3.196   5.713   4.879
 9965SOL    HW230795   3.189   5.578   4.787
 9966SOL     OW30796   3.685   4.863   2.451
 9966SOL    HW130797   3.765   4.818   2.489
 9966SOL    HW230798   3.658   4.940   2.510
 9967SOL     OW30799   6.399   0.000   3.122
 9967SOL    HW130800   6.373   0.059   3.046
 9967SOL    HW230801   6.482   0.036   3.165
 9968SOL     OW30802   3.555   6.588   0.912
 9968SOL    HW130803   3.615   6.624   0.840
 9968SOL    HW230804   3.594   6.504   0.950
 9969SOL     OW30805   1.367   5.134   3.676
 9969SOL    HW130806   1.428   5.186   3.735
 9969SOL    HW230807   1.275   5.172   3.680
 9970SOL     OW30808   6.416   3.915   1.629
 9970SOL    HW130809   6.403   4.012   1.611
 9970SOL    HW230810   6.483   3.903   1.702
 9971SOL     OW30811   0.750   4.155   2.042
 9971SOL    HW130812   0.681   4.169   1.971
 9971SOL    HW230813   0.839   4.139   1.998
 9972SOL     OW30814   3.255   3.590   0.069
 9972SOL    HW130815   3.279   3.685   0.048
 9972SOL    HW230816   3.156   3.578   0.062
 9973SOL     OW30817   3.819   1.622   3.480
 9973SOL    HW130818   3.725   1.593   3.463
 9973SOL    HW230819   3.866   1.553   3.535
 9974SOL     OW30820   0.663   2.632   3.042
 9974SOL    HW130821   0.609   2.697   3.096
 9974SOL    HW230822   0.758   2.662   3.040
 9975SOL     OW30823   1.353   5.048   6.835
 9975SOL    HW130824   1.284   4.979   6.856
 9975SOL    HW230825   1.439   5.002   6.813
 9976SOL     OW30826   2.805   4.335   6.452
 9976SOL    HW130827   2.812   4.366   6.357
 9976SOL    HW230828   2.796   4.236   6.454
 9977SOL     OW30829   5.131   6.132   5.021
 9977SOL    HW130830   5.106   6.104   5.114
 9977SOL    HW230831   5.081   6.076   4.955
 9978SOL     OW30832   0.763   2.752   6.193
 9978SOL    HW130833   0.794   2.679   6.253
 9978SOL    HW230834   0.736   2.831   6.247
 9979SOL     OW30835   4.438   3.197   5.389
 9979SOL    HW130836   4.376   3.216   5.465
 9979SOL    HW230837   4.505   3.271   5.380
 9980SOL     OW30838   1.428   0.845   0.534
 9980SOL    HW130839   1.484   0.763   0.540
 9980SOL    HW230840   1.339   0.829   0.576
 9981SOL     OW30841   0.545   2.515   1.549
 9981SOL    HW130842   0.505   2.561   1.470
 9981SOL    HW230843   0.546   2.578   1.627
 9982SOL     OW30844   2.135   1.870   5.578
 9982SOL    HW130845   2.074   1.826   5.513
 9982SOL    HW230846   2.083   1.907   5.655
 9983SOL     OW30847   0.086   3.245   2.172
 9983SOL    HW130848   0.031   3.203   2.100
 9983SOL    HW230849   0.033   3.317   2.217
 9984SOL     OW30850   6.584   5.931   0.353
 9984SOL    HW130851   6.541   5.914   0.441
 9984SOL    HW230852   6.584   5.846   0.299
 9985SOL     OW30853   4.332   5.552   0.560
 9985SOL    HW130854   4.340   5.628   0.623
 9985SOL    HW230855   4.331   5.587   0.466
 9986SOL     OW30856   5.134   4.281   0.483
 9986SOL    HW130857   5.209   4.325   0.433
 9986SOL    HW230858   5.112   4.334   0.564
 9987SOL     OW30859   5.801   3.022   1.887
 9987SOL    HW130860   5.889   3.052   1.851
 9987SOL    HW230861   5.766   2.947   1.832
 9988SOL     OW30862   5.072   6.097   4.433
 9988SOL    HW130863   5.098   6.117   4.527
 9988SOL    HW230864   5.134   6.143   4.370
 9989SOL     OW30865   6.284   5.189   2.136
 9989SOL    HW130866   6.382   5.201   2.146
 9989SOL    HW230867   6.248   5.137   2.214
 9990SOL     OW30868   0.332   0.316   3.752
 9990SOL    HW130869   0.428   0.329   3.730
 9990SOL    HW230870   0.299   0.231   3.711
 9991SOL     OW30871   1.613   4.316   4.366
 9991SOL    HW130872   1.597   4.377   4.289
 9991SOL    HW230873   1.648   4.228   4.333
 9992SOL     OW30874   3.313   4.395   1.016
 9992SOL    HW130875   3.233   4.455   1.011
 9992SOL    HW230876   3.320   4.344   0.930
 9993SOL     OW30877   3.498   6.933   3.869
 9993SOL    HW130878   3.412   6.975   3.840
 9993SOL    HW230879   3.497   6.920   3.968
 9994SOL     OW30880   6.420   4.846   4.264
 9994SOL    HW130881   6.460   4.782   4.198
 9994SOL    HW230882   6.479   4.853   4.344
 9995SOL     OW30883   2.851   0.717   5.082
 9995SOL    HW130884   2.872   0.619   5.090
 9995SOL    HW230885   2.894   0.753   4.999
 9996SOL     OW30886   1.731   4.180   1.172
 9996SOL    HW130887   1.697   4.255   1.228
 9996SOL    HW230888   1.827   4.195   1.151
 9997SOL     OW30889   6.337   2.708   4.311
 9997SOL    HW130890   6.427   2.752   4.312
 9997SOL    HW230891   6.275   2.758   4.370
 9998SOL     OW30892   4.883   3.761   2.736
 9998SOL    HW130893   4.858   3.719   2.648
 9998SOL    HW230894   4.975   3.799   2.729
 9999SOL     OW30895   6.866   6.628   4.365
 9999SOL    HW130896   6.913   6.607   4.451
 9999SOL    HW230897   6.897   6.717   4.331
10000SOL     OW30898   4.816   1.896   1.605
10000SOL    HW130899   4.722   1.869   1.583
10000SOL    HW230900   4.825   1.995   1.597
10001SOL     OW30901   3.293   6.105   2.205
10001SOL    HW130902   3.313   6.112   2.107
10001SOL    HW230903   3.371   6.062   2.252
10002SOL     OW30904   2.384   0.956   1.495
10002SOL    HW130905   2.438   0.872   1.490
10002SOL    HW230906   2.431   1.022   1.553
10003SOL     OW30907   1.779   1.343   3.176
10003SOL    HW130908   1.866   1.391   3.184
10003SOL    HW230909   1.730   1.349   3.263
10004SOL     OW30910   6.196   4.445   4.971
10004SOL    HW130911   6.246   4.395   5.042
10004SOL    HW230912   6.233   4.538   4.964
10005SOL     OW30913   1.998   6.002   3.595
10005SOL    HW130914   1.973   6.035   3.504
10005SOL    HW230915   2.043   5.913   3.586
10006SOL     OW30916   5.575   0.391   5.687
10006SOL    HW130917   5.520   0.416   5.607
10006SOL    HW230918   5.615   0.474   5.727
10007SOL     OW30919   1.074   4.574   4.830
10007SOL    HW130920   1.053   4.619   4.743
10007SOL    HW230921   1.131   4.635   4.885
10008SOL     OW30922   4.118   1.924   4.610
10008SOL    HW130923   4.160   2.011   4.637
10008SOL    HW230924   4.045   1.901   4.674
10009SOL     OW30925   1.448   4.593   1.681
10009SOL    HW130926   1.393   4.567   1.760
10009SOL    HW230927   1.420   4.540   1.602
10010SOL     OW30928   2.414   5.040   6.976
10010SOL    HW130929   2.494   5.017   6.921
10010SOL    HW230930   2.331   5.027   6.921
10011SOL     OW30931   1.010   3.536   0.388
10011SOL    HW130932   1.067   3.463   0.351
10011SOL    HW230933   0.941   3.563   0.320
10012SOL     OW30934   5.103   1.239   1.755
10012SOL    HW130935   5.173   1.191   1.808
10012SOL    HW230936   5.148   1.298   1.688
10013SOL     OW30937   1.101   5.792   5.015
10013SOL    HW130938   1.086   5.784   5.114
10013SOL    HW230939   1.193   5.828   4.998
10014SOL     OW30940   0.508   6.752   3.514
10014SOL    HW130941   0.557   6.672   3.548
10014SOL    HW230942   0.563   6.797   3.444
10015SOL     OW30943   3.572   4.962   5.761
10015SOL    HW130944   3.567   5.057   5.790
10015SOL    HW230945   3.643   4.952   5.691
10016SOL     OW30946   2.020   0.107   3.685
10016SOL    HW130947   2.050   0.200   3.664
10016SOL    HW230948   2.097   0.053   3.718
10017SOL     OW30949   2.613   1.653   3.070
10017SOL    HW130950   2.552   1.731   3.056
10017SOL    HW230951   2.650   1.656   3.163
10018SOL     OW30952   6.360   3.553   5.815
10018SOL    HW130953   6.260   3.548   5.824
10018SOL    HW230954   6.384   3.618   5.744
10019SOL     OW30955   0.947   1.585   2.770
10019SOL    HW130956   0.994   1.500   2.745
10019SOL    HW230957   1.015   1.657   2.785
10020SOL     OW30958   0.045   0.582   2.219
10020SOL    HW130959   0.015   0.623   2.133
10020SOL    HW230960   6.991   0.528   2.258
10021SOL     OW30961   1.588   4.063   1.736
10021SOL    HW130962   1.664   4.110   1.692
10021SOL    HW230963   1.605   4.055   1.834
10022SOL     OW30964   2.534   6.338   0.544
10022SOL    HW130965   2.484   6.419   0.512
10022SOL    HW230966   2.558   6.281   0.466
10023SOL     OW30967   2.695   6.856   6.045
10023SOL    HW130968   2.667   6.769   6.085
10023SOL    HW230969   2.615   6.914   6.030
10024SOL     OW30970   1.662   4.657   3.161
10024SOL    HW130971   1.602   4.616   3.092
10024SOL    HW230972   1.608   4.717   3.220
10025SOL     OW30973   1.336   4.101   1.633
10025SOL    HW130974   1.430   4.119   1.664
10025SOL    HW230975   1.306   4.176   1.574
10026SOL     OW30976   4.972   1.389   2.796
10026SOL    HW130977   4.988   1.383   2.895
10026SOL    HW230978   4.995   1.481   2.764
10027SOL     OW30979   1.858   2.152   5.472
10027SOL    HW130980   1.776   2.116   5.515
10027SOL    HW230981   1.832   2.209   5.394
10028SOL     OW30982   3.709   0.319   1.936
10028SOL    HW130983   3.808   0.322   1.946
10028SOL    HW230984   3.667   0.302   2.025
10029SOL     OW30985   0.177   3.029   4.551
10029SOL    HW130986   0.191   3.107   4.612
10029SOL    HW230987   0.106   3.050   4.484
10030SOL     OW30988   2.395   6.605   4.991
10030SOL    HW130989   2.393   6.702   4.967
10030SOL    HW230990   2.369   6.551   4.910
10031SOL     OW30991   3.938   5.140   4.383
10031SOL    HW130992   4.005   5.189   4.438
10031SOL    HW230993   3.922   5.050   4.423
10032SOL     OW30994   3.151   6.016   5.345
10032SOL    HW130995   3.112   6.090   5.289
10032SOL    HW230996   3.174   5.939   5.286
10033SOL     OW30997   4.350   1.438   3.587
10033SOL    HW130998   4.384   1.380   3.662
10033SOL    HW230999   4.341   1.532   3.619
10034SOL     OW31000   2.055   0.507   3.407
10034SOL    HW131001   2.079   0.604   3.406
10034SOL    HW231002   2.120   0.456   3.352
10035SOL     OW31003   6.316   3.035   0.342
10035SOL    HW131004   6.272   3.062   0.257
10035SOL    HW231005   6.404   2.992   0.323
10036SOL     OW31006   6.494   0.916   6.312
10036SOL    HW131007   6.552   0.919   6.230
10036SOL    HW231008   6.527   0.844   6.372
10037SOL     OW31009   6.248   0.236   6.272
10037SOL    HW131010   6.315   0.238   6.346
10037SOL    HW231011   6.159   0.264   6.308
10038SOL     OW31012   4.371   0.193   0.150
10038SOL    HW131013   4.330   0.243   0.227
10038SOL    HW231014   4.342   0.235   0.064
10039SOL     OW31015   5.275   5.012   4.437
10039SOL    HW131016   5.290   4.961   4.352
10039SOL    HW231017   5.291   4.953   4.515
10040SOL     OW31018   4.144   0.303   0.575
10040SOL    HW131019   4.155   0.236   0.648
10040SOL    HW231020   4.105   0.387   0.612
10041SOL     OW31021   6.421   4.792   5.682
10041SOL    HW131022   6.479   4.813   5.761
10041SOL    HW231023   6.368   4.873   5.658
10042SOL     OW31024   0.421   1.293   5.385
10042SOL    HW131025   0.362   1.214   5.369
10042SOL    HW231026   0.425   1.348   5.301
10043SOL     OW31027   1.318   0.747   2.976
10043SOL    HW131028   1.412   0.773   2.956
10043SOL    HW231029   1.294   0.779   3.068
10044SOL     OW31030   1.775   0.991   4.831
10044SOL    HW131031   1.741   0.960   4.742
10044SOL    HW231032   1.860   0.944   4.853
10045SOL     OW31033   4.610   6.956   4.589
10045SOL    HW131034   4.687   7.014   4.564
10045SOL    HW231035   4.575   6.910   4.507
10046SOL     OW31036   0.124   2.216   1.861
10046SOL    HW131037   0.173   2.207   1.948
10046SOL    HW231038   0.135   2.133   1.807
10047SOL     OW31039   6.149   2.572   4.932
10047SOL    HW131040   6.237   2.564   4.884
10047SOL    HW231041   6.149   2.511   5.011
10048SOL     OW31042   3.208   1.324   1.562
10048SOL    HW131043   3.210   1.418   1.598
10048SOL    HW231044   3.221   1.260   1.638
10049SOL     OW31045   1.710   0.218   6.688
10049SOL    HW131046   1.650   0.248   6.762
10049SOL    HW231047   1.664   0.148   6.634
10050SOL     OW31048   5.154   3.203   4.893
10050SOL    HW131049   5.092   3.260   4.946
10050SOL    HW231050   5.203   3.140   4.954
10051SOL     OW31051   6.662   3.104   4.390
10051SOL    HW131052   6.747   3.138   4.431
10051SOL    HW231053   6.644   3.154   4.305
10052SOL     OW31054   2.017   3.430   1.650
10052SOL    HW131055   2.097   3.464   1.601
10052SOL    HW231056   1.960   3.377   1.587
10053SOL     OW31057   3.823   5.015   3.492
10053SOL    HW131058   3.752   5.034   3.560
10053SOL    HW231059   3.816   5.080   3.416
10054SOL     OW31060   4.601   5.885   6.254
10054SOL    HW131061   4.592   5.973   6.301
10054SOL    HW231062   4.637   5.900   6.161
10055SOL     OW31063   6.424   2.347   4.869
10055SOL    HW131064   6.343   2.337   4.811
10055SOL    HW231065   6.418   2.282   4.945
10056SOL     OW31066   5.928   4.993   1.011
10056SOL    HW131067   5.941   5.087   1.045
10056SOL    HW231068   6.007   4.966   0.957
10057SOL     OW31069   4.000   1.926   4.345
10057SOL    HW131070   3.978   2.019   4.317
10057SOL    HW231071   4.040   1.928   4.437
10058SOL     OW31072   6.214   5.160   3.795
10058SOL    HW131073   6.174   5.127   3.881
10058SOL    HW231074   6.313   5.150   3.798
10059SOL     OW31075   5.239   6.837   0.968
10059SOL    HW131076   5.264   6.760   1.026
10059SOL    HW231077   5.316   6.861   0.909
10060SOL     OW31078   2.966   2.181   1.801
10060SOL    HW131079   2.946   2.239   1.880
10060SOL    HW231080   2.940   2.229   1.717
10061SOL     OW31081   6.036   1.257   4.220
10061SOL    HW131082   6.002   1.259   4.314
10061SOL    HW231083   5.993   1.330   4.167
10062SOL     OW31084   6.053   6.488   4.171
10062SOL    HW131085   6.064   6.430   4.251
10062SOL    HW231086   5.966   6.537   4.177
10063SOL     OW31087   1.337   2.083   3.331
10063SOL    HW131088   1.422   2.069   3.380
10063SOL    HW231089   1.275   2.138   3.387
10064SOL     OW31090   5.227   5.394   4.748
10064SOL    HW131091   5.167   5.385   4.828
10064SOL    HW231092   5.192   5.337   4.674
10065SOL     OW31093   1.573   0.112   2.136
10065SOL    HW131094   1.563   0.123   2.235
10065SOL    HW231095   1.670   0.103   2.114
10066SOL     OW31096   0.708   1.158   3.791
10066SOL    HW131097   0.805   1.144   3.811
10066SOL    HW231098   0.653   1.102   3.853
10067SOL     OW31099   5.515   4.734   4.429
10067SOL    HW131100   5.522   4.824   4.387
10067SOL    HW231101   5.575   4.729   4.508
10068SOL     OW31102   5.242   2.543   4.976
10068SOL    HW131103   5.333   2.543   4.935
10068SOL    HW231104   5.180   2.599   4.921
10069SOL     OW31105   2.259   0.299   3.504
10069SOL    HW131106   2.262   0.299   3.404
10069SOL    HW231107   2.318   0.225   3.539
10070SOL     OW31108   0.262   6.383   4.809
10070SOL    HW131109   0.330   6.342   4.870
10070SOL    HW231110   0.173   6.385   4.855
10071SOL     OW31111   4.672   5.111   3.969
10071SOL    HW131112   4.686   5.191   3.910
10071SOL    HW231113   4.670   5.028   3.912
10072SOL     OW31114   0.218   6.519   3.810
10072SOL    HW131115   0.222   6.619   3.810
10072SOL    HW231116   0.123   6.489   3.822
10073SOL     OW31117   6.242   4.428   4.697
10073SOL    HW131118   6.259   4.397   4.791
10073SOL    HW231119   6.265   4.525   4.689
10074SOL     OW31120   1.219   6.741   5.751
10074SOL    HW131121   1.206   6.833   5.787
10074SOL    HW231122   1.137   6.712   5.702
10075SOL     OW31123   1.455   2.242   3.077
10075SOL    HW131124   1.536   2.184   3.073
10075SOL    HW231125   1.373   2.185   3.066
10076SOL     OW31126   5.066   0.091   4.769
10076SOL    HW131127   5.067   0.088   4.669
10076SOL    HW231128   5.078   0.185   4.800
10077SOL     OW31129   3.902   2.392   6.360
10077SOL    HW131130   3.870   2.301   6.387
10077SOL    HW231131   3.879   2.407   6.264
10078SOL     OW31132   6.517   6.306   4.955
10078SOL    HW131133   6.497   6.313   4.858
10078SOL    HW231134   6.431   6.297   5.006
10079SOL     OW31135   1.783   2.931   2.186
10079SOL    HW131136   1.834   2.860   2.137
10079SOL    HW231137   1.719   2.975   2.123
10080SOL     OW31138   2.999   2.424   0.060
10080SOL    HW131139   3.028   2.459   6.991
10080SOL    HW231140   3.052   2.342   0.081
10081SOL     OW31141   0.902   0.309   6.191
10081SOL    HW131142   0.975   0.255   6.233
10081SOL    HW231143   0.828   0.322   6.257
10082SOL     OW31144   6.885   2.145   2.105
10082SOL    HW131145   6.913   2.219   2.166
10082SOL    HW231146   6.864   2.063   2.158
10083SOL     OW31147   4.640   1.274   3.743
10083SOL    HW131148   4.551   1.273   3.790
10083SOL    HW231149   4.630   1.232   3.653
10084SOL     OW31150   3.322   0.576   6.276
10084SOL    HW131151   3.331   0.598   6.179
10084SOL    HW231152   3.226   0.568   6.300
10085SOL     OW31153   0.645   5.044   3.071
10085SOL    HW131154   0.655   5.118   3.005
10085SOL    HW231155   0.583   5.073   3.144
10086SOL     OW31156   5.881   5.453   2.439
10086SOL    HW131157   5.848   5.392   2.511
10086SOL    HW231158   5.931   5.530   2.480
10087SOL     OW31159   0.804   1.133   4.470
10087SOL    HW131160   0.858   1.052   4.492
10087SOL    HW231161   0.710   1.105   4.448
10088SOL     OW31162   0.360   7.009   5.482
10088SOL    HW131163   0.374   0.087   5.485
10088SOL    HW231164   0.386   6.974   5.392
10089SOL     OW31165   2.506   1.417   3.387
10089SOL    HW131166   2.548   1.361   3.458
10089SOL    HW231167   2.436   1.363   3.340
10090SOL     OW31168   1.102   4.238   0.803
10090SOL    HW131169   1.006   4.264   0.806
10090SOL    HW231170   1.113   4.143   0.834
10091SOL     OW31171   1.202   3.641   4.868
10091SOL    HW131172   1.137   3.567   4.850
10091SOL    HW231173   1.178   3.686   4.954
10092SOL     OW31174   1.645   4.021   5.321
10092SOL    HW131175   1.711   3.947   5.316
10092SOL    HW231176   1.628   4.045   5.417
10093SOL     OW31177   0.749   5.205   5.287
10093SOL    HW131178   0.754   5.292   5.337
10093SOL    HW231179   0.748   5.222   5.189
10094SOL     OW31180   2.431   0.305   2.534
10094SOL    HW131181   2.435   0.327   2.437
10094SOL    HW231182   2.522   0.313   2.574
10095SOL     OW31183   6.065   1.431   5.050
10095SOL    HW131184   6.022   1.377   5.122
10095SOL    HW231185   5.999   1.447   4.977
10096SOL     OW31186   6.823   5.096   2.575
10096SOL    HW131187   6.808   5.082   2.673
10096SOL    HW231188   6.909   5.053   2.548
10097SOL     OW31189   1.154   0.885   0.194
10097SOL    HW131190   1.175   0.982   0.199
10097SOL    HW231191   1.056   0.871   0.203
10098SOL     OW31192   1.756   6.165   5.788
10098SOL    HW131193   1.780   6.075   5.753
10098SOL    HW231194   1.794   6.177   5.879
10099SOL     OW31195   0.608   4.112   6.289
10099SOL    HW131196   0.529   4.168   6.314
10099SOL    HW231197   0.587   4.015   6.303
10100SOL     OW31198   5.074   0.306   5.202
10100SOL    HW131199   5.068   0.207   5.208
10100SOL    HW231200   5.044   0.336   5.111
10101SOL     OW31201   6.868   4.467   1.800
10101SOL    HW131202   6.914   4.404   1.737
10101SOL    HW231203   6.867   4.427   1.892
10102SOL     OW31204   2.680   1.078   3.155
10102SOL    HW131205   2.603   1.110   3.100
10102SOL    HW231206   2.731   1.156   3.190
10103SOL     OW31207   3.449   1.136   4.873
10103SOL    HW131208   3.427   1.184   4.788
10103SOL    HW231209   3.365   1.115   4.922
10104SOL     OW31210   0.399   4.450   5.067
10104SOL    HW131211   0.394   4.536   5.017
10104SOL    HW231212   0.492   4.435   5.099
10105SOL     OW31213   1.179   1.084   5.739
10105SOL    HW131214   1.191   1.070   5.641
10105SOL    HW231215   1.089   1.053   5.767
10106SOL     OW31216   5.434   4.459   1.108
10106SOL    HW131217   5.384   4.444   1.193
10106SOL    HW231218   5.529   4.482   1.128
10107SOL     OW31219   6.413   1.733   6.010
10107SOL    HW131220   6.337   1.713   5.948
10107SOL    HW231221   6.427   1.655   6.072
10108SOL     OW31222   6.313   6.383   6.985
10108SOL    HW131223   6.397   6.329   6.988
10108SOL    HW231224   6.251   6.345   6.916
10109SOL     OW31225   4.327   6.435   2.502
10109SOL    HW131226   4.412   6.390   2.527
10109SOL    HW231227   4.297   6.495   2.576
10110SOL     OW31228   4.126   6.572   5.654
10110SOL    HW131229   4.027   6.561   5.643
10110SOL    HW231230   4.170   6.564   5.565
10111SOL     OW31231   6.707   3.580   3.325
10111SOL    HW131232   6.782   3.552   3.266
10111SOL    HW231233   6.658   3.499   3.357
10112SOL     OW31234   6.073   4.109   5.222
10112SOL    HW131235   6.127   4.180   5.267
10112SOL    HW231236   5.976   4.128   5.236
10113SOL     OW31237   3.908   1.221   6.943
10113SOL    HW131238   3.817   1.239   6.979
10113SOL    HW231239   3.952   1.307   6.917
10114SOL     OW31240   5.853   0.940   0.909
10114SOL    HW131241   5.776   0.883   0.939
10114SOL    HW231242   5.874   1.008   0.979
10115SOL     OW31243   2.470   2.115   3.335
10115SOL    HW131244   2.520   2.189   3.290
10115SOL    HW231245   2.454   2.138   3.431
10116SOL     OW31246   1.145   6.880   1.393
10116SOL    HW131247   1.231   6.871   1.443
10116SOL    HW231248   1.124   6.976   1.378
10117SOL     OW31249   6.587   0.544   4.421
10117SOL    HW131250   6.667   0.590   4.384
10117SOL    HW231251   6.610   0.450   4.446
10118SOL     OW31252   0.130   4.990   2.485
10118SOL    HW131253   0.129   4.992   2.585
10118SOL    HW231254   0.162   4.901   2.453
10119SOL     OW31255   2.414   6.769   4.275
10119SOL    HW131256   2.399   6.858   4.318
10119SOL    HW231257   2.355   6.701   4.319
10120SOL     OW31258   0.727   3.116   4.180
10120SOL    HW131259   0.800   3.085   4.240
10120SOL    HW231260   0.706   3.212   4.199
10121SOL     OW31261   6.655   4.890   4.979
10121SOL    HW131262   6.697   4.832   4.909
10121SOL    HW231263   6.692   4.983   4.971
10122SOL     OW31264   6.050   2.800   0.020
10122SOL    HW131265   6.116   2.871   0.045
10122SOL    HW231266   5.985   2.787   0.095
10123SOL     OW31267   6.253   5.960   0.134
10123SOL    HW131268   6.230   5.936   0.040
10123SOL    HW231269   6.288   5.878   0.181
10124SOL     OW31270   2.322   3.771   6.723
10124SOL    HW131271   2.296   3.716   6.802
10124SOL    HW231272   2.346   3.863   6.753
10125SOL     OW31273   1.901   0.513   2.504
10125SOL    HW131274   1.981   0.550   2.552
10125SOL    HW231275   1.931   0.447   2.434
10126SOL     OW31276   6.382   5.569   6.067
10126SOL    HW131277   6.364   5.526   6.155
10126SOL    HW231278   6.465   5.624   6.073
10127SOL     OW31279   2.984   5.365   6.051
10127SOL    HW131280   2.983   5.379   5.952
10127SOL    HW231281   2.931   5.437   6.095
10128SOL     OW31282   0.639   1.170   1.546
10128SOL    HW131283   0.631   1.261   1.587
10128SOL    HW231284   0.707   1.173   1.473
10129SOL     OW31285   4.713   2.753   3.890
10129SOL    HW131286   4.711   2.753   3.990
10129SOL    HW231287   4.637   2.698   3.855
10130SOL     OW31288   1.694   4.878   2.164
10130SOL    HW131289   1.699   4.780   2.148
10130SOL    HW231290   1.784   4.913   2.189
10131SOL     OW31291   0.623   1.981   3.072
10131SOL    HW131292   0.577   2.045   3.134
10131SOL    HW231293   0.701   1.939   3.120
10132SOL     OW31294   3.344   6.185   3.050
10132SOL    HW131295   3.331   6.116   3.121
10132SOL    HW231296   3.433   6.171   3.005
10133SOL     OW31297   4.698   6.423   2.295
10133SOL    HW131298   4.731   6.393   2.384
10133SOL    HW231299   4.618   6.369   2.269
10134SOL     OW31300   6.309   0.358   4.143
10134SOL    HW131301   6.372   0.281   4.131
10134SOL    HW231302   6.313   0.417   4.062
10135SOL     OW31303   5.264   3.664   2.601
10135SOL    HW131304   5.321   3.670   2.519
10135SOL    HW231305   5.230   3.755   2.625
10136SOL     OW31306   5.441   0.179   2.755
10136SOL    HW131307   5.472   0.268   2.789
10136SOL    HW231308   5.450   0.111   2.829
10137SOL     OW31309   7.002   5.329   3.627
10137SOL    HW131310   0.040   5.258   3.589
10137SOL    HW231311   0.037   5.406   3.659
10138SOL     OW31312   4.684   2.388   0.933
10138SOL    HW131313   4.777   2.391   0.970
10138SOL    HW231314   4.643   2.299   0.951
10139SOL     OW31315   3.962   3.164   2.745
10139SOL    HW131316   3.971   3.097   2.818
10139SOL    HW231317   3.946   3.117   2.658
10140SOL     OW31318   6.065   6.228   5.828
10140SOL    HW131319   6.085   6.300   5.761
10140SOL    HW231320   6.136   6.157   5.823
10141SOL     OW31321   3.556   2.113   4.513
10141SOL    HW131322   3.472   2.156   4.481
10141SOL    HW231323   3.536   2.021   4.548
10142SOL     OW31324   5.685   6.211   5.108
10142SOL    HW131325   5.614   6.222   5.177
10142SOL    HW231326   5.675   6.283   5.039
10143SOL     OW31327   4.577   0.147   1.189
10143SOL    HW131328   4.556   0.110   1.279
10143SOL    HW231329   4.520   0.227   1.171
10144SOL     OW31330   4.549   6.334   5.937
10144SOL    HW131331   4.469   6.326   5.877
10144SOL    HW231332   4.519   6.358   6.029
10145SOL     OW31333   3.240   6.558   5.884
10145SOL    HW131334   3.254   6.463   5.853
10145SOL    HW231335   3.163   6.598   5.834
10146SOL     OW31336   3.527   4.991   5.239
10146SOL    HW131337   3.458   4.943   5.185
10146SOL    HW231338   3.616   4.985   5.193
10147SOL     OW31339   5.727   4.593   4.619
10147SOL    HW131340   5.648   4.568   4.675
10147SOL    HW231341   5.811   4.579   4.672
10148SOL     OW31342   6.439   5.497   6.731
10148SOL    HW131343   6.467   5.593   6.722
10148SOL    HW231344   6.517   5.442   6.762
10149SOL     OW31345   5.013   2.164   0.579
10149SOL    HW131346   4.969   2.253   0.570
10149SOL    HW231347   5.111   2.176   0.594
10150SOL     OW31348   4.782   4.237   0.442
10150SOL    HW131349   4.862   4.224   0.384
10150SOL    HW231350   4.700   4.207   0.393
10151SOL     OW31351   1.179   0.456   5.947
10151SOL    HW131352   1.140   0.511   6.021
10151SOL    HW231353   1.216   0.371   5.984
10152SOL     OW31354   1.876   5.597   4.233
10152SOL    HW131355   1.835   5.536   4.301
10152SOL    HW231356   1.969   5.620   4.261
10153SOL     OW31357   4.429   5.870   3.934
10153SOL    HW131358   4.377   5.955   3.934
10153SOL    HW231359   4.469   5.856   4.024
10154SOL     OW31360   6.055   6.928   5.494
10154SOL    HW131361   6.019   6.836   5.502
10154SOL    HW231362   6.035   6.980   5.577
10155SOL     OW31363   4.240   1.701   5.887
10155SOL    HW131364   4.167   1.672   5.825
10155SOL    HW231365   4.301   1.764   5.840
10156SOL     OW31366   6.522   0.348   2.049
10156SOL    HW131367   6.450   0.312   1.989
10156SOL    HW231368   6.569   0.272   2.094
10157SOL     OW31369   5.778   2.486   5.976
10157SOL    HW131370   5.710   2.428   5.931
10157SOL    HW231371   5.839   2.525   5.907
10158SOL     OW31372   4.508   3.535   6.909
10158SOL    HW131373   4.465   3.469   6.847
10158SOL    HW231374   4.605   3.544   6.885
10159SOL     OW31375   2.641   3.343   6.197
10159SOL    HW131376   2.651   3.409   6.272
10159SOL    HW231377   2.647   3.392   6.109
10160SOL     OW31378   1.374   4.118   2.376
10160SOL    HW131379   1.362   4.072   2.464
10160SOL    HW231380   1.308   4.192   2.368
10161SOL     OW31381   3.407   4.601   0.679
10161SOL    HW131382   3.310   4.594   0.655
10161SOL    HW231383   3.419   4.674   0.747
10162SOL     OW31384   2.724   4.330   0.504
10162SOL    HW131385   2.712   4.244   0.555
10162SOL    HW231386   2.678   4.404   0.553
10163SOL     OW31387   5.631   4.518   6.645
10163SOL    HW131388   5.563   4.532   6.573
10163SOL    HW231389   5.686   4.437   6.622
10164SOL     OW31390   6.105   3.198   5.090
10164SOL    HW131391   6.126   3.107   5.055
10164SOL    HW231392   6.191   3.248   5.104
10165SOL     OW31393   1.534   2.558   3.875
10165SOL    HW131394   1.516   2.512   3.788
10165SOL    HW231395   1.613   2.516   3.919
10166SOL     OW31396   3.565   1.043   1.806
10166SOL    HW131397   3.609   1.077   1.889
10166SOL    HW231398   3.539   0.947   1.819
10167SOL     OW31399   4.086   1.743   6.341
10167SOL    HW131400   4.018   1.816   6.348
10167SOL    HW231401   4.082   1.702   6.250
10168SOL     OW31402   6.746   3.944   4.873
10168SOL    HW131403   6.840   3.948   4.841
10168SOL    HW231404   6.723   3.849   4.897
10169SOL     OW31405   6.609   3.886   2.977
10169SOL    HW131406   6.637   3.973   3.018
10169SOL    HW231407   6.574   3.826   3.049
10170SOL     OW31408   0.863   4.369   5.687
10170SOL    HW131409   0.785   4.430   5.667
10170SOL    HW231410   0.836   4.274   5.672
10171SOL     OW31411   6.632   3.953   6.353
10171SOL    HW131412   6.620   3.960   6.254
10171SOL    HW231413   6.727   3.974   6.376
10172SOL     OW31414   5.981   6.915   3.369
10172SOL    HW131415   5.911   6.884   3.434
10172SOL    HW231416   6.072   6.891   3.403
10173SOL     OW31417   1.806   2.558   0.776
10173SOL    HW131418   1.887   2.603   0.737
10173SOL    HW231419   1.830   2.466   0.806
10174SOL     OW31420   5.640   5.267   1.793
10174SOL    HW131421   5.695   5.231   1.868
10174SOL    HW231422   5.559   5.210   1.781
10175SOL     OW31423   6.884   2.574   3.774
10175SOL    HW131424   6.829   2.523   3.707
10175SOL    HW231425   6.833   2.580   3.860
10176SOL     OW31426   1.394   3.364   5.435
10176SOL    HW131427   1.377   3.269   5.460
10176SOL    HW231428   1.481   3.371   5.387
10177SOL     OW31429   2.097   0.707   0.561
10177SOL    HW131430   2.095   0.799   0.601
10177SOL    HW231431   2.094   0.713   0.461
10178SOL     OW31432   6.516   3.025   4.925
10178SOL    HW131433   6.598   3.009   4.980
10178SOL    HW231434   6.536   3.003   4.829
10179SOL     OW31435   0.873   1.751   5.897
10179SOL    HW131436   0.916   1.833   5.859
10179SOL    HW231437   0.779   1.744   5.864
10180SOL     OW31438   4.124   6.427   6.829
10180SOL    HW131439   4.167   6.486   6.897
10180SOL    HW231440   4.026   6.419   6.848
10181SOL     OW31441   4.905   3.482   1.913
10181SOL    HW131442   4.983   3.457   1.857
10181SOL    HW231443   4.876   3.403   1.968
10182SOL     OW31444   5.633   1.487   2.241
10182SOL    HW131445   5.644   1.531   2.331
10182SOL    HW231446   5.717   1.440   2.216
10183SOL     OW31447   0.959   1.906   6.174
10183SOL    HW131448   0.892   1.878   6.243
10183SOL    HW231449   0.917   1.906   6.084
10184SOL     OW31450   4.165   1.102   6.299
10184SOL    HW131451   4.209   1.141   6.218
10184SOL    HW231452   4.074   1.142   6.311
10185SOL     OW31453   5.419   6.112   1.415
10185SOL    HW131454   5.475   6.189   1.385
10185SOL    HW231455   5.399   6.053   1.337
10186SOL     OW31456   5.780   3.051   2.885
10186SOL    HW131457   5.782   3.005   2.974
10186SOL    HW231458   5.745   3.145   2.897
10187SOL     OW31459   0.441   2.315   1.307
10187SOL    HW131460   0.380   2.389   1.337
10187SOL    HW231461   0.525   2.317   1.362
10188SOL     OW31462   3.781   6.172   0.663
10188SOL    HW131463   3.725   6.163   0.745
10188SOL    HW231464   3.777   6.266   0.630
10189SOL     OW31465   2.266   0.606   5.070
10189SOL    HW131466   2.323   0.641   4.996
10189SOL    HW231467   2.272   0.667   5.149
10190SOL     OW31468   4.902   2.812   1.244
10190SOL    HW131469   4.904   2.858   1.332
10190SOL    HW231470   4.814   2.826   1.200
10191SOL     OW31471   4.765   3.951   6.967
10191SOL    HW131472   4.753   3.947   0.046
10191SOL    HW231473   4.676   3.956   6.922
10192SOL     OW31474   4.475   0.696   5.529
10192SOL    HW131475   4.541   0.716   5.601
10192SOL    HW231476   4.468   0.597   5.517
10193SOL     OW31477   4.137   3.666   1.896
10193SOL    HW131478   4.186   3.587   1.858
10193SOL    HW231479   4.115   3.648   1.991
10194SOL     OW31480   6.255   4.593   5.300
10194SOL    HW131481   6.195   4.616   5.377
10194SOL    HW231482   6.333   4.656   5.299
10195SOL     OW31483   6.300   4.522   1.032
10195SOL    HW131484   6.220   4.580   1.044
10195SOL    HW231485   6.379   4.566   1.075
10196SOL     OW31486   5.272   1.633   4.685
10196SOL    HW131487   5.272   1.733   4.681
10196SOL    HW231488   5.178   1.599   4.679
10197SOL     OW31489   6.769   2.288   4.790
10197SOL    HW131490   6.755   2.214   4.856
10197SOL    HW231491   6.684   2.304   4.739
10198SOL     OW31492   3.833   0.798   1.858
10198SOL    HW131493   3.783   0.764   1.778
10198SOL    HW231494   3.830   0.898   1.859
10199SOL     OW31495   2.075   3.054   6.039
10199SOL    HW131496   2.039   2.970   6.080
10199SOL    HW231497   2.093   3.121   6.111
10200SOL     OW31498   5.033   2.193   0.977
10200SOL    HW131499   5.116   2.149   1.013
10200SOL    HW231500   4.960   2.125   0.970
10201SOL     OW31501   0.629   4.737   0.617
10201SOL    HW131502   0.663   4.654   0.661
10201SOL    HW231503   0.561   4.781   0.677
10202SOL     OW31504   3.681   2.511   6.086
10202SOL    HW131505   3.657   2.530   6.181
10202SOL    HW231506   3.742   2.582   6.052
10203SOL     OW31507   6.045   3.102   3.916
10203SOL    HW131508   6.080   3.079   3.825
10203SOL    HW231509   6.093   3.182   3.951
10204SOL     OW31510   5.770   0.247   7.013
10204SOL    HW131511   5.828   0.295   0.058
10204SOL    HW231512   5.702   0.311   6.977
10205SOL     OW31513   0.498   1.562   0.657
10205SOL    HW131514   0.442   1.615   0.720
10205SOL    HW231515   0.574   1.619   0.623
10206SOL     OW31516   0.728   0.646   5.868
10206SOL    HW131517   0.815   0.682   5.836
10206SOL    HW231518   0.673   0.615   5.790
10207SOL     OW31519   1.135   1.851   6.604
10207SOL    HW131520   1.137   1.803   6.691
10207SOL    HW231521   1.157   1.787   6.530
10208SOL     OW31522   5.699   5.170   3.876
10208SOL    HW131523   5.619   5.111   3.874
10208SOL    HW231524   5.704   5.216   3.964
10209SOL     OW31525   6.853   6.947   6.254
10209SOL    HW131526   6.864   7.003   6.172
10209SOL    HW231527   6.922   6.973   6.322
10210SOL     OW31528   4.623   6.465   1.295
10210SOL    HW131529   4.587   6.549   1.254
10210SOL    HW231530   4.703   6.486   1.351
10211SOL     OW31531   3.643   6.903   4.467
10211SOL    HW131532   3.702   6.933   4.392
10211SOL    HW231533   3.560   6.861   4.431
10212SOL     OW31534   1.176   0.307   4.925
10212SOL    HW131535   1.087   0.271   4.896
10212SOL    HW231536   1.219   0.242   4.988
10213SOL     OW31537   4.425   3.038   1.197
10213SOL    HW131538   4.442   2.976   1.121
10213SOL    HW231539   4.326   3.053   1.206
10214SOL     OW31540   1.349   2.389   1.702
10214SOL    HW131541   1.313   2.322   1.767
10214SOL    HW231542   1.445   2.369   1.683
10215SOL     OW31543   4.045   3.096   2.997
10215SOL    HW131544   4.026   3.183   3.044
10215SOL    HW231545   4.139   3.068   3.016
10216SOL     OW31546   6.948   0.812   1.469
10216SOL    HW131547   6.951   0.910   1.488
10216SOL    HW231548   7.017   0.791   1.399
10217SOL     OW31549   2.934   1.134   3.417
10217SOL    HW131550   2.952   1.086   3.331
10217SOL    HW231551   2.871   1.210   3.399
10218SOL     OW31552   1.231   3.426   1.841
10218SOL    HW131553   1.303   3.390   1.901
10218SOL    HW231554   1.264   3.509   1.795
10219SOL     OW31555   0.107   1.705   2.469
10219SOL    HW131556   0.170   1.769   2.426
10219SOL    HW231557   0.119   1.614   2.429
10220SOL     OW31558   3.761   3.144   1.205
10220SOL    HW131559   3.750   3.120   1.301
10220SOL    HW231560   3.837   3.208   1.194
10221SOL     OW31561   0.849   5.565   2.709
10221SOL    HW131562   0.897   5.568   2.797
10221SOL    HW231563   0.878   5.483   2.658
10222SOL     OW31564   3.212   3.323   5.009
10222SOL    HW131565   3.264   3.307   4.925
10222SOL    HW231566   3.138   3.257   5.016
10223SOL     OW31567   0.211   5.115   0.928
10223SOL    HW131568   0.209   5.169   1.013
10223SOL    HW231569   0.139   5.146   0.867
10224SOL     OW31570   5.847   3.136   3.443
10224SOL    HW131571   5.849   3.060   3.508
10224SOL    HW231572   5.937   3.148   3.402
10225SOL     OW31573   1.818   4.349   5.944
10225SOL    HW131574   1.808   4.293   6.026
10225SOL    HW231575   1.727   4.378   5.912
10226SOL     OW31576   3.602   0.999   0.335
10226SOL    HW131577   3.614   0.915   0.281
10226SOL    HW231578   3.554   0.977   0.420
10227SOL     OW31579   5.260   3.768   0.548
10227SOL    HW131580   5.324   3.745   0.475
10227SOL    HW231581   5.229   3.863   0.536
10228SOL     OW31582   6.628   0.079   0.741
10228SOL    HW131583   6.726   0.090   0.726
10228SOL    HW231584   6.590   0.166   0.773
10229SOL     OW31585   0.310   3.589   4.962
10229SOL    HW131586   0.300   3.641   4.878
10229SOL    HW231587   0.406   3.563   4.975
10230SOL     OW31588   6.603   5.392   2.646
10230SOL    HW131589   6.562   5.303   2.666
10230SOL    HW231590   6.585   5.454   2.722
10231SOL     OW31591   1.638   6.148   4.094
10231SOL    HW131592   1.604   6.178   4.005
10231SOL    HW231593   1.721   6.093   4.081
10232SOL     OW31594   3.250   0.976   3.382
10232SOL    HW131595   3.278   1.004   3.474
10232SOL    HW231596   3.151   0.988   3.372
10233SOL     OW31597   3.703   3.982   5.726
10233SOL    HW131598   3.722   4.005   5.821
10233SOL    HW231599   3.789   3.967   5.677
10234SOL     OW31600   5.917   0.294   1.131
10234SOL    HW131601   5.947   0.198   1.132
10234SOL    HW231602   5.928   0.332   1.223
10235SOL     OW31603   1.484   1.162   2.845
10235SOL    HW131604   1.529   1.218   2.916
10235SOL    HW231605   1.438   1.222   2.780
10236SOL     OW31606   2.354   6.462   0.125
10236SOL    HW131607   2.365   6.500   0.217
10236SOL    HW231608   2.332   6.365   0.131
10237SOL     OW31609   0.222   3.296   0.215
10237SOL    HW131610   0.278   3.307   0.133
10237SOL    HW231611   0.166   3.214   0.206
10238SOL     OW31612   4.196   5.241   1.029
10238SOL    HW131613   4.102   5.275   1.026
10238SOL    HW231614   4.259   5.318   1.026
10239SOL     OW31615   1.498   2.473   4.954
10239SOL    HW131616   1.559   2.397   4.977
10239SOL    HW231617   1.407   2.455   4.992
10240SOL     OW31618   2.794   6.730   2.024
10240SOL    HW131619   2.842   6.643   2.037
10240SOL    HW231620   2.696   6.715   2.033
10241SOL     OW31621   5.189   1.975   1.923
10241SOL    HW131622   5.273   2.028   1.919
10241SOL    HW231623   5.116   2.031   1.961
10242SOL     OW31624   0.288   2.393   0.855
10242SOL    HW131625   0.202   2.442   0.868
10242SOL    HW231626   0.365   2.455   0.870
10243SOL     OW31627   2.470   4.787   1.240
10243SOL    HW131628   2.483   4.820   1.333
10243SOL    HW231629   2.528   4.707   1.225
10244SOL     OW31630   2.399   3.856   1.245
10244SOL    HW131631   2.403   3.756   1.250
10244SOL    HW231632   2.320   3.888   1.297
10245SOL     OW31633   3.672   3.947   1.345
10245SOL    HW131634   3.748   3.882   1.354
10245SOL    HW231635   3.597   3.919   1.405
10246SOL     OW31636   3.048   3.140   4.467
10246SOL    HW131637   3.009   3.149   4.376
10246SOL    HW231638   3.127   3.079   4.465
10247SOL     OW31639   0.748   4.587   4.995
10247SOL    HW131640   0.701   4.669   5.028
10247SOL    HW231641   0.700   4.506   5.028
10248SOL     OW31642   1.103   6.785   3.622
10248SOL    HW131643   1.083   6.876   3.659
10248SOL    HW231644   1.017   6.734   3.613
10249SOL     OW31645   1.826   4.679   0.000
10249SOL    HW131646   1.766   4.602   7.001
10249SOL    HW231647   1.879   4.660   0.083
10250SOL     OW31648   6.166   2.930   0.703
10250SOL    HW131649   6.226   2.967   0.775
10250SOL    HW231650   6.072   2.931   0.735
10251SOL     OW31651   1.723   0.574   3.784
10251SOL    HW131652   1.733   0.647   3.851
10251SOL    HW231653   1.750   0.608   3.694
10252SOL     OW31654   5.017   3.610   5.209
10252SOL    HW131655   4.942   3.582   5.150
10252SOL    HW231656   5.102   3.614   5.156
10253SOL     OW31657   4.013   6.748   0.499
10253SOL    HW131658   3.939   6.801   0.540
10253SOL    HW231659   4.083   6.729   0.568
10254SOL     OW31660   4.941   1.674   5.414
10254SOL    HW131661   4.960   1.753   5.355
10254SOL    HW231662   5.023   1.650   5.466
10255SOL     OW31663   2.331   5.890   1.419
10255SOL    HW131664   2.363   5.889   1.324
10255SOL    HW231665   2.262   5.819   1.432
10256SOL     OW31666   5.308   1.133   1.884
10256SOL    HW131667   5.339   1.041   1.909
10256SOL    HW231668   5.366   1.201   1.928
10257SOL     OW31669   2.688   4.842   3.439
10257SOL    HW131670   2.663   4.934   3.470
10257SOL    HW231671   2.782   4.842   3.407
10258SOL     OW31672   3.623   1.967   3.015
10258SOL    HW131673   3.628   1.872   3.043
10258SOL    HW231674   3.557   2.016   3.072
10259SOL     OW31675   1.143   4.058   3.867
10259SOL    HW131676   1.161   4.034   3.963
10259SOL    HW231677   1.056   4.107   3.861
10260SOL     OW31678   1.486   1.274   3.665
10260SOL    HW131679   1.438   1.233   3.588
10260SOL    HW231680   1.423   1.287   3.741
10261SOL     OW31681   0.482   3.878   0.814
10261SOL    HW131682   0.394   3.848   0.850
10261SOL    HW231683   0.477   3.882   0.714
10262SOL     OW31684   3.922   0.533   6.530
10262SOL    HW131685   3.991   0.572   6.469
10262SOL    HW231686   3.967   0.489   6.608
10263SOL     OW31687   5.922   0.463   0.789
10263SOL    HW131688   5.934   0.562   0.776
10263SOL    HW231689   5.857   0.447   0.863
10264SOL     OW31690   5.887   4.949   6.647
10264SOL    HW131691   5.904   4.851   6.637
10264SOL    HW231692   5.821   4.964   6.721
10265SOL     OW31693   2.146   2.520   0.526
10265SOL    HW131694   2.121   2.609   0.489
10265SOL    HW231695   2.189   2.465   0.454
10266SOL     OW31696   3.182   2.937   2.802
10266SOL    HW131697   3.274   2.972   2.787
10266SOL    HW231698   3.187   2.850   2.852
10267SOL     OW31699   5.102   0.925   0.958
10267SOL    HW131700   5.050   1.009   0.941
10267SOL    HW231701   5.130   0.885   0.871
10268SOL     OW31702   5.575   6.599   1.722
10268SOL    HW131703   5.662   6.560   1.693
10268SOL    HW231704   5.551   6.675   1.662
10269SOL     OW31705   1.458   2.644   6.455
10269SOL    HW131706   1.421   2.736   6.468
10269SOL    HW231707   1.390   2.586   6.411
10270SOL     OW31708   3.476   5.992   2.381
10270SOL    HW131709   3.467   6.055   2.458
10270SOL    HW231710   3.565   6.006   2.337
10271SOL     OW31711   2.998   2.572   0.792
10271SOL    HW131712   2.997   2.660   0.841
10271SOL    HW231713   3.029   2.500   0.855
10272SOL     OW31714   6.927   1.238   3.788
10272SOL    HW131715   6.832   1.258   3.813
10272SOL    HW231716   6.984   1.316   3.811
10273SOL     OW31717   3.143   5.100   4.564
10273SOL    HW131718   3.114   5.053   4.482
10273SOL    HW231719   3.139   5.037   4.642
10274SOL     OW31720   0.436   5.205   5.714
10274SOL    HW131721   0.384   5.262   5.779
10274SOL    HW231722   0.489   5.137   5.764
10275SOL     OW31723   0.046   0.591   2.832
10275SOL    HW131724   6.978   0.620   2.796
10275SOL    HW231725   0.049   0.609   2.930
10276SOL     OW31726   4.620   5.651   5.536
10276SOL    HW131727   4.685   5.617   5.468
10276SOL    HW231728   4.612   5.751   5.527
10277SOL     OW31729   0.825   0.311   4.573
10277SOL    HW131730   0.831   0.305   4.673
10277SOL    HW231731   0.800   0.221   4.536
10278SOL     OW31732   0.022   0.754   4.821
10278SOL    HW131733   6.986   0.679   4.785
10278SOL    HW231734   0.101   0.715   4.869
10279SOL     OW31735   2.740   5.559   4.285
10279SOL    HW131736   2.764   5.471   4.245
10279SOL    HW231737   2.823   5.610   4.306
10280SOL     OW31738   5.423   3.505   0.394
10280SOL    HW131739   5.451   3.558   0.474
10280SOL    HW231740   5.347   3.551   0.348
10281SOL     OW31741   0.333   2.450   3.205
10281SOL    HW131742   0.398   2.489   3.271
10281SOL    HW231743   0.309   2.519   3.138
10282SOL     OW31744   5.003   3.146   3.136
10282SOL    HW131745   4.941   3.224   3.129
10282SOL    HW231746   5.097   3.177   3.128
10283SOL     OW31747   0.727   3.148   0.743
10283SOL    HW131748   0.645   3.101   0.712
10283SOL    HW231749   0.706   3.243   0.764
10284SOL     OW31750   6.744   2.203   3.893
10284SOL    HW131751   6.706   2.290   3.864
10284SOL    HW231752   6.825   2.219   3.950
10285SOL     OW31753   4.168   0.003   3.100
10285SOL    HW131754   4.132   6.995   3.011
10285SOL    HW231755   4.113   6.983   3.173
10286SOL     OW31756   3.443   0.844   3.618
10286SOL    HW131757   3.370   0.911   3.632
10286SOL    HW231758   3.407   0.752   3.631
10287SOL     OW31759   1.666   5.856   1.984
10287SOL    HW131760   1.668   5.808   2.072
10287SOL    HW231761   1.737   5.819   1.924
10288SOL     OW31762   3.324   6.942   4.718
10288SOL    HW131763   3.421   6.933   4.700
10288SOL    HW231764   3.292   6.861   4.769
10289SOL     OW31765   3.097   5.682   0.938
10289SOL    HW131766   3.162   5.749   0.900
10289SOL    HW231767   3.144   5.596   0.955
10290SOL     OW31768   3.058   3.452   2.365
10290SOL    HW131769   3.026   3.367   2.407
10290SOL    HW231770   2.979   3.504   2.332
10291SOL     OW31771   3.526   1.400   3.370
10291SOL    HW131772   3.617   1.410   3.329
10291SOL    HW231773   3.484   1.316   3.337
10292SOL     OW31774   0.192   1.311   6.117
10292SOL    HW131775   0.254   1.288   6.042
10292SOL    HW231776   0.120   1.242   6.123
10293SOL     OW31777   0.532   3.335   3.605
10293SOL    HW131778   0.462   3.397   3.639
10293SOL    HW231779   0.610   3.335   3.667
10294SOL     OW31780   4.003   1.821   2.796
10294SOL    HW131781   3.964   1.893   2.739
10294SOL    HW231782   3.989   1.732   2.751
10295SOL     OW31783   1.014   2.380   6.206
10295SOL    HW131784   0.945   2.313   6.177
10295SOL    HW231785   1.015   2.457   6.143
10296SOL     OW31786   5.571   1.078   5.965
10296SOL    HW131787   5.594   1.175   5.968
10296SOL    HW231788   5.604   1.033   6.049
10297SOL     OW31789   2.522   1.592   6.976
10297SOL    HW131790   2.556   1.525   0.022
10297SOL    HW231791   2.494   1.675   0.003
10298SOL     OW31792   1.690   4.617   2.182
10298SOL    HW131793   1.682   4.523   2.150
10298SOL    HW231794   1.683   4.620   2.281
10299SOL     OW31795   4.274   6.596   2.259
10299SOL    HW131796   4.311   6.550   2.179
10299SOL    HW231797   4.285   6.538   2.340
10300SOL     OW31798   1.051   4.074   1.614
10300SOL    HW131799   1.041   3.977   1.594
10300SOL    HW231800   1.148   4.096   1.623
10301SOL     OW31801   4.292   1.622   5.229
10301SOL    HW131802   4.313   1.537   5.181
10301SOL    HW231803   4.352   1.629   5.309
10302SOL     OW31804   2.500   6.327   3.661
10302SOL    HW131805   2.443   6.405   3.686
10302SOL    HW231806   2.503   6.263   3.738
10303SOL     OW31807   0.732   5.895   3.714
10303SOL    HW131808   0.715   5.968   3.648
10303SOL    HW231809   0.829   5.870   3.712
10304SOL     OW31810   6.029   0.020   1.129
10304SOL    HW131811   5.984   6.957   1.099
10304SOL    HW231812   6.037   0.020   1.229
10305SOL     OW31813   3.060   4.276   5.833
10305SOL    HW131814   3.017   4.188   5.812
10305SOL    HW231815   3.158   4.262   5.845
10306SOL     OW31816   5.253   6.317   0.575
10306SOL    HW131817   5.335   6.318   0.631
10306SOL    HW231818   5.182   6.372   0.619
10307SOL     OW31819   3.151   1.925   4.783
10307SOL    HW131820   3.135   1.835   4.744
10307SOL    HW231821   3.066   1.962   4.820
10308SOL     OW31822   2.149   4.043   2.367
10308SOL    HW131823   2.136   3.955   2.412
10308SOL    HW231824   2.177   4.028   2.272
10309SOL     OW31825   6.395   1.182   6.087
10309SOL    HW131826   6.368   1.152   6.178
10309SOL    HW231827   6.397   1.282   6.084
10310SOL     OW31828   3.263   3.879   6.592
10310SOL    HW131829   3.174   3.899   6.635
10310SOL    HW231830   3.334   3.879   6.662
10311SOL     OW31831   6.377   5.262   0.028
10311SOL    HW131832   6.388   5.163   0.019
10311SOL    HW231833   6.300   5.282   0.088
10312SOL     OW31834   5.083   0.704   2.222
10312SOL    HW131835   5.163   0.646   2.228
10312SOL    HW231836   5.000   0.648   2.224
10313SOL     OW31837   3.732   5.927   3.034
10313SOL    HW131838   3.660   5.860   3.020
10313SOL    HW231839   3.816   5.897   2.989
10314SOL     OW31840   0.147   0.420   0.407
10314SOL    HW131841   0.161   0.351   0.478
10314SOL    HW231842   0.165   0.380   0.317
10315SOL     OW31843   5.285   6.905   4.178
10315SOL    HW131844   5.214   6.854   4.131
10315SOL    HW231845   5.245   6.987   4.220
10316SOL     OW31846   6.092   2.689   5.900
10316SOL    HW131847   6.137   2.686   5.990
10316SOL    HW231848   6.026   2.763   5.899
10317SOL     OW31849   3.689   5.838   6.247
10317SOL    HW131850   3.755   5.790   6.306
10317SOL    HW231851   3.619   5.880   6.305
10318SOL     OW31852   4.821   0.396   6.261
10318SOL    HW131853   4.851   0.490   6.276
10318SOL    HW231854   4.737   0.396   6.207
10319SOL     OW31855   0.741   4.654   5.378
10319SOL    HW131856   0.821   4.616   5.332
10319SOL    HW231857   0.708   4.587   5.445
10320SOL     OW31858   0.317   6.188   2.894
10320SOL    HW131859   0.352   6.242   2.817
10320SOL    HW231860   0.311   6.245   2.976
10321SOL     OW31861   5.936   2.033   2.345
10321SOL    HW131862   5.960   2.066   2.436
10321SOL    HW231863   5.836   2.025   2.337
10322SOL     OW31864   4.082   5.081   5.280
10322SOL    HW131865   4.160   5.089   5.342
10322SOL    HW231866   4.103   5.128   5.194
10323SOL     OW31867   6.225   5.000   4.846
10323SOL    HW131868   6.205   5.092   4.881
10323SOL    HW231869   6.139   4.955   4.821
10324SOL     OW31870   3.179   3.361   2.703
10324SOL    HW131871   3.238   3.300   2.649
10324SOL    HW231872   3.088   3.321   2.710
10325SOL     OW31873   0.432   4.927   2.657
10325SOL    HW131874   0.437   5.018   2.699
10325SOL    HW231875   0.471   4.931   2.564
10326SOL     OW31876   5.900   3.858   6.587
10326SOL    HW131877   5.936   3.951   6.598
10326SOL    HW231878   5.904   3.811   6.675
10327SOL     OW31879   2.474   3.404   1.646
10327SOL    HW131880   2.407   3.423   1.717
10327SOL    HW231881   2.499   3.307   1.648
10328SOL     OW31882   6.326   2.502   1.921
10328SOL    HW131883   6.320   2.446   1.838
10328SOL    HW231884   6.279   2.589   1.906
10329SOL     OW31885   3.100   0.820   2.998
10329SOL    HW131886   3.199   0.818   3.011
10329SOL    HW231887   3.075   0.754   2.928
10330SOL     OW31888   4.291   0.367   1.819
10330SOL    HW131889   4.298   0.425   1.738
10330SOL    HW231890   4.198   0.332   1.828
10331SOL     OW31891   6.397   6.146   6.406
10331SOL    HW131892   6.331   6.079   6.438
10331SOL    HW231893   6.419   6.210   6.480
10332SOL     OW31894   0.939   0.045   6.434
10332SOL    HW131895   0.991   0.120   6.474
10332SOL    HW231896   0.862   0.022   6.493
10333SOL     OW31897   0.284   6.021   4.792
10333SOL    HW131898   0.311   5.946   4.852
10333SOL    HW231899   0.300   6.108   4.839
10334SOL     OW31900   3.171   0.199   4.175
10334SOL    HW131901   3.176   0.100   4.159
10334SOL    HW231902   3.187   0.247   4.088
10335SOL     OW31903   1.695   4.521   6.666
10335SOL    HW131904   1.629   4.554   6.734
10335SOL    HW231905   1.758   4.457   6.710
10336SOL     OW31906   6.521   7.003   2.180
10336SOL    HW131907   6.613   0.022   2.182
10336SOL    HW231908   6.485   7.008   2.087
10337SOL     OW31909   0.314   5.553   6.674
10337SOL    HW131910   0.409   5.525   6.687
10337SOL    HW231911   0.303   5.593   6.583
10338SOL     OW31912   1.414   6.402   2.245
10338SOL    HW131913   1.394   6.304   2.249
10338SOL    HW231914   1.342   6.452   2.292
10339SOL     OW31915   6.212   3.643   6.165
10339SOL    HW131916   6.175   3.621   6.075
10339SOL    HW231917   6.140   3.635   6.234
10340SOL     OW31918   1.801   2.534   6.798
10340SOL    HW131919   1.769   2.598   6.728
10340SOL    HW231920   1.736   2.531   6.873
10341SOL     OW31921   2.080   3.368   2.231
10341SOL    HW131922   2.014   3.316   2.175
10341SOL    HW231923   2.128   3.433   2.172
10342SOL     OW31924   1.396   0.324   3.510
10342SOL    HW131925   1.398   0.370   3.599
10342SOL    HW231926   1.478   0.346   3.459
10343SOL     OW31927   2.484   5.262   0.998
10343SOL    HW131928   2.482   5.185   1.061
10343SOL    HW231929   2.521   5.343   1.045
10344SOL     OW31930   3.768   4.045   0.363
10344SOL    HW131931   3.683   4.090   0.390
10344SOL    HW231932   3.843   4.112   0.365
10345SOL     OW31933   1.855   3.158   5.539
10345SOL    HW131934   1.764   3.138   5.578
10345SOL    HW231935   1.896   3.074   5.506
10346SOL     OW31936   6.911   5.545   1.276
10346SOL    HW131937   6.958   5.604   1.210
10346SOL    HW231938   6.977   5.486   1.322
10347SOL     OW31939   4.520   1.099   3.038
10347SOL    HW131940   4.483   1.171   2.980
10347SOL    HW231941   4.608   1.069   3.002
10348SOL     OW31942   5.920   2.504   0.233
10348SOL    HW131943   5.946   2.463   0.146
10348SOL    HW231944   5.995   2.560   0.268
10349SOL     OW31945   0.597   0.462   6.689
10349SOL    HW131946   0.541   0.380   6.694
10349SOL    HW231947   0.628   0.487   6.781
10350SOL     OW31948   2.714   5.746   5.277
10350SOL    HW131949   2.781   5.774   5.208
10350SOL    HW231950   2.751   5.671   5.332
10351SOL     OW31951   4.806   5.194   6.837
10351SOL    HW131952   4.773   5.264   6.774
10351SOL    HW231953   4.904   5.180   6.822
10352SOL     OW31954   3.422   0.750   6.531
10352SOL    HW131955   3.466   0.674   6.579
10352SOL    HW231956   3.377   0.715   6.448
10353SOL     OW31957   6.590   2.997   4.645
10353SOL    HW131958   6.530   2.920   4.624
10353SOL    HW231959   6.611   3.047   4.562
10354SOL     OW31960   5.818   0.735   1.240
10354SOL    HW131961   5.776   0.677   1.170
10354SOL    HW231962   5.750   0.801   1.273
10355SOL     OW31963   2.640   6.198   1.840
10355SOL    HW131964   2.552   6.162   1.871
10355SOL    HW231965   2.633   6.297   1.826
10356SOL     OW31966   0.072   4.371   6.326
10356SOL    HW131967   0.048   4.463   6.296
10356SOL    HW231968   0.040   4.358   6.420
10357SOL     OW31969   2.390   2.489   6.411
10357SOL    HW131970   2.412   2.546   6.332
10357SOL    HW231971   2.468   2.430   6.433
10358SOL     OW31972   6.832   2.671   2.936
10358SOL    HW131973   6.856   2.582   2.896
10358SOL    HW231974   6.754   2.660   2.997
10359SOL     OW31975   0.494   1.359   1.049
10359SOL    HW131976   0.502   1.377   1.148
10359SOL    HW231977   0.580   1.322   1.015
10360SOL     OW31978   4.436   5.033   2.866
10360SOL    HW131979   4.447   4.941   2.902
10360SOL    HW231980   4.340   5.048   2.841
10361SOL     OW31981   2.563   5.811   2.513
10361SOL    HW131982   2.484   5.765   2.554
10361SOL    HW231983   2.584   5.769   2.425
10362SOL     OW31984   1.633   4.879   4.739
10362SOL    HW131985   1.690   4.961   4.747
10362SOL    HW231986   1.681   4.800   4.776
10363SOL     OW31987   4.419   1.078   3.285
10363SOL    HW131988   4.336   1.129   3.307
10363SOL    HW231989   4.452   1.106   3.195
10364SOL     OW31990   2.786   3.687   1.412
10364SOL    HW131991   2.707   3.681   1.474
10364SOL    HW231992   2.840   3.768   1.435
10365SOL     OW31993   4.361   5.685   0.027
10365SOL    HW131994   4.459   5.670   0.012
10365SOL    HW231995   4.339   5.668   0.123
10366SOL     OW31996   2.977   0.034   3.717
10366SOL    HW131997   2.917   0.038   3.636
10366SOL    HW231998   2.925   0.000   3.795
10367SOL     OW31999   5.803   1.649   2.754
10367SOL    HW132000   5.894   1.690   2.749
10367SOL    HW232001   5.797   1.595   2.838
10368SOL     OW32002   2.989   1.010   1.668
10368SOL    HW132003   3.044   0.999   1.585
10368SOL    HW232004   2.933   0.929   1.682
10369SOL     OW32005   3.937   1.265   0.648
10369SOL    HW132006   3.860   1.262   0.712
10369SOL    HW232007   3.903   1.274   0.555
10370SOL     OW32008   4.396   0.863   5.152
10370SOL    HW132009   4.396   0.955   5.192
10370SOL    HW232010   4.386   0.870   5.053
10371SOL     OW32011   3.263   5.678   5.909
10371SOL    HW132012   3.177   5.714   5.946
10371SOL    HW232013   3.291   5.732   5.830
10372SOL     OW32014   2.637   0.629   4.521
10372SOL    HW132015   2.538   0.628   4.532
10372SOL    HW232016   2.680   0.651   4.609
10373SOL     OW32017   1.330   6.826   4.642
10373SOL    HW132018   1.348   6.792   4.550
10373SOL    HW232019   1.380   6.771   4.708
10374SOL     OW32020   2.590   1.892   3.441
10374SOL    HW132021   2.639   1.945   3.510
10374SOL    HW232022   2.538   1.954   3.383
10375SOL     OW32023   5.292   2.159   0.486
10375SOL    HW132024   5.326   2.214   0.411
10375SOL    HW232025   5.364   2.097   0.518
10376SOL     OW32026   0.532   1.338   3.906
10376SOL    HW132027   0.581   1.424   3.923
10376SOL    HW232028   0.590   1.278   3.851
10377SOL     OW32029   0.377   0.378   3.342
10377SOL    HW132030   0.397   0.280   3.341
10377SOL    HW232031   0.287   0.394   3.383
10378SOL     OW32032   6.910   0.544   5.846
10378SOL    HW132033   6.834   0.596   5.807
10378SOL    HW232034   6.880   0.451   5.866
10379SOL     OW32035   5.678   0.158   5.503
10379SOL    HW132036   5.695   0.162   5.602
10379SOL    HW232037   5.720   0.237   5.459
10380SOL     OW32038   5.770   0.763   2.847
10380SOL    HW132039   5.725   0.851   2.862
10380SOL    HW232040   5.790   0.753   2.750
10381SOL     OW32041   4.796   5.610   5.870
10381SOL    HW132042   4.741   5.530   5.896
10381SOL    HW232043   4.751   5.693   5.903
10382SOL     OW32044   2.791   5.515   5.763
10382SOL    HW132045   2.874   5.461   5.778
10382SOL    HW232046   2.736   5.472   5.692
10383SOL     OW32047   1.306   3.400   0.583
10383SOL    HW132048   1.334   3.315   0.628
10383SOL    HW232049   1.219   3.431   0.622
10384SOL     OW32050   6.941   0.115   1.039
10384SOL    HW132051   6.975   0.021   1.036
10384SOL    HW232052   6.991   0.166   1.110
10385SOL     OW32053   5.991   0.306   6.419
10385SOL    HW132054   5.900   0.272   6.399
10385SOL    HW232055   6.043   0.235   6.468
10386SOL     OW32056   6.436   3.269   4.939
10386SOL    HW132057   6.444   3.169   4.947
10386SOL    HW232058   6.391   3.305   5.021
10387SOL     OW32059   1.966   2.374   3.001
10387SOL    HW132060   1.950   2.305   3.071
10387SOL    HW232061   1.883   2.384   2.945
10388SOL     OW32062   1.161   4.877   3.116
10388SOL    HW132063   1.216   4.909   3.194
10388SOL    HW232064   1.152   4.950   3.049
10389SOL     OW32065   1.373   4.841   3.631
10389SOL    HW132066   1.451   4.795   3.673
10389SOL    HW232067   1.383   4.940   3.639
10390SOL     OW32068   1.446   3.426   3.379
10390SOL    HW132069   1.465   3.332   3.353
10390SOL    HW232070   1.520   3.485   3.347
10391SOL     OW32071   1.262   6.017   6.717
10391SOL    HW132072   1.286   5.939   6.774
10391SOL    HW232073   1.268   6.101   6.771
10392SOL     OW32074   5.953   4.927   0.369
10392SOL    HW132075   6.039   4.895   0.410
10392SOL    HW232076   5.877   4.871   0.402
10393SOL     OW32077   0.672   1.572   3.915
10393SOL    HW132078   0.657   1.669   3.935
10393SOL    HW232079   0.739   1.563   3.842
10394SOL     OW32080   2.237   6.571   6.932
10394SOL    HW132081   2.266   6.522   7.015
10394SOL    HW232082   2.309   6.634   6.903
10395SOL     OW32083   6.913   1.091   4.103
10395SOL    HW132084   6.864   1.007   4.121
10395SOL    HW232085   6.891   1.125   4.011
10396SOL     OW32086   0.655   0.222   4.169
10396SOL    HW132087   0.591   0.148   4.148
10396SOL    HW232088   0.605   0.300   4.207
10397SOL     OW32089   3.940   0.827   3.503
10397SOL    HW132090   4.009   0.769   3.547
10397SOL    HW232091   3.863   0.840   3.566
10398SOL     OW32092   6.402   2.744   1.233
10398SOL    HW132093   6.338   2.778   1.164
10398SOL    HW232094   6.392   2.799   1.316
10399SOL     OW32095   4.770   2.407   5.386
10399SOL    HW132096   4.756   2.506   5.386
10399SOL    HW232097   4.681   2.361   5.384
10400SOL     OW32098   2.731   5.569   2.634
10400SOL    HW132099   2.687   5.608   2.553
10400SOL    HW232100   2.669   5.501   2.675
10401SOL     OW32101   6.868   5.918   2.223
10401SOL    HW132102   6.882   6.015   2.202
10401SOL    HW232103   6.906   5.862   2.150
10402SOL     OW32104   0.884   3.518   5.199
10402SOL    HW132105   0.855   3.599   5.148
10402SOL    HW232106   0.982   3.524   5.218
10403SOL     OW32107   5.659   1.760   1.889
10403SOL    HW132108   5.589   1.713   1.943
10403SOL    HW232109   5.626   1.773   1.795
10404SOL     OW32110   0.652   6.550   4.323
10404SOL    HW132111   0.647   6.485   4.248
10404SOL    HW232112   0.707   6.629   4.295
10405SOL     OW32113   1.727   6.632   5.604
10405SOL    HW132114   1.644   6.665   5.649
10405SOL    HW232115   1.784   6.584   5.670
10406SOL     OW32116   2.862   4.443   6.221
10406SOL    HW132117   2.866   4.351   6.182
10406SOL    HW232118   2.867   4.511   6.147
10407SOL     OW32119   0.907   2.049   5.917
10407SOL    HW132120   0.997   2.093   5.918
10407SOL    HW232121   0.838   2.115   5.947
10408SOL     OW32122   4.705   4.679   3.439
10408SOL    HW132123   4.674   4.703   3.530
10408SOL    HW232124   4.793   4.723   3.421
10409SOL     OW32125   0.410   3.811   1.797
10409SOL    HW132126   0.508   3.788   1.793
10409SOL    HW232127   0.392   3.863   1.881
10410SOL     OW32128   4.833   0.829   1.090
10410SOL    HW132129   4.859   0.839   1.186
10410SOL    HW232130   4.861   0.910   1.039
10411SOL     OW32131   2.316   4.732   2.660
10411SOL    HW132132   2.234   4.676   2.666
10411SOL    HW232133   2.358   4.739   2.751
10412SOL     OW32134   1.664   2.193   0.246
10412SOL    HW132135   1.696   2.183   0.152
10412SOL    HW232136   1.720   2.136   0.307
10413SOL     OW32137   0.070   2.282   6.794
10413SOL    HW132138   0.030   2.191   6.804
10413SOL    HW232139   7.020   2.346   6.765
10414SOL     OW32140   5.488   6.349   6.822
10414SOL    HW132141   5.574   6.314   6.858
10414SOL    HW232142   5.412   6.306   6.871
10415SOL     OW32143   0.233   6.032   3.666
10415SOL    HW132144   0.247   6.018   3.764
10415SOL    HW232145   0.316   6.004   3.616
10416SOL     OW32146   5.952   2.014   4.660
10416SOL    HW132147   5.998   1.961   4.588
10416SOL    HW232148   5.902   1.951   4.719
10417SOL     OW32149   4.051   5.025   3.643
10417SOL    HW132150   3.966   5.014   3.591
10417SOL    HW232151   4.049   5.112   3.691
10418SOL     OW32152   6.914   4.155   6.868
10418SOL    HW132153   6.853   4.120   6.939
10418SOL    HW232154   6.945   4.079   6.810
10419SOL     OW32155   3.550   1.026   5.099
10419SOL    HW132156   3.498   1.076   5.030
10419SOL    HW232157   3.631   1.078   5.124
10420SOL     OW32158   6.947   3.131   3.419
10420SOL    HW132159   0.005   3.192   3.430
10420SOL    HW232160   6.938   3.106   3.323
10421SOL     OW32161   1.059   4.721   3.958
10421SOL    HW132162   1.014   4.695   4.044
10421SOL    HW232163   1.077   4.639   3.904
10422SOL     OW32164   6.488   3.755   4.480
10422SOL    HW132165   6.415   3.722   4.540
10422SOL    HW232166   6.542   3.824   4.528
10423SOL     OW32167   3.505   4.925   4.070
10423SOL    HW132168   3.446   4.922   3.990
10423SOL    HW232169   3.450   4.923   4.153
10424SOL     OW32170   3.508   0.786   6.947
10424SOL    HW132171   3.529   0.795   0.024
10424SOL    HW232172   3.508   0.689   6.922
10425SOL     OW32173   1.725   1.153   0.856
10425SOL    HW132174   1.764   1.244   0.843
10425SOL    HW232175   1.727   1.104   0.768
10426SOL     OW32176   5.617   2.312   5.814
10426SOL    HW132177   5.616   2.389   5.750
10426SOL    HW232178   5.623   2.227   5.762
10427SOL     OW32179   5.903   6.492   4.883
10427SOL    HW132180   5.934   6.548   4.960
10427SOL    HW232181   5.859   6.551   4.814
10428SOL     OW32182   1.798   0.718   3.581
10428SOL    HW132183   1.743   0.731   3.498
10428SOL    HW232184   1.818   0.807   3.622
10429SOL     OW32185   1.170   2.990   2.588
10429SOL    HW132186   1.083   2.947   2.564
10429SOL    HW232187   1.229   2.924   2.634
10430SOL     OW32188   3.259   0.458   3.861
10430SOL    HW132189   3.275   0.359   3.861
10430SOL    HW232190   3.298   0.498   3.778
10431SOL     OW32191   3.314   1.610   3.749
10431SOL    HW132192   3.333   1.543   3.821
10431SOL    HW232193   3.336   1.702   3.782
10432SOL     OW32194   0.784   6.316   5.618
10432SOL    HW132195   0.752   6.359   5.534
10432SOL    HW232196   0.711   6.317   5.686
10433SOL     OW32197   1.655   6.849   2.256
10433SOL    HW132198   1.565   6.863   2.296
10433SOL    HW232199   1.646   6.808   2.165
10434SOL     OW32200   4.224   6.549   5.402
10434SOL    HW132201   4.192   6.507   5.317
10434SOL    HW232202   4.301   6.497   5.439
10435SOL     OW32203   1.484   2.528   6.729
10435SOL    HW132204   1.472   2.591   6.652
10435SOL    HW232205   1.410   2.542   6.796
10436SOL     OW32206   0.168   4.832   5.006
10436SOL    HW132207   0.167   4.870   5.098
10436SOL    HW232208   0.262   4.815   4.978
10437SOL     OW32209   5.280   5.490   5.551
10437SOL    HW132210   5.344   5.438   5.494
10437SOL    HW232211   5.193   5.501   5.503
10438SOL     OW32212   6.496   5.777   6.251
10438SOL    HW132213   6.574   5.725   6.285
10438SOL    HW232214   6.411   5.732   6.278
10439SOL     OW32215   6.567   6.721   4.760
10439SOL    HW132216   6.580   6.754   4.666
10439SOL    HW232217   6.491   6.771   4.802
10440SOL     OW32218   0.142   2.133   6.216
10440SOL    HW132219   0.099   2.075   6.285
10440SOL    HW232220   0.120   2.229   6.234
10441SOL     OW32221   3.762   2.015   1.192
10441SOL    HW132222   3.790   1.926   1.156
10441SOL    HW232223   3.706   2.062   1.125
10442SOL     OW32224   2.266   1.594   5.538
10442SOL    HW132225   2.254   1.635   5.628
10442SOL    HW232226   2.181   1.601   5.486
10443SOL     OW32227   0.679   1.503   3.180
10443SOL    HW132228   0.708   1.533   3.089
10443SOL    HW232229   0.598   1.555   3.208
10444SOL     OW32230   4.142   5.569   4.420
10444SOL    HW132231   4.181   5.604   4.505
10444SOL    HW232232   4.188   5.611   4.342
10445SOL     OW32233   1.629   3.912   2.966
10445SOL    HW132234   1.694   3.873   2.901
10445SOL    HW232235   1.643   3.872   3.057
10446SOL     OW32236   1.700   4.561   5.664
10446SOL    HW132237   1.776   4.602   5.714
10446SOL    HW232238   1.660   4.629   5.603
10447SOL     OW32239   0.418   1.825   2.663
10447SOL    HW132240   0.516   1.843   2.651
10447SOL    HW232241   0.384   1.877   2.741
10448SOL     OW32242   2.753   6.080   3.011
10448SOL    HW132243   2.781   5.998   3.061
10448SOL    HW232244   2.661   6.066   2.973
10449SOL     OW32245   4.151   5.592   5.993
10449SOL    HW132246   4.167   5.514   5.932
10449SOL    HW232247   4.237   5.641   6.007
10450SOL     OW32248   0.069   0.586   6.534
10450SOL    HW132249   0.090   0.618   6.627
10450SOL    HW232250   0.138   0.622   6.471
10451SOL     OW32251   2.342   0.699   3.245
10451SOL    HW132252   2.325   0.601   3.239
10451SOL    HW232253   2.400   0.718   3.323
10452SOL     OW32254   6.806   3.645   4.333
10452SOL    HW132255   6.844   3.554   4.318
10452SOL    HW232256   6.859   3.692   4.404
10453SOL     OW32257   4.317   5.575   3.310
10453SOL    HW132258   4.294   5.636   3.234
10453SOL    HW232259   4.280   5.484   3.291
10454SOL     OW32260   6.567   0.507   5.555
10454SOL    HW132261   6.483   0.547   5.517
10454SOL    HW232262   6.615   0.456   5.484
10455SOL     OW32263   5.798   6.596   4.069
10455SOL    HW132264   5.759   6.541   3.995
10455SOL    HW232265   5.725   6.644   4.118
10456SOL     OW32266   0.527   5.258   0.012
10456SOL    HW132267   0.580   5.186   6.989
10456SOL    HW232268   0.576   5.293   0.092
10457SOL     OW32269   3.398   2.601   6.844
10457SOL    HW132270   3.485   2.627   6.801
10457SOL    HW232271   3.390   2.502   6.845
10458SOL     OW32272   6.880   5.816   6.717
10458SOL    HW132273   6.963   5.843   6.669
10458SOL    HW232274   6.899   5.807   6.815
10459SOL     OW32275   0.130   5.346   0.714
10459SOL    HW132276   0.138   5.248   0.699
10459SOL    HW232277   0.150   5.394   0.629
10460SOL     OW32278   0.743   2.789   0.485
10460SOL    HW132279   0.708   2.695   0.486
10460SOL    HW232280   0.687   2.846   0.545
10461SOL     OW32281   0.317   5.873   5.268
10461SOL    HW132282   0.325   5.971   5.248
10461SOL    HW232283   0.261   5.829   5.199
10462SOL     OW32284   3.975   1.606   0.715
10462SOL    HW132285   3.999   1.606   0.617
10462SOL    HW232286   4.019   1.527   0.759
10463SOL     OW32287   4.755   2.794   5.918
10463SOL    HW132288   4.733   2.881   5.963
10463SOL    HW232289   4.685   2.727   5.940
10464SOL     OW32290   6.358   4.947   2.997
10464SOL    HW132291   6.388   4.871   3.055
10464SOL    HW232292   6.258   4.950   2.996
10465SOL     OW32293   5.879   4.099   2.362
10465SOL    HW132294   5.785   4.068   2.378
10465SOL    HW232295   5.883   4.150   2.276
10466SOL     OW32296   6.080   4.661   6.339
10466SOL    HW132297   6.019   4.738   6.325
10466SOL    HW232298   6.155   4.687   6.399
10467SOL     OW32299   1.727   2.818   0.283
10467SOL    HW132300   1.771   2.770   0.207
10467SOL    HW232301   1.645   2.864   0.251
10468SOL     OW32302   2.944   5.024   4.131
10468SOL    HW132303   2.874   5.087   4.162
10468SOL    HW232304   3.010   5.072   4.073
10469SOL     OW32305   6.279   1.576   5.011
10469SOL    HW132306   6.335   1.516   4.953
10469SOL    HW232307   6.193   1.530   5.032
10470SOL     OW32308   2.546   2.469   3.739
10470SOL    HW132309   2.529   2.567   3.746
10470SOL    HW232310   2.549   2.442   3.643
10471SOL     OW32311   2.800   6.675   0.454
10471SOL    HW132312   2.748   6.634   0.529
10471SOL    HW232313   2.869   6.737   0.491
10472SOL     OW32314   2.866   5.178   0.444
10472SOL    HW132315   2.819   5.240   0.507
10472SOL    HW232316   2.798   5.127   0.391
10473SOL     OW32317   5.308   4.242   6.936
10473SOL    HW132318   5.334   4.309   7.006
10473SOL    HW232319   5.314   4.285   6.846
10474SOL     OW32320   4.947   1.079   3.874
10474SOL    HW132321   4.952   1.156   3.937
10474SOL    HW232322   4.995   1.102   3.789
10475SOL     OW32323   0.771   6.800   1.587
10475SOL    HW132324   0.854   6.819   1.639
10475SOL    HW232325   0.787   6.814   1.490
10476SOL     OW32326   3.858   6.345   0.247
10476SOL    HW132327   3.869   6.249   0.221
10476SOL    HW232328   3.941   6.396   0.224
10477SOL     OW32329   5.986   6.531   3.759
10477SOL    HW132330   5.981   6.601   3.830
10477SOL    HW232331   6.077   6.532   3.717
10478SOL     OW32332   6.322   0.379   0.145
10478SOL    HW132333   6.394   0.311   0.162
10478SOL    HW232334   6.237   0.332   0.120
10479SOL     OW32335   0.263   1.847   2.273
10479SOL    HW132336   0.265   1.846   2.173
10479SOL    HW232337   0.211   1.927   2.305
10480SOL     OW32338   1.788   0.045   2.376
10480SOL    HW132339   1.760   6.987   2.321
10480SOL    HW232340   1.720   0.061   2.448
10481SOL     OW32341   0.460   0.645   2.874
10481SOL    HW132342   0.544   0.697   2.865
10481SOL    HW232343   0.455   0.604   2.966
10482SOL     OW32344   5.327   3.427   3.973
10482SOL    HW132345   5.385   3.484   3.914
10482SOL    HW232346   5.240   3.473   3.989
10483SOL     OW32347   6.362   5.257   0.656
10483SOL    HW132348   6.269   5.291   0.639
10483SOL    HW232349   6.393   5.285   0.746
10484SOL     OW32350   6.411   1.236   1.440
10484SOL    HW132351   6.373   1.185   1.517
10484SOL    HW232352   6.483   1.181   1.396
10485SOL     OW32353   5.552   3.606   5.759
10485SOL    HW132354   5.608   3.637   5.837
10485SOL    HW232355   5.524   3.511   5.774
10486SOL     OW32356   5.985   2.630   1.272
10486SOL    HW132357   5.924   2.692   1.222
10486SOL    HW232358   5.966   2.637   1.370
10487SOL     OW32359   6.158   6.461   1.438
10487SOL    HW132360   6.212   6.487   1.357
10487SOL    HW232361   6.140   6.543   1.493
10488SOL     OW32362   2.980   3.037   6.770
10488SOL    HW132363   2.996   3.121   6.821
10488SOL    HW232364   2.881   3.024   6.757
10489SOL     OW32365   6.756   5.629   6.569
10489SOL    HW132366   6.784   5.710   6.621
10489SOL    HW232367   6.836   5.572   6.553
10490SOL     OW32368   6.592   1.083   3.622
10490SOL    HW132369   6.674   1.105   3.675
10490SOL    HW232370   6.511   1.120   3.669
10491SOL     OW32371   2.160   4.457   6.302
10491SOL    HW132372   2.120   4.532   6.249
10491SOL    HW232373   2.236   4.418   6.252
10492SOL     OW32374   4.819   3.308   5.252
10492SOL    HW132375   4.771   3.384   5.207
10492SOL    HW232376   4.875   3.343   5.327
10493SOL     OW32377   3.595   1.146   1.563
10493SOL    HW132378   3.564   1.090   1.486
10493SOL    HW232379   3.594   1.090   1.647
10494SOL     OW32380   5.659   2.259   4.000
10494SOL    HW132381   5.701   2.170   4.019
10494SOL    HW232382   5.563   2.257   4.025
10495SOL     OW32383   1.766   6.703   0.674
10495SOL    HW132384   1.821   6.628   0.636
10495SOL    HW232385   1.672   6.694   0.641
10496SOL     OW32386   0.317   6.279   6.793
10496SOL    HW132387   0.300   6.312   6.886
10496SOL    HW232388   0.230   6.251   6.752
10497SOL     OW32389   1.419   0.830   1.036
10497SOL    HW132390   1.321   0.810   1.038
10497SOL    HW232391   1.445   0.856   0.943
10498SOL     OW32392   1.698   6.858   5.901
10498SOL    HW132393   1.650   6.776   5.870
10498SOL    HW232394   1.783   6.869   5.850
10499SOL     OW32395   2.798   5.634   3.430
10499SOL    HW132396   2.761   5.727   3.431
10499SOL    HW232397   2.889   5.634   3.389
10500SOL     OW32398   1.176   2.128   5.929
10500SOL    HW132399   1.245   2.088   5.869
10500SOL    HW232400   1.218   2.196   5.988
10501SOL     OW32401   2.065   3.724   2.728
10501SOL    HW132402   2.132   3.739   2.655
10501SOL    HW232403   2.084   3.787   2.804
10502SOL     OW32404   2.916   6.417   0.406
10502SOL    HW132405   2.977   6.460   0.340
10502SOL    HW232406   2.876   6.487   0.465
10503SOL     OW32407   3.173   3.192   0.317
10503SOL    HW132408   3.195   3.254   0.392
10503SOL    HW232409   3.258   3.157   0.277
10504SOL     OW32410   2.785   3.042   0.170
10504SOL    HW132411   2.817   3.078   0.258
10504SOL    HW232412   2.785   3.116   0.102
10505SOL     OW32413   6.233   6.243   1.187
10505SOL    HW132414   6.180   6.192   1.255
10505SOL    HW232415   6.289   6.312   1.232
10506SOL     OW32416   0.937   3.823   6.491
10506SOL    HW132417   0.966   3.806   6.397
10506SOL    HW232418   0.933   3.922   6.507
10507SOL     OW32419   1.059   0.642   6.271
10507SOL    HW132420   0.984   0.598   6.222
10507SOL    HW232421   1.129   0.671   6.206
10508SOL     OW32422   5.374   4.803   3.842
10508SOL    HW132423   5.408   4.719   3.884
10508SOL    HW232424   5.407   4.809   3.748
10509SOL     OW32425   0.897   6.633   6.667
10509SOL    HW132426   0.955   6.589   6.736
10509SOL    HW232427   0.894   6.576   6.585
10510SOL     OW32428   5.747   5.184   6.803
10510SOL    HW132429   5.812   5.260   6.801
10510SOL    HW232430   5.770   5.122   6.878
10511SOL     OW32431   4.170   3.036   0.453
10511SOL    HW132432   4.110   2.957   0.467
10511SOL    HW232433   4.139   3.112   0.510
10512SOL     OW32434   4.302   0.436   5.784
10512SOL    HW132435   4.381   0.450   5.844
10512SOL    HW232436   4.321   0.361   5.721
10513SOL     OW32437   0.801   2.312   5.823
10513SOL    HW132438   0.793   2.410   5.806
10513SOL    HW232439   0.738   2.285   5.896
10514SOL     OW32440   6.753   4.266   0.263
10514SOL    HW132441   6.653   4.265   0.260
10514SOL    HW232442   6.786   4.184   0.310
10515SOL     OW32443   6.627   1.942   3.105
10515SOL    HW132444   6.565   1.900   3.038
10515SOL    HW232445   6.707   1.979   3.058
10516SOL     OW32446   4.480   0.974   6.239
10516SOL    HW132447   4.560   1.026   6.269
10516SOL    HW232448   4.450   1.009   6.150
10517SOL     OW32449   7.004   1.664   2.697
10517SOL    HW132450   0.016   1.698   2.609
10517SOL    HW232451   0.004   1.567   2.705
10518SOL     OW32452   1.125   6.533   0.533
10518SOL    HW132453   1.137   6.447   0.583
10518SOL    HW232454   1.212   6.581   0.529
10519SOL     OW32455   3.338   3.002   5.772
10519SOL    HW132456   3.263   2.941   5.746
10519SOL    HW232457   3.356   3.067   5.698
10520SOL     OW32458   3.089   2.793   6.695
10520SOL    HW132459   3.128   2.808   6.604
10520SOL    HW232460   3.035   2.873   6.721
10521SOL     OW32461   6.530   6.252   1.547
10521SOL    HW132462   6.528   6.330   1.485
10521SOL    HW232463   6.437   6.216   1.559
10522SOL     OW32464   6.523   1.435   0.650
10522SOL    HW132465   6.566   1.524   0.668
10522SOL    HW232466   6.495   1.393   0.736
10523SOL     OW32467   6.931   5.229   6.133
10523SOL    HW132468   6.962   5.177   6.212
10523SOL    HW232469   6.876   5.306   6.163
10524SOL     OW32470   1.782   0.342   4.334
10524SOL    HW132471   1.875   0.310   4.321
10524SOL    HW232472   1.757   0.333   4.431
10525SOL     OW32473   1.806   6.828   5.155
10525SOL    HW132474   1.791   6.898   5.086
10525SOL    HW232475   1.818   6.739   5.111
10526SOL     OW32476   0.920   1.069   2.372
10526SOL    HW132477   1.005   1.058   2.321
10526SOL    HW232478   0.852   1.003   2.339
10527SOL     OW32479   1.072   2.726   4.683
10527SOL    HW132480   1.050   2.815   4.643
10527SOL    HW232481   1.075   2.734   4.783
10528SOL     OW32482   0.517   5.409   4.875
10528SOL    HW132483   0.450   5.468   4.831
10528SOL    HW232484   0.470   5.339   4.928
10529SOL     OW32485   0.446   6.413   3.631
10529SOL    HW132486   0.378   6.418   3.704
10529SOL    HW232487   0.408   6.360   3.555
10530SOL     OW32488   2.612   2.301   6.354
10530SOL    HW132489   2.639   2.241   6.279
10530SOL    HW232490   2.665   2.277   6.436
10531SOL     OW32491   1.500   3.339   4.988
10531SOL    HW132492   1.532   3.403   5.058
10531SOL    HW232493   1.570   3.268   4.974
10532SOL     OW32494   3.626   2.640   6.355
10532SOL    HW132495   3.698   2.671   6.418
10532SOL    HW232496   3.565   2.577   6.403
10533SOL     OW32497   3.051   1.558   5.070
10533SOL    HW132498   3.122   1.508   5.020
10533SOL    HW232499   3.094   1.619   5.136
10534SOL     OW32500   6.968   6.085   0.699
10534SOL    HW132501   6.962   6.144   0.779
10534SOL    HW232502   6.996   6.139   0.619
10535SOL     OW32503   0.563   1.415   2.430
10535SOL    HW132504   0.516   1.503   2.421
10535SOL    HW232505   0.499   1.348   2.468
10536SOL     OW32506   4.881   0.365   3.130
10536SOL    HW132507   4.930   0.281   3.107
10536SOL    HW232508   4.837   0.401   3.048
10537SOL     OW32509   3.008   5.325   2.964
10537SOL    HW132510   3.094   5.307   3.013
10537SOL    HW232511   2.931   5.320   3.028
10538SOL     OW32512   4.300   3.916   0.082
10538SOL    HW132513   4.385   3.863   0.083
10538SOL    HW232514   4.228   3.865   0.129
10539SOL     OW32515   0.826   3.175   6.355
10539SOL    HW132516   0.819   3.198   6.258
10539SOL    HW232517   0.898   3.229   6.397
10540SOL     OW32518   1.727   0.812   5.609
10540SOL    HW132519   1.651   0.873   5.584
10540SOL    HW232520   1.763   0.770   5.526
10541SOL     OW32521   3.897   3.577   1.023
10541SOL    HW132522   3.804   3.605   1.046
10541SOL    HW232523   3.963   3.623   1.082
10542SOL     OW32524   0.476   2.475   0.450
10542SOL    HW132525   0.519   2.521   0.527
10542SOL    HW232526   0.447   2.543   0.382
10543SOL     OW32527   0.316   2.149   5.671
10543SOL    HW132528   0.224   2.155   5.709
10543SOL    HW232529   0.367   2.078   5.719
10544SOL     OW32530   2.338   2.068   2.489
10544SOL    HW132531   2.245   2.092   2.517
10544SOL    HW232532   2.402   2.096   2.560
10545SOL     OW32533   6.832   0.063   2.490
10545SOL    HW132534   6.907   7.018   2.485
10545SOL    HW232535   6.848   0.127   2.565
10546SOL     OW32536   2.344   0.046   4.696
10546SOL    HW132537   2.362   7.005   4.772
10546SOL    HW232538   2.348   0.141   4.728
10547SOL     OW32539   4.430   1.423   1.800
10547SOL    HW132540   4.417   1.448   1.896
10547SOL    HW232541   4.366   1.475   1.743
10548SOL     OW32542   5.291   3.681   4.619
10548SOL    HW132543   5.199   3.673   4.581
10548SOL    HW232544   5.293   3.644   4.711
10549SOL     OW32545   1.293   0.428   2.523
10549SOL    HW132546   1.320   0.522   2.541
10549SOL    HW232547   1.345   0.392   2.446
10550SOL     OW32548   5.392   0.256   4.044
10550SOL    HW132549   5.416   0.339   4.094
10550SOL    HW232550   5.369   0.280   3.950
10551SOL     OW32551   1.419   1.912   5.345
10551SOL    HW132552   1.370   1.952   5.267
10551SOL    HW232553   1.385   1.819   5.361
10552SOL     OW32554   3.549   2.345   5.710
10552SOL    HW132555   3.467   2.293   5.687
10552SOL    HW232556   3.538   2.440   5.679
10553SOL     OW32557   0.517   5.512   0.506
10553SOL    HW132558   0.559   5.428   0.470
10553SOL    HW232559   0.420   5.496   0.522
10554SOL     OW32560   6.620   4.590   0.405
10554SOL    HW132561   6.563   4.545   0.337
10554SOL    HW232562   6.687   4.649   0.359
10555SOL     OW32563   3.317   1.799   2.255
10555SOL    HW132564   3.223   1.766   2.251
10555SOL    HW232565   3.376   1.741   2.199
10556SOL     OW32566   2.111   3.379   4.969
10556SOL    HW132567   2.118   3.476   4.992
10556SOL    HW232568   2.149   3.324   5.043
10557SOL     OW32569   0.270   2.694   3.064
10557SOL    HW132570   0.331   2.747   3.122
10557SOL    HW232571   0.177   2.732   3.069
10558SOL     OW32572   4.228   6.818   5.365
10558SOL    HW132573   4.216   6.723   5.394
10558SOL    HW232574   4.326   6.838   5.357
10559SOL     OW32575   4.104   1.983   0.934
10559SOL    HW132576   4.107   2.073   0.978
10559SOL    HW232577   4.009   1.960   0.913
10560SOL     OW32578   1.620   4.749   5.149
10560SOL    HW132579   1.535   4.799   5.136
10560SOL    HW232580   1.600   4.658   5.184
10561SOL     OW32581   1.956   4.898   6.724
10561SOL    HW132582   1.998   4.818   6.681
10561SOL    HW232583   1.858   4.900   6.703
10562SOL     OW32584   4.438   0.600   0.628
10562SOL    HW132585   4.537   0.590   0.614
10562SOL    HW232586   4.395   0.634   0.545
10563SOL     OW32587   1.827   1.958   5.159
10563SOL    HW132588   1.787   1.904   5.234
10563SOL    HW232589   1.911   1.914   5.128
10564SOL     OW32590   6.161   0.942   1.783
10564SOL    HW132591   6.222   0.974   1.710
10564SOL    HW232592   6.214   0.931   1.867
10565SOL     OW32593   6.380   0.697   5.432
10565SOL    HW132594   6.452   0.730   5.371
10565SOL    HW232595   6.321   0.773   5.457
10566SOL     OW32596   3.645   4.033   6.220
10566SOL    HW132597   3.560   4.029   6.272
10566SOL    HW232598   3.723   4.038   6.282
10567SOL     OW32599   1.807   3.559   4.363
10567SOL    HW132600   1.876   3.531   4.296
10567SOL    HW232601   1.797   3.488   4.432
10568SOL     OW32602   5.853   1.368   2.138
10568SOL    HW132603   5.822   1.277   2.108
10568SOL    HW232604   5.855   1.430   2.059
10569SOL     OW32605   6.045   3.006   2.825
10569SOL    HW132606   6.047   3.040   2.732
10569SOL    HW232607   5.960   3.035   2.870
10570SOL     OW32608   1.879   4.390   2.621
10570SOL    HW132609   1.926   4.341   2.547
10570SOL    HW232610   1.880   4.335   2.704
10571SOL     OW32611   6.613   5.515   2.933
10571SOL    HW132612   6.587   5.435   2.987
10571SOL    HW232613   6.707   5.540   2.953
10572SOL     OW32614   5.469   3.414   2.370
10572SOL    HW132615   5.467   3.480   2.445
10572SOL    HW232616   5.551   3.358   2.377
10573SOL     OW32617   5.959   5.760   3.795
10573SOL    HW132618   5.980   5.697   3.870
10573SOL    HW232619   5.860   5.764   3.782
10574SOL     OW32620   1.441   1.795   3.670
10574SOL    HW132621   1.383   1.755   3.599
10574SOL    HW232622   1.536   1.768   3.654
10575SOL     OW32623   1.013   0.920   4.798
10575SOL    HW132624   1.006   0.864   4.880
10575SOL    HW232625   0.957   1.002   4.808
10576SOL     OW32626   1.549   5.949   5.235
10576SOL    HW132627   1.555   5.852   5.257
10576SOL    HW232628   1.584   6.003   5.312
10577SOL     OW32629   1.768   3.015   6.165
10577SOL    HW132630   1.781   3.022   6.066
10577SOL    HW232631   1.800   3.099   6.209
10578SOL     OW32632   5.993   0.282   5.150
10578SOL    HW132633   6.056   0.211   5.180
10578SOL    HW232634   5.973   0.271   5.053
10579SOL     OW32635   3.885   1.833   0.842
10579SOL    HW132636   3.818   1.878   0.782
10579SOL    HW232637   3.916   1.748   0.799
10580SOL     OW32638   6.705   6.044   6.582
10580SOL    HW132639   6.607   6.028   6.589
10580SOL    HW232640   6.753   5.985   6.646
10581SOL     OW32641   5.580   0.739   3.816
10581SOL    HW132642   5.669   0.769   3.781
10581SOL    HW232643   5.579   0.639   3.822
10582SOL     OW32644   3.671   5.093   6.959
10582SOL    HW132645   3.603   5.032   7.000
10582SOL    HW232646   3.644   5.188   6.976
10583SOL     OW32647   3.569   0.992   6.783
10583SOL    HW132648   3.662   1.029   6.787
10583SOL    HW232649   3.560   0.918   6.850
10584SOL     OW32650   5.571   6.325   1.360
10584SOL    HW132651   5.662   6.353   1.391
10584SOL    HW232652   5.504   6.343   1.432
10585SOL     OW32653   1.071   3.164   5.517
10585SOL    HW132654   1.140   3.101   5.480
10585SOL    HW232655   1.110   3.214   5.594
10586SOL     OW32656   2.747   6.100   6.112
10586SOL    HW132657   2.707   6.009   6.119
10586SOL    HW232658   2.675   6.167   6.094
10587SOL     OW32659   5.659   3.724   0.537
10587SOL    HW132660   5.733   3.659   0.518
10587SOL    HW232661   5.617   3.702   0.625
10588SOL     OW32662   0.758   4.621   2.557
10588SOL    HW132663   0.706   4.618   2.643
10588SOL    HW232664   0.830   4.552   2.559
10589SOL     OW32665   5.726   2.904   4.453
10589SOL    HW132666   5.696   2.882   4.360
10589SOL    HW232667   5.648   2.937   4.506
10590SOL     OW32668   0.738   0.139   3.148
10590SOL    HW132669   0.734   0.237   3.167
10590SOL    HW232670   0.754   0.125   3.050
10591SOL     OW32671   1.472   1.509   5.925
10591SOL    HW132672   1.381   1.549   5.915
10591SOL    HW232673   1.510   1.491   5.834
10592SOL     OW32674   6.788   1.377   0.386
10592SOL    HW132675   6.745   1.304   0.440
10592SOL    HW232676   6.887   1.364   0.386
10593SOL     OW32677   2.344   5.258   1.908
10593SOL    HW132678   2.396   5.341   1.929
10593SOL    HW232679   2.370   5.186   1.972
10594SOL     OW32680   6.315   1.767   4.160
10594SOL    HW132681   6.366   1.806   4.083
10594SOL    HW232682   6.296   1.839   4.226
10595SOL     OW32683   3.595   6.633   6.129
10595SOL    HW132684   3.648   6.653   6.046
10595SOL    HW232685   3.508   6.682   6.126
10596SOL     OW32686   4.222   6.711   1.926
10596SOL    HW132687   4.293   6.780   1.910
10596SOL    HW232688   4.162   6.742   2.000
10597SOL     OW32689   2.201   1.096   4.888
10597SOL    HW132690   2.268   1.091   4.815
10597SOL    HW232691   2.153   1.184   4.885
10598SOL     OW32692   2.425   2.432   6.767
10598SOL    HW132693   2.460   2.515   6.724
10598SOL    HW232694   2.385   2.373   6.696
10599SOL     OW32695   6.191   1.190   0.310
10599SOL    HW132696   6.209   1.226   0.218
10599SOL    HW232697   6.187   1.265   0.375
10600SOL     OW32698   2.997   2.725   6.083
10600SOL    HW132699   2.973   2.798   6.020
10600SOL    HW232700   3.042   2.764   6.164
10601SOL     OW32701   2.977   6.510   6.473
10601SOL    HW132702   3.042   6.438   6.447
10601SOL    HW232703   2.959   6.568   6.393
10602SOL     OW32704   4.608   1.171   1.544
10602SOL    HW132705   4.551   1.091   1.562
10602SOL    HW232706   4.631   1.216   1.630
10603SOL     OW32707   1.821   5.464   3.732
10603SOL    HW132708   1.886   5.488   3.660
10603SOL    HW232709   1.808   5.365   3.734
10604SOL     OW32710   6.641   4.440   4.411
10604SOL    HW132711   6.600   4.387   4.485
10604SOL    HW232712   6.663   4.532   4.445
10605SOL     OW32713   0.973   5.056   0.547
10605SOL    HW132714   1.018   5.098   0.626
10605SOL    HW232715   0.909   4.986   0.579
10606SOL     OW32716   0.197   0.650   1.798
10606SOL    HW132717   0.207   0.733   1.742
10606SOL    HW232718   0.115   0.600   1.768
10607SOL     OW32719   4.698   4.398   6.631
10607SOL    HW132720   4.758   4.355   6.698
10607SOL    HW232721   4.679   4.493   6.658
10608SOL     OW32722   5.838   1.692   4.238
10608SOL    HW132723   5.850   1.687   4.337
10608SOL    HW232724   5.743   1.716   4.217
10609SOL     OW32725   4.092   6.028   1.220
10609SOL    HW132726   4.079   6.096   1.292
10609SOL    HW232727   4.186   6.032   1.186
10610SOL     OW32728   1.298   3.479   5.996
10610SOL    HW132729   1.345   3.566   5.986
10610SOL    HW232730   1.335   3.413   5.931
10611SOL     OW32731   5.377   2.679   6.428
10611SOL    HW132732   5.323   2.743   6.375
10611SOL    HW232733   5.351   2.684   6.525
10612SOL     OW32734   2.193   6.601   6.085
10612SOL    HW132735   2.227   6.652   6.164
10612SOL    HW232736   2.270   6.574   6.027
10613SOL     OW32737   0.623   6.863   5.126
10613SOL    HW132738   0.526   6.853   5.151
10613SOL    HW232739   0.657   6.950   5.160
10614SOL     OW32740   6.422   0.951   4.398
10614SOL    HW132741   6.437   1.001   4.313
10614SOL    HW232742   6.435   1.012   4.476
10615SOL     OW32743   5.007   5.432   4.917
10615SOL    HW132744   4.935   5.499   4.898
10615SOL    HW232745   4.965   5.345   4.942
10616SOL     OW32746   3.194   5.889   0.759
10616SOL    HW132747   3.121   5.941   0.803
10616SOL    HW232748   3.158   5.838   0.681
10617SOL     OW32749   2.385   2.680   0.251
10617SOL    HW132750   2.448   2.644   0.320
10617SOL    HW232751   2.418   2.656   0.160
10618SOL     OW32752   5.696   2.559   0.087
10618SOL    HW132753   5.687   2.652   0.052
10618SOL    HW232754   5.775   2.553   0.149
10619SOL     OW32755   0.742   4.002   3.158
10619SOL    HW132756   0.722   4.055   3.075
10619SOL    HW232757   0.682   3.922   3.162
10620SOL     OW32758   1.304   6.206   4.680
10620SOL    HW132759   1.351   6.119   4.666
10620SOL    HW232760   1.293   6.253   4.592
10621SOL     OW32761   1.382   5.739   6.658
10621SOL    HW132762   1.298   5.743   6.604
10621SOL    HW232763   1.460   5.760   6.599
10622SOL     OW32764   3.864   6.860   1.658
10622SOL    HW132765   3.822   6.897   1.575
10622SOL    HW232766   3.819   6.899   1.738
10623SOL     OW32767   5.869   2.606   3.650
10623SOL    HW132768   5.944   2.581   3.712
10623SOL    HW232769   5.790   2.637   3.704
10624SOL     OW32770   1.857   1.193   5.095
10624SOL    HW132771   1.790   1.186   5.021
10624SOL    HW232772   1.870   1.103   5.137
10625SOL     OW32773   0.463   3.577   0.252
10625SOL    HW132774   0.488   3.546   0.160
10625SOL    HW232775   0.484   3.504   0.318
10626SOL     OW32776   1.274   2.059   1.553
10626SOL    HW132777   1.229   2.148   1.551
10626SOL    HW232778   1.227   2.000   1.619
10627SOL     OW32779   6.466   6.609   2.514
10627SOL    HW132780   6.483   6.696   2.468
10627SOL    HW232781   6.499   6.614   2.608
10628SOL     OW32782   6.642   5.544   5.508
10628SOL    HW132783   6.722   5.545   5.568
10628SOL    HW232784   6.667   5.508   5.419
10629SOL     OW32785   2.401   4.983   5.831
10629SOL    HW132786   2.309   4.945   5.840
10629SOL    HW232787   2.396   5.082   5.818
10630SOL     OW32788   5.826   0.793   3.409
10630SOL    HW132789   5.738   0.803   3.362
10630SOL    HW232790   5.893   0.854   3.366
10631SOL     OW32791   0.165   6.789   3.810
10631SOL    HW132792   0.226   6.861   3.777
10631SOL    HW232793   0.074   6.800   3.770
10632SOL     OW32794   6.419   2.730   4.617
10632SOL    HW132795   6.443   2.753   4.522
10632SOL    HW232796   6.322   2.748   4.631
10633SOL     OW32797   2.688   5.409   1.461
10633SOL    HW132798   2.717   5.371   1.373
10633SOL    HW232799   2.588   5.410   1.465
10634SOL     OW32800   2.936   5.878   1.371
10634SOL    HW132801   3.020   5.865   1.318
10634SOL    HW232802   2.861   5.830   1.326
10635SOL     OW32803   2.739   1.147   0.747
10635SOL    HW132804   2.803   1.135   0.823
10635SOL    HW232805   2.786   1.192   0.671
10636SOL     OW32806   0.996   2.051   1.301
10636SOL    HW132807   1.095   2.036   1.296
10636SOL    HW232808   0.952   1.969   1.338
10637SOL     OW32809   3.490   4.095   5.382
10637SOL    HW132810   3.406   4.117   5.333
10637SOL    HW232811   3.558   4.167   5.366
10638SOL     OW32812   6.580   6.300   4.627
10638SOL    HW132813   6.488   6.332   4.651
10638SOL    HW232814   6.645   6.374   4.639
10639SOL     OW32815   0.817   0.797   5.330
10639SOL    HW132816   0.728   0.755   5.310
10639SOL    HW232817   0.879   0.728   5.367
10640SOL     OW32818   4.829   1.250   6.833
10640SOL    HW132819   4.750   1.213   6.882
10640SOL    HW232820   4.910   1.245   6.891
10641SOL     OW32821   5.757   1.297   6.912
10641SOL    HW132822   5.848   1.335   6.926
10641SOL    HW232823   5.752   1.255   6.821
10642SOL     OW32824   0.624   2.094   1.818
10642SOL    HW132825   0.718   2.075   1.844
10642SOL    HW232826   0.607   2.057   1.726
10643SOL     OW32827   2.288   3.879   5.380
10643SOL    HW132828   2.317   3.924   5.295
10643SOL    HW232829   2.369   3.849   5.431
10644SOL     OW32830   4.675   1.517   4.033
10644SOL    HW132831   4.617   1.491   3.955
10644SOL    HW232832   4.631   1.589   4.086
10645SOL     OW32833   2.033   0.373   4.491
10645SOL    HW132834   2.043   0.284   4.447
10645SOL    HW232835   2.095   0.379   4.570
10646SOL     OW32836   1.238   2.991   5.736
10646SOL    HW132837   1.305   2.950   5.674
10646SOL    HW232838   1.282   3.009   5.824
10647SOL     OW32839   6.582   5.022   0.737
10647SOL    HW132840   6.630   5.086   0.676
10647SOL    HW232841   6.548   5.072   0.816
10648SOL     OW32842   4.844   2.898   6.623
10648SOL    HW132843   4.922   2.957   6.603
10648SOL    HW232844   4.858   2.851   6.710
10649SOL     OW32845   6.943   4.818   5.694
10649SOL    HW132846   6.971   4.771   5.777
10649SOL    HW232847   6.850   4.791   5.670
10650SOL     OW32848   2.665   6.704   3.897
10650SOL    HW132849   2.663   6.670   3.991
10650SOL    HW232850   2.735   6.656   3.845
10651SOL     OW32851   5.016   6.438   5.252
10651SOL    HW132852   4.939   6.427   5.315
10651SOL    HW232853   5.013   6.530   5.213
10652SOL     OW32854   3.537   0.448   6.427
10652SOL    HW132855   3.455   0.492   6.391
10652SOL    HW232856   3.547   0.471   6.524
10653SOL     OW32857   5.139   4.375   4.431
10653SOL    HW132858   5.141   4.275   4.441
10653SOL    HW232859   5.216   4.415   4.480
10654SOL     OW32860   3.085   0.724   1.378
10654SOL    HW132861   3.055   0.820   1.385
10654SOL    HW232862   3.010   0.668   1.344
10655SOL     OW32863   3.027   6.482   1.065
10655SOL    HW132864   3.067   6.456   1.153
10655SOL    HW232865   2.939   6.437   1.054
10656SOL     OW32866   6.273   2.098   0.255
10656SOL    HW132867   6.281   2.069   0.351
10656SOL    HW232868   6.298   2.195   0.248
10657SOL     OW32869   5.335   0.637   1.150
10657SOL    HW132870   5.297   0.558   1.102
10657SOL    HW232871   5.306   0.721   1.104
10658SOL     OW32872   0.937   5.339   3.909
10658SOL    HW132873   0.940   5.353   4.008
10658SOL    HW232874   0.843   5.323   3.880
10659SOL     OW32875   5.907   0.092   0.675
10659SOL    HW132876   5.967   0.036   0.733
10659SOL    HW232877   5.948   0.182   0.662
10660SOL     OW32878   4.154   4.283   5.553
10660SOL    HW132879   4.182   4.369   5.596
10660SOL    HW232880   4.216   4.262   5.478
10661SOL     OW32881   0.407   6.321   2.380
10661SOL    HW132882   0.357   6.247   2.335
10661SOL    HW232883   0.504   6.315   2.355
10662SOL     OW32884   6.933   1.548   0.584
10662SOL    HW132885   6.895   1.530   0.493
10662SOL    HW232886   0.004   1.508   0.591
10663SOL     OW32887   0.355   0.074   0.450
10663SOL    HW132888   0.349   0.172   0.471
10663SOL    HW232889   0.265   0.033   0.460
10664SOL     OW32890   2.065   5.145   0.031
10664SOL    HW132891   2.076   5.244   0.025
10664SOL    HW232892   2.109   5.102   6.973
10665SOL     OW32893   6.319   2.020   1.033
10665SOL    HW132894   6.382   1.996   1.107
10665SOL    HW232895   6.253   2.087   1.067
10666SOL     OW32896   2.407   5.965   6.934
10666SOL    HW132897   2.401   5.869   6.907
10666SOL    HW232898   2.341   6.019   6.881
10667SOL     OW32899   3.588   1.873   5.738
10667SOL    HW132900   3.635   1.937   5.677
10667SOL    HW232901   3.580   1.784   5.694
10668SOL     OW32902   1.854   1.501   6.498
10668SOL    HW132903   1.862   1.401   6.507
10668SOL    HW232904   1.881   1.528   6.405
10669SOL     OW32905   1.615   6.895   6.974
10669SOL    HW132906   1.563   6.964   6.924
10669SOL    HW232907   1.551   6.832   7.020
10670SOL     OW32908   5.517   4.231   5.955
10670SOL    HW132909   5.614   4.225   5.981
10670SOL    HW232910   5.460   4.210   6.034
10671SOL     OW32911   2.495   2.483   2.923
10671SOL    HW132912   2.397   2.476   2.910
10671SOL    HW232913   2.542   2.456   2.839
10672SOL     OW32914   0.449   2.671   1.176
10672SOL    HW132915   0.372   2.644   1.232
10672SOL    HW232916   0.489   2.756   1.212
10673SOL     OW32917   2.624   3.182   5.377
10673SOL    HW132918   2.694   3.222   5.318
10673SOL    HW232919   2.549   3.147   5.321
10674SOL     OW32920   4.178   3.518   1.583
10674SOL    HW132921   4.208   3.484   1.673
10674SOL    HW232922   4.258   3.547   1.531
10675SOL     OW32923   0.363   0.437   5.526
10675SOL    HW132924   0.291   0.393   5.580
10675SOL    HW232925   0.329   0.525   5.491
10676SOL     OW32926   6.032   6.754   6.410
10676SOL    HW132927   6.082   6.826   6.362
10676SOL    HW232928   6.041   6.668   6.361
10677SOL     OW32929   0.323   0.536   0.700
10677SOL    HW132930   0.294   0.569   0.790
10677SOL    HW232931   0.370   0.610   0.651
10678SOL     OW32932   2.114   5.899   2.428
10678SOL    HW132933   2.091   5.822   2.369
10678SOL    HW232934   2.048   5.973   2.413
10679SOL     OW32935   5.449   5.072   3.904
10679SOL    HW132936   5.377   5.135   3.872
10679SOL    HW232937   5.431   4.981   3.868
10680SOL     OW32938   1.638   3.602   2.538
10680SOL    HW132939   1.645   3.514   2.491
10680SOL    HW232940   1.707   3.605   2.611
10681SOL     OW32941   6.279   2.677   5.718
10681SOL    HW132942   6.244   2.621   5.643
10681SOL    HW232943   6.209   2.684   5.789
10682SOL     OW32944   0.060   1.394   2.661
10682SOL    HW132945   0.045   1.317   2.598
10682SOL    HW232946   0.127   1.368   2.730
10683SOL     OW32947   1.679   1.663   5.027
10683SOL    HW132948   1.667   1.711   4.940
10683SOL    HW232949   1.597   1.675   5.083
10684SOL     OW32950   6.381   4.535   0.233
10684SOL    HW132951   6.355   4.550   0.137
10684SOL    HW232952   6.309   4.570   0.293
10685SOL     OW32953   0.486   2.842   3.193
10685SOL    HW132954   0.523   2.821   3.283
10685SOL    HW232955   0.503   2.939   3.172
10686SOL     OW32956   3.070   5.326   0.291
10686SOL    HW132957   3.027   5.237   0.302
10686SOL    HW232958   3.017   5.395   0.340
10687SOL     OW32959   0.369   4.641   2.974
10687SOL    HW132960   0.325   4.663   2.886
10687SOL    HW232961   0.392   4.726   3.021
10688SOL     OW32962   6.849   4.765   1.755
10688SOL    HW132963   6.900   4.849   1.774
10688SOL    HW232964   6.773   4.785   1.694
10689SOL     OW32965   0.727   0.610   2.565
10689SOL    HW132966   0.713   0.527   2.621
10689SOL    HW232967   0.668   0.605   2.484
10690SOL     OW32968   4.332   4.870   2.135
10690SOL    HW132969   4.352   4.807   2.210
10690SOL    HW232970   4.239   4.856   2.103
10691SOL     OW32971   0.015   1.102   1.749
10691SOL    HW132972   6.943   1.140   1.747
10691SOL    HW232973   0.058   1.116   1.660
10692SOL     OW32974   3.776   5.823   3.606
10692SOL    HW132975   3.784   5.886   3.529
10692SOL    HW232976   3.684   5.830   3.646
10693SOL     OW32977   6.552   1.439   1.719
10693SOL    HW132978   6.625   1.506   1.723
10693SOL    HW232979   6.552   1.383   1.802
10694SOL     OW32980   4.278   6.478   0.699
10694SOL    HW132981   4.194   6.438   0.663
10694SOL    HW232982   4.270   6.578   0.701
10695SOL     OW32983   0.275   2.701   4.026
10695SOL    HW132984   0.234   2.664   3.943
10695SOL    HW232985   0.340   2.773   4.001
10696SOL     OW32986   6.875   5.806   1.551
10696SOL    HW132987   6.795   5.808   1.492
10696SOL    HW232988   6.867   5.875   1.623
10697SOL     OW32989   1.410   5.898   3.887
10697SOL    HW132990   1.357   5.828   3.935
10697SOL    HW232991   1.504   5.867   3.876
10698SOL     OW32992   3.061   6.580   3.494
10698SOL    HW132993   3.127   6.506   3.484
10698SOL    HW232994   2.976   6.545   3.533
10699SOL     OW32995   2.666   2.047   2.968
10699SOL    HW132996   2.728   2.003   3.033
10699SOL    HW232997   2.688   2.145   2.961
10700SOL     OW32998   6.671   6.554   1.077
10700SOL    HW132999   6.638   6.617   1.148
10700SOL    HW233000   6.620   6.468   1.083
10701SOL     OW33001   2.564   6.520   0.954
10701SOL    HW133002   2.616   6.442   0.990
10701SOL    HW233003   2.502   6.554   1.025
10702SOL     OW33004   6.253   2.575   0.963
10702SOL    HW133005   6.257   2.671   0.991
10702SOL    HW233006   6.159   2.542   0.970
10703SOL     OW33007   3.680   4.169   4.284
10703SOL    HW133008   3.677   4.100   4.357
10703SOL    HW233009   3.646   4.256   4.321
10704SOL     OW33010   5.110   0.324   2.144
10704SOL    HW133011   5.021   0.371   2.151
10704SOL    HW233012   5.147   0.337   2.052
10705SOL     OW33013   0.023   2.999   6.078
10705SOL    HW133014   0.062   3.082   6.038
10705SOL    HW233015   0.034   2.923   6.015
10706SOL     OW33016   3.223   1.151   2.096
10706SOL    HW133017   3.173   1.214   2.037
10706SOL    HW233018   3.240   1.065   2.047
10707SOL     OW33019   6.199   6.904   6.093
10707SOL    HW133020   6.272   6.900   6.025
10707SOL    HW233021   6.119   6.854   6.059
10708SOL     OW33022   4.297   1.320   0.974
10708SOL    HW133023   4.225   1.388   0.990
10708SOL    HW233024   4.340   1.337   0.885
10709SOL     OW33025   5.865   6.436   5.640
10709SOL    HW133026   5.848   6.356   5.583
10709SOL    HW233027   5.786   6.452   5.699
10710SOL     OW33028   6.119   5.457   3.030
10710SOL    HW133029   6.195   5.491   3.085
10710SOL    HW233030   6.124   5.496   2.938
10711SOL     OW33031   1.570   6.949   3.820
10711SOL    HW133032   1.663   6.976   3.847
10711SOL    HW233033   1.504   6.997   3.877
10712SOL     OW33034   3.682   1.502   4.877
10712SOL    HW133035   3.597   1.549   4.903
10712SOL    HW233036   3.710   1.532   4.786
10713SOL     OW33037   1.154   5.800   1.684
10713SOL    HW133038   1.203   5.831   1.765
10713SOL    HW233039   1.056   5.802   1.701
10714SOL     OW33040   6.743   5.098   5.745
10714SOL    HW133041   6.749   5.197   5.760
10714SOL    HW233042   6.766   5.050   5.830
10715SOL     OW33043   5.354   1.481   4.305
10715SOL    HW133044   5.419   1.484   4.229
10715SOL    HW233045   5.304   1.567   4.309
10716SOL     OW33046   6.326   0.105   3.775
10716SOL    HW133047   6.339   0.188   3.829
10716SOL    HW233048   6.240   0.110   3.725
10717SOL     OW33049   0.262   0.237   1.409
10717SOL    HW133050   0.339   0.245   1.472
10717SOL    HW233051   0.205   0.319   1.415
10718SOL     OW33052   6.822   4.947   0.432
10718SOL    HW133053   6.860   4.866   0.476
10718SOL    HW233054   6.775   4.921   0.348
10719SOL     OW33055   5.630   0.687   1.962
10719SOL    HW133056   5.592   0.613   2.017
10719SOL    HW233057   5.560   0.720   1.898
10720SOL     OW33058   0.396   3.295   6.650
10720SOL    HW133059   0.371   3.211   6.699
10720SOL    HW233060   0.495   3.298   6.639
10721SOL     OW33061   4.861   2.506   4.406
10721SOL    HW133062   4.787   2.445   4.376
10721SOL    HW233063   4.918   2.530   4.327
10722SOL     OW33064   0.217   3.803   6.861
10722SOL    HW133065   0.266   3.719   6.838
10722SOL    HW233066   0.211   3.861   6.780
10723SOL     OW33067   6.267   3.811   6.741
10723SOL    HW133068   6.177   3.779   6.710
10723SOL    HW233069   6.334   3.796   6.668
10724SOL     OW33070   4.313   6.392   5.806
10724SOL    HW133071   4.228   6.443   5.788
10724SOL    HW233072   4.290   6.297   5.828
10725SOL     OW33073   6.893   6.229   5.167
10725SOL    HW133074   6.983   6.200   5.136
10725SOL    HW233075   6.870   6.317   5.126
10726SOL     OW33076   4.895   1.253   4.592
10726SOL    HW133077   4.805   1.211   4.598
10726SOL    HW233078   4.887   1.351   4.607
10727SOL     OW33079   2.164   6.299   6.069
10727SOL    HW133080   2.132   6.312   5.976
10727SOL    HW233081   2.163   6.386   6.118
10728SOL     OW33082   5.111   5.853   2.863
10728SOL    HW133083   5.192   5.892   2.906
10728SOL    HW233084   5.042   5.834   2.933
10729SOL     OW33085   5.671   2.776   3.044
10729SOL    HW133086   5.698   2.861   3.089
10729SOL    HW233087   5.730   2.701   3.075
10730SOL     OW33088   2.052   6.250   2.744
10730SOL    HW133089   2.124   6.208   2.688
10730SOL    HW233090   1.992   6.304   2.685
10731SOL     OW33091   4.109   0.050   6.277
10731SOL    HW133092   4.140   7.000   6.214
10731SOL    HW233093   4.010   0.061   6.269
10732SOL     OW33094   5.749   6.497   2.989
10732SOL    HW133095   5.662   6.499   2.941
10732SOL    HW233096   5.762   6.407   3.031
10733SOL     OW33097   0.209   0.605   6.295
10733SOL    HW133098   0.149   0.556   6.231
10733SOL    HW233099   0.304   0.586   6.272
10734SOL     OW33100   0.755   1.283   5.503
10734SOL    HW133101   0.753   1.375   5.464
10734SOL    HW233102   0.713   1.219   5.439
10735SOL     OW33103   1.422   5.459   2.188
10735SOL    HW133104   1.387   5.539   2.238
10735SOL    HW233105   1.399   5.468   2.091
10736SOL     OW33106   5.807   0.185   3.552
10736SOL    HW133107   5.897   0.157   3.585
10736SOL    HW233108   5.754   0.222   3.628
10737SOL     OW33109   6.628   1.266   2.239
10737SOL    HW133110   6.561   1.204   2.280
10737SOL    HW233111   6.619   1.357   2.281
10738SOL     OW33112   3.283   1.142   1.720
10738SOL    HW133113   3.248   1.068   1.777
10738SOL    HW233114   3.383   1.143   1.726
10739SOL     OW33115   5.724   2.398   2.992
10739SOL    HW133116   5.679   2.311   2.969
10739SOL    HW233117   5.655   2.468   3.008
10740SOL     OW33118   1.596   6.633   6.170
10740SOL    HW133119   1.618   6.575   6.091
10740SOL    HW233120   1.565   6.722   6.138
10741SOL     OW33121   2.509   2.466   3.475
10741SOL    HW133122   2.542   2.446   3.383
10741SOL    HW233123   2.480   2.562   3.480
10742SOL     OW33124   5.973   6.548   2.555
10742SOL    HW133125   6.056   6.598   2.530
10742SOL    HW233126   5.963   6.548   2.654
10743SOL     OW33127   3.556   1.235   5.852
10743SOL    HW133128   3.486   1.305   5.871
10743SOL    HW233129   3.562   1.221   5.753
10744SOL     OW33130   1.730   0.215   0.309
10744SOL    HW133131   1.819   0.212   0.355
10744SOL    HW233132   1.720   0.135   0.251
10745SOL     OW33133   2.019   5.148   1.368
10745SOL    HW133134   2.098   5.089   1.352
10745SOL    HW233135   1.936   5.092   1.372
10746SOL     OW33136   1.310   6.081   6.439
10746SOL    HW133137   1.299   6.095   6.538
10746SOL    HW233138   1.316   5.983   6.420
10747SOL     OW33139   6.107   1.177   4.937
10747SOL    HW133140   6.092   1.267   4.979
10747SOL    HW233141   6.106   1.107   5.008
10748SOL     OW33142   4.127   6.224   0.960
10748SOL    HW133143   4.089   6.214   1.052
10748SOL    HW233144   4.075   6.293   0.910
10749SOL     OW33145   5.363   6.037   2.218
10749SOL    HW133146   5.440   6.101   2.219
10749SOL    HW233147   5.328   6.028   2.125
10750SOL     OW33148   4.986   2.396   3.991
10750SOL    HW133149   4.927   2.385   3.912
10750SOL    HW233150   4.963   2.481   4.039
10751SOL     OW33151   0.375   5.246   5.083
10751SOL    HW133152   0.401   5.161   5.039
10751SOL    HW233153   0.278   5.244   5.106
10752SOL     OW33154   6.075   6.322   0.623
10752SOL    HW133155   5.980   6.292   0.616
10752SOL    HW233156   6.128   6.253   0.672
10753SOL     OW33157   4.636   6.718   4.062
10753SOL    HW133158   4.545   6.758   4.050
10753SOL    HW233159   4.694   6.781   4.114
10754SOL     OW33160   1.466   3.665   1.463
10754SOL    HW133161   1.474   3.610   1.380
10754SOL    HW233162   1.429   3.755   1.441
10755SOL     OW33163   6.293   3.253   1.046
10755SOL    HW133164   6.265   3.178   0.987
10755SOL    HW233165   6.393   3.257   1.049
10756SOL     OW33166   0.386   2.052   1.349
10756SOL    HW133167   0.440   2.134   1.327
10756SOL    HW233168   0.299   2.079   1.389
10757SOL     OW33169   0.342   3.735   1.559
10757SOL    HW133170   0.353   3.767   1.653
10757SOL    HW233171   0.391   3.649   1.547
10758SOL     OW33172   0.534   0.176   6.729
10758SOL    HW133173   0.616   0.179   6.673
10758SOL    HW233174   0.518   0.083   6.761
10759SOL     OW33175   2.794   2.806   6.316
10759SOL    HW133176   2.891   2.813   6.296
10759SOL    HW233177   2.746   2.768   6.237
10760SOL     OW33178   0.635   5.415   0.868
10760SOL    HW133179   0.563   5.384   0.930
10760SOL    HW233180   0.623   5.372   0.779
10761SOL     OW33181   0.246   1.549   6.264
10761SOL    HW133182   0.179   1.617   6.233
10761SOL    HW233183   0.237   1.466   6.209
10762SOL     OW33184   3.642   6.159   6.011
10762SOL    HW133185   3.572   6.089   5.995
10762SOL    HW233186   3.727   6.114   6.038
10763SOL     OW33187   5.228   0.341   2.985
10763SOL    HW133188   5.206   0.387   2.900
10763SOL    HW233189   5.273   0.405   3.047
10764SOL     OW33190   3.929   0.736   4.664
10764SOL    HW133191   3.999   0.674   4.629
10764SOL    HW233192   3.958   0.831   4.651
10765SOL     OW33193   6.649   1.904   2.776
10765SOL    HW133194   6.564   1.862   2.808
10765SOL    HW233195   6.727   1.854   2.812
10766SOL     OW33196   1.741   5.185   6.396
10766SOL    HW133197   1.674   5.113   6.416
10766SOL    HW233198   1.710   5.239   6.318
10767SOL     OW33199   1.788   5.872   0.394
10767SOL    HW133200   1.787   5.887   0.295
10767SOL    HW233201   1.823   5.780   0.412
10768SOL     OW33202   5.643   5.815   0.427
10768SOL    HW133203   5.569   5.882   0.423
10768SOL    HW233204   5.705   5.830   0.350
10769SOL     OW33205   3.486   3.286   4.517
10769SOL    HW133206   3.532   3.206   4.557
10769SOL    HW233207   3.538   3.368   4.538
10770SOL     OW33208   5.467   6.995   3.991
10770SOL    HW133209   5.417   6.940   4.058
10770SOL    HW233210   5.414   0.057   3.970
10771SOL     OW33211   5.038   6.248   5.855
10771SOL    HW133212   5.070   6.304   5.779
10771SOL    HW233213   5.014   6.306   5.932
10772SOL     OW33214   5.842   4.809   2.839
10772SOL    HW133215   5.766   4.759   2.796
10772SOL    HW233216   5.920   4.811   2.776
10773SOL     OW33217   6.856   4.267   1.357
10773SOL    HW133218   6.947   4.291   1.322
10773SOL    HW233219   6.787   4.322   1.310
10774SOL     OW33220   1.237   2.968   0.459
10774SOL    HW133221   1.268   2.875   0.482
10774SOL    HW233222   1.288   3.034   0.514
10775SOL     OW33223   1.354   4.307   0.748
10775SOL    HW133224   1.405   4.308   0.835
10775SOL    HW233225   1.258   4.327   0.766
10776SOL     OW33226   1.056   1.619   3.419
10776SOL    HW133227   1.035   1.620   3.321
10776SOL    HW233228   0.978   1.657   3.469
10777SOL     OW33229   3.770   1.706   2.075
10777SOL    HW133230   3.725   1.781   2.027
10777SOL    HW233231   3.700   1.645   2.113
10778SOL     OW33232   6.131   6.655   3.203
10778SOL    HW133233   6.128   6.739   3.257
10778SOL    HW233234   6.038   6.620   3.192
10779SOL     OW33235   5.502   4.084   4.586
10779SOL    HW133236   5.490   4.175   4.546
10779SOL    HW233237   5.526   4.093   4.682
10780SOL     OW33238   1.622   6.193   5.048
10780SOL    HW133239   1.601   6.108   5.097
10780SOL    HW233240   1.668   6.172   4.962
10781SOL     OW33241   6.045   2.035   5.337
10781SOL    HW133242   6.046   1.999   5.244
10781SOL    HW233243   6.009   2.129   5.336
10782SOL     OW33244   1.208   2.507   5.146
10782SOL    HW133245   1.258   2.442   5.204
10782SOL    HW233246   1.164   2.576   5.204
10783SOL     OW33247   1.280   2.645   3.080
10783SOL    HW133248   1.240   2.733   3.108
10783SOL    HW233249   1.268   2.634   2.981
10784SOL     OW33250   3.932   6.217   2.460
10784SOL    HW133251   3.999   6.250   2.394
10784SOL    HW233252   3.979   6.165   2.532
10785SOL     OW33253   1.958   5.496   2.323
10785SOL    HW133254   1.928   5.413   2.276
10785SOL    HW233255   1.943   5.575   2.263
10786SOL     OW33256   4.070   1.347   1.959
10786SOL    HW133257   3.995   1.395   1.913
10786SOL    HW233258   4.097   1.397   2.041
10787SOL     OW33259   3.896   1.270   3.441
10787SOL    HW133260   3.903   1.175   3.408
10787SOL    HW233261   3.915   1.272   3.540
10788SOL     OW33262   0.865   4.871   0.711
10788SOL    HW133263   0.849   4.910   0.802
10788SOL    HW233264   0.784   4.820   0.681
10789SOL     OW33265   6.402   1.569   1.052
10789SOL    HW133266   6.405   1.535   1.145
10789SOL    HW233267   6.337   1.646   1.047
10790SOL     OW33268   0.521   2.269   4.825
10790SOL    HW133269   0.444   2.309   4.776
10790SOL    HW233270   0.579   2.219   4.761
10791SOL     OW33271   1.470   1.642   3.305
10791SOL    HW133272   1.452   1.582   3.227
10791SOL    HW233273   1.548   1.606   3.357
10792SOL     OW33274   3.970   2.191   1.301
10792SOL    HW133275   4.005   2.181   1.394
10792SOL    HW233276   3.942   2.101   1.266
10793SOL     OW33277   4.256   1.408   5.023
10793SOL    HW133278   4.323   1.433   4.953
10793SOL    HW233279   4.250   1.309   5.029
10794SOL     OW33280   4.519   2.592   0.889
10794SOL    HW133281   4.470   2.621   0.807
10794SOL    HW233282   4.554   2.499   0.877
10795SOL     OW33283   0.515   3.556   3.265
10795SOL    HW133284   0.438   3.509   3.221
10795SOL    HW233285   0.585   3.490   3.290
10796SOL     OW33286   0.165   6.664   6.800
10796SOL    HW133287   0.194   6.661   6.705
10796SOL    HW233288   0.090   6.599   6.814
10797SOL     OW33289   4.105   3.748   0.179
10797SOL    HW133290   4.123   3.651   0.191
10797SOL    HW233291   4.065   3.785   0.263
10798SOL     OW33292   2.321   6.747   6.598
10798SOL    HW133293   2.223   6.740   6.617
10798SOL    HW233294   2.342   6.837   6.559
10799SOL     OW33295   2.445   1.117   2.951
10799SOL    HW133296   2.419   1.026   2.917
10799SOL    HW233297   2.515   1.155   2.890
10800SOL     OW33298   1.917   0.536   5.588
10800SOL    HW133299   1.994   0.600   5.578
10800SOL    HW233300   1.852   0.572   5.654
10801SOL     OW33301   2.935   6.552   6.078
10801SOL    HW133302   2.842   6.521   6.099
10801SOL    HW233303   2.941   6.576   5.981
10802SOL     OW33304   0.584   4.280   4.344
10802SOL    HW133305   0.665   4.332   4.371
10802SOL    HW233306   0.508   4.344   4.327
10803SOL     OW33307   6.826   4.705   4.872
10803SOL    HW133308   6.856   4.664   4.958
10803SOL    HW233309   6.896   4.768   4.839
10804SOL     OW33310   5.171   4.706   1.667
10804SOL    HW133311   5.099   4.772   1.687
10804SOL    HW233312   5.145   4.651   1.588
10805SOL     OW33313   4.287   6.995   0.636
10805SOL    HW133314   4.300   6.982   0.538
10805SOL    HW233315   4.348   0.048   0.668
10806SOL     OW33316   5.041   3.470   6.993
10806SOL    HW133317   5.059   3.517   6.906
10806SOL    HW233318   5.107   3.396   7.005
10807SOL     OW33319   4.380   6.629   3.387
10807SOL    HW133320   4.392   6.713   3.441
10807SOL    HW233321   4.312   6.571   3.432
10808SOL     OW33322   0.068   2.896   6.423
10808SOL    HW133323   0.121   2.964   6.372
10808SOL    HW233324   0.090   2.804   6.390
10809SOL     OW33325   2.650   0.789   3.171
10809SOL    HW133326   2.676   0.885   3.159
10809SOL    HW233327   2.570   0.784   3.231
10810SOL     OW33328   0.247   1.249   5.710
10810SOL    HW133329   0.277   1.215   5.799
10810SOL    HW233330   0.260   1.178   5.641
10811SOL     OW33331   4.392   4.472   5.604
10811SOL    HW133332   4.322   4.506   5.667
10811SOL    HW233333   4.453   4.409   5.652
10812SOL     OW33334   6.946   2.419   3.190
10812SOL    HW133335   6.872   2.353   3.176
10812SOL    HW233336   6.909   2.512   3.186
10813SOL     OW33337   2.571   5.971   1.598
10813SOL    HW133338   2.563   5.927   1.508
10813SOL    HW233339   2.619   5.910   1.661
10814SOL     OW33340   1.747   6.979   4.916
10814SOL    HW133341   1.660   6.973   4.868
10814SOL    HW233342   1.808   0.022   4.868
10815SOL     OW33343   4.976   2.455   2.959
10815SOL    HW133344   5.015   2.546   2.970
10815SOL    HW233345   4.882   2.463   2.926
10816SOL     OW33346   2.272   1.682   2.067
10816SOL    HW133347   2.209   1.641   2.132
10816SOL    HW233348   2.365   1.682   2.105
10817SOL     OW33349   4.823   6.617   2.167
10817SOL    HW133350   4.770   6.625   2.082
10817SOL    HW233351   4.793   6.535   2.216
10818SOL     OW33352   4.739   3.217   6.827
10818SOL    HW133353   4.676   3.142   6.806
10818SOL    HW233354   4.776   3.253   6.741
10819SOL     OW33355   0.316   3.950   6.414
10819SOL    HW133356   0.257   3.990   6.343
10819SOL    HW233357   0.398   3.912   6.371
10820SOL     OW33358   0.539   6.953   4.452
10820SOL    HW133359   0.490   6.942   4.365
10820SOL    HW233360   0.484   7.009   4.514
10821SOL     OW33361   6.973   0.175   0.474
10821SOL    HW133362   6.936   0.162   0.382
10821SOL    HW233363   6.932   0.256   0.515
10822SOL     OW33364   1.205   4.218   1.408
10822SOL    HW133365   1.236   4.244   1.317
10822SOL    HW233366   1.107   4.196   1.405
10823SOL     OW33367   1.637   0.634   1.045
10823SOL    HW133368   1.596   0.725   1.044
10823SOL    HW233369   1.565   0.565   1.049
10824SOL     OW33370   5.600   0.406   2.573
10824SOL    HW133371   5.590   0.377   2.668
10824SOL    HW233372   5.689   0.378   2.538
10825SOL     OW33373   3.366   1.209   1.342
10825SOL    HW133374   3.435   1.268   1.299
10825SOL    HW233375   3.334   1.252   1.427
10826SOL     OW33376   6.633   3.070   1.654
10826SOL    HW133377   6.545   3.116   1.667
10826SOL    HW233378   6.620   2.971   1.655
10827SOL     OW33379   6.839   2.745   4.393
10827SOL    HW133380   6.826   2.671   4.327
10827SOL    HW233381   6.900   2.814   4.353
10828SOL     OW33382   0.685   5.703   0.414
10828SOL    HW133383   0.673   5.793   0.455
10828SOL    HW233384   0.611   5.643   0.444
10829SOL     OW33385   2.773   3.426   1.366
10829SOL    HW133386   2.799   3.424   1.269
10829SOL    HW233387   2.780   3.520   1.400
10830SOL     OW33388   4.655   2.408   3.820
10830SOL    HW133389   4.744   2.374   3.791
10830SOL    HW233390   4.609   2.452   3.743
10831SOL     OW33391   5.409   1.970   3.164
10831SOL    HW133392   5.500   1.990   3.200
10831SOL    HW233393   5.415   1.901   3.092
10832SOL     OW33394   6.990   2.055   1.127
10832SOL    HW133395   6.928   2.125   1.091
10832SOL    HW233396   0.064   2.086   1.116
10833SOL     OW33397   3.212   6.710   4.860
10833SOL    HW133398   3.189   6.634   4.800
10833SOL    HW233399   3.192   6.686   4.954
10834SOL     OW33400   0.181   1.089   5.242
10834SOL    HW133401   0.223   1.016   5.188
10834SOL    HW233402   0.085   1.067   5.258
10835SOL     OW33403   6.743   1.732   2.462
10835SOL    HW133404   6.795   1.779   2.390
10835SOL    HW233405   6.806   1.686   2.524
10836SOL     OW33406   1.846   2.319   6.595
10836SOL    HW133407   1.859   2.395   6.660
10836SOL    HW233408   1.934   2.274   6.578
10837SOL     OW33409   0.508   5.142   0.822
10837SOL    HW133410   0.446   5.114   0.896
10837SOL    HW233411   0.601   5.116   0.846
10838SOL     OW33412   6.026   0.195   0.359
10838SOL    HW133413   6.095   0.129   0.329
10838SOL    HW233414   6.053   0.235   0.447
10839SOL     OW33415   2.177   2.002   0.631
10839SOL    HW133416   2.115   2.073   0.597
10839SOL    HW233417   2.233   2.040   0.705
10840SOL     OW33418   3.835   5.631   2.395
10840SOL    HW133419   3.815   5.725   2.423
10840SOL    HW233420   3.929   5.608   2.419
10841SOL     OW33421   4.054   4.530   6.155
10841SOL    HW133422   3.984   4.477   6.107
10841SOL    HW233423   4.068   4.617   6.108
10842SOL     OW33424   6.339   2.923   1.492
10842SOL    HW133425   6.386   2.863   1.556
10842SOL    HW233426   6.366   3.018   1.509
10843SOL     OW33427   0.364   1.335   1.951
10843SOL    HW133428   0.439   1.402   1.945
10843SOL    HW233429   0.380   1.274   2.029
10844SOL     OW33430   4.101   6.798   3.906
10844SOL    HW133431   4.071   6.702   3.898
10844SOL    HW233432   4.174   6.804   3.974
10845SOL     OW33433   2.096   2.567   0.819
10845SOL    HW133434   2.116   2.500   0.748
10845SOL    HW233435   2.099   2.659   0.779
10846SOL     OW33436   3.324   1.784   1.806
10846SOL    HW133437   3.294   1.847   1.878
10846SOL    HW233438   3.368   1.836   1.733
10847SOL     OW33439   4.379   3.108   6.091
10847SOL    HW133440   4.311   3.111   6.018
10847SOL    HW233441   4.422   3.198   6.100
10848SOL     OW33442   1.610   0.889   6.387
10848SOL    HW133443   1.613   0.989   6.380
10848SOL    HW233444   1.639   0.861   6.478
10849SOL     OW33445   2.869   4.815   3.971
10849SOL    HW133446   2.898   4.892   4.029
10849SOL    HW233447   2.860   4.733   4.027
10850SOL     OW33448   5.090   6.704   0.777
10850SOL    HW133449   5.145   6.755   0.843
10850SOL    HW233450   5.102   6.743   0.686
10851SOL     OW33451   4.225   2.030   6.290
10851SOL    HW133452   4.248   1.945   6.242
10851SOL    HW233453   4.163   2.085   6.234
10852SOL     OW33454   0.644   0.311   6.339
10852SOL    HW133455   0.561   0.267   6.372
10852SOL    HW233456   0.631   0.342   6.245
10853SOL     OW33457   2.473   1.017   4.765
10853SOL    HW133458   2.513   1.045   4.853
10853SOL    HW233459   2.535   1.041   4.691
10854SOL     OW33460   6.601   6.544   0.357
10854SOL    HW133461   6.701   6.540   0.353
10854SOL    HW233462   6.566   6.593   0.277
10855SOL     OW33463   0.935   6.527   1.189
10855SOL    HW133464   0.966   6.595   1.255
10855SOL    HW233465   0.854   6.480   1.224
10856SOL     OW33466   6.201   0.109   6.582
10856SOL    HW133467   6.298   0.085   6.586
10856SOL    HW233468   6.156   0.080   6.666
10857SOL     OW33469   6.100   0.886   4.471
10857SOL    HW133470   6.002   0.905   4.466
10857SOL    HW233471   6.142   0.903   4.382
10858SOL     OW33472   2.410   1.944   0.834
10858SOL    HW133473   2.504   1.919   0.860
10858SOL    HW233474   2.345   1.889   0.886
10859SOL     OW33475   0.710   4.743   2.323
10859SOL    HW133476   0.693   4.700   2.234
10859SOL    HW233477   0.731   4.673   2.391
10860SOL     OW33478   6.302   1.982   0.520
10860SOL    HW133479   6.222   1.923   0.534
10860SOL    HW233480   6.383   1.936   0.556
10861SOL     OW33481   3.240   2.864   2.205
10861SOL    HW133482   3.185   2.943   2.179
10861SOL    HW233483   3.237   2.852   2.304
10862SOL     OW33484   3.941   3.003   5.533
10862SOL    HW133485   3.928   2.983   5.436
10862SOL    HW233486   3.974   3.097   5.543
10863SOL     OW33487   1.831   1.756   3.085
10863SOL    HW133488   1.903   1.825   3.077
10863SOL    HW233489   1.772   1.779   3.162
10864SOL     OW33490   3.425   4.945   2.116
10864SOL    HW133491   3.486   4.887   2.063
10864SOL    HW233492   3.478   5.016   2.163
10865SOL     OW33493   3.766   1.425   3.247
10865SOL    HW133494   3.812   1.380   3.324
10865SOL    HW233495   3.708   1.358   3.200
10866SOL     OW33496   0.304   3.843   3.350
10866SOL    HW133497   0.294   3.794   3.263
10866SOL    HW233498   0.368   3.794   3.409
10867SOL     OW33499   4.580   3.481   0.571
10867SOL    HW133500   4.525   3.398   0.572
10867SOL    HW233501   4.536   3.550   0.514
10868SOL     OW33502   0.907   1.185   4.740
10868SOL    HW133503   0.851   1.263   4.767
10868SOL    HW233504   0.890   1.164   4.643
10869NA      NA33505   6.515   2.619   5.784
10870NA      NA33506   4.324   4.678   5.197
10871NA      NA33507   1.153   4.867   2.683
10872NA      NA33508   5.706   4.048   3.577
10873NA      NA33509   3.830   2.053   5.183
10874NA      NA33510   2.307   4.868   0.352
10875NA      NA33511   1.309   5.200   7.003
10876NA      NA33512   3.560   4.147   1.279
10877NA      NA33513   4.445   5.358   0.612
10878NA      NA33514   3.240   0.886   6.552
10879NA      NA33515   5.553   6.587   1.969
10880NA      NA33516   1.850   6.978   5.347
10881NA      NA33517   4.072   5.200   1.954
10882NA      NA33518   3.868   3.321   6.695
   7.02053   7.02053   7.02053
