Generated by trjconv : CNT in water t=  30.00000
33518
    1C        C    1   2.842   2.769   4.748
    1C        C    2   2.897   2.719   4.868
    1C        C    3   2.844   2.773   4.987
    1C        C    4   2.855   2.780   4.263
    1C        C    5   2.905   2.727   4.384
    1C        C    6   2.846   2.771   4.504
    1C        C    7   3.011   2.640   4.628
    1C        C    8   2.895   2.720   4.626
    1C        C    9   3.077   2.604   4.748
    1C        C   10   3.009   2.634   4.868
    1C        C   11   3.182   2.491   4.976
    1C        C   12   3.060   2.561   4.976
    1C        C   13   2.844   2.767   3.771
    1C        C   14   2.898   2.723   3.894
    1C        C   15   2.854   2.777   4.017
    1C        C   16   3.024   2.653   4.137
    1C        C   17   2.910   2.737   4.140
    1C        C   18   3.083   2.616   4.259
    1C        C   19   3.022   2.647   4.383
    1C        C   20   3.209   2.560   4.504
    1C        C   21   3.077   2.608   4.507
    1C        C   22   3.279   2.539   4.625
    1C        C   23   3.210   2.554   4.747
    1C        C   24   3.414   2.486   4.868
    1C        C   25   3.272   2.507   4.866
    1C        C   26   3.490   2.478   4.985
    1C        C   27   2.859   2.776   3.282
    1C        C   28   2.907   2.726   3.406
    1C        C   29   2.855   2.774   3.529
    1C        C   30   3.018   2.639   3.649
    1C        C   31   2.903   2.721   3.651
    1C        C   32   3.079   2.607   3.773
    1C        C   33   3.014   2.643   3.893
    1C        C   34   3.210   2.555   4.015
    1C        C   35   3.083   2.615   4.014
    1C        C   36   3.277   2.531   4.137
    1C        C   37   3.212   2.559   4.260
    1C        C   38   3.417   2.509   4.384
    1C        C   39   3.279   2.538   4.383
    1C        C   40   3.489   2.504   4.505
    1C        C   41   3.415   2.503   4.626
    1C        C   42   3.629   2.483   4.747
    1C        C   43   3.487   2.485   4.746
    1C        C   44   3.707   2.488   4.865
    1C        C   45   3.629   2.482   4.982
    1C        C   46   2.846   2.759   2.793
    1C        C   47   2.900   2.718   2.917
    1C        C   48   2.846   2.765   3.039
    1C        C   49   3.022   2.642   3.160
    1C        C   50   2.906   2.723   3.160
    1C        C   51   3.079   2.605   3.284
    1C        C   52   3.017   2.638   3.406
    1C        C   53   3.208   2.545   3.527
    1C        C   54   3.078   2.599   3.528
    1C        C   55   3.277   2.524   3.649
    1C        C   56   3.209   2.553   3.770
    1C        C   57   3.415   2.505   3.895
    1C        C   58   3.276   2.532   3.892
    1C        C   59   3.487   2.498   4.017
    1C        C   60   3.416   2.507   4.139
    1C        C   61   3.627   2.500   4.260
    1C        C   62   3.486   2.501   4.261
    1C        C   63   3.700   2.504   4.381
    1C        C   64   3.630   2.503   4.504
    1C        C   65   3.835   2.544   4.622
    1C        C   66   3.700   2.505   4.627
    1C        C   67   3.908   2.560   4.742
    1C        C   68   3.844   2.521   4.861
    1C        C   69   4.058   2.582   4.977
    1C        C   70   3.926   2.534   4.973
    1C        C   71   2.824   2.732   2.311
    1C        C   72   2.883   2.688   2.431
    1C        C   73   2.830   2.745   2.549
    1C        C   74   3.009   2.628   2.673
    1C        C   75   2.893   2.709   2.670
    1C        C   76   3.075   2.599   2.794
    1C        C   77   3.017   2.637   2.917
    1C        C   78   3.208   2.541   3.038
    1C        C   79   3.080   2.601   3.038
    1C        C   80   3.276   2.525   3.161
    1C        C   81   3.209   2.548   3.283
    1C        C   82   3.414   2.494   3.399
    1C        C   83   3.276   2.524   3.405
    1C        C   84   3.483   2.492   3.523
    1C        C   85   3.416   2.501   3.647
    1C        C   86   3.624   2.503   3.770
    1C        C   87   3.483   2.498   3.772
    1C        C   88   3.694   2.509   3.892
    1C        C   89   3.628   2.496   4.017
    1C        C   90   3.836   2.541   4.137
    1C        C   91   3.699   2.506   4.138
    1C        C   92   3.902   2.568   4.259
    1C        C   93   3.836   2.544   4.381
    1C        C   94   4.030   2.634   4.498
    1C        C   95   3.905   2.569   4.502
    1C        C   96   4.095   2.669   4.619
    1C        C   97   4.034   2.626   4.739
    1C        C   98   4.193   2.764   4.860
    1C        C   99   4.100   2.656   4.861
    1C        C  100   4.214   2.846   4.972
    1C        C  101   2.826   2.731   2.073
    1C        C  102   2.988   2.589   2.194
    1C        C  103   2.872   2.672   2.191
    1C        C  104   3.067   2.573   2.311
    1C        C  105   3.005   2.616   2.431
    1C        C  106   3.201   2.533   2.552
    1C        C  107   3.070   2.587   2.552
    1C        C  108   3.272   2.516   2.673
    1C        C  109   3.204   2.542   2.794
    1C        C  110   3.413   2.497   2.912
    1C        C  111   3.274   2.520   2.915
    1C        C  112   3.484   2.488   3.034
    1C        C  113   3.415   2.498   3.157
    1C        C  114   3.628   2.496   3.279
    1C        C  115   3.486   2.488   3.278
    1C        C  116   3.695   2.508   3.403
    1C        C  117   3.623   2.502   3.525
    1C        C  118   3.831   2.544   3.649
    1C        C  119   3.694   2.512   3.647
    1C        C  120   3.897   2.568   3.771
    1C        C  121   3.830   2.547   3.894
    1C        C  122   4.022   2.640   4.011
    1C        C  123   3.900   2.570   4.014
    1C        C  124   4.086   2.675   4.132
    1C        C  125   4.026   2.637   4.254
    1C        C  126   4.192   2.771   4.377
    1C        C  127   4.084   2.679   4.376
    1C        C  128   4.239   2.826   4.498
    1C        C  129   4.199   2.766   4.619
    1C        C  130   4.329   2.935   4.742
    1C        C  131   4.248   2.818   4.740
    1C        C  132   4.360   3.005   4.860
    1C        C  133   4.286   2.965   4.972
    1C        C  134   3.172   2.469   2.080
    1C        C  135   3.041   2.517   2.082
    1C        C  136   3.260   2.481   2.189
    1C        C  137   3.198   2.518   2.310
    1C        C  138   3.406   2.471   2.427
    1C        C  139   3.269   2.505   2.432
    1C        C  140   3.480   2.481   2.546
    1C        C  141   3.411   2.490   2.669
    1C        C  142   3.625   2.493   2.790
    1C        C  143   3.484   2.484   2.790
    1C        C  144   3.695   2.499   2.912
    1C        C  145   3.625   2.490   3.034
    1C        C  146   3.834   2.535   3.156
    1C        C  147   3.696   2.506   3.156
    1C        C  148   3.901   2.560   3.278
    1C        C  149   3.832   2.542   3.400
    1C        C  150   4.022   2.629   3.524
    1C        C  151   3.895   2.566   3.524
    1C        C  152   4.078   2.673   3.646
    1C        C  153   4.021   2.635   3.770
    1C        C  154   4.194   2.765   3.888
    1C        C  155   4.084   2.676   3.890
    1C        C  156   4.244   2.813   4.011
    1C        C  157   4.197   2.763   4.134
    1C        C  158   4.339   2.924   4.250
    1C        C  159   4.246   2.818   4.255
    1C        C  160   4.378   2.980   4.374
    1C        C  161   4.334   2.931   4.498
    1C        C  162   4.444   3.113   4.617
    1C        C  163   4.377   2.988   4.620
    1C        C  164   4.472   3.181   4.738
    1C        C  165   4.434   3.125   4.862
    1C        C  166   4.515   3.323   4.976
    1C        C  167   4.484   3.188   4.977
    1C        C  168   3.473   2.428   2.074
    1C        C  169   3.399   2.459   2.188
    1C        C  170   3.620   2.464   2.305
    1C        C  171   3.478   2.463   2.306
    1C        C  172   3.694   2.486   2.423
    1C        C  173   3.621   2.486   2.544
    1C        C  174   3.827   2.544   2.667
    1C        C  175   3.691   2.505   2.666
    1C        C  176   3.897   2.562   2.789
    1C        C  177   3.831   2.537   2.912
    1C        C  178   4.028   2.618   3.032
    1C        C  179   3.899   2.561   3.033
    1C        C  180   4.086   2.659   3.154
    1C        C  181   4.025   2.627   3.278
    1C        C  182   4.194   2.750   3.398
    1C        C  183   4.082   2.664   3.402
    1C        C  184   4.242   2.803   3.520
    1C        C  185   4.188   2.761   3.643
    1C        C  186   4.337   2.916   3.761
    1C        C  187   4.246   2.808   3.763
    1C        C  188   4.376   2.977   3.882
    1C        C  189   4.336   2.920   4.005
    1C        C  190   4.447   3.102   4.128
    1C        C  191   4.381   2.977   4.126
    1C        C  192   4.470   3.168   4.251
    1C        C  193   4.442   3.106   4.375
    1C        C  194   4.510   3.313   4.491
    1C        C  195   4.470   3.177   4.494
    1C        C  196   4.527   3.384   4.611
    1C        C  197   4.512   3.317   4.735
    1C        C  198   4.555   3.532   4.851
    1C        C  199   4.532   3.391   4.854
    1C        C  200   4.586   3.617   4.962
    1C        C  201   3.613   2.426   2.069
    1C        C  202   3.828   2.508   2.183
    1C        C  203   3.693   2.460   2.183
    1C        C  204   3.897   2.541   2.302
    1C        C  205   3.831   2.520   2.425
    1C        C  206   4.025   2.616   2.542
    1C        C  207   3.897   2.556   2.545
    1C        C  208   4.083   2.659   2.663
    1C        C  209   4.022   2.627   2.787
    1C        C  210   4.198   2.744   2.909
    1C        C  211   4.086   2.657   2.909
    1C        C  212   4.253   2.791   3.031
    1C        C  213   4.199   2.744   3.153
    1C        C  214   4.330   2.910   3.272
    1C        C  215   4.248   2.795   3.275
    1C        C  216   4.367   2.973   3.393
    1C        C  217   4.326   2.917   3.517
    1C        C  218   4.435   3.102   3.639
    1C        C  219   4.370   2.976   3.637
    1C        C  220   4.463   3.168   3.761
    1C        C  221   4.443   3.102   3.884
    1C        C  222   4.499   3.306   4.003
    1C        C  223   4.470   3.168   4.005
    1C        C  224   4.512   3.377   4.124
    1C        C  225   4.499   3.306   4.246
    1C        C  226   4.523   3.520   4.366
    1C        C  227   4.514   3.379   4.366
    1C        C  228   4.527   3.595   4.485
    1C        C  229   4.534   3.525   4.607
    1C        C  230   4.498   3.737   4.728
    1C        C  231   4.532   3.599   4.728
    1C        C  232   4.489   3.815   4.845
    1C        C  233   4.541   3.750   4.958
    1C        C  234   4.020   2.604   2.061
    1C        C  235   3.897   2.539   2.065
    1C        C  236   4.086   2.645   2.177
    1C        C  237   4.023   2.607   2.298
    1C        C  238   4.198   2.734   2.420
    1C        C  239   4.084   2.649   2.418
    1C        C  240   4.250   2.787   2.540
    1C        C  241   4.195   2.745   2.663
    1C        C  242   4.336   2.900   2.785
    1C        C  243   4.249   2.789   2.786
    1C        C  244   4.379   2.959   2.906
    1C        C  245   4.340   2.902   3.029
    1C        C  246   4.438   3.093   3.146
    1C        C  247   4.372   2.968   3.150
    1C        C  248   4.458   3.159   3.269
    1C        C  249   4.433   3.097   3.394
    1C        C  250   4.498   3.300   3.515
    1C        C  251   4.464   3.163   3.515
    1C        C  252   4.506   3.372   3.636
    1C        C  253   4.494   3.306   3.760
    1C        C  254   4.523   3.517   3.878
    1C        C  255   4.513   3.377   3.881
    1C        C  256   4.518   3.588   4.000
    1C        C  257   4.520   3.518   4.123
    1C        C  258   4.491   3.730   4.242
    1C        C  259   4.516   3.591   4.244
    1C        C  260   4.470   3.800   4.363
    1C        C  261   4.492   3.732   4.485
    1C        C  262   4.425   3.936   4.603
    1C        C  263   4.477   3.805   4.605
    1C        C  264   4.399   4.009   4.722
    1C        C  265   4.431   3.944   4.842
    1C        C  266   4.319   4.128   4.957
    1C        C  267   4.391   4.010   4.960
    1C        C  268   4.261   2.775   2.061
    1C        C  269   4.197   2.733   2.178
    1C        C  270   4.342   2.893   2.298
    1C        C  271   4.249   2.785   2.298
    1C        C  272   4.385   2.952   2.419
    1C        C  273   4.345   2.892   2.541
    1C        C  274   4.441   3.083   2.662
    1C        C  275   4.375   2.958   2.662
    1C        C  276   4.464   3.153   2.782
    1C        C  277   4.438   3.087   2.905
    1C        C  278   4.506   3.293   3.026
    1C        C  279   4.468   3.157   3.024
    1C        C  280   4.516   3.364   3.148
    1C        C  281   4.495   3.296   3.270
    1C        C  282   4.520   3.508   3.388
    1C        C  283   4.510   3.367   3.391
    1C        C  284   4.520   3.581   3.509
    1C        C  285   4.520   3.513   3.633
    1C        C  286   4.487   3.723   3.754
    1C        C  287   4.518   3.585   3.754
    1C        C  288   4.473   3.794   3.876
    1C        C  289   4.494   3.728   3.999
    1C        C  290   4.430   3.931   4.118
    1C        C  291   4.484   3.801   4.120
    1C        C  292   4.399   3.998   4.239
    1C        C  293   4.426   3.934   4.362
    1C        C  294   4.325   4.125   4.476
    1C        C  295   4.391   4.000   4.482
    1C        C  296   4.289   4.189   4.596
    1C        C  297   4.331   4.134   4.720
    1C        C  298   4.203   4.314   4.838
    1C        C  299   4.284   4.195   4.839
    1C        C  300   4.170   4.403   4.945
    1C        C  301   4.353   2.880   2.062
    1C        C  302   4.469   3.067   2.177
    1C        C  303   4.401   2.941   2.178
    1C        C  304   4.478   3.142   2.298
    1C        C  305   4.450   3.077   2.420
    1C        C  306   4.513   3.282   2.539
    1C        C  307   4.479   3.145   2.541
    1C        C  308   4.526   3.355   2.659
    1C        C  309   4.506   3.288   2.781
    1C        C  310   4.521   3.501   2.898
    1C        C  311   4.521   3.359   2.902
    1C        C  312   4.518   3.572   3.020
    1C        C  313   4.516   3.505   3.144
    1C        C  314   4.493   3.718   3.262
    1C        C  315   4.513   3.578   3.265
    1C        C  316   4.480   3.785   3.386
    1C        C  317   4.495   3.720   3.510
    1C        C  318   4.427   3.924   3.628
    1C        C  319   4.471   3.790   3.631
    1C        C  320   4.397   3.989   3.750
    1C        C  321   4.425   3.927   3.874
    1C        C  322   4.315   4.109   3.993
    1C        C  323   4.395   3.992   3.996
    1C        C  324   4.273   4.168   4.115
    1C        C  325   4.324   4.118   4.237
    1C        C  326   4.188   4.289   4.353
    1C        C  327   4.281   4.183   4.355
    1C        C  328   4.136   4.339   4.475
    1C        C  329   4.191   4.290   4.596
    1C        C  330   4.026   4.431   4.711
    1C        C  331   4.142   4.348   4.715
    1C        C  332   3.970   4.491   4.826
    1C        C  333   4.051   4.476   4.939
    1C        C  334   4.550   3.270   2.064
    1C        C  335   4.534   3.131   2.066
    1C        C  336   4.531   3.350   2.177
    1C        C  337   4.506   3.281   2.297
    1C        C  338   4.523   3.495   2.411
    1C        C  339   4.517   3.354   2.418
    1C        C  340   4.526   3.568   2.532
    1C        C  341   4.527   3.496   2.654
    1C        C  342   4.490   3.708   2.772
    1C        C  343   4.513   3.569   2.774
    1C        C  344   4.472   3.777   2.894
    1C        C  345   4.495   3.712   3.017
    1C        C  346   4.418   3.911   3.139
    1C        C  347   4.471   3.780   3.138
    1C        C  348   4.392   3.979   3.260
    1C        C  349   4.431   3.917   3.381
    1C        C  350   4.320   4.099   3.505
    1C        C  351   4.399   3.982   3.502
    1C        C  352   4.276   4.161   3.624
    1C        C  353   4.318   4.106   3.747
    1C        C  354   4.181   4.268   3.864
    1C        C  355   4.274   4.162   3.869
    1C        C  356   4.128   4.318   3.985
    1C        C  357   4.177   4.271   4.109
    1C        C  358   4.008   4.397   4.229
    1C        C  359   4.131   4.327   4.230
    1C        C  360   3.948   4.438   4.351
    1C        C  361   4.015   4.411   4.473
    1C        C  362   3.829   4.521   4.592
    1C        C  363   3.956   4.459   4.592
    1C        C  364   3.764   4.548   4.714
    1C        C  365   3.839   4.543   4.834
    1C        C  366   3.631   4.592   4.947
    1C        C  367   3.768   4.569   4.951
    1C        C  368   4.512   3.566   2.053
    1C        C  369   4.526   3.491   2.170
    1C        C  370   4.513   3.708   2.286
    1C        C  371   4.524   3.567   2.289
    1C        C  372   4.487   3.778   2.405
    1C        C  373   4.501   3.706   2.526
    1C        C  374   4.424   3.906   2.649
    1C        C  375   4.477   3.775   2.648
    1C        C  376   4.391   3.973   2.769
    1C        C  377   4.421   3.909   2.891
    1C        C  378   4.316   4.092   3.013
    1C        C  379   4.388   3.971   3.014
    1C        C  380   4.275   4.152   3.134
    1C        C  381   4.316   4.098   3.259
    1C        C  382   4.173   4.251   3.376
    1C        C  383   4.274   4.153   3.382
    1C        C  384   4.122   4.303   3.497
    1C        C  385   4.181   4.266   3.620
    1C        C  386   4.010   4.391   3.742
    1C        C  387   4.128   4.314   3.742
    1C        C  388   3.947   4.429   3.862
    1C        C  389   4.010   4.397   3.984
    1C        C  390   3.818   4.486   4.107
    1C        C  391   3.948   4.431   4.106
    1C        C  392   3.750   4.512   4.229
    1C        C  393   3.820   4.496   4.351
    1C        C  394   3.617   4.557   4.476
    1C        C  395   3.757   4.534   4.471
    1C        C  396   3.544   4.570   4.596
    1C        C  397   3.624   4.566   4.713
    1C        C  398   3.411   4.552   4.839
    1C        C  399   3.550   4.576   4.833
    1C        C  400   3.347   4.509   4.956
    1C        C  401   4.503   3.705   2.050
    1C        C  402   4.452   3.917   2.164
    1C        C  403   4.496   3.782   2.167
    1C        C  404   4.413   3.978   2.285
    1C        C  405   4.438   3.911   2.406
    1C        C  406   4.321   4.091   2.525
    1C        C  407   4.400   3.973   2.527
    1C        C  408   4.280   4.151   2.646
    1C        C  409   4.317   4.093   2.769
    1C        C  410   4.174   4.250   2.888
    1C        C  411   4.274   4.150   2.891
    1C        C  412   4.119   4.296   3.009
    1C        C  413   4.172   4.248   3.131
    1C        C  414   4.001   4.374   3.253
    1C        C  415   4.118   4.294   3.253
    1C        C  416   3.940   4.406   3.376
    1C        C  417   4.002   4.378   3.500
    1C        C  418   3.811   4.472   3.617
    1C        C  419   3.942   4.420   3.621
    1C        C  420   3.746   4.498   3.740
    1C        C  421   3.815   4.481   3.862
    1C        C  422   3.612   4.536   3.987
    1C        C  423   3.751   4.508   3.985
    1C        C  424   3.542   4.544   4.109
    1C        C  425   3.613   4.548   4.231
    1C        C  426   3.405   4.552   4.354
    1C        C  427   3.546   4.562   4.354
    1C        C  428   3.332   4.550   4.475
    1C        C  429   3.403   4.564   4.597
    1C        C  430   3.195   4.526   4.725
    1C        C  431   3.335   4.550   4.720
    1C        C  432   3.123   4.503   4.845
    1C        C  433   3.209   4.492   4.956
    1C        C  434   4.383   4.123   2.051
    1C        C  435   4.447   3.998   2.050
    1C        C  436   4.302   4.164   2.162
    1C        C  437   4.328   4.092   2.283
    1C        C  438   4.177   4.246   2.402
    1C        C  439   4.278   4.147   2.403
    1C        C  440   4.123   4.295   2.522
    1C        C  441   4.178   4.249   2.644
    1C        C  442   4.002   4.370   2.765
    1C        C  443   4.121   4.295   2.765
    1C        C  444   3.941   4.410   2.886
    1C        C  445   4.004   4.379   3.009
    1C        C  446   3.811   4.466   3.130
    1C        C  447   3.942   4.412   3.131
    1C        C  448   3.748   4.492   3.254
    1C        C  449   3.814   4.470   3.376
    1C        C  450   3.606   4.530   3.497
    1C        C  451   3.744   4.499   3.496
    1C        C  452   3.540   4.543   3.620
    1C        C  453   3.609   4.531   3.743
    1C        C  454   3.398   4.545   3.865
    1C        C  455   3.540   4.543   3.866
    1C        C  456   3.330   4.540   3.988
    1C        C  457   3.401   4.547   4.110
    1C        C  458   3.195   4.506   4.238
    1C        C  459   3.332   4.540   4.234
    1C        C  460   3.126   4.488   4.360
    1C        C  461   3.196   4.512   4.481
    1C        C  462   2.999   4.439   4.605
    1C        C  463   3.128   4.498   4.604
    1C        C  464   2.934   4.401   4.724
    1C        C  465   2.991   4.447   4.846
    1C        C  466   2.808   4.333   4.958
    1C        C  467   2.908   4.431   4.961
    1C        C  468   4.121   4.278   2.037
    1C        C  469   4.185   4.245   2.157
    1C        C  470   4.006   4.368   2.280
    1C        C  471   4.126   4.292   2.278
    1C        C  472   3.940   4.404   2.400
    1C        C  473   4.004   4.372   2.521
    1C        C  474   3.812   4.463   2.641
    1C        C  475   3.942   4.407   2.643
    1C        C  476   3.746   4.490   2.763
    1C        C  477   3.811   4.467   2.886
    1C        C  478   3.606   4.516   3.010
    1C        C  479   3.746   4.493   3.008
    1C        C  480   3.535   4.523   3.132
    1C        C  481   3.609   4.518   3.252
    1C        C  482   3.396   4.538   3.375
    1C        C  483   3.537   4.533   3.373
    1C        C  484   3.328   4.532   3.498
    1C        C  485   3.398   4.543   3.620
    1C        C  486   3.191   4.500   3.744
    1C        C  487   3.328   4.537   3.743
    1C        C  488   3.128   4.480   3.869
    1C        C  489   3.193   4.505   3.992
    1C        C  490   3.004   4.416   4.117
    1C        C  491   3.131   4.478   4.116
    1C        C  492   2.943   4.384   4.240
    1C        C  493   3.000   4.426   4.363
    1C        C  494   2.834   4.297   4.483
    1C        C  495   2.941   4.390   4.486
    1C        C  496   2.780   4.252   4.606
    1C        C  497   2.829   4.306   4.727
    1C        C  498   2.669   4.159   4.842
    1C        C  499   2.763   4.264   4.845
    1C        C  500   2.599   4.116   4.955
    1C        C  501   4.001   4.348   2.044
    1C        C  502   3.816   4.467   2.157
    1C        C  503   3.941   4.401   2.159
    1C        C  504   3.743   4.481   2.277
    1C        C  505   3.808   4.453   2.399
    1C        C  506   3.602   4.512   2.522
    1C        C  507   3.740   4.481   2.520
    1C        C  508   3.533   4.523   2.645
    1C        C  509   3.607   4.515   2.765
    1C        C  510   3.396   4.530   2.887
    1C        C  511   3.537   4.524   2.887
    1C        C  512   3.324   4.522   3.008
    1C        C  513   3.394   4.529   3.131
    1C        C  514   3.188   4.493   3.257
    1C        C  515   3.324   4.532   3.254
    1C        C  516   3.127   4.464   3.380
    1C        C  517   3.191   4.496   3.502
    1C        C  518   2.995   4.413   3.628
    1C        C  519   3.123   4.472   3.623
    1C        C  520   2.936   4.377   3.751
    1C        C  521   3.002   4.416   3.870
    1C        C  522   2.841   4.283   3.998
    1C        C  523   2.948   4.376   3.993
    1C        C  524   2.793   4.233   4.121
    1C        C  525   2.838   4.290   4.242
    1C        C  526   2.702   4.127   4.365
    1C        C  527   2.783   4.243   4.363
    1C        C  528   2.660   4.073   4.488
    1C        C  529   2.686   4.147   4.606
    1C        C  530   2.581   3.956   4.732
    1C        C  531   2.639   4.086   4.724
    1C        C  532   2.543   3.900   4.857
    1C        C  533   2.530   3.995   4.964
    1C        C  534   3.619   4.553   2.043
    1C        C  535   3.754   4.514   2.041
    1C        C  536   3.534   4.537   2.157
    1C        C  537   3.604   4.512   2.278
    1C        C  538   3.391   4.519   2.400
    1C        C  539   3.533   4.519   2.400
    1C        C  540   3.321   4.509   2.522
    1C        C  541   3.392   4.525   2.643
    1C        C  542   3.184   4.493   2.767
    1C        C  543   3.322   4.523   2.766
    1C        C  544   3.119   4.469   2.890
    1C        C  545   3.188   4.484   3.012
    1C        C  546   2.993   4.407   3.136
    1C        C  547   3.122   4.466   3.135
    1C        C  548   2.940   4.363   3.259
    1C        C  549   2.999   4.402   3.382
    1C        C  550   2.831   4.279   3.505
    1C        C  551   2.938   4.371   3.505
    1C        C  552   2.779   4.234   3.629
    1C        C  553   2.830   4.284   3.751
    1C        C  554   2.704   4.121   3.875
    1C        C  555   2.787   4.235   3.876
    1C        C  556   2.666   4.061   3.997
    1C        C  557   2.705   4.123   4.118
    1C        C  558   2.601   3.942   4.245
    1C        C  559   2.667   4.067   4.242
    1C        C  560   2.575   3.879   4.368
    1C        C  561   2.602   3.944   4.491
    1C        C  562   2.525   3.747   4.615
    1C        C  563   2.562   3.884   4.612
    1C        C  564   2.513   3.681   4.739
    1C        C  565   2.521   3.759   4.858
    1C        C  566   2.520   3.545   4.983
    1C        C  567   2.515   3.684   4.976
    1C        C  568   3.324   4.485   2.041
    1C        C  569   3.394   4.513   2.159
    1C        C  570   3.181   4.481   2.279
    1C        C  571   3.319   4.517   2.279
    1C        C  572   3.115   4.465   2.403
    1C        C  573   3.182   4.487   2.526
    1C        C  574   2.987   4.402   2.647
    1C        C  575   3.114   4.465   2.647
    1C        C  576   2.929   4.365   2.771
    1C        C  577   2.994   4.404   2.890
    1C        C  578   2.829   4.273   3.014
    1C        C  579   2.936   4.366   3.013
    1C        C  580   2.783   4.220   3.137
    1C        C  581   2.835   4.269   3.258
    1C        C  582   2.698   4.113   3.382
    1C        C  583   2.786   4.224   3.383
    1C        C  584   2.662   4.058   3.507
    1C        C  585   2.696   4.120   3.630
    1C        C  586   2.599   3.935   3.756
    1C        C  587   2.666   4.059   3.754
    1C        C  588   2.571   3.871   3.878
    1C        C  589   2.600   3.936   4.000
    1C        C  590   2.537   3.738   4.128
    1C        C  591   2.570   3.875   4.124
    1C        C  592   2.522   3.672   4.252
    1C        C  593   2.529   3.746   4.372
    1C        C  594   2.515   3.534   4.501
    1C        C  595   2.518   3.675   4.494
    1C        C  596   2.517   3.464   4.624
    1C        C  597   2.509   3.539   4.743
    1C        C  598   2.536   3.329   4.864
    1C        C  599   2.522   3.469   4.865
    1C        C  600   2.532   3.246   4.977
    1C        C  601   3.193   4.442   2.043
    1C        C  602   2.981   4.391   2.161
    1C        C  603   3.116   4.440   2.160
    1C        C  604   2.926   4.356   2.287
    1C        C  605   2.990   4.399   2.405
    1C        C  606   2.818   4.272   2.531
    1C        C  607   2.927   4.362   2.526
    1C        C  608   2.774   4.215   2.653
    1C        C  609   2.827   4.268   2.773
    1C        C  610   2.687   4.109   2.895
    1C        C  611   2.776   4.219   2.895
    1C        C  612   2.657   4.049   3.019
    1C        C  613   2.693   4.111   3.141
    1C        C  614   2.593   3.924   3.265
    1C        C  615   2.656   4.050   3.263
    1C        C  616   2.568   3.864   3.390
    1C        C  617   2.602   3.930   3.510
    1C        C  618   2.538   3.731   3.638
    1C        C  619   2.575   3.867   3.634
    1C        C  620   2.523   3.663   3.761
    1C        C  621   2.535   3.734   3.882
    1C        C  622   2.508   3.527   4.010
    1C        C  623   2.525   3.667   4.006
    1C        C  624   2.513   3.459   4.133
    1C        C  625   2.514   3.531   4.255
    1C        C  626   2.545   3.325   4.380
    1C        C  627   2.515   3.463   4.379
    1C        C  628   2.560   3.255   4.501
    1C        C  629   2.533   3.324   4.622
    1C        C  630   2.592   3.120   4.745
    1C        C  631   2.550   3.256   4.744
    1C        C  632   2.617   3.046   4.864
    1C        C  633   2.566   3.110   4.982
    1C        C  634   2.787   4.301   2.054
    1C        C  635   2.893   4.394   2.048
    1C        C  636   2.750   4.230   2.169
    1C        C  637   2.810   4.274   2.288
    1C        C  638   2.681   4.108   2.410
    1C        C  639   2.761   4.225   2.411
    1C        C  640   2.649   4.043   2.531
    1C        C  641   2.687   4.104   2.652
    1C        C  642   2.584   3.922   2.775
    1C        C  643   2.643   4.050   2.775
    1C        C  644   2.562   3.857   2.899
    1C        C  645   2.594   3.923   3.021
    1C        C  646   2.527   3.722   3.150
    1C        C  647   2.568   3.857   3.143
    1C        C  648   2.512   3.656   3.274
    1C        C  649   2.527   3.729   3.394
    1C        C  650   2.507   3.519   3.519
    1C        C  651   2.515   3.661   3.517
    1C        C  652   2.510   3.451   3.643
    1C        C  653   2.509   3.523   3.765
    1C        C  654   2.539   3.316   3.891
    1C        C  655   2.513   3.455   3.888
    1C        C  656   2.554   3.251   4.015
    1C        C  657   2.539   3.320   4.137
    1C        C  658   2.604   3.118   4.259
    1C        C  659   2.560   3.252   4.259
    1C        C  660   2.635   3.055   4.381
    1C        C  661   2.602   3.120   4.502
    1C        C  662   2.709   2.939   4.626
    1C        C  663   2.630   3.056   4.625
    1C        C  664   2.753   2.880   4.746
    1C        C  665   2.695   2.927   4.867
    1C        C  666   2.744   2.870   4.986
    1C        C  667   2.679   4.023   2.057
    1C        C  668   2.681   4.107   2.169
    1C        C  669   2.593   3.911   2.292
    1C        C  670   2.645   4.043   2.289
    1C        C  671   2.559   3.847   2.413
    1C        C  672   2.588   3.915   2.534
    1C        C  673   2.512   3.717   2.659
    1C        C  674   2.557   3.851   2.656
    1C        C  675   2.505   3.651   2.784
    1C        C  676   2.527   3.721   2.905
    1C        C  677   2.506   3.511   3.029
    1C        C  678   2.514   3.652   3.027
    1C        C  679   2.502   3.444   3.153
    1C        C  680   2.500   3.516   3.275
    1C        C  681   2.531   3.308   3.401
    1C        C  682   2.508   3.447   3.398
    1C        C  683   2.550   3.242   3.524
    1C        C  684   2.534   3.312   3.646
    1C        C  685   2.607   3.115   3.771
    1C        C  686   2.555   3.246   3.769
    1C        C  687   2.638   3.053   3.894
    1C        C  688   2.607   3.120   4.015
    1C        C  689   2.716   2.938   4.139
    1C        C  690   2.637   3.055   4.137
    1C        C  691   2.758   2.882   4.262
    1C        C  692   2.714   2.938   4.384
    1C        C  693   2.760   2.883   4.506
    1C        C  694   2.628   3.892   2.056
    1C        C  695   2.535   3.700   2.175
    1C        C  696   2.582   3.834   2.174
    1C        C  697   2.508   3.638   2.299
    1C        C  698   2.517   3.712   2.419
    1C        C  699   2.487   3.502   2.542
    1C        C  700   2.495   3.643   2.540
    1C        C  701   2.498   3.434   2.665
    1C        C  702   2.496   3.510   2.785
    1C        C  703   2.528   3.300   2.909
    1C        C  704   2.504   3.439   2.907
    1C        C  705   2.545   3.235   3.033
    1C        C  706   2.530   3.305   3.155
    1C        C  707   2.602   3.109   3.277
    1C        C  708   2.546   3.239   3.278
    1C        C  709   2.641   3.053   3.401
    1C        C  710   2.606   3.112   3.525
    1C        C  711   2.716   2.934   3.648
    1C        C  712   2.635   3.051   3.649
    1C        C  713   2.760   2.880   3.771
    1C        C  714   2.717   2.935   3.894
    1C        C  715   2.756   2.880   4.017
    1C        C  716   2.452   3.498   2.062
    1C        C  717   2.493   3.632   2.061
    1C        C  718   2.467   3.420   2.182
    1C        C  719   2.480   3.499   2.300
    1C        C  720   2.515   3.290   2.422
    1C        C  721   2.484   3.428   2.422
    1C        C  722   2.531   3.223   2.545
    1C        C  723   2.518   3.295   2.667
    1C        C  724   2.594   3.096   2.791
    1C        C  725   2.541   3.227   2.789
    1C        C  726   2.622   3.034   2.915
    1C        C  727   2.592   3.102   3.035
    1C        C  728   2.709   2.924   3.160
    1C        C  729   2.629   3.040   3.157
    1C        C  730   2.756   2.873   3.283
    1C        C  731   2.715   2.933   3.404
    1C        C  732   2.762   2.880   3.526
    1C        C  733   2.490   3.193   2.072
    1C        C  734   2.486   3.279   2.182
    1C        C  735   2.580   3.083   2.303
    1C        C  736   2.524   3.214   2.303
    1C        C  737   2.619   3.026   2.426
    1C        C  738   2.591   3.096   2.546
    1C        C  739   2.695   2.911   2.672
    1C        C  740   2.623   3.032   2.668
    1C        C  741   2.746   2.858   2.793
    1C        C  742   2.701   2.917   2.914
    1C        C  743   2.750   2.868   3.037
    1C        C  744   2.546   3.065   2.070
    1C        C  745   2.690   2.898   2.187
    1C        C  746   2.608   3.012   2.184
    1C        C  747   2.731   2.840   2.309
    1C        C  748   2.694   2.906   2.429
    1C        C  749   2.735   2.850   2.551
    1C        C  750   2.745   2.844   2.070
    1C        C  751   3.667   2.332   1.968
    1C        O  752   3.735   2.229   1.995
    1C        O  753   3.657   2.352   1.830
    1C        C  754   4.620   3.055   1.973
    1C        O  755   4.589   3.053   1.850
    1C        O  756   4.753   3.022   2.000
    1C        C  757   4.466   4.220   1.977
    1C        O  758   4.563   4.285   2.024
    1C        O  759   4.419   4.289   1.864
    1C        C  760   3.586   4.650   1.936
    1C        O  761   3.624   4.770   1.939
    1C        O  762   3.558   4.614   1.804
    1C        C  763   2.896   4.516   1.964
    1C        O  764   2.919   4.513   1.840
    1C        O  765   2.875   4.646   2.010
    1C        C  766   2.329   3.474   1.984
    1C        O  767   2.328   3.422   1.869
    1C        O  768   2.215   3.550   2.009
    1C        C  769   4.711   3.595   5.037
    1C        O  770   4.717   3.533   5.147
    1C        O  771   4.839   3.607   4.982
    1C        C  772   4.259   4.451   5.054
    1C        O  773   4.334   4.374   5.120
    1C        O  774   4.283   4.588   5.063
    1C        C  775   4.156   2.489   5.037
    1C        O  776   4.152   2.371   4.992
    1C        O  777   4.271   2.513   5.112
    1C        C  778   2.879   4.542   5.055
    1C        O  779   2.849   4.657   5.012
    1C        O  780   2.904   4.524   5.192
    1C        C  781   2.486   3.035   5.081
    1C        O  782   2.370   2.993   5.055
    1C        O  783   2.502   3.041   5.219
    1C        C  784   2.416   3.989   5.059
    1C        O  785   2.307   4.049   5.043
    1C        O  786   2.440   3.961   5.194
    1C        C  787   2.956   2.449   1.981
    1C        O  788   2.954   2.485   1.860
    1C        O  789   2.883   2.334   2.007
    1C        C  790   3.155   2.354   5.027
    1C        O  791   3.165   2.252   4.954
    1C        O  792   3.145   2.322   5.163
    1C        H  793   4.243   3.040   5.035
    1C        H  794   4.139   2.839   5.048
    1C        H  795   4.504   3.132   5.066
    1C        H  796   4.491   3.379   5.064
    1C        H  797   4.524   3.794   5.054
    1C        H  798   4.425   3.982   5.057
    1C        H  799   4.272   4.158   5.049
    1C        H  800   4.046   4.549   5.018
    1C        H  801   3.816   4.536   5.041
    1C        H  802   3.588   4.596   5.045
    1C        H  803   3.402   4.461   5.033
    1C        H  804   3.159   4.495   5.051
    1C        H  805   3.891   2.486   5.063
    1C        H  806   3.678   2.484   5.077
    1C        H  807   3.004   2.558   5.067
    1C        H  808   3.448   2.471   5.083
    1C        H  809   2.840   2.703   5.067
    1C        H  810   2.678   2.852   5.068
    1C        H  811   2.460   3.276   5.050
    1C        H  812   2.539   3.504   5.081
    1C        H  813   2.529   3.741   5.065
    1C        H  814   2.593   4.176   5.044
    1C        H  815   2.781   4.291   5.053
    1C        H  816   2.692   2.847   1.977
    1C        H  817   2.861   2.695   1.978
    1C        H  818   3.188   2.380   2.022
    1C        H  819   3.427   2.422   1.977
    1C        H  820   3.890   2.462   1.991
    1C        H  821   4.043   2.650   1.967
    1C        H  822   4.262   2.720   1.969
    1C        H  823   4.359   2.935   1.971
    1C        H  824   4.596   3.309   1.976
    1C        H  825   4.492   3.514   1.961
    1C        H  826   4.555   3.748   1.968
    1C        H  827   3.814   4.542   1.957
    1C        H  828   3.944   4.342   1.954
    1C        H  829   4.182   4.305   1.953
    1C        H  830   4.513   3.972   1.970
    1C        H  831   2.632   3.841   1.962
    1C        H  832   2.736   4.051   1.971
    1C        H  833   2.709   4.325   1.985
    1C        H  834   3.376   4.507   1.950
    1C        H  835   3.146   4.409   1.953
    1C        H  836   2.505   2.991   2.005
    1C        H  837   2.435   3.226   1.986
    1C        H  838   2.528   3.667   1.966
    2V3OU   H29  839   2.805   3.547   0.888
    2V3OU   C27  840   2.781   3.499   0.987
    2V3OU   H27  841   2.723   3.566   1.055
    2V3OU   H28  842   2.721   3.406   0.972
    2V3OU   O11  843   2.910   3.474   1.044
    2V3OU   C15  844   2.917   3.396   1.158
    2V3OU   C13  845   3.048   3.375   1.206
    2V3OU   C14  846   3.076   3.262   1.284
    2V3OU   C16  847   2.972   3.183   1.335
    2V3OU    H6  848   2.994   3.103   1.407
    2V3OU   C12  849   3.214   3.225   1.320
    2V3OU    O2  850   3.241   3.121   1.384
    2V3OU   C10  851   3.327   3.311   1.281
    2V3OU    C8  852   3.458   3.270   1.302
    2V3OU   O10  853   3.489   3.153   1.363
    2V3OU   H26  854   3.402   3.117   1.388
    2V3OU    C6  855   3.568   3.352   1.259
    2V3OU    C5  856   3.538   3.474   1.200
    2V3OU    C4  857   3.706   3.297   1.264
    2V3OU    H4  858   3.728   3.228   1.351
    2V3OU    H5  859   3.715   3.234   1.170
    2V3OU    C2  860   3.818   3.401   1.268
    2V3OU    O6  861   3.807   3.472   1.392
    2V3OU   H21  862   3.764   3.555   1.364
    2V3OU    C3  863   3.783   3.497   1.154
    2V3OU    H2  864   3.864   3.574   1.148
    2V3OU    H3  865   3.786   3.440   1.058
    2V3OU   C25  866   3.952   3.329   1.256
    2V3OU    O7  867   3.997   3.299   1.145
    2V3OU   C26  868   4.030   3.292   1.382
    2V3OU   H22  869   4.067   3.386   1.431
    2V3OU   H23  870   4.121   3.234   1.353
    2V3OU    O8  871   3.964   3.209   1.474
    2V3OU   H24  872   3.929   3.263   1.547
    2V3OU    C1  873   3.649   3.568   1.163
    2V3OU    H1  874   3.627   3.619   1.065
    2V3OU    O3  875   3.661   3.661   1.271
    2V3OU   C19  876   3.622   3.798   1.257
    2V3OU    H9  877   3.527   3.799   1.197
    2V3OU    O4  878   3.711   3.853   1.163
    2V3OU   C20  879   3.842   3.872   1.216
    2V3OU   H10  880   3.890   3.771   1.233
    2V3OU   C24  881   3.612   3.858   1.398
    2V3OU   H16  882   3.545   3.792   1.459
    2V3OU   H17  883   3.560   3.955   1.378
    2V3OU   C23  884   3.756   3.869   1.451
    2V3OU   H15  885   3.794   3.763   1.468
    2V3OU    N1  886   3.739   3.953   1.568
    2V3OU   H19  887   3.808   3.922   1.633
    2V3OU   H20  888   3.650   3.935   1.610
    2V3OU   C21  889   3.849   3.944   1.351
    2V3OU   H11  890   3.958   3.934   1.380
    2V3OU    O5  891   3.824   4.084   1.358
    2V3OU   H18  892   3.783   4.102   1.444
    2V3OU   C22  893   3.915   3.949   1.107
    2V3OU   H12  894   3.863   4.048   1.095
    2V3OU   H13  895   3.906   3.895   1.010
    2V3OU   H14  896   4.025   3.949   1.126
    2V3OU   C11  897   3.157   3.471   1.185
    2V3OU    O1  898   3.136   3.588   1.144
    2V3OU    C9  899   3.296   3.428   1.206
    2V3OU    C7  900   3.403   3.507   1.166
    2V3OU    O9  901   3.386   3.626   1.098
    2V3OU   H25  902   3.290   3.635   1.087
    2V3OU   C17  903   2.815   3.312   1.208
    2V3OU    H7  904   2.713   3.342   1.183
    2V3OU   C18  905   2.841   3.209   1.298
    2V3OU    H8  906   2.758   3.149   1.337
    3SOL     OW  907   0.806   4.422   0.722
    3SOL    HW1  908   0.777   4.376   0.638
    3SOL    HW2  909   0.860   4.359   0.778
    4SOL     OW  910   5.817   1.276   2.129
    4SOL    HW1  911   5.890   1.342   2.110
    4SOL    HW2  912   5.843   1.186   2.092
    5SOL     OW  913   3.717   2.899   1.140
    5SOL    HW1  914   3.773   2.920   1.220
    5SOL    HW2  915   3.648   2.830   1.165
    6SOL     OW  916   2.921   2.228   0.078
    6SOL    HW1  917   2.970   2.141   0.072
    6SOL    HW2  918   2.834   2.213   0.124
    7SOL     OW  919   6.066   1.030   1.421
    7SOL    HW1  920   5.978   0.984   1.426
    7SOL    HW2  921   6.054   1.128   1.440
    8SOL     OW  922   3.208   1.892   3.597
    8SOL    HW1  923   3.157   1.895   3.683
    8SOL    HW2  924   3.282   1.825   3.604
    9SOL     OW  925   6.891   4.315   6.051
    9SOL    HW1  926   6.862   4.221   6.034
    9SOL    HW2  927   6.820   4.378   6.021
   10SOL     OW  928   0.343   4.647   0.831
   10SOL    HW1  929   0.429   4.675   0.873
   10SOL    HW2  930   0.351   4.553   0.798
   11SOL     OW  931   4.171   0.153   6.898
   11SOL    HW1  932   4.224   0.177   6.979
   11SOL    HW2  933   4.120   0.069   6.914
   12SOL     OW  934   5.198   6.610   2.436
   12SOL    HW1  935   5.286   6.596   2.481
   12SOL    HW2  936   5.184   6.539   2.367
   13SOL     OW  937   1.519   0.502   2.961
   13SOL    HW1  938   1.464   0.424   2.989
   13SOL    HW2  939   1.464   0.565   2.907
   14SOL     OW  940   2.777   6.613   2.994
   14SOL    HW1  941   2.708   6.567   2.939
   14SOL    HW2  942   2.837   6.545   3.036
   15SOL     OW  943   2.497   6.230   6.425
   15SOL    HW1  944   2.443   6.314   6.416
   15SOL    HW2  945   2.505   6.206   6.521
   16SOL     OW  946   6.451   2.257   0.009
   16SOL    HW1  947   6.437   2.347   6.993
   16SOL    HW2  948   6.377   2.236   0.073
   17SOL     OW  949   4.150   6.032   2.895
   17SOL    HW1  950   4.214   5.962   2.926
   17SOL    HW2  951   4.057   6.005   2.920
   18SOL     OW  952   1.418   0.826   6.918
   18SOL    HW1  953   1.471   0.911   6.916
   18SOL    HW2  954   1.340   0.837   6.979
   19SOL     OW  955   0.762   6.942   1.297
   19SOL    HW1  956   0.714   0.003   1.271
   19SOL    HW2  957   0.765   6.936   1.397
   20SOL     OW  958   3.321   0.815   3.948
   20SOL    HW1  959   3.307   0.769   4.036
   20SOL    HW2  960   3.418   0.831   3.933
   21SOL     OW  961   3.114   3.334   1.803
   21SOL    HW1  962   3.149   3.366   1.715
   21SOL    HW2  963   3.037   3.273   1.788
   22SOL     OW  964   0.769   1.187   5.593
   22SOL    HW1  965   0.753   1.089   5.603
   22SOL    HW2  966   0.744   1.234   5.678
   23SOL     OW  967   3.068   6.063   4.874
   23SOL    HW1  968   3.110   6.063   4.965
   23SOL    HW2  969   3.107   5.988   4.820
   24SOL     OW  970   4.046   1.442   4.929
   24SOL    HW1  971   4.038   1.541   4.915
   24SOL    HW2  972   3.963   1.397   4.895
   25SOL     OW  973   2.297   5.422   0.835
   25SOL    HW1  974   2.297   5.322   0.832
   25SOL    HW2  975   2.306   5.458   0.742
   26SOL     OW  976   5.870   0.972   2.892
   26SOL    HW1  977   5.808   0.952   2.816
   26SOL    HW2  978   5.824   1.032   2.957
   27SOL     OW  979   6.305   0.433   2.445
   27SOL    HW1  980   6.217   0.424   2.493
   27SOL    HW2  981   6.357   0.348   2.454
   28SOL     OW  982   2.650   0.377   0.303
   28SOL    HW1  983   2.693   0.461   0.338
   28SOL    HW2  984   2.599   0.398   0.220
   29SOL     OW  985   4.358   3.074   1.761
   29SOL    HW1  986   4.450   3.051   1.792
   29SOL    HW2  987   4.300   2.993   1.763
   30SOL     OW  988   4.065   1.254   5.134
   30SOL    HW1  989   4.141   1.261   5.198
   30SOL    HW2  990   4.070   1.328   5.068
   31SOL     OW  991   0.758   1.279   5.359
   31SOL    HW1  992   0.840   1.329   5.332
   31SOL    HW2  993   0.763   1.257   5.456
   32SOL     OW  994   0.066   2.060   2.109
   32SOL    HW1  995   0.093   2.049   2.013
   32SOL    HW2  996   0.139   2.105   2.160
   33SOL     OW  997   1.760   1.511   5.514
   33SOL    HW1  998   1.731   1.423   5.476
   33SOL    HW2  999   1.737   1.515   5.611
   34SOL     OW 1000   0.617   0.863   5.174
   34SOL    HW1 1001   0.686   0.812   5.227
   34SOL    HW2 1002   0.636   0.851   5.076
   35SOL     OW 1003   4.292   1.914   6.312
   35SOL    HW1 1004   4.310   1.839   6.376
   35SOL    HW2 1005   4.274   1.998   6.363
   36SOL     OW 1006   1.368   1.817   5.907
   36SOL    HW1 1007   1.391   1.761   5.827
   36SOL    HW2 1008   1.275   1.853   5.896
   37SOL     OW 1009   2.517   6.567   1.253
   37SOL    HW1 1010   2.582   6.629   1.297
   37SOL    HW2 1011   2.565   6.485   1.222
   38SOL     OW 1012   0.232   6.089   1.932
   38SOL    HW1 1013   0.257   6.159   1.998
   38SOL    HW2 1014   0.236   5.999   1.976
   39SOL     OW 1015   6.776   2.857   6.376
   39SOL    HW1 1016   6.843   2.924   6.342
   39SOL    HW2 1017   6.685   2.884   6.346
   40SOL     OW 1018   6.870   1.283   1.210
   40SOL    HW1 1019   6.773   1.267   1.230
   40SOL    HW2 1020   6.925   1.209   1.248
   41SOL     OW 1021   1.533   0.811   6.052
   41SOL    HW1 1022   1.572   0.903   6.048
   41SOL    HW2 1023   1.436   0.817   6.074
   42SOL     OW 1024   3.716   0.323   0.694
   42SOL    HW1 1025   3.743   0.407   0.740
   42SOL    HW2 1026   3.780   0.304   0.619
   43SOL     OW 1027   4.688   5.379   5.362
   43SOL    HW1 1028   4.716   5.475   5.358
   43SOL    HW2 1029   4.734   5.328   5.289
   44SOL     OW 1030   0.978   3.987   6.875
   44SOL    HW1 1031   0.909   3.969   6.945
   44SOL    HW2 1032   1.056   3.927   6.888
   45SOL     OW 1033   2.370   0.498   1.224
   45SOL    HW1 1034   2.274   0.480   1.246
   45SOL    HW2 1035   2.423   0.504   1.309
   46SOL     OW 1036   0.965   5.030   4.176
   46SOL    HW1 1037   0.958   5.122   4.136
   46SOL    HW2 1038   1.031   5.032   4.251
   47SOL     OW 1039   5.624   4.204   2.573
   47SOL    HW1 1040   5.608   4.303   2.565
   47SOL    HW2 1041   5.549   4.163   2.624
   48SOL     OW 1042   0.622   0.955   5.569
   48SOL    HW1 1043   0.549   0.920   5.511
   48SOL    HW2 1044   0.682   0.880   5.596
   49SOL     OW 1045   5.684   3.795   0.279
   49SOL    HW1 1046   5.709   3.882   0.238
   49SOL    HW2 1047   5.600   3.761   0.237
   50SOL     OW 1048   0.000   3.901   4.864
   50SOL    HW1 1049   0.095   3.932   4.873
   50SOL    HW2 1050   6.965   3.980   4.844
   51SOL     OW 1051   3.769   5.486   2.070
   51SOL    HW1 1052   3.845   5.547   2.048
   51SOL    HW2 1053   3.686   5.518   2.025
   52SOL     OW 1054   0.590   2.282   2.100
   52SOL    HW1 1055   0.560   2.333   2.019
   52SOL    HW2 1056   0.583   2.341   2.181
   53SOL     OW 1057   5.073   6.392   4.194
   53SOL    HW1 1058   5.086   6.297   4.223
   53SOL    HW2 1059   5.103   6.402   4.099
   54SOL     OW 1060   5.303   4.601   5.457
   54SOL    HW1 1061   5.378   4.573   5.517
   54SOL    HW2 1062   5.267   4.689   5.488
   55SOL     OW 1063   3.756   1.841   0.765
   55SOL    HW1 1064   3.763   1.752   0.808
   55SOL    HW2 1065   3.669   1.884   0.791
   56SOL     OW 1066   0.562   6.968   1.820
   56SOL    HW1 1067   0.495   7.008   1.882
   56SOL    HW2 1068   0.516   6.942   1.734
   57SOL     OW 1069   5.591   1.110   1.426
   57SOL    HW1 1070   5.640   1.108   1.339
   57SOL    HW2 1071   5.501   1.068   1.414
   58SOL     OW 1072   6.772   0.246   6.764
   58SOL    HW1 1073   6.710   0.324   6.768
   58SOL    HW2 1074   6.816   0.244   6.674
   59SOL     OW 1075   0.949   7.018   5.121
   59SOL    HW1 1076   0.998   0.038   5.197
   59SOL    HW2 1077   0.851   0.015   5.130
   60SOL     OW 1078   5.115   6.937   4.744
   60SOL    HW1 1079   5.062   6.975   4.820
   60SOL    HW2 1080   5.152   7.012   4.688
   61SOL     OW 1081   4.247   6.971   5.240
   61SOL    HW1 1082   4.189   6.906   5.190
   61SOL    HW2 1083   4.204   0.038   5.240
   62SOL     OW 1084   3.152   0.712   5.265
   62SOL    HW1 1085   3.104   0.688   5.350
   62SOL    HW2 1086   3.234   0.765   5.287
   63SOL     OW 1087   6.813   3.164   3.626
   63SOL    HW1 1088   6.901   3.184   3.583
   63SOL    HW2 1089   6.782   3.073   3.595
   64SOL     OW 1090   0.035   2.289   5.507
   64SOL    HW1 1091   0.129   2.319   5.495
   64SOL    HW2 1092   0.033   2.210   5.568
   65SOL     OW 1093   0.947   3.537   5.857
   65SOL    HW1 1094   1.018   3.466   5.856
   65SOL    HW2 1095   0.928   3.566   5.763
   66SOL     OW 1096   2.434   0.732   1.090
   66SOL    HW1 1097   2.396   0.639   1.089
   66SOL    HW2 1098   2.513   0.735   1.151
   67SOL     OW 1099   4.556   5.575   4.146
   67SOL    HW1 1100   4.549   5.589   4.245
   67SOL    HW2 1101   4.621   5.642   4.108
   68SOL     OW 1102   5.654   2.493   6.831
   68SOL    HW1 1103   5.573   2.439   6.854
   68SOL    HW2 1104   5.672   2.485   6.733
   69SOL     OW 1105   2.390   2.780   6.029
   69SOL    HW1 1106   2.310   2.806   5.975
   69SOL    HW2 1107   2.425   2.692   5.998
   70SOL     OW 1108   6.049   6.549   2.287
   70SOL    HW1 1109   6.002   6.473   2.334
   70SOL    HW2 1110   6.003   6.635   2.310
   71SOL     OW 1111   2.086   4.141   2.436
   71SOL    HW1 1112   2.060   4.152   2.340
   71SOL    HW2 1113   2.010   4.100   2.487
   72SOL     OW 1114   3.421   5.230   3.629
   72SOL    HW1 1115   3.459   5.138   3.639
   72SOL    HW2 1116   3.330   5.233   3.671
   73SOL     OW 1117   3.631   2.600   6.639
   73SOL    HW1 1118   3.600   2.579   6.547
   73SOL    HW2 1119   3.564   2.658   6.685
   74SOL     OW 1120   5.194   6.635   6.228
   74SOL    HW1 1121   5.234   6.548   6.199
   74SOL    HW2 1122   5.216   6.652   6.324
   75SOL     OW 1123   3.527   5.105   5.276
   75SOL    HW1 1124   3.562   5.030   5.219
   75SOL    HW2 1125   3.427   5.107   5.271
   76SOL     OW 1126   2.620   2.957   0.995
   76SOL    HW1 1127   2.618   3.057   0.990
   76SOL    HW2 1128   2.527   2.923   1.011
   77SOL     OW 1129   5.561   4.637   6.284
   77SOL    HW1 1130   5.521   4.554   6.247
   77SOL    HW2 1131   5.525   4.716   6.234
   78SOL     OW 1132   6.037   6.789   6.107
   78SOL    HW1 1133   6.063   6.713   6.047
   78SOL    HW2 1134   5.940   6.809   6.095
   79SOL     OW 1135   3.370   6.925   0.417
   79SOL    HW1 1136   3.317   6.860   0.363
   79SOL    HW2 1137   3.320   7.011   0.424
   80SOL     OW 1138   0.521   0.968   4.475
   80SOL    HW1 1139   0.544   1.057   4.436
   80SOL    HW2 1140   0.605   0.924   4.509
   81SOL     OW 1141   1.796   0.274   3.503
   81SOL    HW1 1142   1.732   0.240   3.434
   81SOL    HW2 1143   1.794   0.374   3.503
   82SOL     OW 1144   6.713   4.484   5.916
   82SOL    HW1 1145   6.783   4.554   5.926
   82SOL    HW2 1146   6.622   4.525   5.928
   83SOL     OW 1147   6.418   6.445   6.146
   83SOL    HW1 1148   6.471   6.495   6.214
   83SOL    HW2 1149   6.480   6.395   6.086
   84SOL     OW 1150   6.110   3.886   1.732
   84SOL    HW1 1151   6.163   3.886   1.816
   84SOL    HW2 1152   6.031   3.825   1.741
   85SOL     OW 1153   1.072   0.890   5.447
   85SOL    HW1 1154   1.152   0.950   5.446
   85SOL    HW2 1155   0.996   0.936   5.401
   86SOL     OW 1156   2.290   1.027   4.503
   86SOL    HW1 1157   2.318   0.946   4.554
   86SOL    HW2 1158   2.267   1.101   4.566
   87SOL     OW 1159   4.559   0.062   1.840
   87SOL    HW1 1160   4.555   0.047   1.741
   87SOL    HW2 1161   4.500   7.020   1.886
   88SOL     OW 1162   6.033   0.769   1.079
   88SOL    HW1 1163   6.058   0.866   1.083
   88SOL    HW2 1164   5.939   0.758   1.113
   89SOL     OW 1165   2.098   1.593   5.361
   89SOL    HW1 1166   2.103   1.624   5.266
   89SOL    HW2 1167   2.031   1.648   5.411
   90SOL     OW 1168   6.741   5.942   3.501
   90SOL    HW1 1169   6.811   5.980   3.442
   90SOL    HW2 1170   6.666   5.906   3.446
   91SOL     OW 1171   4.412   4.902   4.752
   91SOL    HW1 1172   4.345   4.968   4.785
   91SOL    HW2 1173   4.496   4.950   4.728
   92SOL     OW 1174   2.957   6.015   1.578
   92SOL    HW1 1175   2.921   5.982   1.666
   92SOL    HW2 1176   3.035   5.960   1.551
   93SOL     OW 1177   3.277   4.747   5.840
   93SOL    HW1 1178   3.241   4.840   5.838
   93SOL    HW2 1179   3.338   4.733   5.762
   94SOL     OW 1180   2.354   6.509   1.936
   94SOL    HW1 1181   2.286   6.533   2.005
   94SOL    HW2 1182   2.390   6.418   1.954
   95SOL     OW 1183   6.674   0.153   5.028
   95SOL    HW1 1184   6.644   0.071   5.077
   95SOL    HW2 1185   6.770   0.143   5.003
   96SOL     OW 1186   2.111   6.990   4.880
   96SOL    HW1 1187   2.084   6.948   4.793
   96SOL    HW2 1188   2.195   6.948   4.913
   97SOL     OW 1189   5.844   3.293   4.569
   97SOL    HW1 1190   5.880   3.200   4.560
   97SOL    HW2 1191   5.745   3.291   4.578
   98SOL     OW 1192   5.639   1.533   5.945
   98SOL    HW1 1193   5.726   1.578   5.958
   98SOL    HW2 1194   5.637   1.447   5.996
   99SOL     OW 1195   4.848   1.894   0.965
   99SOL    HW1 1196   4.882   1.840   1.042
   99SOL    HW2 1197   4.749   1.882   0.958
  100SOL     OW 1198   6.211   5.373   6.415
  100SOL    HW1 1199   6.195   5.461   6.369
  100SOL    HW2 1200   6.257   5.389   6.502
  101SOL     OW 1201   1.122   6.584   4.719
  101SOL    HW1 1202   1.203   6.566   4.774
  101SOL    HW2 1203   1.052   6.516   4.741
  102SOL     OW 1204   4.256   0.348   3.353
  102SOL    HW1 1205   4.246   0.446   3.339
  102SOL    HW2 1206   4.175   0.301   3.319
  103SOL     OW 1207   3.416   2.008   1.661
  103SOL    HW1 1208   3.447   1.930   1.606
  103SOL    HW2 1209   3.472   2.088   1.640
  104SOL     OW 1210   0.367   6.276   2.127
  104SOL    HW1 1211   0.307   6.224   2.188
  104SOL    HW2 1212   0.435   6.215   2.088
  105SOL     OW 1213   5.226   1.192   6.093
  105SOL    HW1 1214   5.273   1.107   6.071
  105SOL    HW2 1215   5.155   1.210   6.025
  106SOL     OW 1216   3.328   6.465   1.209
  106SOL    HW1 1217   3.383   6.548   1.199
  106SOL    HW2 1218   3.367   6.392   1.153
  107SOL     OW 1219   2.454   2.901   0.704
  107SOL    HW1 1220   2.441   2.815   0.654
  107SOL    HW2 1221   2.539   2.897   0.756
  108SOL     OW 1222   4.809   4.021   4.837
  108SOL    HW1 1223   4.861   4.090   4.886
  108SOL    HW2 1224   4.774   3.953   4.902
  109SOL     OW 1225   5.814   0.902   1.454
  109SOL    HW1 1226   5.822   0.852   1.540
  109SOL    HW2 1227   5.769   0.990   1.470
  110SOL     OW 1228   3.428   6.228   4.530
  110SOL    HW1 1229   3.445   6.145   4.583
  110SOL    HW2 1230   3.330   6.240   4.516
  111SOL     OW 1231   3.186   1.217   3.410
  111SOL    HW1 1232   3.185   1.134   3.353
  111SOL    HW2 1233   3.268   1.217   3.467
  112SOL     OW 1234   6.616   1.302   6.620
  112SOL    HW1 1235   6.560   1.384   6.605
  112SOL    HW2 1236   6.673   1.286   6.540
  113SOL     OW 1237   6.893   6.390   3.378
  113SOL    HW1 1238   6.841   6.468   3.344
  113SOL    HW2 1239   6.981   6.422   3.414
  114SOL     OW 1240   1.144   6.416   0.202
  114SOL    HW1 1241   1.238   6.386   0.215
  114SOL    HW2 1242   1.115   6.394   0.109
  115SOL     OW 1243   5.335   0.503   5.468
  115SOL    HW1 1244   5.421   0.466   5.503
  115SOL    HW2 1245   5.286   0.433   5.417
  116SOL     OW 1246   6.372   4.079   2.583
  116SOL    HW1 1247   6.282   4.042   2.608
  116SOL    HW2 1248   6.443   4.016   2.613
  117SOL     OW 1249   1.083   6.701   6.529
  117SOL    HW1 1250   1.163   6.650   6.560
  117SOL    HW2 1251   1.022   6.717   6.606
  118SOL     OW 1252   2.018   1.082   2.960
  118SOL    HW1 1253   2.037   1.171   2.919
  118SOL    HW2 1254   1.999   1.016   2.887
  119SOL     OW 1255   6.648   2.643   6.513
  119SOL    HW1 1256   6.666   2.734   6.475
  119SOL    HW2 1257   6.686   2.573   6.452
  120SOL     OW 1258   5.288   6.625   1.380
  120SOL    HW1 1259   5.368   6.677   1.411
  120SOL    HW2 1260   5.260   6.658   1.290
  121SOL     OW 1261   2.717   2.850   5.868
  121SOL    HW1 1262   2.776   2.871   5.790
  121SOL    HW2 1263   2.622   2.844   5.837
  122SOL     OW 1264   0.697   3.491   4.682
  122SOL    HW1 1265   0.684   3.394   4.703
  122SOL    HW2 1266   0.788   3.505   4.644
  123SOL     OW 1267   0.283   2.191   2.197
  123SOL    HW1 1268   0.268   2.285   2.228
  123SOL    HW2 1269   0.350   2.190   2.123
  124SOL     OW 1270   4.701   3.737   1.079
  124SOL    HW1 1271   4.757   3.761   1.158
  124SOL    HW2 1272   4.643   3.815   1.055
  125SOL     OW 1273   2.151   3.540   1.700
  125SOL    HW1 1274   2.135   3.636   1.724
  125SOL    HW2 1275   2.221   3.502   1.760
  126SOL     OW 1276   3.975   4.274   0.489
  126SOL    HW1 1277   3.908   4.310   0.554
  126SOL    HW2 1278   3.934   4.198   0.438
  127SOL     OW 1279   0.983   5.423   5.777
  127SOL    HW1 1280   0.888   5.415   5.806
  127SOL    HW2 1281   0.991   5.491   5.704
  128SOL     OW 1282   4.542   2.717   0.709
  128SOL    HW1 1283   4.492   2.769   0.640
  128SOL    HW2 1284   4.523   2.619   0.697
  129SOL     OW 1285   2.741   3.698   0.125
  129SOL    HW1 1286   2.746   3.793   0.095
  129SOL    HW2 1287   2.822   3.649   0.093
  130SOL     OW 1288   1.919   2.379   5.117
  130SOL    HW1 1289   1.989   2.308   5.111
  130SOL    HW2 1290   1.962   2.469   5.107
  131SOL     OW 1291   5.480   1.445   2.159
  131SOL    HW1 1292   5.473   1.378   2.085
  131SOL    HW2 1293   5.560   1.423   2.215
  132SOL     OW 1294   0.566   2.103   2.654
  132SOL    HW1 1295   0.497   2.171   2.625
  132SOL    HW2 1296   0.556   2.021   2.598
  133SOL     OW 1297   6.782   5.757   2.967
  133SOL    HW1 1298   6.791   5.806   2.880
  133SOL    HW2 1299   6.686   5.748   2.991
  134SOL     OW 1300   1.324   3.179   2.570
  134SOL    HW1 1301   1.400   3.138   2.620
  134SOL    HW2 1302   1.337   3.279   2.567
  135SOL     OW 1303   4.321   1.206   4.270
  135SOL    HW1 1304   4.334   1.304   4.254
  135SOL    HW2 1305   4.255   1.170   4.204
  136SOL     OW 1306   4.885   4.799   5.851
  136SOL    HW1 1307   4.984   4.806   5.866
  136SOL    HW2 1308   4.861   4.703   5.835
  137SOL     OW 1309   3.505   0.601   5.747
  137SOL    HW1 1310   3.536   0.527   5.808
  137SOL    HW2 1311   3.547   0.687   5.776
  138SOL     OW 1312   6.133   4.714   5.749
  138SOL    HW1 1313   6.117   4.616   5.735
  138SOL    HW2 1314   6.116   4.763   5.663
  139SOL     OW 1315   3.221   5.890   5.780
  139SOL    HW1 1316   3.160   5.948   5.725
  139SOL    HW2 1317   3.298   5.859   5.724
  140SOL     OW 1318   6.951   4.405   4.550
  140SOL    HW1 1319   6.883   4.339   4.520
  140SOL    HW2 1320   0.006   4.358   4.591
  141SOL     OW 1321   1.196   1.685   2.335
  141SOL    HW1 1322   1.273   1.743   2.363
  141SOL    HW2 1323   1.168   1.708   2.242
  142SOL     OW 1324   1.632   4.940   1.295
  142SOL    HW1 1325   1.669   5.021   1.250
  142SOL    HW2 1326   1.689   4.917   1.374
  143SOL     OW 1327   5.049   4.165   2.224
  143SOL    HW1 1328   4.955   4.198   2.215
  143SOL    HW2 1329   5.050   4.080   2.276
  144SOL     OW 1330   2.678   6.408   1.076
  144SOL    HW1 1331   2.662   6.358   1.161
  144SOL    HW2 1332   2.722   6.495   1.096
  145SOL     OW 1333   6.753   5.081   0.590
  145SOL    HW1 1334   6.741   5.038   0.679
  145SOL    HW2 1335   6.729   5.016   0.518
  146SOL     OW 1336   6.659   4.637   0.558
  146SOL    HW1 1337   6.613   4.548   0.551
  146SOL    HW2 1338   6.674   4.673   0.466
  147SOL     OW 1339   5.979   2.761   0.820
  147SOL    HW1 1340   5.989   2.849   0.867
  147SOL    HW2 1341   5.888   2.724   0.839
  148SOL     OW 1342   0.734   5.464   5.156
  148SOL    HW1 1343   0.775   5.441   5.244
  148SOL    HW2 1344   0.745   5.388   5.092
  149SOL     OW 1345   3.247   0.999   6.202
  149SOL    HW1 1346   3.250   0.999   6.302
  149SOL    HW2 1347   3.326   0.948   6.166
  150SOL     OW 1348   7.014   6.061   5.351
  150SOL    HW1 1349   7.000   5.979   5.296
  150SOL    HW2 1350   6.937   6.072   5.414
  151SOL     OW 1351   3.966   0.628   2.085
  151SOL    HW1 1352   3.935   0.720   2.061
  151SOL    HW2 1353   3.964   0.616   2.184
  152SOL     OW 1354   2.900   1.078   4.726
  152SOL    HW1 1355   2.939   1.100   4.637
  152SOL    HW2 1356   2.935   1.141   4.795
  153SOL     OW 1357   1.149   0.426   2.792
  153SOL    HW1 1358   1.109   0.499   2.849
  153SOL    HW2 1359   1.077   0.384   2.736
  154SOL     OW 1360   6.796   2.165   2.769
  154SOL    HW1 1361   6.858   2.123   2.835
  154SOL    HW2 1362   6.728   2.220   2.818
  155SOL     OW 1363   0.437   0.846   2.841
  155SOL    HW1 1364   0.533   0.830   2.866
  155SOL    HW2 1365   0.398   0.913   2.904
  156SOL     OW 1366   0.248   2.509   1.585
  156SOL    HW1 1367   0.336   2.462   1.587
  156SOL    HW2 1368   0.261   2.604   1.555
  157SOL     OW 1369   5.996   2.983   2.823
  157SOL    HW1 1370   6.014   3.074   2.787
  157SOL    HW2 1371   5.910   2.948   2.786
  158SOL     OW 1372   1.944   2.207   4.277
  158SOL    HW1 1373   1.896   2.144   4.217
  158SOL    HW2 1374   1.879   2.271   4.318
  159SOL     OW 1375   4.977   3.145   2.143
  159SOL    HW1 1376   4.900   3.097   2.101
  159SOL    HW2 1377   5.063   3.104   2.110
  160SOL     OW 1378   6.283   4.406   5.983
  160SOL    HW1 1379   6.299   4.348   5.904
  160SOL    HW2 1380   6.319   4.362   6.066
  161SOL     OW 1381   3.265   4.798   5.269
  161SOL    HW1 1382   3.223   4.729   5.328
  161SOL    HW2 1383   3.226   4.791   5.177
  162SOL     OW 1384   4.602   5.996   2.458
  162SOL    HW1 1385   4.689   6.038   2.486
  162SOL    HW2 1386   4.601   5.900   2.488
  163SOL     OW 1387   6.002   0.919   2.131
  163SOL    HW1 1388   6.035   0.866   2.209
  163SOL    HW2 1389   6.060   0.901   2.052
  164SOL     OW 1390   6.490   3.060   1.074
  164SOL    HW1 1391   6.563   3.086   1.010
  164SOL    HW2 1392   6.511   2.970   1.113
  165SOL     OW 1393   6.486   3.713   6.904
  165SOL    HW1 1394   6.462   3.810   6.912
  165SOL    HW2 1395   6.448   3.675   6.820
  166SOL     OW 1396   1.499   0.688   1.001
  166SOL    HW1 1397   1.490   0.601   1.050
  166SOL    HW2 1398   1.589   0.728   1.021
  167SOL     OW 1399   6.314   2.682   1.092
  167SOL    HW1 1400   6.216   2.686   1.111
  167SOL    HW2 1401   6.364   2.736   1.160
  168SOL     OW 1402   2.563   5.581   1.588
  168SOL    HW1 1403   2.477   5.577   1.538
  168SOL    HW2 1404   2.575   5.498   1.641
  169SOL     OW 1405   0.877   7.014   1.662
  169SOL    HW1 1406   0.795   0.012   1.609
  169SOL    HW2 1407   0.909   6.922   1.640
  170SOL     OW 1408   0.285   0.985   3.047
  170SOL    HW1 1409   0.250   1.069   3.006
  170SOL    HW2 1410   0.323   1.005   3.137
  171SOL     OW 1411   3.678   3.778   0.322
  171SOL    HW1 1412   3.645   3.690   0.356
  171SOL    HW2 1413   3.658   3.849   0.389
  172SOL     OW 1414   0.204   2.926   1.423
  172SOL    HW1 1415   0.107   2.926   1.446
  172SOL    HW2 1416   0.252   2.861   1.481
  173SOL     OW 1417   0.234   6.681   5.771
  173SOL    HW1 1418   0.198   6.588   5.778
  173SOL    HW2 1419   0.249   6.718   5.863
  174SOL     OW 1420   2.386   6.044   3.715
  174SOL    HW1 1421   2.462   6.095   3.754
  174SOL    HW2 1422   2.360   5.969   3.775
  175SOL     OW 1423   0.472   5.151   3.362
  175SOL    HW1 1424   0.572   5.143   3.361
  175SOL    HW2 1425   0.440   5.189   3.276
  176SOL     OW 1426   3.100   5.393   6.969
  176SOL    HW1 1427   3.196   5.377   6.948
  176SOL    HW2 1428   3.043   5.333   6.913
  177SOL     OW 1429   4.764   2.097   2.905
  177SOL    HW1 1430   4.750   2.008   2.950
  177SOL    HW2 1431   4.685   2.156   2.923
  178SOL     OW 1432   5.343   3.968   5.480
  178SOL    HW1 1433   5.250   3.930   5.486
  178SOL    HW2 1434   5.339   4.067   5.489
  179SOL     OW 1435   3.182   6.829   0.792
  179SOL    HW1 1436   3.207   6.803   0.885
  179SOL    HW2 1437   3.264   6.858   0.742
  180SOL     OW 1438   1.166   2.167   0.184
  180SOL    HW1 1439   1.156   2.228   0.263
  180SOL    HW2 1440   1.077   2.154   0.140
  181SOL     OW 1441   2.916   3.714   4.527
  181SOL    HW1 1442   2.905   3.688   4.623
  181SOL    HW2 1443   3.008   3.750   4.513
  182SOL     OW 1444   4.883   2.733   4.640
  182SOL    HW1 1445   4.916   2.677   4.564
  182SOL    HW2 1446   4.784   2.719   4.651
  183SOL     OW 1447   5.989   1.972   2.343
  183SOL    HW1 1448   6.011   1.925   2.258
  183SOL    HW2 1449   5.941   1.909   2.405
  184SOL     OW 1450   0.232   4.382   2.848
  184SOL    HW1 1451   0.323   4.373   2.807
  184SOL    HW2 1452   0.166   4.404   2.777
  185SOL     OW 1453   2.618   3.182   6.398
  185SOL    HW1 1454   2.583   3.117   6.331
  185SOL    HW2 1455   2.672   3.252   6.351
  186SOL     OW 1456   5.920   6.429   3.724
  186SOL    HW1 1457   5.953   6.450   3.632
  186SOL    HW2 1458   5.988   6.374   3.772
  187SOL     OW 1459   5.582   6.947   4.002
  187SOL    HW1 1460   5.552   6.962   3.907
  187SOL    HW2 1461   5.665   6.999   4.019
  188SOL     OW 1462   6.089   2.017   4.566
  188SOL    HW1 1463   6.061   2.013   4.470
  188SOL    HW2 1464   6.151   2.094   4.579
  189SOL     OW 1465   1.725   4.470   2.826
  189SOL    HW1 1466   1.739   4.569   2.829
  189SOL    HW2 1467   1.756   4.430   2.912
  190SOL     OW 1468   3.372   1.023   6.459
  190SOL    HW1 1469   3.345   1.088   6.530
  190SOL    HW2 1470   3.447   1.061   6.405
  191SOL     OW 1471   4.950   6.087   6.080
  191SOL    HW1 1472   5.029   6.027   6.091
  191SOL    HW2 1473   4.910   6.108   6.169
  192SOL     OW 1474   6.311   0.750   0.357
  192SOL    HW1 1475   6.354   0.699   0.282
  192SOL    HW2 1476   6.359   0.730   0.442
  193SOL     OW 1477   5.919   4.515   0.187
  193SOL    HW1 1478   5.942   4.612   0.191
  193SOL    HW2 1479   5.943   4.477   0.098
  194SOL     OW 1480   4.283   6.983   4.411
  194SOL    HW1 1481   4.366   0.015   4.400
  194SOL    HW2 1482   4.249   6.992   4.505
  195SOL     OW 1483   6.603   5.101   3.216
  195SOL    HW1 1484   6.610   5.002   3.216
  195SOL    HW2 1485   6.669   5.139   3.151
  196SOL     OW 1486   0.810   1.213   0.869
  196SOL    HW1 1487   0.816   1.154   0.949
  196SOL    HW2 1488   0.744   1.176   0.805
  197SOL     OW 1489   1.770   0.791   0.359
  197SOL    HW1 1490   1.834   0.719   0.388
  197SOL    HW2 1491   1.806   0.836   0.277
  198SOL     OW 1492   2.882   1.265   4.168
  198SOL    HW1 1493   2.810   1.335   4.172
  198SOL    HW2 1494   2.970   1.307   4.190
  199SOL     OW 1495   1.123   1.865   5.042
  199SOL    HW1 1496   1.204   1.810   5.059
  199SOL    HW2 1497   1.106   1.870   4.943
  200SOL     OW 1498   6.127   2.319   6.927
  200SOL    HW1 1499   6.093   2.370   7.006
  200SOL    HW2 1500   6.226   2.308   6.934
  201SOL     OW 1501   6.677   1.675   6.159
  201SOL    HW1 1502   6.651   1.747   6.095
  201SOL    HW2 1503   6.649   1.586   6.122
  202SOL     OW 1504   5.123   0.420   0.178
  202SOL    HW1 1505   5.108   0.345   0.114
  202SOL    HW2 1506   5.054   0.490   0.164
  203SOL     OW 1507   6.543   3.145   6.638
  203SOL    HW1 1508   6.575   3.068   6.693
  203SOL    HW2 1509   6.612   3.169   6.570
  204SOL     OW 1510   6.076   0.489   5.540
  204SOL    HW1 1511   6.072   0.577   5.587
  204SOL    HW2 1512   6.116   0.502   5.449
  205SOL     OW 1513   2.164   4.010   2.832
  205SOL    HW1 1514   2.214   4.068   2.768
  205SOL    HW2 1515   2.073   3.991   2.797
  206SOL     OW 1516   0.648   3.876   0.730
  206SOL    HW1 1517   0.610   3.827   0.809
  206SOL    HW2 1518   0.697   3.812   0.671
  207SOL     OW 1519   6.056   3.003   4.816
  207SOL    HW1 1520   6.034   3.089   4.863
  207SOL    HW2 1521   6.031   3.012   4.719
  208SOL     OW 1522   1.056   3.039   5.122
  208SOL    HW1 1523   1.092   3.131   5.138
  208SOL    HW2 1524   0.969   3.029   5.170
  209SOL     OW 1525   6.756   4.582   2.819
  209SOL    HW1 1526   6.824   4.644   2.780
  209SOL    HW2 1527   6.669   4.595   2.771
  210SOL     OW 1528   4.630   3.363   0.743
  210SOL    HW1 1529   4.626   3.325   0.650
  210SOL    HW2 1530   4.725   3.366   0.774
  211SOL     OW 1531   1.619   1.358   1.900
  211SOL    HW1 1532   1.525   1.390   1.887
  211SOL    HW2 1533   1.680   1.409   1.839
  212SOL     OW 1534   2.050   3.879   1.534
  212SOL    HW1 1535   2.146   3.903   1.547
  212SOL    HW2 1536   1.995   3.926   1.603
  213SOL     OW 1537   1.231   5.219   0.938
  213SOL    HW1 1538   1.286   5.176   0.867
  213SOL    HW2 1539   1.136   5.193   0.928
  214SOL     OW 1540   5.563   6.655   2.147
  214SOL    HW1 1541   5.632   6.713   2.105
  214SOL    HW2 1542   5.507   6.710   2.209
  215SOL     OW 1543   1.865   5.206   3.011
  215SOL    HW1 1544   1.945   5.158   3.047
  215SOL    HW2 1545   1.892   5.260   2.931
  216SOL     OW 1546   1.679   6.144   3.066
  216SOL    HW1 1547   1.656   6.241   3.069
  216SOL    HW2 1548   1.623   6.099   2.997
  217SOL     OW 1549   0.691   5.304   5.862
  217SOL    HW1 1550   0.634   5.354   5.797
  217SOL    HW2 1551   0.632   5.261   5.931
  218SOL     OW 1552   2.569   2.087   5.631
  218SOL    HW1 1553   2.527   2.165   5.676
  218SOL    HW2 1554   2.667   2.084   5.651
  219SOL     OW 1555   4.346   2.244   1.375
  219SOL    HW1 1556   4.318   2.171   1.438
  219SOL    HW2 1557   4.287   2.241   1.294
  220SOL     OW 1558   2.994   6.464   0.875
  220SOL    HW1 1559   3.043   6.420   0.949
  220SOL    HW2 1560   2.897   6.439   0.879
  221SOL     OW 1561   4.840   4.511   2.033
  221SOL    HW1 1562   4.815   4.430   1.980
  221SOL    HW2 1563   4.907   4.565   1.981
  222SOL     OW 1564   2.074   4.517   6.621
  222SOL    HW1 1565   2.016   4.588   6.580
  222SOL    HW2 1566   2.086   4.538   6.719
  223SOL     OW 1567   6.446   2.453   5.000
  223SOL    HW1 1568   6.352   2.460   5.033
  223SOL    HW2 1569   6.500   2.530   5.034
  224SOL     OW 1570   3.497   2.161   5.725
  224SOL    HW1 1571   3.569   2.163   5.655
  224SOL    HW2 1572   3.503   2.076   5.777
  225SOL     OW 1573   4.170   6.060   6.812
  225SOL    HW1 1574   4.224   5.976   6.803
  225SOL    HW2 1575   4.104   6.049   6.885
  226SOL     OW 1576   1.909   2.581   6.909
  226SOL    HW1 1577   1.854   2.497   6.912
  226SOL    HW2 1578   2.006   2.557   6.917
  227SOL     OW 1579   1.454   3.917   1.078
  227SOL    HW1 1580   1.383   3.969   1.031
  227SOL    HW2 1581   1.509   3.979   1.134
  228SOL     OW 1582   1.073   0.649   2.216
  228SOL    HW1 1583   1.079   0.720   2.146
  228SOL    HW2 1584   1.139   0.576   2.197
  229SOL     OW 1585   3.977   0.225   5.974
  229SOL    HW1 1586   4.053   0.247   5.913
  229SOL    HW2 1587   3.891   0.249   5.931
  230SOL     OW 1588   5.670   4.728   5.960
  230SOL    HW1 1589   5.617   4.645   5.940
  230SOL    HW2 1590   5.760   4.701   5.994
  231SOL     OW 1591   5.327   1.628   6.920
  231SOL    HW1 1592   5.403   1.568   6.894
  231SOL    HW2 1593   5.319   1.702   6.853
  232SOL     OW 1594   1.185   2.054   5.620
  232SOL    HW1 1595   1.181   2.067   5.521
  232SOL    HW2 1596   1.280   2.037   5.648
  233SOL     OW 1597   3.339   1.909   2.931
  233SOL    HW1 1598   3.338   1.833   2.995
  233SOL    HW2 1599   3.313   1.877   2.840
  234SOL     OW 1600   4.971   0.648   0.790
  234SOL    HW1 1601   4.986   0.569   0.849
  234SOL    HW2 1602   5.059   0.687   0.763
  235SOL     OW 1603   5.087   2.869   2.570
  235SOL    HW1 1604   5.000   2.913   2.550
  235SOL    HW2 1605   5.155   2.897   2.502
  236SOL     OW 1606   3.987   3.527   5.905
  236SOL    HW1 1607   3.889   3.537   5.891
  236SOL    HW2 1608   4.010   3.554   5.998
  237SOL     OW 1609   6.046   3.537   2.788
  237SOL    HW1 1610   6.032   3.513   2.692
  237SOL    HW2 1611   5.968   3.508   2.842
  238SOL     OW 1612   6.218   1.922   0.542
  238SOL    HW1 1613   6.272   1.911   0.459
  238SOL    HW2 1614   6.244   1.853   0.609
  239SOL     OW 1615   1.295   3.619   0.452
  239SOL    HW1 1616   1.290   3.702   0.396
  239SOL    HW2 1617   1.369   3.561   0.418
  240SOL     OW 1618   4.901   3.603   4.257
  240SOL    HW1 1619   4.926   3.696   4.282
  240SOL    HW2 1620   4.802   3.600   4.238
  241SOL     OW 1621   2.600   1.827   4.139
  241SOL    HW1 1622   2.582   1.887   4.217
  241SOL    HW2 1623   2.513   1.801   4.097
  242SOL     OW 1624   3.798   3.581   2.803
  242SOL    HW1 1625   3.724   3.576   2.737
  242SOL    HW2 1626   3.780   3.518   2.878
  243SOL     OW 1627   3.851   2.439   6.614
  243SOL    HW1 1628   3.790   2.360   6.609
  243SOL    HW2 1629   3.797   2.522   6.618
  244SOL     OW 1630   4.947   3.377   4.971
  244SOL    HW1 1631   4.915   3.470   4.954
  244SOL    HW2 1632   4.904   3.341   5.054
  245SOL     OW 1633   3.335   1.433   3.217
  245SOL    HW1 1634   3.251   1.381   3.227
  245SOL    HW2 1635   3.369   1.460   3.307
  246SOL     OW 1636   6.611   1.133   2.192
  246SOL    HW1 1637   6.591   1.217   2.141
  246SOL    HW2 1638   6.704   1.136   2.227
  247SOL     OW 1639   1.704   1.381   1.502
  247SOL    HW1 1640   1.741   1.404   1.592
  247SOL    HW2 1641   1.779   1.350   1.442
  248SOL     OW 1642   3.134   3.486   1.550
  248SOL    HW1 1643   3.108   3.533   1.635
  248SOL    HW2 1644   3.054   3.442   1.510
  249SOL     OW 1645   4.944   6.514   4.906
  249SOL    HW1 1646   4.881   6.591   4.918
  249SOL    HW2 1647   4.920   6.464   4.823
  250SOL     OW 1648   4.213   2.489   0.222
  250SOL    HW1 1649   4.276   2.420   0.257
  250SOL    HW2 1650   4.263   2.572   0.198
  251SOL     OW 1651   4.015   4.925   5.123
  251SOL    HW1 1652   4.084   4.961   5.187
  251SOL    HW2 1653   3.943   4.878   5.174
  252SOL     OW 1654   6.399   6.644   5.158
  252SOL    HW1 1655   6.414   6.548   5.182
  252SOL    HW2 1656   6.487   6.691   5.157
  253SOL     OW 1657   4.415   6.352   6.379
  253SOL    HW1 1658   4.432   6.362   6.281
  253SOL    HW2 1659   4.378   6.261   6.397
  254SOL     OW 1660   6.299   1.885   5.561
  254SOL    HW1 1661   6.243   1.959   5.597
  254SOL    HW2 1662   6.242   1.821   5.508
  255SOL     OW 1663   1.110   4.357   6.800
  255SOL    HW1 1664   1.028   4.337   6.853
  255SOL    HW2 1665   1.187   4.305   6.836
  256SOL     OW 1666   5.328   2.299   5.014
  256SOL    HW1 1667   5.401   2.293   5.082
  256SOL    HW2 1668   5.297   2.394   5.007
  257SOL     OW 1669   4.775   6.302   2.088
  257SOL    HW1 1670   4.675   6.305   2.095
  257SOL    HW2 1671   4.815   6.360   2.159
  258SOL     OW 1672   1.923   3.204   5.911
  258SOL    HW1 1673   1.868   3.122   5.926
  258SOL    HW2 1674   1.977   3.193   5.827
  259SOL     OW 1675   3.332   6.797   4.054
  259SOL    HW1 1676   3.241   6.766   4.083
  259SOL    HW2 1677   3.395   6.720   4.058
  260SOL     OW 1678   4.176   5.186   3.027
  260SOL    HW1 1679   4.267   5.200   3.066
  260SOL    HW2 1680   4.168   5.241   2.943
  261SOL     OW 1681   4.077   5.251   7.017
  261SOL    HW1 1682   4.082   5.152   0.011
  261SOL    HW2 1683   4.026   5.294   0.068
  262SOL     OW 1684   0.834   3.840   6.475
  262SOL    HW1 1685   0.934   3.835   6.475
  262SOL    HW2 1686   0.800   3.838   6.381
  263SOL     OW 1687   1.207   0.110   4.142
  263SOL    HW1 1688   1.237   0.084   4.234
  263SOL    HW2 1689   1.279   0.161   4.096
  264SOL     OW 1690   6.639   3.246   6.980
  264SOL    HW1 1691   6.571   3.316   6.959
  264SOL    HW2 1692   6.618   3.205   0.045
  265SOL     OW 1693   0.336   0.336   3.121
  265SOL    HW1 1694   0.249   0.369   3.086
  265SOL    HW2 1695   0.373   0.266   3.059
  266SOL     OW 1696   3.603   0.439   5.961
  266SOL    HW1 1697   3.687   0.390   5.936
  266SOL    HW2 1698   3.558   0.391   6.037
  267SOL     OW 1699   2.055   0.284   3.354
  267SOL    HW1 1700   1.992   0.355   3.383
  267SOL    HW2 1701   2.010   0.195   3.361
  268SOL     OW 1702   3.177   2.545   0.848
  268SOL    HW1 1703   3.261   2.519   0.802
  268SOL    HW2 1704   3.199   2.589   0.935
  269SOL     OW 1705   5.017   1.870   0.466
  269SOL    HW1 1706   5.036   1.773   0.451
  269SOL    HW2 1707   4.988   1.885   0.560
  270SOL     OW 1708   5.785   0.591   0.537
  270SOL    HW1 1709   5.884   0.596   0.545
  270SOL    HW2 1710   5.760   0.520   0.471
  271SOL     OW 1711   0.608   4.153   6.404
  271SOL    HW1 1712   0.537   4.216   6.374
  271SOL    HW2 1713   0.637   4.096   6.327
  272SOL     OW 1714   2.963   5.712   3.117
  272SOL    HW1 1715   2.951   5.790   3.057
  272SOL    HW2 1716   2.921   5.731   3.206
  273SOL     OW 1717   1.842   5.045   6.168
  273SOL    HW1 1718   1.841   5.052   6.267
  273SOL    HW2 1719   1.750   5.056   6.132
  274SOL     OW 1720   4.818   2.499   3.909
  274SOL    HW1 1721   4.832   2.446   3.825
  274SOL    HW2 1722   4.727   2.538   3.909
  275SOL     OW 1723   6.304   6.473   1.396
  275SOL    HW1 1724   6.253   6.534   1.336
  275SOL    HW2 1725   6.358   6.409   1.341
  276SOL     OW 1726   1.136   0.336   5.072
  276SOL    HW1 1727   1.118   0.271   5.146
  276SOL    HW2 1728   1.066   0.327   5.002
  277SOL     OW 1729   2.022   4.436   0.832
  277SOL    HW1 1730   2.053   4.503   0.900
  277SOL    HW2 1731   2.095   4.371   0.813
  278SOL     OW 1732   0.520   2.658   2.863
  278SOL    HW1 1733   0.586   2.730   2.883
  278SOL    HW2 1734   0.490   2.615   2.948
  279SOL     OW 1735   6.457   1.045   3.452
  279SOL    HW1 1736   6.549   1.083   3.451
  279SOL    HW2 1737   6.432   1.015   3.360
  280SOL     OW 1738   1.735   4.356   2.569
  280SOL    HW1 1739   1.799   4.284   2.542
  280SOL    HW2 1740   1.739   4.367   2.669
  281SOL     OW 1741   2.565   4.816   1.024
  281SOL    HW1 1742   2.648   4.832   0.970
  281SOL    HW2 1743   2.586   4.827   1.121
  282SOL     OW 1744   2.363   1.441   5.958
  282SOL    HW1 1745   2.348   1.417   6.054
  282SOL    HW2 1746   2.274   1.448   5.912
  283SOL     OW 1747   3.507   2.778   5.951
  283SOL    HW1 1748   3.529   2.867   5.910
  283SOL    HW2 1749   3.420   2.784   5.999
  284SOL     OW 1750   0.521   3.343   3.989
  284SOL    HW1 1751   0.562   3.285   4.060
  284SOL    HW2 1752   0.568   3.432   3.988
  285SOL     OW 1753   5.050   4.827   4.028
  285SOL    HW1 1754   4.985   4.864   3.961
  285SOL    HW2 1755   5.004   4.761   4.086
  286SOL     OW 1756   3.118   3.941   0.374
  286SOL    HW1 1757   3.166   3.980   0.295
  286SOL    HW2 1758   3.135   3.998   0.454
  287SOL     OW 1759   1.368   2.920   0.229
  287SOL    HW1 1760   1.319   2.893   0.312
  287SOL    HW2 1761   1.314   2.894   0.149
  288SOL     OW 1762   5.032   3.397   1.180
  288SOL    HW1 1763   5.000   3.465   1.115
  288SOL    HW2 1764   4.999   3.306   1.153
  289SOL     OW 1765   4.014   5.674   6.896
  289SOL    HW1 1766   3.985   5.643   6.986
  289SOL    HW2 1767   4.052   5.597   6.845
  290SOL     OW 1768   1.451   1.197   4.852
  290SOL    HW1 1769   1.453   1.235   4.760
  290SOL    HW2 1770   1.541   1.160   4.875
  291SOL     OW 1771   6.233   2.656   2.645
  291SOL    HW1 1772   6.320   2.618   2.611
  291SOL    HW2 1773   6.236   2.663   2.744
  292SOL     OW 1774   3.528   0.542   3.917
  292SOL    HW1 1775   3.538   0.637   3.888
  292SOL    HW2 1776   3.553   0.534   4.014
  293SOL     OW 1777   3.854   4.867   4.058
  293SOL    HW1 1778   3.864   4.874   4.157
  293SOL    HW2 1779   3.767   4.823   4.036
  294SOL     OW 1780   4.793   0.847   0.879
  294SOL    HW1 1781   4.819   0.937   0.914
  294SOL    HW2 1782   4.875   0.791   0.866
  295SOL     OW 1783   5.741   0.091   3.621
  295SOL    HW1 1784   5.785   0.180   3.635
  295SOL    HW2 1785   5.740   0.070   3.523
  296SOL     OW 1786   2.404   2.258   3.345
  296SOL    HW1 1787   2.453   2.345   3.346
  296SOL    HW2 1788   2.448   2.195   3.281
  297SOL     OW 1789   1.764   5.165   2.277
  297SOL    HW1 1790   1.837   5.100   2.299
  297SOL    HW2 1791   1.749   5.226   2.355
  298SOL     OW 1792   6.356   4.687   1.164
  298SOL    HW1 1793   6.274   4.631   1.147
  298SOL    HW2 1794   6.375   4.691   1.262
  299SOL     OW 1795   5.638   1.990   4.013
  299SOL    HW1 1796   5.699   2.052   3.964
  299SOL    HW2 1797   5.645   2.006   4.111
  300SOL     OW 1798   6.346   6.865   1.755
  300SOL    HW1 1799   6.352   6.801   1.831
  300SOL    HW2 1800   6.262   6.919   1.764
  301SOL     OW 1801   4.586   2.550   5.419
  301SOL    HW1 1802   4.555   2.613   5.348
  301SOL    HW2 1803   4.673   2.582   5.456
  302SOL     OW 1804   1.028   5.873   4.274
  302SOL    HW1 1805   1.033   5.950   4.337
  302SOL    HW2 1806   1.058   5.789   4.320
  303SOL     OW 1807   6.459   0.004   3.556
  303SOL    HW1 1808   6.493   6.936   3.577
  303SOL    HW2 1809   6.377   7.020   3.500
  304SOL     OW 1810   3.371   0.254   3.233
  304SOL    HW1 1811   3.435   0.296   3.298
  304SOL    HW2 1812   3.277   0.270   3.263
  305SOL     OW 1813   1.650   4.693   1.018
  305SOL    HW1 1814   1.668   4.630   1.093
  305SOL    HW2 1815   1.592   4.768   1.050
  306SOL     OW 1816   1.812   0.836   3.531
  306SOL    HW1 1817   1.752   0.762   3.563
  306SOL    HW2 1818   1.908   0.810   3.547
  307SOL     OW 1819   3.337   0.305   1.715
  307SOL    HW1 1820   3.260   0.368   1.710
  307SOL    HW2 1821   3.413   0.349   1.763
  308SOL     OW 1822   0.573   4.673   3.871
  308SOL    HW1 1823   0.668   4.687   3.841
  308SOL    HW2 1824   0.563   4.581   3.909
  309SOL     OW 1825   3.387   4.920   4.934
  309SOL    HW1 1826   3.458   4.867   4.981
  309SOL    HW2 1827   3.297   4.886   4.963
  310SOL     OW 1828   1.502   5.977   6.227
  310SOL    HW1 1829   1.485   6.032   6.144
  310SOL    HW2 1830   1.550   5.894   6.202
  311SOL     OW 1831   0.219   0.876   1.429
  311SOL    HW1 1832   0.257   0.816   1.358
  311SOL    HW2 1833   0.260   0.967   1.421
  312SOL     OW 1834   3.872   1.371   5.602
  312SOL    HW1 1835   3.774   1.379   5.620
  312SOL    HW2 1836   3.889   1.380   5.504
  313SOL     OW 1837   0.057   4.822   1.154
  313SOL    HW1 1838   0.074   4.911   1.196
  313SOL    HW2 1839   6.985   4.818   1.123
  314SOL     OW 1840   3.607   5.824   1.902
  314SOL    HW1 1841   3.572   5.917   1.904
  314SOL    HW2 1842   3.700   5.824   1.864
  315SOL     OW 1843   0.879   3.670   2.753
  315SOL    HW1 1844   0.953   3.675   2.820
  315SOL    HW2 1845   0.875   3.756   2.702
  316SOL     OW 1846   2.157   3.132   4.632
  316SOL    HW1 1847   2.173   3.226   4.662
  316SOL    HW2 1848   2.131   3.076   4.710
  317SOL     OW 1849   6.725   1.196   0.369
  317SOL    HW1 1850   6.652   1.194   0.300
  317SOL    HW2 1851   6.811   1.168   0.326
  318SOL     OW 1852   2.769   4.322   1.024
  318SOL    HW1 1853   2.699   4.285   1.085
  318SOL    HW2 1854   2.815   4.399   1.069
  319SOL     OW 1855   1.026   0.086   6.599
  319SOL    HW1 1856   1.077   0.044   6.674
  319SOL    HW2 1857   1.049   0.041   6.513
  320SOL     OW 1858   5.565   3.348   1.157
  320SOL    HW1 1859   5.536   3.399   1.239
  320SOL    HW2 1860   5.492   3.348   1.090
  321SOL     OW 1861   2.124   1.411   2.245
  321SOL    HW1 1862   2.160   1.395   2.153
  321SOL    HW2 1863   2.128   1.326   2.298
  322SOL     OW 1864   3.328   2.520   5.476
  322SOL    HW1 1865   3.234   2.529   5.441
  322SOL    HW2 1866   3.372   2.441   5.433
  323SOL     OW 1867   1.190   4.056   1.744
  323SOL    HW1 1868   1.206   4.013   1.833
  323SOL    HW2 1869   1.155   4.149   1.758
  324SOL     OW 1870   0.213   2.553   4.342
  324SOL    HW1 1871   0.163   2.485   4.288
  324SOL    HW2 1872   0.193   2.644   4.308
  325SOL     OW 1873   2.297   1.826   2.839
  325SOL    HW1 1874   2.260   1.823   2.932
  325SOL    HW2 1875   2.249   1.758   2.783
  326SOL     OW 1876   1.638   3.855   4.415
  326SOL    HW1 1877   1.650   3.775   4.474
  326SOL    HW2 1878   1.711   3.921   4.433
  327SOL     OW 1879   6.270   3.952   6.134
  327SOL    HW1 1880   6.216   3.968   6.052
  327SOL    HW2 1881   6.366   3.941   6.110
  328SOL     OW 1882   3.647   5.737   2.781
  328SOL    HW1 1883   3.557   5.719   2.821
  328SOL    HW2 1884   3.675   5.658   2.725
  329SOL     OW 1885   3.456   4.110   2.441
  329SOL    HW1 1886   3.456   4.188   2.504
  329SOL    HW2 1887   3.397   4.038   2.477
  330SOL     OW 1888   2.454   2.216   1.710
  330SOL    HW1 1889   2.544   2.258   1.720
  330SOL    HW2 1890   2.464   2.117   1.697
  331SOL     OW 1891   6.081   4.047   5.429
  331SOL    HW1 1892   6.141   4.077   5.503
  331SOL    HW2 1893   6.033   3.964   5.456
  332SOL     OW 1894   3.780   1.862   3.452
  332SOL    HW1 1895   3.826   1.775   3.439
  332SOL    HW2 1896   3.727   1.859   3.537
  333SOL     OW 1897   4.859   6.872   0.722
  333SOL    HW1 1898   4.800   6.794   0.743
  333SOL    HW2 1899   4.861   6.885   0.623
  334SOL     OW 1900   4.913   6.572   2.935
  334SOL    HW1 1901   4.816   6.556   2.952
  334SOL    HW2 1902   4.963   6.572   3.022
  335SOL     OW 1903   3.162   0.060   2.505
  335SOL    HW1 1904   3.245   0.114   2.496
  335SOL    HW2 1905   3.159   7.014   2.432
  336SOL     OW 1906   3.680   0.579   4.433
  336SOL    HW1 1907   3.649   0.662   4.386
  336SOL    HW2 1908   3.710   0.602   4.525
  337SOL     OW 1909   0.219   4.027   2.222
  337SOL    HW1 1910   0.193   4.040   2.317
  337SOL    HW2 1911   0.258   4.112   2.186
  338SOL     OW 1912   2.484   2.286   1.382
  338SOL    HW1 1913   2.580   2.299   1.404
  338SOL    HW2 1914   2.448   2.209   1.436
  339SOL     OW 1915   4.375   1.218   3.328
  339SOL    HW1 1916   4.369   1.137   3.270
  339SOL    HW2 1917   4.307   1.212   3.401
  340SOL     OW 1918   4.890   3.900   4.612
  340SOL    HW1 1919   4.885   3.803   4.635
  340SOL    HW2 1920   4.855   3.954   4.689
  341SOL     OW 1921   4.774   4.534   5.785
  341SOL    HW1 1922   4.709   4.474   5.737
  341SOL    HW2 1923   4.731   4.569   5.868
  342SOL     OW 1924   6.093   4.023   0.671
  342SOL    HW1 1925   6.110   3.959   0.596
  342SOL    HW2 1926   6.177   4.034   0.725
  343SOL     OW 1927   2.166   0.743   2.635
  343SOL    HW1 1928   2.159   0.690   2.720
  343SOL    HW2 1929   2.243   0.806   2.643
  344SOL     OW 1930   3.822   6.630   0.263
  344SOL    HW1 1931   3.921   6.640   0.275
  344SOL    HW2 1932   3.775   6.677   0.338
  345SOL     OW 1933   1.568   1.097   5.648
  345SOL    HW1 1934   1.511   1.015   5.636
  345SOL    HW2 1935   1.605   1.098   5.741
  346SOL     OW 1936   3.131   1.076   5.155
  346SOL    HW1 1937   3.055   1.141   5.145
  346SOL    HW2 1938   3.193   1.085   5.078
  347SOL     OW 1939   4.998   6.329   5.993
  347SOL    HW1 1940   4.939   6.349   5.915
  347SOL    HW2 1941   4.998   6.231   6.011
  348SOL     OW 1942   2.420   6.606   2.685
  348SOL    HW1 1943   2.393   6.556   2.767
  348SOL    HW2 1944   2.339   6.632   2.633
  349SOL     OW 1945   2.554   5.490   2.481
  349SOL    HW1 1946   2.471   5.532   2.444
  349SOL    HW2 1947   2.528   5.414   2.542
  350SOL     OW 1948   4.707   3.156   0.990
  350SOL    HW1 1949   4.634   3.103   1.033
  350SOL    HW2 1950   4.685   3.253   0.995
  351SOL     OW 1951   3.494   1.931   0.814
  351SOL    HW1 1952   3.433   1.854   0.794
  351SOL    HW2 1953   3.449   1.993   0.878
  352SOL     OW 1954   3.148   2.281   5.969
  352SOL    HW1 1955   3.196   2.275   5.882
  352SOL    HW2 1956   3.153   2.192   6.015
  353SOL     OW 1957   2.248   6.919   1.242
  353SOL    HW1 1958   2.245   6.822   1.215
  353SOL    HW2 1959   2.187   6.933   1.320
  354SOL     OW 1960   5.049   0.494   1.936
  354SOL    HW1 1961   4.975   0.499   2.003
  354SOL    HW2 1962   5.077   0.399   1.924
  355SOL     OW 1963   0.929   1.095   2.435
  355SOL    HW1 1964   0.944   1.185   2.477
  355SOL    HW2 1965   0.852   1.100   2.371
  356SOL     OW 1966   3.262   0.025   2.824
  356SOL    HW1 1967   3.314   0.099   2.865
  356SOL    HW2 1968   3.288   0.014   2.728
  357SOL     OW 1969   1.087   5.078   5.091
  357SOL    HW1 1970   1.151   5.004   5.113
  357SOL    HW2 1971   1.008   5.073   5.152
  358SOL     OW 1972   4.665   1.114   3.273
  358SOL    HW1 1973   4.725   1.114   3.193
  358SOL    HW2 1974   4.591   1.179   3.260
  359SOL     OW 1975   0.045   1.747   0.241
  359SOL    HW1 1976   0.048   1.676   0.171
  359SOL    HW2 1977   6.975   1.755   0.278
  360SOL     OW 1978   5.032   0.164   0.099
  360SOL    HW1 1979   5.084   0.080   0.086
  360SOL    HW2 1980   4.972   0.178   0.020
  361SOL     OW 1981   2.975   0.245   2.636
  361SOL    HW1 1982   3.021   0.271   2.721
  361SOL    HW2 1983   3.033   0.182   2.585
  362SOL     OW 1984   2.940   3.868   0.760
  362SOL    HW1 1985   2.845   3.837   0.760
  362SOL    HW2 1986   2.943   3.967   0.766
  363SOL     OW 1987   4.811   4.762   3.603
  363SOL    HW1 1988   4.770   4.745   3.514
  363SOL    HW2 1989   4.843   4.676   3.642
  364SOL     OW 1990   2.816   5.720   6.508
  364SOL    HW1 1991   2.904   5.673   6.511
  364SOL    HW2 1992   2.783   5.723   6.413
  365SOL     OW 1993   4.515   6.823   3.010
  365SOL    HW1 1994   4.595   6.857   3.059
  365SOL    HW2 1995   4.449   6.897   2.999
  366SOL     OW 1996   5.404   1.220   0.378
  366SOL    HW1 1997   5.490   1.226   0.428
  366SOL    HW2 1998   5.422   1.220   0.279
  367SOL     OW 1999   5.377   2.164   2.186
  367SOL    HW1 2000   5.369   2.065   2.197
  367SOL    HW2 2001   5.304   2.197   2.126
  368SOL     OW 2002   0.605   5.199   5.430
  368SOL    HW1 2003   0.540   5.186   5.355
  368SOL    HW2 2004   0.569   5.266   5.494
  369SOL     OW 2005   1.198   3.496   1.543
  369SOL    HW1 2006   1.218   3.594   1.536
  369SOL    HW2 2007   1.172   3.461   1.453
  370SOL     OW 2008   3.966   1.506   6.270
  370SOL    HW1 2009   4.052   1.495   6.320
  370SOL    HW2 2010   3.892   1.463   6.322
  371SOL     OW 2011   3.545   2.571   6.389
  371SOL    HW1 2012   3.617   2.535   6.330
  371SOL    HW2 2013   3.480   2.624   6.334
  372SOL     OW 2014   2.194   5.316   0.178
  372SOL    HW1 2015   2.164   5.307   0.273
  372SOL    HW2 2016   2.241   5.403   0.166
  373SOL     OW 2017   6.021   6.847   6.422
  373SOL    HW1 2018   5.981   6.762   6.455
  373SOL    HW2 2019   6.034   6.842   6.323
  374SOL     OW 2020   5.022   1.020   1.118
  374SOL    HW1 2021   4.956   1.088   1.088
  374SOL    HW2 2022   5.094   1.010   1.050
  375SOL     OW 2023   6.618   4.454   1.290
  375SOL    HW1 2024   6.561   4.529   1.323
  375SOL    HW2 2025   6.561   4.374   1.272
  376SOL     OW 2026   2.081   3.983   4.935
  376SOL    HW1 2027   2.017   4.056   4.956
  376SOL    HW2 2028   2.168   4.000   4.982
  377SOL     OW 2029   5.059   1.186   4.218
  377SOL    HW1 2030   5.095   1.127   4.291
  377SOL    HW2 2031   5.030   1.129   4.141
  378SOL     OW 2032   5.413   2.285   5.288
  378SOL    HW1 2033   5.399   2.193   5.325
  378SOL    HW2 2034   5.362   2.351   5.344
  379SOL     OW 2035   6.356   2.797   1.507
  379SOL    HW1 2036   6.302   2.713   1.509
  379SOL    HW2 2037   6.320   2.859   1.438
  380SOL     OW 2038   1.064   2.299   0.398
  380SOL    HW1 2039   1.152   2.333   0.432
  380SOL    HW2 2040   0.990   2.343   0.448
  381SOL     OW 2041   4.464   4.870   6.911
  381SOL    HW1 2042   4.499   4.915   6.829
  381SOL    HW2 2043   4.479   4.929   6.990
  382SOL     OW 2044   2.239   5.499   6.701
  382SOL    HW1 2045   2.279   5.430   6.639
  382SOL    HW2 2046   2.294   5.504   6.784
  383SOL     OW 2047   6.386   1.457   6.958
  383SOL    HW1 2048   6.483   1.459   6.983
  383SOL    HW2 2049   6.335   1.402   0.001
  384SOL     OW 2050   0.496   5.222   4.661
  384SOL    HW1 2051   0.458   5.251   4.748
  384SOL    HW2 2052   0.426   5.174   4.608
  385SOL     OW 2053   4.622   5.233   1.195
  385SOL    HW1 2054   4.660   5.190   1.114
  385SOL    HW2 2055   4.553   5.300   1.168
  386SOL     OW 2056   2.251   5.714   4.394
  386SOL    HW1 2057   2.303   5.644   4.442
  386SOL    HW2 2058   2.285   5.805   4.419
  387SOL     OW 2059   0.144   0.608   5.715
  387SOL    HW1 2060   0.089   0.533   5.677
  387SOL    HW2 2061   0.193   0.655   5.642
  388SOL     OW 2062   0.541   1.697   4.745
  388SOL    HW1 2063   0.553   1.710   4.843
  388SOL    HW2 2064   0.496   1.609   4.728
  389SOL     OW 2065   5.089   3.832   2.590
  389SOL    HW1 2066   5.018   3.764   2.604
  389SOL    HW2 2067   5.143   3.842   2.674
  390SOL     OW 2068   3.496   2.543   0.478
  390SOL    HW1 2069   3.428   2.559   0.407
  390SOL    HW2 2070   3.584   2.520   0.435
  391SOL     OW 2071   4.064   3.747   3.845
  391SOL    HW1 2072   4.164   3.752   3.836
  391SOL    HW2 2073   4.035   3.805   3.921
  392SOL     OW 2074   2.090   3.909   1.234
  392SOL    HW1 2075   2.122   3.823   1.194
  392SOL    HW2 2076   2.067   3.894   1.330
  393SOL     OW 2077   1.258   6.088   1.340
  393SOL    HW1 2078   1.234   6.093   1.243
  393SOL    HW2 2079   1.176   6.071   1.394
  394SOL     OW 2080   6.059   1.392   6.125
  394SOL    HW1 2081   6.145   1.342   6.137
  394SOL    HW2 2082   5.983   1.335   6.156
  395SOL     OW 2083   6.368   5.063   6.597
  395SOL    HW1 2084   6.405   5.045   6.507
  395SOL    HW2 2085   6.276   5.101   6.589
  396SOL     OW 2086   0.794   0.824   1.422
  396SOL    HW1 2087   0.759   0.907   1.380
  396SOL    HW2 2088   0.816   0.841   1.518
  397SOL     OW 2089   4.641   2.131   4.465
  397SOL    HW1 2090   4.704   2.139   4.542
  397SOL    HW2 2091   4.547   2.144   4.496
  398SOL     OW 2092   0.153   1.570   2.799
  398SOL    HW1 2093   0.099   1.654   2.805
  398SOL    HW2 2094   0.097   1.492   2.826
  399SOL     OW 2095   6.089   5.558   3.565
  399SOL    HW1 2096   6.118   5.523   3.476
  399SOL    HW2 2097   6.002   5.607   3.554
  400SOL     OW 2098   0.084   6.660   2.822
  400SOL    HW1 2099   0.068   6.667   2.920
  400SOL    HW2 2100   0.172   6.615   2.806
  401SOL     OW 2101   0.800   6.116   5.260
  401SOL    HW1 2102   0.898   6.126   5.274
  401SOL    HW2 2103   0.783   6.065   5.176
  402SOL     OW 2104   6.280   0.734   4.139
  402SOL    HW1 2105   6.220   0.802   4.098
  402SOL    HW2 2106   6.370   0.738   4.095
  403SOL     OW 2107   2.408   1.805   5.214
  403SOL    HW1 2108   2.316   1.789   5.176
  403SOL    HW2 2109   2.410   1.893   5.259
  404SOL     OW 2110   2.932   5.404   3.439
  404SOL    HW1 2111   2.931   5.318   3.490
  404SOL    HW2 2112   2.856   5.461   3.470
  405SOL     OW 2113   2.661   4.630   3.734
  405SOL    HW1 2114   2.687   4.662   3.825
  405SOL    HW2 2115   2.636   4.533   3.739
  406SOL     OW 2116   0.793   6.871   6.528
  406SOL    HW1 2117   0.818   6.956   6.481
  406SOL    HW2 2118   0.721   6.825   6.476
  407SOL     OW 2119   2.030   3.781   4.224
  407SOL    HW1 2120   1.996   3.872   4.201
  407SOL    HW2 2121   1.957   3.729   4.268
  408SOL     OW 2122   2.651   2.434   2.061
  408SOL    HW1 2123   2.747   2.408   2.052
  408SOL    HW2 2124   2.628   2.503   1.992
  409SOL     OW 2125   0.316   2.806   2.269
  409SOL    HW1 2126   0.384   2.880   2.261
  409SOL    HW2 2127   0.287   2.798   2.364
  410SOL     OW 2128   1.662   3.470   1.696
  410SOL    HW1 2129   1.699   3.511   1.613
  410SOL    HW2 2130   1.601   3.394   1.670
  411SOL     OW 2131   6.813   1.673   1.124
  411SOL    HW1 2132   6.742   1.615   1.165
  411SOL    HW2 2133   6.779   1.766   1.115
  412SOL     OW 2134   2.116   4.666   2.940
  412SOL    HW1 2135   2.018   4.664   2.919
  412SOL    HW2 2136   2.147   4.760   2.949
  413SOL     OW 2137   6.508   5.333   2.714
  413SOL    HW1 2138   6.506   5.393   2.795
  413SOL    HW2 2139   6.533   5.386   2.634
  414SOL     OW 2140   2.263   0.344   3.022
  414SOL    HW1 2141   2.169   0.317   3.042
  414SOL    HW2 2142   2.323   0.314   3.096
  415SOL     OW 2143   5.556   3.327   0.315
  415SOL    HW1 2144   5.606   3.405   0.352
  415SOL    HW2 2145   5.619   3.251   0.302
  416SOL     OW 2146   6.074   3.461   0.032
  416SOL    HW1 2147   6.043   3.465   0.127
  416SOL    HW2 2148   5.996   3.478   6.995
  417SOL     OW 2149   2.510   2.383   5.477
  417SOL    HW1 2150   2.564   2.301   5.462
  417SOL    HW2 2151   2.510   2.439   5.394
  418SOL     OW 2152   3.777   5.765   6.462
  418SOL    HW1 2153   3.805   5.781   6.368
  418SOL    HW2 2154   3.858   5.758   6.520
  419SOL     OW 2155   5.548   0.581   0.728
  419SOL    HW1 2156   5.604   0.518   0.782
  419SOL    HW2 2157   5.576   0.579   0.633
  420SOL     OW 2158   3.268   6.756   1.036
  420SOL    HW1 2159   3.327   6.808   1.097
  420SOL    HW2 2160   3.175   6.753   1.074
  421SOL     OW 2161   5.430   4.651   2.970
  421SOL    HW1 2162   5.526   4.626   2.970
  421SOL    HW2 2163   5.399   4.665   2.876
  422SOL     OW 2164   4.057   1.654   2.301
  422SOL    HW1 2165   4.142   1.665   2.352
  422SOL    HW2 2166   3.980   1.674   2.361
  423SOL     OW 2167   2.650   1.101   5.697
  423SOL    HW1 2168   2.737   1.149   5.709
  423SOL    HW2 2169   2.658   1.008   5.731
  424SOL     OW 2170   1.305   4.255   4.578
  424SOL    HW1 2171   1.315   4.174   4.520
  424SOL    HW2 2172   1.304   4.226   4.674
  425SOL     OW 2173   3.596   1.496   0.197
  425SOL    HW1 2174   3.643   1.408   0.186
  425SOL    HW2 2175   3.498   1.484   0.182
  426SOL     OW 2176   2.307   2.626   3.363
  426SOL    HW1 2177   2.311   2.589   3.456
  426SOL    HW2 2178   2.398   2.622   3.322
  427SOL     OW 2179   4.437   1.531   4.389
  427SOL    HW1 2180   4.535   1.513   4.381
  427SOL    HW2 2181   4.395   1.527   4.298
  428SOL     OW 2182   2.413   2.177   5.940
  428SOL    HW1 2183   2.482   2.106   5.948
  428SOL    HW2 2184   2.405   2.206   5.845
  429SOL     OW 2185   0.068   0.046   3.060
  429SOL    HW1 2186   0.134   6.995   3.070
  429SOL    HW2 2187   6.998   0.008   3.061
  430SOL     OW 2188   2.117   1.194   3.369
  430SOL    HW1 2189   2.020   1.216   3.382
  430SOL    HW2 2190   2.144   1.220   3.276
  431SOL     OW 2191   2.447   1.157   1.344
  431SOL    HW1 2192   2.525   1.204   1.385
  431SOL    HW2 2193   2.441   1.179   1.247
  432SOL     OW 2194   5.134   1.789   1.616
  432SOL    HW1 2195   5.228   1.817   1.600
  432SOL    HW2 2196   5.133   1.696   1.653
  433SOL     OW 2197   2.389   4.267   0.013
  433SOL    HW1 2198   2.448   4.324   6.979
  433SOL    HW2 2199   2.337   4.204   6.977
  434SOL     OW 2200   3.688   5.527   2.587
  434SOL    HW1 2201   3.642   5.451   2.633
  434SOL    HW2 2202   3.671   5.522   2.489
  435SOL     OW 2203   2.953   2.476   6.485
  435SOL    HW1 2204   2.902   2.521   6.412
  435SOL    HW2 2205   2.969   2.541   6.559
  436SOL     OW 2206   5.271   6.528   2.831
  436SOL    HW1 2207   5.211   6.593   2.785
  436SOL    HW2 2208   5.227   6.438   2.834
  437SOL     OW 2209   6.833   0.920   5.727
  437SOL    HW1 2210   6.877   1.008   5.747
  437SOL    HW2 2211   6.858   0.854   5.797
  438SOL     OW 2212   0.672   3.565   1.711
  438SOL    HW1 2213   0.647   3.662   1.718
  438SOL    HW2 2214   0.771   3.558   1.698
  439SOL     OW 2215   0.508   1.061   6.149
  439SOL    HW1 2216   0.457   1.112   6.080
  439SOL    HW2 2217   0.583   1.117   6.184
  440SOL     OW 2218   3.598   1.561   1.111
  440SOL    HW1 2219   3.615   1.468   1.142
  440SOL    HW2 2220   3.620   1.626   1.184
  441SOL     OW 2221   1.066   4.675   2.356
  441SOL    HW1 2222   0.986   4.617   2.368
  441SOL    HW2 2223   1.049   4.740   2.281
  442SOL     OW 2224   3.109   3.117   4.852
  442SOL    HW1 2225   3.161   3.167   4.782
  442SOL    HW2 2226   3.017   3.158   4.860
  443SOL     OW 2227   4.842   2.362   2.704
  443SOL    HW1 2228   4.768   2.299   2.679
  443SOL    HW2 2229   4.929   2.313   2.707
  444SOL     OW 2230   4.059   2.407   1.183
  444SOL    HW1 2231   3.984   2.435   1.124
  444SOL    HW2 2232   4.023   2.357   1.261
  445SOL     OW 2233   2.185   5.599   3.784
  445SOL    HW1 2234   2.259   5.584   3.718
  445SOL    HW2 2235   2.107   5.541   3.759
  446SOL     OW 2236   6.875   6.919   0.604
  446SOL    HW1 2237   6.953   6.930   0.543
  446SOL    HW2 2238   6.908   6.906   0.698
  447SOL     OW 2239   6.400   3.394   6.986
  447SOL    HW1 2240   6.384   3.356   0.054
  447SOL    HW2 2241   6.323   3.453   6.960
  448SOL     OW 2242   3.546   6.622   4.120
  448SOL    HW1 2243   3.562   6.642   4.217
  448SOL    HW2 2244   3.607   6.549   4.091
  449SOL     OW 2245   0.787   3.663   4.991
  449SOL    HW1 2246   0.806   3.565   4.987
  449SOL    HW2 2247   0.754   3.695   4.903
  450SOL     OW 2248   6.482   3.818   3.254
  450SOL    HW1 2249   6.414   3.886   3.280
  450SOL    HW2 2250   6.482   3.743   3.320
  451SOL     OW 2251   2.446   1.615   6.819
  451SOL    HW1 2252   2.349   1.634   6.805
  451SOL    HW2 2253   2.483   1.678   6.887
  452SOL     OW 2254   4.427   5.555   1.410
  452SOL    HW1 2255   4.402   5.520   1.500
  452SOL    HW2 2256   4.395   5.492   1.339
  453SOL     OW 2257   3.969   0.956   6.638
  453SOL    HW1 2258   3.890   0.928   6.693
  453SOL    HW2 2259   4.021   0.876   6.611
  454SOL     OW 2260   6.750   2.886   3.583
  454SOL    HW1 2261   6.771   2.840   3.669
  454SOL    HW2 2262   6.810   2.850   3.511
  455SOL     OW 2263   6.340   5.313   7.016
  455SOL    HW1 2264   6.252   5.273   6.993
  455SOL    HW2 2265   6.326   5.395   0.048
  456SOL     OW 2266   1.851   1.234   3.386
  456SOL    HW1 2267   1.779   1.205   3.449
  456SOL    HW2 2268   1.813   1.300   3.321
  457SOL     OW 2269   3.225   5.631   0.478
  457SOL    HW1 2270   3.274   5.551   0.512
  457SOL    HW2 2271   3.281   5.678   0.410
  458SOL     OW 2272   2.954   0.878   4.170
  458SOL    HW1 2273   2.964   0.930   4.255
  458SOL    HW2 2274   3.037   0.825   4.154
  459SOL     OW 2275   2.729   1.159   3.569
  459SOL    HW1 2276   2.668   1.187   3.643
  459SOL    HW2 2277   2.778   1.239   3.534
  460SOL     OW 2278   0.948   1.730   6.992
  460SOL    HW1 2279   0.943   1.697   0.063
  460SOL    HW2 2280   0.912   1.823   6.987
  461SOL     OW 2281   1.308   0.036   5.107
  461SOL    HW1 2282   1.256   0.029   5.022
  461SOL    HW2 2283   1.368   0.116   5.104
  462SOL     OW 2284   3.662   4.539   5.373
  462SOL    HW1 2285   3.588   4.487   5.415
  462SOL    HW2 2286   3.750   4.498   5.397
  463SOL     OW 2287   5.184   6.352   3.125
  463SOL    HW1 2288   5.176   6.314   3.217
  463SOL    HW2 2289   5.226   6.443   3.131
  464SOL     OW 2290   4.508   5.825   4.589
  464SOL    HW1 2291   4.479   5.882   4.512
  464SOL    HW2 2292   4.432   5.814   4.653
  465SOL     OW 2293   0.767   5.294   0.786
  465SOL    HW1 2294   0.679   5.336   0.765
  465SOL    HW2 2295   0.841   5.356   0.759
  466SOL     OW 2296   3.755   5.118   4.252
  466SOL    HW1 2297   3.662   5.084   4.238
  466SOL    HW2 2298   3.812   5.046   4.291
  467SOL     OW 2299   6.510   6.652   1.315
  467SOL    HW1 2300   6.473   6.561   1.336
  467SOL    HW2 2301   6.462   6.721   1.368
  468SOL     OW 2302   2.450   5.974   6.453
  468SOL    HW1 2303   2.507   5.982   6.534
  468SOL    HW2 2304   2.457   6.058   6.399
  469SOL     OW 2305   3.721   4.872   5.516
  469SOL    HW1 2306   3.631   4.846   5.481
  469SOL    HW2 2307   3.788   4.870   5.441
  470SOL     OW 2308   2.247   5.362   2.356
  470SOL    HW1 2309   2.303   5.310   2.421
  470SOL    HW2 2310   2.161   5.312   2.339
  471SOL     OW 2311   1.607   1.825   4.831
  471SOL    HW1 2312   1.592   1.801   4.735
  471SOL    HW2 2313   1.590   1.745   4.888
  472SOL     OW 2314   5.311   4.021   6.272
  472SOL    HW1 2315   5.283   4.107   6.314
  472SOL    HW2 2316   5.318   4.034   6.173
  473SOL     OW 2317   5.605   3.364   1.635
  473SOL    HW1 2318   5.590   3.294   1.705
  473SOL    HW2 2319   5.546   3.346   1.557
  474SOL     OW 2320   5.238   5.183   3.426
  474SOL    HW1 2321   5.312   5.250   3.437
  474SOL    HW2 2322   5.150   5.231   3.427
  475SOL     OW 2323   4.563   1.459   0.273
  475SOL    HW1 2324   4.660   1.474   0.293
  475SOL    HW2 2325   4.516   1.547   0.271
  476SOL     OW 2326   1.101   3.148   0.050
  476SOL    HW1 2327   1.128   3.065   0.098
  476SOL    HW2 2328   1.143   3.149   6.983
  477SOL     OW 2329   5.973   5.577   3.151
  477SOL    HW1 2330   5.939   5.500   3.097
  477SOL    HW2 2331   6.042   5.545   3.216
  478SOL     OW 2332   6.890   5.110   2.238
  478SOL    HW1 2333   6.803   5.070   2.211
  478SOL    HW2 2334   6.892   5.125   2.337
  479SOL     OW 2335   3.541   3.849   2.615
  479SOL    HW1 2336   3.555   3.751   2.629
  479SOL    HW2 2337   3.610   3.900   2.666
  480SOL     OW 2338   0.114   0.210   1.910
  480SOL    HW1 2339   0.020   0.238   1.929
  480SOL    HW2 2340   0.120   0.171   1.818
  481SOL     OW 2341   6.041   5.862   0.753
  481SOL    HW1 2342   6.008   5.769   0.770
  481SOL    HW2 2343   6.105   5.889   0.824
  482SOL     OW 2344   3.587   4.942   2.722
  482SOL    HW1 2345   3.636   4.868   2.675
  482SOL    HW2 2346   3.490   4.918   2.729
  483SOL     OW 2347   6.370   1.182   4.642
  483SOL    HW1 2348   6.285   1.138   4.613
  483SOL    HW2 2349   6.436   1.112   4.672
  484SOL     OW 2350   2.515   5.294   3.460
  484SOL    HW1 2351   2.462   5.340   3.389
  484SOL    HW2 2352   2.454   5.252   3.526
  485SOL     OW 2353   4.652   2.399   0.414
  485SOL    HW1 2354   4.693   2.488   0.392
  485SOL    HW2 2355   4.658   2.339   0.334
  486SOL     OW 2356   6.010   5.927   5.352
  486SOL    HW1 2357   6.051   5.961   5.267
  486SOL    HW2 2358   6.075   5.869   5.400
  487SOL     OW 2359   6.483   0.913   6.887
  487SOL    HW1 2360   6.395   0.951   6.857
  487SOL    HW2 2361   6.467   0.841   6.954
  488SOL     OW 2362   1.670   6.138   3.604
  488SOL    HW1 2363   1.730   6.058   3.595
  488SOL    HW2 2364   1.625   6.137   3.693
  489SOL     OW 2365   2.942   4.691   5.432
  489SOL    HW1 2366   2.862   4.697   5.490
  489SOL    HW2 2367   2.926   4.625   5.358
  490SOL     OW 2368   1.427   3.446   5.139
  490SOL    HW1 2369   1.349   3.385   5.149
  490SOL    HW2 2370   1.398   3.540   5.158
  491SOL     OW 2371   6.446   3.705   1.262
  491SOL    HW1 2372   6.366   3.764   1.266
  491SOL    HW2 2373   6.489   3.701   1.352
  492SOL     OW 2374   1.459   2.814   5.422
  492SOL    HW1 2375   1.491   2.720   5.434
  492SOL    HW2 2376   1.497   2.871   5.494
  493SOL     OW 2377   1.371   5.583   3.705
  493SOL    HW1 2378   1.294   5.557   3.648
  493SOL    HW2 2379   1.361   5.544   3.796
  494SOL     OW 2380   2.831   0.362   3.036
  494SOL    HW1 2381   2.780   0.443   3.007
  494SOL    HW2 2382   2.923   0.364   2.996
  495SOL     OW 2383   3.826   4.592   0.183
  495SOL    HW1 2384   3.924   4.613   0.177
  495SOL    HW2 2385   3.773   4.668   0.148
  496SOL     OW 2386   4.881   0.423   3.316
  496SOL    HW1 2387   4.797   0.395   3.363
  496SOL    HW2 2388   4.859   0.491   3.246
  497SOL     OW 2389   4.915   2.812   1.095
  497SOL    HW1 2390   4.850   2.862   1.037
  497SOL    HW2 2391   4.927   2.719   1.060
  498SOL     OW 2392   0.988   0.293   1.051
  498SOL    HW1 2393   0.953   0.364   1.112
  498SOL    HW2 2394   1.018   0.215   1.105
  499SOL     OW 2395   3.024   6.367   6.688
  499SOL    HW1 2396   2.962   6.371   6.610
  499SOL    HW2 2397   3.107   6.418   6.668
  500SOL     OW 2398   6.062   2.215   6.603
  500SOL    HW1 2399   6.027   2.163   6.681
  500SOL    HW2 2400   6.006   2.297   6.590
  501SOL     OW 2401   1.838   2.244   4.853
  501SOL    HW1 2402   1.859   2.318   4.790
  501SOL    HW2 2403   1.796   2.281   4.935
  502SOL     OW 2404   2.039   2.898   6.952
  502SOL    HW1 2405   1.942   2.898   6.979
  502SOL    HW2 2406   2.045   2.901   6.852
  503SOL     OW 2407   4.375   5.076   0.830
  503SOL    HW1 2408   4.354   4.996   0.774
  503SOL    HW2 2409   4.304   5.087   0.900
  504SOL     OW 2410   6.428   0.546   0.213
  504SOL    HW1 2411   6.526   0.527   0.218
  504SOL    HW2 2412   6.378   0.475   0.263
  505SOL     OW 2413   6.906   3.722   5.484
  505SOL    HW1 2414   6.974   3.778   5.531
  505SOL    HW2 2415   6.844   3.781   5.433
  506SOL     OW 2416   2.744   6.156   2.523
  506SOL    HW1 2417   2.708   6.135   2.614
  506SOL    HW2 2418   2.765   6.071   2.475
  507SOL     OW 2419   2.774   6.583   3.548
  507SOL    HW1 2420   2.755   6.655   3.482
  507SOL    HW2 2421   2.694   6.569   3.607
  508SOL     OW 2422   0.334   5.136   3.063
  508SOL    HW1 2423   0.311   5.229   3.091
  508SOL    HW2 2424   0.251   5.081   3.061
  509SOL     OW 2425   4.847   0.501   6.108
  509SOL    HW1 2426   4.765   0.469   6.155
  509SOL    HW2 2427   4.888   0.425   6.057
  510SOL     OW 2428   6.664   4.147   0.547
  510SOL    HW1 2429   6.671   4.059   0.499
  510SOL    HW2 2430   6.740   4.156   0.611
  511SOL     OW 2431   0.202   1.723   0.602
  511SOL    HW1 2432   0.255   1.639   0.586
  511SOL    HW2 2433   0.210   1.783   0.522
  512SOL     OW 2434   1.454   2.230   4.704
  512SOL    HW1 2435   1.386   2.159   4.721
  512SOL    HW2 2436   1.508   2.207   4.624
  513SOL     OW 2437   5.884   5.634   2.778
  513SOL    HW1 2438   5.945   5.574   2.726
  513SOL    HW2 2439   5.921   5.726   2.780
  514SOL     OW 2440   5.028   1.318   4.554
  514SOL    HW1 2441   4.981   1.344   4.639
  514SOL    HW2 2442   5.075   1.397   4.516
  515SOL     OW 2443   3.077   0.504   6.883
  515SOL    HW1 2444   3.067   0.456   6.970
  515SOL    HW2 2445   2.987   0.517   6.841
  516SOL     OW 2446   0.774   5.522   2.558
  516SOL    HW1 2447   0.733   5.473   2.635
  516SOL    HW2 2448   0.824   5.602   2.592
  517SOL     OW 2449   3.913   5.141   0.856
  517SOL    HW1 2450   3.826   5.091   0.854
  517SOL    HW2 2451   3.909   5.218   0.793
  518SOL     OW 2452   2.080   6.961   3.967
  518SOL    HW1 2453   2.153   6.976   3.901
  518SOL    HW2 2454   2.078   0.014   4.032
  519SOL     OW 2455   6.872   6.770   2.750
  519SOL    HW1 2456   6.905   6.831   2.678
  519SOL    HW2 2457   6.951   6.725   2.793
  520SOL     OW 2458   3.791   5.547   0.735
  520SOL    HW1 2459   3.729   5.478   0.772
  520SOL    HW2 2460   3.885   5.514   0.739
  521SOL     OW 2461   6.858   6.788   5.329
  521SOL    HW1 2462   6.921   6.816   5.401
  521SOL    HW2 2463   6.866   6.690   5.314
  522SOL     OW 2464   3.730   4.682   6.459
  522SOL    HW1 2465   3.804   4.629   6.499
  522SOL    HW2 2466   3.766   4.767   6.421
  523SOL     OW 2467   1.793   0.181   5.803
  523SOL    HW1 2468   1.816   0.144   5.713
  523SOL    HW2 2469   1.846   0.265   5.819
  524SOL     OW 2470   6.523   1.388   1.003
  524SOL    HW1 2471   6.607   1.415   0.955
  524SOL    HW2 2472   6.451   1.373   0.936
  525SOL     OW 2473   1.154   3.485   3.651
  525SOL    HW1 2474   1.058   3.484   3.679
  525SOL    HW2 2475   1.207   3.542   3.714
  526SOL     OW 2476   4.147   6.260   4.175
  526SOL    HW1 2477   4.217   6.230   4.239
  526SOL    HW2 2478   4.164   6.218   4.085
  527SOL     OW 2479   6.578   1.141   0.753
  527SOL    HW1 2480   6.506   1.113   0.690
  527SOL    HW2 2481   6.572   1.085   0.836
  528SOL     OW 2482   0.028   1.834   3.883
  528SOL    HW1 2483   6.980   1.862   3.947
  528SOL    HW2 2484   7.022   1.751   3.836
  529SOL     OW 2485   1.067   1.516   6.219
  529SOL    HW1 2486   1.160   1.540   6.193
  529SOL    HW2 2487   1.060   1.417   6.229
  530SOL     OW 2488   3.456   4.427   1.646
  530SOL    HW1 2489   3.495   4.497   1.706
  530SOL    HW2 2490   3.446   4.464   1.554
  531SOL     OW 2491   6.924   1.638   5.986
  531SOL    HW1 2492   7.012   1.652   6.030
  531SOL    HW2 2493   6.860   1.709   6.016
  532SOL     OW 2494   3.637   1.303   6.787
  532SOL    HW1 2495   3.624   1.214   6.743
  532SOL    HW2 2496   3.734   1.328   6.785
  533SOL     OW 2497   3.957   0.144   5.004
  533SOL    HW1 2498   4.010   0.152   5.088
  533SOL    HW2 2499   3.982   0.060   4.956
  534SOL     OW 2500   2.047   4.171   1.451
  534SOL    HW1 2501   2.111   4.174   1.528
  534SOL    HW2 2502   2.098   4.183   1.366
  535SOL     OW 2503   4.526   4.489   3.636
  535SOL    HW1 2504   4.437   4.509   3.676
  535SOL    HW2 2505   4.596   4.486   3.708
  536SOL     OW 2506   6.529   6.341   1.292
  536SOL    HW1 2507   6.586   6.305   1.219
  536SOL    HW2 2508   6.572   6.323   1.380
  537SOL     OW 2509   3.197   1.788   2.727
  537SOL    HW1 2510   3.189   1.792   2.628
  537SOL    HW2 2511   3.106   1.784   2.768
  538SOL     OW 2512   4.325   5.223   5.586
  538SOL    HW1 2513   4.239   5.230   5.536
  538SOL    HW2 2514   4.329   5.293   5.658
  539SOL     OW 2515   2.159   0.184   7.016
  539SOL    HW1 2516   2.210   0.100   6.999
  539SOL    HW2 2517   2.092   0.197   6.943
  540SOL     OW 2518   2.559   1.705   5.464
  540SOL    HW1 2519   2.572   1.757   5.380
  540SOL    HW2 2520   2.527   1.766   5.537
  541SOL     OW 2521   5.072   6.065   2.363
  541SOL    HW1 2522   4.987   6.065   2.416
  541SOL    HW2 2523   5.148   6.087   2.424
  542SOL     OW 2524   4.142   5.677   5.807
  542SOL    HW1 2525   4.127   5.773   5.827
  542SOL    HW2 2526   4.158   5.665   5.709
  543SOL     OW 2527   6.356   2.030   5.047
  543SOL    HW1 2528   6.266   2.059   5.078
  543SOL    HW2 2529   6.370   1.934   5.074
  544SOL     OW 2530   0.878   2.584   1.023
  544SOL    HW1 2531   0.930   2.524   1.083
  544SOL    HW2 2532   0.808   2.531   0.975
  545SOL     OW 2533   6.841   5.378   0.597
  545SOL    HW1 2534   6.938   5.374   0.572
  545SOL    HW2 2535   6.801   5.287   0.591
  546SOL     OW 2536   6.985   5.556   2.882
  546SOL    HW1 2537   0.029   5.630   2.887
  546SOL    HW2 2538   6.894   5.592   2.904
  547SOL     OW 2539   3.857   6.576   6.715
  547SOL    HW1 2540   3.774   6.619   6.750
  547SOL    HW2 2541   3.872   6.490   6.764
  548SOL     OW 2542   4.106   2.832   0.211
  548SOL    HW1 2543   4.035   2.802   0.148
  548SOL    HW2 2544   4.185   2.771   0.204
  549SOL     OW 2545   5.509   2.691   3.774
  549SOL    HW1 2546   5.473   2.764   3.832
  549SOL    HW2 2547   5.436   2.653   3.718
  550SOL     OW 2548   0.115   5.663   3.892
  550SOL    HW1 2549   0.109   5.593   3.963
  550SOL    HW2 2550   0.062   5.634   3.812
  551SOL     OW 2551   5.369   0.906   0.726
  551SOL    HW1 2552   5.455   0.907   0.675
  551SOL    HW2 2553   5.358   0.818   0.773
  552SOL     OW 2554   0.164   0.454   5.038
  552SOL    HW1 2555   0.252   0.471   4.994
  552SOL    HW2 2556   0.160   0.502   5.126
  553SOL     OW 2557   3.812   2.323   5.295
  553SOL    HW1 2558   3.911   2.315   5.281
  553SOL    HW2 2559   3.765   2.253   5.241
  554SOL     OW 2560   0.051   5.134   0.624
  554SOL    HW1 2561   0.040   5.153   0.527
  554SOL    HW2 2562   0.032   5.038   0.642
  555SOL     OW 2563   3.351   4.246   6.087
  555SOL    HW1 2564   3.260   4.221   6.053
  555SOL    HW2 2565   3.371   4.341   6.063
  556SOL     OW 2566   5.805   6.215   2.859
  556SOL    HW1 2567   5.766   6.148   2.796
  556SOL    HW2 2568   5.732   6.270   2.899
  557SOL     OW 2569   6.516   3.723   0.160
  557SOL    HW1 2570   6.508   3.710   0.061
  557SOL    HW2 2571   6.589   3.665   0.196
  558SOL     OW 2572   3.095   3.587   1.884
  558SOL    HW1 2573   3.103   3.488   1.873
  558SOL    HW2 2574   3.174   3.622   1.933
  559SOL     OW 2575   6.053   1.179   6.500
  559SOL    HW1 2576   6.149   1.175   6.473
  559SOL    HW2 2577   6.045   1.223   6.589
  560SOL     OW 2578   1.258   2.185   3.395
  560SOL    HW1 2579   1.339   2.238   3.369
  560SOL    HW2 2580   1.251   2.104   3.337
  561SOL     OW 2581   0.120   4.086   0.108
  561SOL    HW1 2582   0.184   4.110   0.180
  561SOL    HW2 2583   0.164   4.098   0.019
  562SOL     OW 2584   3.475   5.920   3.334
  562SOL    HW1 2585   3.473   5.827   3.371
  562SOL    HW2 2586   3.446   5.918   3.238
  563SOL     OW 2587   0.755   1.177   4.619
  563SOL    HW1 2588   0.695   1.205   4.544
  563SOL    HW2 2589   0.836   1.131   4.582
  564SOL     OW 2590   5.785   1.384   5.241
  564SOL    HW1 2591   5.786   1.467   5.185
  564SOL    HW2 2592   5.695   1.372   5.282
  565SOL     OW 2593   3.195   3.451   3.969
  565SOL    HW1 2594   3.241   3.362   3.978
  565SOL    HW2 2595   3.122   3.457   4.036
  566SOL     OW 2596   1.671   2.791   3.636
  566SOL    HW1 2597   1.615   2.799   3.554
  566SOL    HW2 2598   1.751   2.851   3.629
  567SOL     OW 2599   1.678   3.187   5.514
  567SOL    HW1 2600   1.641   3.186   5.607
  567SOL    HW2 2601   1.651   3.271   5.468
  568SOL     OW 2602   1.007   0.423   6.958
  568SOL    HW1 2603   1.058   0.403   6.875
  568SOL    HW2 2604   1.070   0.453   0.006
  569SOL     OW 2605   5.210   3.701   5.318
  569SOL    HW1 2606   5.272   3.760   5.267
  569SOL    HW2 2607   5.132   3.677   5.261
  570SOL     OW 2608   3.176   0.207   6.118
  570SOL    HW1 2609   3.142   0.113   6.122
  570SOL    HW2 2610   3.142   0.251   6.035
  571SOL     OW 2611   2.536   4.270   1.773
  571SOL    HW1 2612   2.619   4.313   1.739
  571SOL    HW2 2613   2.464   4.339   1.783
  572SOL     OW 2614   2.860   1.419   4.807
  572SOL    HW1 2615   2.791   1.474   4.855
  572SOL    HW2 2616   2.877   1.460   4.717
  573SOL     OW 2617   0.567   0.001   5.768
  573SOL    HW1 2618   0.531   0.095   5.769
  573SOL    HW2 2619   0.583   6.996   5.673
  574SOL     OW 2620   2.873   0.814   5.726
  574SOL    HW1 2621   2.783   0.828   5.684
  574SOL    HW2 2622   2.869   0.841   5.822
  575SOL     OW 2623   3.884   3.506   0.458
  575SOL    HW1 2624   3.861   3.505   0.555
  575SOL    HW2 2625   3.930   3.421   0.433
  576SOL     OW 2626   0.019   0.774   3.069
  576SOL    HW1 2627   0.010   0.839   2.994
  576SOL    HW2 2628   0.114   0.745   3.078
  577SOL     OW 2629   0.141   6.744   2.292
  577SOL    HW1 2630   0.117   6.699   2.378
  577SOL    HW2 2631   0.063   6.737   2.229
  578SOL     OW 2632   4.177   6.810   0.679
  578SOL    HW1 2633   4.109   6.783   0.610
  578SOL    HW2 2634   4.226   6.728   0.710
  579SOL     OW 2635   0.892   3.741   1.981
  579SOL    HW1 2636   0.868   3.792   2.064
  579SOL    HW2 2637   0.974   3.685   1.999
  580SOL     OW 2638   4.773   4.555   4.725
  580SOL    HW1 2639   4.808   4.648   4.710
  580SOL    HW2 2640   4.824   4.491   4.667
  581SOL     OW 2641   2.082   2.377   3.901
  581SOL    HW1 2642   2.153   2.307   3.907
  581SOL    HW2 2643   2.058   2.408   3.993
  582SOL     OW 2644   5.571   4.114   4.734
  582SOL    HW1 2645   5.636   4.057   4.684
  582SOL    HW2 2646   5.563   4.082   4.828
  583SOL     OW 2647   3.535   5.581   5.611
  583SOL    HW1 2648   3.466   5.564   5.682
  583SOL    HW2 2649   3.525   5.675   5.577
  584SOL     OW 2650   3.843   1.069   5.220
  584SOL    HW1 2651   3.818   1.105   5.310
  584SOL    HW2 2652   3.941   1.084   5.204
  585SOL     OW 2653   3.805   6.525   1.758
  585SOL    HW1 2654   3.728   6.464   1.739
  585SOL    HW2 2655   3.801   6.555   1.854
  586SOL     OW 2656   3.903   0.305   1.344
  586SOL    HW1 2657   3.819   0.262   1.377
  586SOL    HW2 2658   3.976   0.236   1.338
  587SOL     OW 2659   4.784   1.175   2.806
  587SOL    HW1 2660   4.817   1.155   2.898
  587SOL    HW2 2661   4.846   1.133   2.739
  588SOL     OW 2662   2.354   4.262   2.906
  588SOL    HW1 2663   2.318   4.356   2.909
  588SOL    HW2 2664   2.335   4.223   2.816
  589SOL     OW 2665   3.454   4.666   6.608
  589SOL    HW1 2666   3.544   4.678   6.565
  589SOL    HW2 2667   3.385   4.715   6.555
  590SOL     OW 2668   2.319   1.753   6.129
  590SOL    HW1 2669   2.380   1.732   6.205
  590SOL    HW2 2670   2.372   1.758   6.044
  591SOL     OW 2671   3.063   0.312   4.190
  591SOL    HW1 2672   3.139   0.285   4.131
  591SOL    HW2 2673   3.023   0.230   4.231
  592SOL     OW 2674   4.839   2.248   4.021
  592SOL    HW1 2675   4.745   2.255   4.054
  592SOL    HW2 2676   4.865   2.335   3.979
  593SOL     OW 2677   1.381   0.046   0.215
  593SOL    HW1 2678   1.389   0.146   0.209
  593SOL    HW2 2679   1.396   0.017   0.309
  594SOL     OW 2680   3.510   0.950   5.073
  594SOL    HW1 2681   3.478   0.898   5.152
  594SOL    HW2 2682   3.458   0.922   4.992
  595SOL     OW 2683   6.552   3.773   2.123
  595SOL    HW1 2684   6.497   3.854   2.143
  595SOL    HW2 2685   6.588   3.735   2.209
  596SOL     OW 2686   5.811   4.896   4.349
  596SOL    HW1 2687   5.907   4.922   4.352
  596SOL    HW2 2688   5.803   4.797   4.349
  597SOL     OW 2689   3.986   1.352   6.045
  597SOL    HW1 2690   3.900   1.355   5.994
  597SOL    HW2 2691   3.990   1.430   6.108
  598SOL     OW 2692   3.029   3.228   2.712
  598SOL    HW1 2693   3.091   3.154   2.737
  598SOL    HW2 2694   3.005   3.281   2.793
  599SOL     OW 2695   1.878   4.749   1.230
  599SOL    HW1 2696   1.972   4.782   1.231
  599SOL    HW2 2697   1.818   4.818   1.190
  600SOL     OW 2698   0.234   3.328   6.098
  600SOL    HW1 2699   0.178   3.298   6.021
  600SOL    HW2 2700   0.321   3.363   6.064
  601SOL     OW 2701   6.994   0.387   5.672
  601SOL    HW1 2702   6.928   0.403   5.745
  601SOL    HW2 2703   0.022   0.303   5.692
  602SOL     OW 2704   1.047   0.740   3.721
  602SOL    HW1 2705   1.102   0.659   3.744
  602SOL    HW2 2706   1.054   0.758   3.623
  603SOL     OW 2707   1.323   1.815   4.194
  603SOL    HW1 2708   1.419   1.830   4.169
  603SOL    HW2 2709   1.278   1.762   4.122
  604SOL     OW 2710   5.258   2.488   1.021
  604SOL    HW1 2711   5.265   2.389   1.032
  604SOL    HW2 2712   5.161   2.515   1.025
  605SOL     OW 2713   5.903   6.565   1.915
  605SOL    HW1 2714   5.907   6.519   2.003
  605SOL    HW2 2715   5.862   6.504   1.847
  606SOL     OW 2716   2.958   6.603   4.862
  606SOL    HW1 2717   2.998   6.528   4.915
  606SOL    HW2 2718   2.891   6.652   4.917
  607SOL     OW 2719   1.568   3.301   6.109
  607SOL    HW1 2720   1.551   3.399   6.099
  607SOL    HW2 2721   1.662   3.286   6.141
  608SOL     OW 2722   3.317   1.419   0.253
  608SOL    HW1 2723   3.299   1.377   0.342
  608SOL    HW2 2724   3.275   1.510   0.250
  609SOL     OW 2725   3.831   3.007   2.581
  609SOL    HW1 2726   3.907   3.010   2.515
  609SOL    HW2 2727   3.868   3.002   2.674
  610SOL     OW 2728   4.991   2.846   1.951
  610SOL    HW1 2729   4.899   2.884   1.942
  610SOL    HW2 2730   5.002   2.807   2.042
  611SOL     OW 2731   3.537   1.756   2.075
  611SOL    HW1 2732   3.438   1.744   2.062
  611SOL    HW2 2733   3.564   1.846   2.042
  612SOL     OW 2734   4.351   5.097   4.420
  612SOL    HW1 2735   4.428   5.153   4.451
  612SOL    HW2 2736   4.380   5.041   4.342
  613SOL     OW 2737   3.925   5.501   6.080
  613SOL    HW1 2738   3.974   5.548   6.153
  613SOL    HW2 2739   3.861   5.564   6.036
  614SOL     OW 2740   3.467   6.069   6.235
  614SOL    HW1 2741   3.439   6.160   6.265
  614SOL    HW2 2742   3.386   6.014   6.216
  615SOL     OW 2743   6.754   5.098   3.833
  615SOL    HW1 2744   6.838   5.146   3.859
  615SOL    HW2 2745   6.687   5.105   3.907
  616SOL     OW 2746   5.895   2.543   3.870
  616SOL    HW1 2747   5.901   2.478   3.795
  616SOL    HW2 2748   5.948   2.509   3.948
  617SOL     OW 2749   2.324   0.334   6.169
  617SOL    HW1 2750   2.413   0.356   6.207
  617SOL    HW2 2751   2.275   0.272   6.231
  618SOL     OW 2752   2.163   0.590   2.881
  618SOL    HW1 2753   2.100   0.539   2.823
  618SOL    HW2 2754   2.203   0.529   2.949
  619SOL     OW 2755   1.135   2.650   6.865
  619SOL    HW1 2756   1.139   2.584   6.940
  619SOL    HW2 2757   1.057   2.628   6.806
  620SOL     OW 2758   4.378   3.836   0.525
  620SOL    HW1 2759   4.335   3.747   0.514
  620SOL    HW2 2760   4.323   3.893   0.587
  621SOL     OW 2761   0.211   6.055   1.274
  621SOL    HW1 2762   0.264   6.139   1.281
  621SOL    HW2 2763   0.272   5.977   1.261
  622SOL     OW 2764   0.907   1.361   0.224
  622SOL    HW1 2765   0.909   1.461   0.225
  622SOL    HW2 2766   0.951   1.328   0.141
  623SOL     OW 2767   6.712   5.763   4.984
  623SOL    HW1 2768   6.707   5.849   5.037
  623SOL    HW2 2769   6.708   5.784   4.887
  624SOL     OW 2770   0.573   1.569   1.668
  624SOL    HW1 2771   0.510   1.504   1.625
  624SOL    HW2 2772   0.577   1.552   1.766
  625SOL     OW 2773   1.449   1.266   2.329
  625SOL    HW1 2774   1.377   1.312   2.383
  625SOL    HW2 2775   1.465   1.318   2.245
  626SOL     OW 2776   3.189   5.564   4.959
  626SOL    HW1 2777   3.279   5.603   4.937
  626SOL    HW2 2778   3.192   5.465   4.947
  627SOL     OW 2779   4.406   6.208   6.980
  627SOL    HW1 2780   4.454   6.153   6.910
  627SOL    HW2 2781   4.474   6.251   0.017
  628SOL     OW 2782   4.941   3.726   3.286
  628SOL    HW1 2783   4.913   3.801   3.226
  628SOL    HW2 2784   5.021   3.680   3.248
  629SOL     OW 2785   2.081   0.017   1.008
  629SOL    HW1 2786   2.111   7.011   0.917
  629SOL    HW2 2787   2.143   7.002   1.077
  630SOL     OW 2788   2.671   0.922   2.225
  630SOL    HW1 2789   2.593   0.868   2.255
  630SOL    HW2 2790   2.728   0.869   2.163
  631SOL     OW 2791   2.376   1.481   4.046
  631SOL    HW1 2792   2.398   1.579   4.040
  631SOL    HW2 2793   2.277   1.470   4.046
  632SOL     OW 2794   2.820   0.227   0.703
  632SOL    HW1 2795   2.864   0.188   0.784
  632SOL    HW2 2796   2.739   0.278   0.730
  633SOL     OW 2797   2.186   0.300   4.850
  633SOL    HW1 2798   2.194   0.351   4.936
  633SOL    HW2 2799   2.091   0.300   4.820
  634SOL     OW 2800   2.977   5.501   2.205
  634SOL    HW1 2801   2.905   5.458   2.151
  634SOL    HW2 2802   3.065   5.488   2.159
  635SOL     OW 2803   3.170   0.261   2.097
  635SOL    HW1 2804   3.149   0.164   2.109
  635SOL    HW2 2805   3.104   0.302   2.034
  636SOL     OW 2806   4.669   4.807   6.371
  636SOL    HW1 2807   4.727   4.784   6.449
  636SOL    HW2 2808   4.665   4.906   6.360
  637SOL     OW 2809   5.847   5.113   6.529
  637SOL    HW1 2810   5.765   5.165   6.551
  637SOL    HW2 2811   5.842   5.082   6.435
  638SOL     OW 2812   5.823   1.677   3.421
  638SOL    HW1 2813   5.819   1.741   3.344
  638SOL    HW2 2814   5.775   1.593   3.397
  639SOL     OW 2815   4.163   3.642   1.983
  639SOL    HW1 2816   4.076   3.686   1.961
  639SOL    HW2 2817   4.210   3.695   2.054
  640SOL     OW 2818   2.820   2.520   5.313
  640SOL    HW1 2819   2.773   2.451   5.368
  640SOL    HW2 2820   2.784   2.611   5.334
  641SOL     OW 2821   6.943   6.793   4.892
  641SOL    HW1 2822   6.882   6.775   4.969
  641SOL    HW2 2823   6.923   6.883   4.854
  642SOL     OW 2824   0.615   4.388   6.192
  642SOL    HW1 2825   0.687   4.342   6.140
  642SOL    HW2 2826   0.532   4.332   6.191
  643SOL     OW 2827   5.574   6.289   4.806
  643SOL    HW1 2828   5.599   6.353   4.879
  643SOL    HW2 2829   5.545   6.341   4.726
  644SOL     OW 2830   3.196   6.238   1.629
  644SOL    HW1 2831   3.099   6.239   1.604
  644SOL    HW2 2832   3.236   6.149   1.607
  645SOL     OW 2833   0.676   2.875   2.941
  645SOL    HW1 2834   0.672   2.936   2.862
  645SOL    HW2 2835   0.757   2.816   2.935
  646SOL     OW 2836   1.722   3.129   4.332
  646SOL    HW1 2837   1.760   3.149   4.422
  646SOL    HW2 2838   1.774   3.179   4.263
  647SOL     OW 2839   5.508   4.183   0.316
  647SOL    HW1 2840   5.587   4.152   0.264
  647SOL    HW2 2841   5.503   4.283   0.313
  648SOL     OW 2842   4.246   2.329   3.998
  648SOL    HW1 2843   4.164   2.285   4.032
  648SOL    HW2 2844   4.244   2.331   3.898
  649SOL     OW 2845   4.320   4.609   1.479
  649SOL    HW1 2846   4.253   4.564   1.420
  649SOL    HW2 2847   4.319   4.707   1.462
  650SOL     OW 2848   5.477   4.964   0.599
  650SOL    HW1 2849   5.460   4.947   0.696
  650SOL    HW2 2850   5.575   4.962   0.581
  651SOL     OW 2851   1.664   5.797   6.472
  651SOL    HW1 2852   1.719   5.799   6.556
  651SOL    HW2 2853   1.692   5.719   6.416
  652SOL     OW 2854   5.142   2.477   1.666
  652SOL    HW1 2855   5.223   2.431   1.631
  652SOL    HW2 2856   5.123   2.559   1.611
  653SOL     OW 2857   3.318   5.376   2.601
  653SOL    HW1 2858   3.366   5.315   2.538
  653SOL    HW2 2859   3.222   5.351   2.605
  654SOL     OW 2860   0.064   5.127   6.782
  654SOL    HW1 2861   7.015   5.164   6.723
  654SOL    HW2 2862   0.041   5.143   6.878
  655SOL     OW 2863   1.577   1.706   7.008
  655SOL    HW1 2864   1.608   1.761   6.930
  655SOL    HW2 2865   1.655   1.660   0.026
  656SOL     OW 2866   1.659   6.505   1.277
  656SOL    HW1 2867   1.715   6.575   1.322
  656SOL    HW2 2868   1.633   6.537   1.186
  657SOL     OW 2869   3.940   0.513   0.065
  657SOL    HW1 2870   3.989   0.600   0.061
  657SOL    HW2 2871   3.874   0.509   7.013
  658SOL     OW 2872   3.811   5.785   0.267
  658SOL    HW1 2873   3.801   5.833   0.180
  658SOL    HW2 2874   3.722   5.748   0.296
  659SOL     OW 2875   3.577   0.333   6.369
  659SOL    HW1 2876   3.594   0.259   6.434
  659SOL    HW2 2877   3.662   0.382   6.352
  660SOL     OW 2878   3.019   6.497   3.384
  660SOL    HW1 2879   3.086   6.447   3.438
  660SOL    HW2 2880   2.952   6.541   3.444
  661SOL     OW 2881   6.345   4.961   2.680
  661SOL    HW1 2882   6.362   4.962   2.779
  661SOL    HW2 2883   6.303   5.047   2.653
  662SOL     OW 2884   4.426   2.247   6.701
  662SOL    HW1 2885   4.400   2.230   6.796
  662SOL    HW2 2886   4.381   2.181   6.642
  663SOL     OW 2887   1.209   4.456   4.456
  663SOL    HW1 2888   1.188   4.435   4.361
  663SOL    HW2 2889   1.253   4.377   4.499
  664SOL     OW 2890   5.947   0.084   6.508
  664SOL    HW1 2891   5.974   7.012   6.491
  664SOL    HW2 2892   5.852   0.086   6.540
  665SOL     OW 2893   1.462   3.923   1.998
  665SOL    HW1 2894   1.505   3.886   1.916
  665SOL    HW2 2895   1.371   3.882   2.010
  666SOL     OW 2896   4.316   0.595   2.462
  666SOL    HW1 2897   4.279   0.672   2.410
  666SOL    HW2 2898   4.245   0.527   2.478
  667SOL     OW 2899   0.449   0.599   1.529
  667SOL    HW1 2900   0.537   0.599   1.481
  667SOL    HW2 2901   0.456   0.657   1.610
  668SOL     OW 2902   5.311   3.117   6.937
  668SOL    HW1 2903   5.332   3.187   7.005
  668SOL    HW2 2904   5.392   3.098   6.882
  669SOL     OW 2905   5.100   1.311   3.067
  669SOL    HW1 2906   5.082   1.339   2.973
  669SOL    HW2 2907   5.189   1.345   3.097
  670SOL     OW 2908   4.080   2.234   2.389
  670SOL    HW1 2909   4.053   2.167   2.459
  670SOL    HW2 2910   4.007   2.243   2.322
  671SOL     OW 2911   1.060   5.735   1.445
  671SOL    HW1 2912   1.099   5.672   1.378
  671SOL    HW2 2913   0.979   5.695   1.486
  672SOL     OW 2914   0.687   0.161   1.207
  672SOL    HW1 2915   0.598   0.165   1.251
  672SOL    HW2 2916   0.675   0.146   1.109
  673SOL     OW 2917   6.269   0.059   6.686
  673SOL    HW1 2918   6.246   0.153   6.661
  673SOL    HW2 2919   6.348   0.059   6.747
  674SOL     OW 2920   5.206   0.126   4.219
  674SOL    HW1 2921   5.256   0.201   4.263
  674SOL    HW2 2922   5.241   0.039   4.252
  675SOL     OW 2923   0.942   5.036   1.915
  675SOL    HW1 2924   0.864   4.975   1.905
  675SOL    HW2 2925   0.940   5.105   1.843
  676SOL     OW 2926   2.560   5.663   6.587
  676SOL    HW1 2927   2.542   5.696   6.680
  676SOL    HW2 2928   2.656   5.680   6.564
  677SOL     OW 2929   5.476   0.767   1.452
  677SOL    HW1 2930   5.453   0.755   1.355
  677SOL    HW2 2931   5.575   0.763   1.464
  678SOL     OW 2932   0.578   5.310   4.204
  678SOL    HW1 2933   0.481   5.328   4.214
  678SOL    HW2 2934   0.618   5.290   4.294
  679SOL     OW 2935   4.895   1.366   5.815
  679SOL    HW1 2936   4.853   1.423   5.885
  679SOL    HW2 2937   4.894   1.414   5.727
  680SOL     OW 2938   6.041   6.482   4.282
  680SOL    HW1 2939   6.023   6.406   4.344
  680SOL    HW2 2940   6.033   6.450   4.187
  681SOL     OW 2941   3.974   4.813   2.523
  681SOL    HW1 2942   4.040   4.783   2.454
  681SOL    HW2 2943   3.985   4.759   2.606
  682SOL     OW 2944   6.583   1.159   2.878
  682SOL    HW1 2945   6.560   1.254   2.857
  682SOL    HW2 2946   6.506   1.100   2.854
  683SOL     OW 2947   3.189   4.761   0.130
  683SOL    HW1 2948   3.248   4.787   0.053
  683SOL    HW2 2949   3.204   4.825   0.206
  684SOL     OW 2950   6.283   1.648   6.290
  684SOL    HW1 2951   6.364   1.706   6.289
  684SOL    HW2 2952   6.288   1.585   6.367
  685SOL     OW 2953   3.201   6.787   3.786
  685SOL    HW1 2954   3.265   6.819   3.715
  685SOL    HW2 2955   3.247   6.790   3.875
  686SOL     OW 2956   3.454   0.255   5.335
  686SOL    HW1 2957   3.550   0.264   5.309
  686SOL    HW2 2958   3.406   0.340   5.315
  687SOL     OW 2959   7.001   0.988   4.380
  687SOL    HW1 2960   6.936   0.972   4.454
  687SOL    HW2 2961   7.022   1.086   4.374
  688SOL     OW 2962   5.058   3.296   0.172
  688SOL    HW1 2963   5.149   3.253   0.171
  688SOL    HW2 2964   5.069   3.395   0.184
  689SOL     OW 2965   2.623   5.567   0.202
  689SOL    HW1 2966   2.617   5.667   0.195
  689SOL    HW2 2967   2.717   5.538   0.183
  690SOL     OW 2968   5.691   3.463   4.245
  690SOL    HW1 2969   5.634   3.408   4.307
  690SOL    HW2 2970   5.691   3.422   4.154
  691SOL     OW 2971   5.543   0.856   2.480
  691SOL    HW1 2972   5.467   0.792   2.479
  691SOL    HW2 2973   5.618   0.820   2.425
  692SOL     OW 2974   1.063   6.994   3.440
  692SOL    HW1 2975   1.154   0.002   3.416
  692SOL    HW2 2976   1.070   6.918   3.505
  693SOL     OW 2977   5.959   4.052   2.381
  693SOL    HW1 2978   6.029   4.115   2.349
  693SOL    HW2 2979   5.869   4.082   2.348
  694SOL     OW 2980   4.318   4.737   4.555
  694SOL    HW1 2981   4.359   4.650   4.530
  694SOL    HW2 2982   4.388   4.797   4.594
  695SOL     OW 2983   4.508   6.986   3.847
  695SOL    HW1 2984   4.427   6.928   3.844
  695SOL    HW2 2985   4.567   6.957   3.922
  696SOL     OW 2986   5.862   4.316   1.932
  696SOL    HW1 2987   5.924   4.381   1.976
  696SOL    HW2 2988   5.781   4.364   1.899
  697SOL     OW 2989   0.848   6.288   2.615
  697SOL    HW1 2990   0.885   6.372   2.655
  697SOL    HW2 2991   0.760   6.308   2.571
  698SOL     OW 2992   5.799   6.472   5.968
  698SOL    HW1 2993   5.721   6.517   5.925
  698SOL    HW2 2994   5.792   6.480   6.067
  699SOL     OW 2995   3.997   3.243   0.815
  699SOL    HW1 2996   3.951   3.227   0.903
  699SOL    HW2 2997   4.096   3.230   0.827
  700SOL     OW 2998   3.690   6.549   5.425
  700SOL    HW1 2999   3.774   6.495   5.439
  700SOL    HW2 3000   3.690   6.587   5.333
  701SOL     OW 3001   4.556   4.541   2.021
  701SOL    HW1 3002   4.656   4.550   2.025
  701SOL    HW2 3003   4.531   4.444   2.024
  702SOL     OW 3004   3.811   0.565   4.713
  702SOL    HW1 3005   3.810   0.466   4.726
  702SOL    HW2 3006   3.761   0.609   4.788
  703SOL     OW 3007   3.833   3.059   0.644
  703SOL    HW1 3008   3.896   3.099   0.711
  703SOL    HW2 3009   3.753   3.022   0.692
  704SOL     OW 3010   3.968   1.608   6.955
  704SOL    HW1 3011   4.013   1.537   7.009
  704SOL    HW2 3012   3.916   1.668   7.016
  705SOL     OW 3013   6.906   6.241   5.693
  705SOL    HW1 3014   6.879   6.307   5.623
  705SOL    HW2 3015   7.005   6.223   5.685
  706SOL     OW 3016   4.024   6.966   4.820
  706SOL    HW1 3017   4.051   0.004   4.746
  706SOL    HW2 3018   3.938   6.921   4.797
  707SOL     OW 3019   3.234   5.023   4.221
  707SOL    HW1 3020   3.176   5.044   4.142
  707SOL    HW2 3021   3.186   4.960   4.282
  708SOL     OW 3022   2.929   5.972   3.734
  708SOL    HW1 3023   3.002   5.906   3.754
  708SOL    HW2 3024   2.970   6.057   3.700
  709SOL     OW 3025   2.194   0.135   1.846
  709SOL    HW1 3026   2.281   0.163   1.806
  709SOL    HW2 3027   2.165   0.048   1.806
  710SOL     OW 3028   4.902   3.242   2.710
  710SOL    HW1 3029   4.911   3.323   2.766
  710SOL    HW2 3030   4.869   3.166   2.766
  711SOL     OW 3031   6.923   1.539   0.732
  711SOL    HW1 3032   6.870   1.459   0.763
  711SOL    HW2 3033   6.876   1.623   0.759
  712SOL     OW 3034   5.097   3.956   0.204
  712SOL    HW1 3035   5.112   3.947   0.105
  712SOL    HW2 3036   5.015   4.010   0.220
  713SOL     OW 3037   4.244   2.883   6.106
  713SOL    HW1 3038   4.201   2.808   6.157
  713SOL    HW2 3039   4.174   2.948   6.077
  714SOL     OW 3040   4.367   6.567   2.908
  714SOL    HW1 3041   4.302   6.505   2.864
  714SOL    HW2 3042   4.359   6.658   2.867
  715SOL     OW 3043   5.885   4.401   5.539
  715SOL    HW1 3044   5.958   4.418   5.606
  715SOL    HW2 3045   5.858   4.305   5.543
  716SOL     OW 3046   3.446   1.768   3.585
  716SOL    HW1 3047   3.520   1.811   3.637
  716SOL    HW2 3048   3.439   1.809   3.495
  717SOL     OW 3049   4.859   5.082   3.857
  717SOL    HW1 3050   4.789   5.140   3.898
  717SOL    HW2 3051   4.950   5.122   3.874
  718SOL     OW 3052   6.477   1.887   5.341
  718SOL    HW1 3053   6.420   1.868   5.421
  718SOL    HW2 3054   6.465   1.814   5.274
  719SOL     OW 3055   4.794   5.790   2.741
  719SOL    HW1 3056   4.788   5.875   2.793
  719SOL    HW2 3057   4.715   5.782   2.680
  720SOL     OW 3058   3.180   1.697   1.183
  720SOL    HW1 3059   3.169   1.795   1.200
  720SOL    HW2 3060   3.128   1.646   1.251
  721SOL     OW 3061   0.210   2.815   2.027
  721SOL    HW1 3062   0.121   2.772   2.017
  721SOL    HW2 3063   0.238   2.813   2.123
  722SOL     OW 3064   5.579   6.394   1.705
  722SOL    HW1 3065   5.581   6.295   1.689
  722SOL    HW2 3066   5.553   6.412   1.800
  723SOL     OW 3067   2.184   0.655   4.326
  723SOL    HW1 3068   2.161   0.670   4.230
  723SOL    HW2 3069   2.100   0.650   4.380
  724SOL     OW 3070   1.389   2.753   5.053
  724SOL    HW1 3071   1.371   2.661   5.088
  724SOL    HW2 3072   1.312   2.782   4.996
  725SOL     OW 3073   1.566   4.209   3.204
  725SOL    HW1 3074   1.493   4.163   3.153
  725SOL    HW2 3075   1.602   4.147   3.275
  726SOL     OW 3076   2.352   3.835   0.541
  726SOL    HW1 3077   2.294   3.855   0.621
  726SOL    HW2 3078   2.403   3.751   0.557
  727SOL     OW 3079   3.560   5.304   4.492
  727SOL    HW1 3080   3.544   5.355   4.408
  727SOL    HW2 3081   3.547   5.365   4.571
  728SOL     OW 3082   5.877   3.410   3.432
  728SOL    HW1 3083   5.807   3.456   3.377
  728SOL    HW2 3084   5.873   3.445   3.526
  729SOL     OW 3085   0.944   5.088   0.295
  729SOL    HW1 3086   0.876   5.124   0.232
  729SOL    HW2 3087   0.923   5.117   0.389
  730SOL     OW 3088   4.091   1.547   2.969
  730SOL    HW1 3089   4.113   1.634   3.013
  730SOL    HW2 3090   4.170   1.513   2.920
  731SOL     OW 3091   4.888   4.442   5.129
  731SOL    HW1 3092   4.853   4.348   5.131
  731SOL    HW2 3093   4.906   4.472   5.223
  732SOL     OW 3094   4.405   0.708   4.190
  732SOL    HW1 3095   4.344   0.696   4.268
  732SOL    HW2 3096   4.495   0.740   4.222
  733SOL     OW 3097   0.266   5.106   4.146
  733SOL    HW1 3098   0.304   5.183   4.094
  733SOL    HW2 3099   0.337   5.036   4.157
  734SOL     OW 3100   6.036   6.106   3.201
  734SOL    HW1 3101   5.989   6.114   3.289
  734SOL    HW2 3102   6.021   6.014   3.164
  735SOL     OW 3103   4.415   0.313   2.816
  735SOL    HW1 3104   4.393   0.370   2.894
  735SOL    HW2 3105   4.509   0.280   2.824
  736SOL     OW 3106   1.602   1.946   4.209
  736SOL    HW1 3107   1.672   2.005   4.168
  736SOL    HW2 3108   1.572   1.986   4.295
  737SOL     OW 3109   3.442   0.799   6.152
  737SOL    HW1 3110   3.526   0.766   6.194
  737SOL    HW2 3111   3.452   0.800   6.053
  738SOL     OW 3112   1.659   5.282   0.273
  738SOL    HW1 3113   1.579   5.226   0.252
  738SOL    HW2 3114   1.696   5.256   0.362
  739SOL     OW 3115   1.607   0.781   3.316
  739SOL    HW1 3116   1.610   0.681   3.309
  739SOL    HW2 3117   1.690   0.814   3.360
  740SOL     OW 3118   5.028   2.912   3.055
  740SOL    HW1 3119   5.058   2.928   2.961
  740SOL    HW2 3120   4.978   2.826   3.059
  741SOL     OW 3121   2.935   1.708   2.839
  741SOL    HW1 3122   2.890   1.716   2.928
  741SOL    HW2 3123   2.922   1.616   2.803
  742SOL     OW 3124   2.305   0.452   2.631
  742SOL    HW1 3125   2.216   0.409   2.649
  742SOL    HW2 3126   2.328   0.441   2.535
  743SOL     OW 3127   0.324   6.596   2.701
  743SOL    HW1 3128   0.344   6.523   2.636
  743SOL    HW2 3129   0.296   6.679   2.651
  744SOL     OW 3130   5.130   1.804   1.103
  744SOL    HW1 3131   5.198   1.791   1.176
  744SOL    HW2 3132   5.173   1.850   1.026
  745SOL     OW 3133   2.095   0.005   5.408
  745SOL    HW1 3134   2.104   0.050   5.320
  745SOL    HW2 3135   2.178   0.021   5.462
  746SOL     OW 3136   6.372   5.747   4.878
  746SOL    HW1 3137   6.418   5.797   4.805
  746SOL    HW2 3138   6.273   5.763   4.872
  747SOL     OW 3139   3.843   5.188   2.388
  747SOL    HW1 3140   3.783   5.214   2.312
  747SOL    HW2 3141   3.805   5.223   2.474
  748SOL     OW 3142   6.227   4.714   2.199
  748SOL    HW1 3143   6.300   4.763   2.152
  748SOL    HW2 3144   6.152   4.698   2.134
  749SOL     OW 3145   4.696   4.230   4.681
  749SOL    HW1 3146   4.774   4.272   4.634
  749SOL    HW2 3147   4.719   4.137   4.708
  750SOL     OW 3148   2.555   2.098   3.134
  750SOL    HW1 3149   2.644   2.130   3.167
  750SOL    HW2 3150   2.550   2.110   3.035
  751SOL     OW 3151   4.452   0.244   0.356
  751SOL    HW1 3152   4.361   0.259   0.396
  751SOL    HW2 3153   4.475   0.147   0.360
  752SOL     OW 3154   3.178   3.353   4.694
  752SOL    HW1 3155   3.130   3.346   4.607
  752SOL    HW2 3156   3.220   3.443   4.703
  753SOL     OW 3157   3.712   3.707   3.488
  753SOL    HW1 3158   3.655   3.651   3.547
  753SOL    HW2 3159   3.700   3.803   3.511
  754SOL     OW 3160   4.840   0.111   6.869
  754SOL    HW1 3161   4.774   0.035   6.867
  754SOL    HW2 3162   4.929   0.078   6.838
  755SOL     OW 3163   4.743   4.203   5.195
  755SOL    HW1 3164   4.677   4.232   5.264
  755SOL    HW2 3165   4.696   4.188   5.108
  756SOL     OW 3166   3.219   5.597   5.700
  756SOL    HW1 3167   3.158   5.642   5.636
  756SOL    HW2 3168   3.196   5.500   5.707
  757SOL     OW 3169   1.299   6.878   1.693
  757SOL    HW1 3170   1.347   6.874   1.605
  757SOL    HW2 3171   1.324   6.963   1.739
  758SOL     OW 3172   3.836   1.310   4.829
  758SOL    HW1 3173   3.773   1.342   4.758
  758SOL    HW2 3174   3.798   1.228   4.872
  759SOL     OW 3175   6.956   2.790   3.374
  759SOL    HW1 3176   6.933   2.699   3.407
  759SOL    HW2 3177   6.972   2.787   3.276
  760SOL     OW 3178   6.864   5.571   4.088
  760SOL    HW1 3179   6.942   5.512   4.070
  760SOL    HW2 3180   6.797   5.562   4.014
  761SOL     OW 3181   4.964   5.068   5.983
  761SOL    HW1 3182   5.044   5.051   5.925
  761SOL    HW2 3183   4.948   4.989   6.042
  762SOL     OW 3184   3.842   5.753   3.280
  762SOL    HW1 3185   3.792   5.766   3.194
  762SOL    HW2 3186   3.940   5.755   3.261
  763SOL     OW 3187   5.705   1.391   0.901
  763SOL    HW1 3188   5.736   1.420   0.811
  763SOL    HW2 3189   5.633   1.453   0.933
  764SOL     OW 3190   5.354   6.465   5.169
  764SOL    HW1 3191   5.278   6.420   5.122
  764SOL    HW2 3192   5.347   6.448   5.267
  765SOL     OW 3193   5.715   6.105   0.390
  765SOL    HW1 3194   5.725   6.005   0.387
  765SOL    HW2 3195   5.804   6.146   0.411
  766SOL     OW 3196   2.494   2.130   3.606
  766SOL    HW1 3197   2.553   2.210   3.619
  766SOL    HW2 3198   2.432   2.148   3.529
  767SOL     OW 3199   6.768   6.028   3.086
  767SOL    HW1 3200   6.677   6.057   3.115
  767SOL    HW2 3201   6.787   5.936   3.122
  768SOL     OW 3202   2.511   5.707   1.900
  768SOL    HW1 3203   2.592   5.755   1.867
  768SOL    HW2 3204   2.521   5.687   1.997
  769SOL     OW 3205   3.566   1.445   5.489
  769SOL    HW1 3206   3.578   1.374   5.419
  769SOL    HW2 3207   3.472   1.442   5.523
  770SOL     OW 3208   0.728   4.826   5.746
  770SOL    HW1 3209   0.797   4.754   5.736
  770SOL    HW2 3210   0.752   4.904   5.689
  771SOL     OW 3211   1.696   4.688   2.365
  771SOL    HW1 3212   1.637   4.639   2.430
  771SOL    HW2 3213   1.747   4.759   2.414
  772SOL     OW 3214   6.225   5.125   0.237
  772SOL    HW1 3215   6.245   5.027   0.236
  772SOL    HW2 3216   6.261   5.166   0.321
  773SOL     OW 3217   1.804   4.966   4.037
  773SOL    HW1 3218   1.840   4.984   4.128
  773SOL    HW2 3219   1.705   4.961   4.040
  774SOL     OW 3220   1.790   2.075   4.086
  774SOL    HW1 3221   1.752   2.140   4.020
  774SOL    HW2 3222   1.867   2.027   4.045
  775SOL     OW 3223   0.612   3.990   2.172
  775SOL    HW1 3224   0.548   3.968   2.098
  775SOL    HW2 3225   0.663   4.073   2.149
  776SOL     OW 3226   3.525   5.063   6.955
  776SOL    HW1 3227   3.431   5.058   6.921
  776SOL    HW2 3228   3.584   5.006   6.898
  777SOL     OW 3229   1.976   3.634   6.851
  777SOL    HW1 3230   1.927   3.550   6.827
  777SOL    HW2 3231   1.910   3.708   6.865
  778SOL     OW 3232   3.763   5.289   6.939
  778SOL    HW1 3233   3.727   5.335   6.858
  778SOL    HW2 3234   3.773   5.355   7.013
  779SOL     OW 3235   5.890   1.995   3.517
  779SOL    HW1 3236   5.963   1.928   3.506
  779SOL    HW2 3237   5.805   1.948   3.541
  780SOL     OW 3238   6.219   1.408   4.614
  780SOL    HW1 3239   6.281   1.330   4.624
  780SOL    HW2 3240   6.270   1.486   4.577
  781SOL     OW 3241   0.778   5.127   6.463
  781SOL    HW1 3242   0.876   5.126   6.483
  781SOL    HW2 3243   0.730   5.178   6.535
  782SOL     OW 3244   2.052   4.374   5.508
  782SOL    HW1 3245   2.065   4.456   5.452
  782SOL    HW2 3246   2.109   4.300   5.471
  783SOL     OW 3247   6.823   4.862   6.313
  783SOL    HW1 3248   6.776   4.917   6.244
  783SOL    HW2 3249   6.915   4.899   6.328
  784SOL     OW 3250   2.002   5.546   6.128
  784SOL    HW1 3251   2.068   5.478   6.159
  784SOL    HW2 3252   2.027   5.636   6.163
  785SOL     OW 3253   0.489   0.356   3.899
  785SOL    HW1 3254   0.576   0.312   3.923
  785SOL    HW2 3255   0.413   0.300   3.932
  786SOL     OW 3256   5.949   1.060   4.714
  786SOL    HW1 3257   5.953   1.055   4.813
  786SOL    HW2 3258   5.853   1.069   4.685
  787SOL     OW 3259   2.140   6.530   0.522
  787SOL    HW1 3260   2.042   6.549   0.524
  787SOL    HW2 3261   2.191   6.616   0.517
  788SOL     OW 3262   2.074   3.154   2.223
  788SOL    HW1 3263   2.076   3.253   2.237
  788SOL    HW2 3264   2.000   3.131   2.160
  789SOL     OW 3265   3.589   5.250   2.621
  789SOL    HW1 3266   3.556   5.229   2.712
  789SOL    HW2 3267   3.525   5.215   2.553
  790SOL     OW 3268   6.913   3.206   2.159
  790SOL    HW1 3269   6.853   3.226   2.237
  790SOL    HW2 3270   6.996   3.160   2.191
  791SOL     OW 3271   3.436   1.480   3.462
  791SOL    HW1 3272   3.343   1.487   3.498
  791SOL    HW2 3273   3.487   1.562   3.485
  792SOL     OW 3274   2.311   0.081   0.362
  792SOL    HW1 3275   2.250   0.159   0.349
  792SOL    HW2 3276   2.405   0.114   0.371
  793SOL     OW 3277   1.735   5.732   4.672
  793SOL    HW1 3278   1.641   5.764   4.684
  793SOL    HW2 3279   1.763   5.745   4.577
  794SOL     OW 3280   3.568   3.600   2.177
  794SOL    HW1 3281   3.621   3.618   2.259
  794SOL    HW2 3282   3.480   3.558   2.202
  795SOL     OW 3283   4.656   6.922   5.026
  795SOL    HW1 3284   4.619   7.014   5.033
  795SOL    HW2 3285   4.599   6.859   5.078
  796SOL     OW 3286   1.119   2.668   6.461
  796SOL    HW1 3287   1.203   2.720   6.474
  796SOL    HW2 3288   1.078   2.694   6.373
  797SOL     OW 3289   3.445   0.006   1.101
  797SOL    HW1 3290   3.524   6.968   1.104
  797SOL    HW2 3291   3.423   0.028   1.006
  798SOL     OW 3292   4.848   4.288   1.458
  798SOL    HW1 3293   4.926   4.341   1.490
  798SOL    HW2 3294   4.799   4.339   1.387
  799SOL     OW 3295   3.764   3.129   5.430
  799SOL    HW1 3296   3.755   3.187   5.349
  799SOL    HW2 3297   3.861   3.114   5.449
  800SOL     OW 3298   5.407   3.138   2.990
  800SOL    HW1 3299   5.404   3.042   3.019
  800SOL    HW2 3300   5.313   3.169   2.972
  801SOL     OW 3301   2.006   5.356   6.768
  801SOL    HW1 3302   1.939   5.408   6.821
  801SOL    HW2 3303   2.071   5.418   6.726
  802SOL     OW 3304   4.060   2.405   6.225
  802SOL    HW1 3305   4.112   2.379   6.307
  802SOL    HW2 3306   4.025   2.323   6.180
  803SOL     OW 3307   2.539   2.502   3.272
  803SOL    HW1 3308   2.503   2.535   3.185
  803SOL    HW2 3309   2.638   2.491   3.265
  804SOL     OW 3310   4.765   6.904   3.099
  804SOL    HW1 3311   4.768   6.972   3.026
  804SOL    HW2 3312   4.858   6.888   3.133
  805SOL     OW 3313   3.672   1.880   3.715
  805SOL    HW1 3314   3.751   1.842   3.763
  805SOL    HW2 3315   3.665   1.978   3.734
  806SOL     OW 3316   4.229   6.115   6.032
  806SOL    HW1 3317   4.217   6.208   5.999
  806SOL    HW2 3318   4.322   6.104   6.067
  807SOL     OW 3319   1.493   6.446   6.074
  807SOL    HW1 3320   1.561   6.374   6.089
  807SOL    HW2 3321   1.438   6.457   6.157
  808SOL     OW 3322   5.353   2.322   5.988
  808SOL    HW1 3323   5.310   2.400   5.943
  808SOL    HW2 3324   5.417   2.278   5.926
  809SOL     OW 3325   3.258   6.546   6.186
  809SOL    HW1 3326   3.160   6.526   6.189
  809SOL    HW2 3327   3.277   6.604   6.106
  810SOL     OW 3328   4.095   3.854   6.858
  810SOL    HW1 3329   4.064   3.812   6.773
  810SOL    HW2 3330   4.029   3.924   6.886
  811SOL     OW 3331   5.752   5.858   4.807
  811SOL    HW1 3332   5.816   5.796   4.852
  811SOL    HW2 3333   5.741   5.830   4.711
  812SOL     OW 3334   1.132   2.801   0.974
  812SOL    HW1 3335   1.078   2.804   0.890
  812SOL    HW2 3336   1.071   2.786   1.052
  813SOL     OW 3337   3.270   1.855   5.153
  813SOL    HW1 3338   3.356   1.830   5.108
  813SOL    HW2 3339   3.237   1.778   5.208
  814SOL     OW 3340   0.355   4.766   1.440
  814SOL    HW1 3341   0.433   4.715   1.475
  814SOL    HW2 3342   0.343   4.747   1.343
  815SOL     OW 3343   4.614   0.761   3.744
  815SOL    HW1 3344   4.637   0.682   3.800
  815SOL    HW2 3345   4.518   0.785   3.758
  816SOL     OW 3346   5.462   3.746   6.304
  816SOL    HW1 3347   5.389   3.692   6.262
  816SOL    HW2 3348   5.458   3.840   6.271
  817SOL     OW 3349   6.691   5.380   6.623
  817SOL    HW1 3350   6.741   5.348   6.543
  817SOL    HW2 3351   6.686   5.480   6.621
  818SOL     OW 3352   6.610   1.014   5.612
  818SOL    HW1 3353   6.696   0.994   5.658
  818SOL    HW2 3354   6.585   0.937   5.552
  819SOL     OW 3355   5.752   3.778   1.557
  819SOL    HW1 3356   5.689   3.731   1.618
  819SOL    HW2 3357   5.702   3.811   1.476
  820SOL     OW 3358   2.432   1.860   5.664
  820SOL    HW1 3359   2.480   1.946   5.643
  820SOL    HW2 3360   2.340   1.881   5.697
  821SOL     OW 3361   5.398   3.198   6.090
  821SOL    HW1 3362   5.300   3.203   6.109
  821SOL    HW2 3363   5.418   3.240   6.002
  822SOL     OW 3364   6.805   4.364   3.237
  822SOL    HW1 3365   6.757   4.278   3.259
  822SOL    HW2 3366   6.903   4.351   3.251
  823SOL     OW 3367   2.221   2.774   4.235
  823SOL    HW1 3368   2.228   2.857   4.290
  823SOL    HW2 3369   2.125   2.757   4.213
  824SOL     OW 3370   5.360   0.622   6.572
  824SOL    HW1 3371   5.410   0.536   6.572
  824SOL    HW2 3372   5.310   0.631   6.486
  825SOL     OW 3373   6.271   5.525   1.104
  825SOL    HW1 3374   6.227   5.499   1.018
  825SOL    HW2 3375   6.331   5.604   1.089
  826SOL     OW 3376   3.861   2.034   0.367
  826SOL    HW1 3377   3.946   2.084   0.352
  826SOL    HW2 3378   3.832   1.990   0.282
  827SOL     OW 3379   3.723   3.110   4.838
  827SOL    HW1 3380   3.646   3.070   4.788
  827SOL    HW2 3381   3.732   3.065   4.927
  828SOL     OW 3382   0.960   6.759   6.102
  828SOL    HW1 3383   0.942   6.689   6.032
  828SOL    HW2 3384   0.993   6.842   6.058
  829SOL     OW 3385   3.927   3.383   1.689
  829SOL    HW1 3386   3.993   3.379   1.764
  829SOL    HW2 3387   3.837   3.406   1.726
  830SOL     OW 3388   6.813   4.059   6.011
  830SOL    HW1 3389   6.901   4.018   5.988
  830SOL    HW2 3390   6.753   4.057   5.930
  831SOL     OW 3391   5.918   1.321   2.986
  831SOL    HW1 3392   5.863   1.239   3.004
  831SOL    HW2 3393   5.866   1.402   3.014
  832SOL     OW 3394   3.194   2.156   4.706
  832SOL    HW1 3395   3.190   2.184   4.801
  832SOL    HW2 3396   3.147   2.068   4.695
  833SOL     OW 3397   3.900   2.815   6.756
  833SOL    HW1 3398   3.884   2.913   6.772
  833SOL    HW2 3399   3.989   2.804   6.711
  834SOL     OW 3400   5.915   3.512   0.648
  834SOL    HW1 3401   6.013   3.531   0.650
  834SOL    HW2 3402   5.899   3.429   0.595
  835SOL     OW 3403   6.234   6.818   5.350
  835SOL    HW1 3404   6.243   6.900   5.294
  835SOL    HW2 3405   6.174   6.753   5.304
  836SOL     OW 3406   5.865   6.798   4.058
  836SOL    HW1 3407   5.815   6.880   4.032
  836SOL    HW2 3408   5.838   6.770   4.150
  837SOL     OW 3409   0.952   0.608   6.472
  837SOL    HW1 3410   0.886   0.562   6.413
  837SOL    HW2 3411   0.913   0.617   6.564
  838SOL     OW 3412   1.380   5.861   3.157
  838SOL    HW1 3413   1.344   5.787   3.101
  838SOL    HW2 3414   1.443   5.916   3.102
  839SOL     OW 3415   1.172   2.824   0.080
  839SOL    HW1 3416   1.084   2.850   0.120
  839SOL    HW2 3417   1.157   2.787   7.011
  840SOL     OW 3418   4.399   5.423   0.429
  840SOL    HW1 3419   4.448   5.358   0.488
  840SOL    HW2 3420   4.457   5.447   0.351
  841SOL     OW 3421   3.186   5.154   6.216
  841SOL    HW1 3422   3.238   5.215   6.275
  841SOL    HW2 3423   3.248   5.102   6.157
  842SOL     OW 3424   4.409   6.780   1.680
  842SOL    HW1 3425   4.342   6.845   1.715
  842SOL    HW2 3426   4.446   6.815   1.593
  843SOL     OW 3427   1.377   0.458   2.044
  843SOL    HW1 3428   1.288   0.433   2.005
  843SOL    HW2 3429   1.432   0.505   1.974
  844SOL     OW 3430   6.871   6.443   1.741
  844SOL    HW1 3431   6.890   6.513   1.811
  844SOL    HW2 3432   6.817   6.369   1.782
  845SOL     OW 3433   3.767   1.414   1.506
  845SOL    HW1 3434   3.788   1.505   1.542
  845SOL    HW2 3435   3.724   1.423   1.416
  846SOL     OW 3436   1.338   1.288   1.348
  846SOL    HW1 3437   1.347   1.208   1.289
  846SOL    HW2 3438   1.417   1.348   1.335
  847SOL     OW 3439   2.519   3.209   1.330
  847SOL    HW1 3440   2.565   3.283   1.379
  847SOL    HW2 3441   2.469   3.246   1.252
  848SOL     OW 3442   6.440   6.027   0.743
  848SOL    HW1 3443   6.485   6.089   0.679
  848SOL    HW2 3444   6.509   5.975   0.793
  849SOL     OW 3445   5.325   3.252   6.405
  849SOL    HW1 3446   5.301   3.162   6.440
  849SOL    HW2 3447   5.274   3.270   6.321
  850SOL     OW 3448   2.026   1.276   4.427
  850SOL    HW1 3449   2.104   1.270   4.488
  850SOL    HW2 3450   2.030   1.202   4.359
  851SOL     OW 3451   4.948   2.367   6.038
  851SOL    HW1 3452   4.976   2.274   6.062
  851SOL    HW2 3453   4.864   2.364   5.983
  852SOL     OW 3454   6.782   5.119   1.909
  852SOL    HW1 3455   6.836   5.179   1.968
  852SOL    HW2 3456   6.710   5.172   1.865
  853SOL     OW 3457   3.402   2.691   0.687
  853SOL    HW1 3458   3.442   2.629   0.620
  853SOL    HW2 3459   3.310   2.717   0.658
  854SOL     OW 3460   0.093   7.013   6.221
  854SOL    HW1 3461   0.188   0.020   6.222
  854SOL    HW2 3462   0.037   0.056   6.172
  855SOL     OW 3463   4.777   1.842   0.173
  855SOL    HW1 3464   4.821   1.794   0.097
  855SOL    HW2 3465   4.843   1.855   0.247
  856SOL     OW 3466   1.665   5.603   1.668
  856SOL    HW1 3467   1.681   5.513   1.709
  856SOL    HW2 3468   1.751   5.637   1.629
  857SOL     OW 3469   6.999   6.422   4.957
  857SOL    HW1 3470   0.005   6.427   4.862
  857SOL    HW2 3471   6.918   6.479   4.971
  858SOL     OW 3472   3.315   3.988   0.130
  858SOL    HW1 3473   3.398   3.974   0.076
  858SOL    HW2 3474   3.245   4.032   0.074
  859SOL     OW 3475   4.671   5.738   5.535
  859SOL    HW1 3476   4.727   5.743   5.619
  859SOL    HW2 3477   4.727   5.701   5.461
  860SOL     OW 3478   4.416   3.088   6.511
  860SOL    HW1 3479   4.481   3.025   6.467
  860SOL    HW2 3480   4.443   3.101   6.607
  861SOL     OW 3481   0.925   5.732   2.257
  861SOL    HW1 3482   1.022   5.726   2.281
  861SOL    HW2 3483   0.891   5.824   2.276
  862SOL     OW 3484   0.811   4.004   3.942
  862SOL    HW1 3485   0.742   3.964   3.882
  862SOL    HW2 3486   0.790   4.101   3.956
  863SOL     OW 3487   5.240   0.618   1.572
  863SOL    HW1 3488   5.302   0.696   1.574
  863SOL    HW2 3489   5.237   0.580   1.480
  864SOL     OW 3490   5.919   4.934   2.986
  864SOL    HW1 3491   5.978   4.974   3.056
  864SOL    HW2 3492   5.927   4.986   2.901
  865SOL     OW 3493   1.364   5.097   4.583
  865SOL    HW1 3494   1.376   5.042   4.666
  865SOL    HW2 3495   1.451   5.102   4.533
  866SOL     OW 3496   3.948   6.970   1.510
  866SOL    HW1 3497   3.949   0.018   1.580
  866SOL    HW2 3498   3.894   6.893   1.542
  867SOL     OW 3499   5.620   3.741   5.352
  867SOL    HW1 3500   5.720   3.736   5.356
  867SOL    HW2 3501   5.585   3.778   5.438
  868SOL     OW 3502   0.678   1.613   2.294
  868SOL    HW1 3503   0.732   1.640   2.214
  868SOL    HW2 3504   0.594   1.567   2.263
  869SOL     OW 3505   0.596   3.198   1.936
  869SOL    HW1 3506   0.689   3.209   1.971
  869SOL    HW2 3507   0.599   3.162   1.842
  870SOL     OW 3508   3.908   4.790   1.827
  870SOL    HW1 3509   3.816   4.794   1.867
  870SOL    HW2 3510   3.931   4.695   1.807
  871SOL     OW 3511   4.312   1.517   3.681
  871SOL    HW1 3512   4.346   1.470   3.763
  871SOL    HW2 3513   4.389   1.544   3.624
  872SOL     OW 3514   1.325   2.503   5.173
  872SOL    HW1 3515   1.233   2.483   5.208
  872SOL    HW2 3516   1.372   2.417   5.153
  873SOL     OW 3517   3.924   0.178   6.311
  873SOL    HW1 3518   3.896   0.204   6.403
  873SOL    HW2 3519   3.953   0.082   6.311
  874SOL     OW 3520   6.347   3.953   2.230
  874SOL    HW1 3521   6.308   3.878   2.283
  874SOL    HW2 3522   6.295   4.037   2.248
  875SOL     OW 3523   5.208   5.598   2.274
  875SOL    HW1 3524   5.162   5.603   2.186
  875SOL    HW2 3525   5.273   5.521   2.273
  876SOL     OW 3526   6.317   1.177   6.472
  876SOL    HW1 3527   6.388   1.213   6.410
  876SOL    HW2 3528   6.328   1.220   6.562
  877SOL     OW 3529   1.476   3.357   6.787
  877SOL    HW1 3530   1.512   3.295   6.717
  877SOL    HW2 3531   1.376   3.351   6.788
  878SOL     OW 3532   4.149   6.543   4.128
  878SOL    HW1 3533   4.156   6.450   4.164
  878SOL    HW2 3534   4.068   6.587   4.165
  879SOL     OW 3535   5.602   0.063   5.930
  879SOL    HW1 3536   5.522   0.045   5.988
  879SOL    HW2 3537   5.571   0.099   5.842
  880SOL     OW 3538   3.474   3.088   3.136
  880SOL    HW1 3539   3.404   3.039   3.189
  880SOL    HW2 3540   3.564   3.070   3.176
  881SOL     OW 3541   4.037   2.468   0.459
  881SOL    HW1 3542   4.073   2.522   0.535
  881SOL    HW2 3543   4.099   2.475   0.381
  882SOL     OW 3544   1.899   2.934   3.514
  882SOL    HW1 3545   1.985   2.884   3.525
  882SOL    HW2 3546   1.869   2.927   3.419
  883SOL     OW 3547   2.427   6.523   2.969
  883SOL    HW1 3548   2.361   6.585   3.011
  883SOL    HW2 3549   2.486   6.484   3.040
  884SOL     OW 3550   2.636   3.560   6.235
  884SOL    HW1 3551   2.668   3.638   6.182
  884SOL    HW2 3552   2.704   3.487   6.230
  885SOL     OW 3553   4.290   2.874   6.643
  885SOL    HW1 3554   4.326   2.930   6.569
  885SOL    HW2 3555   4.327   2.907   6.730
  886SOL     OW 3556   3.766   1.407   6.421
  886SOL    HW1 3557   3.688   1.348   6.399
  886SOL    HW2 3558   3.734   1.501   6.435
  887SOL     OW 3559   4.322   0.986   5.274
  887SOL    HW1 3560   4.316   1.076   5.231
  887SOL    HW2 3561   4.236   0.966   5.321
  888SOL     OW 3562   0.795   6.774   1.861
  888SOL    HW1 3563   0.780   6.872   1.848
  888SOL    HW2 3564   0.706   6.728   1.869
  889SOL     OW 3565   0.487   3.982   0.559
  889SOL    HW1 3566   0.540   3.940   0.633
  889SOL    HW2 3567   0.390   3.984   0.585
  890SOL     OW 3568   2.021   5.692   4.668
  890SOL    HW1 3569   1.925   5.719   4.673
  890SOL    HW2 3570   2.030   5.606   4.618
  891SOL     OW 3571   4.871   4.533   2.314
  891SOL    HW1 3572   4.830   4.494   2.232
  891SOL    HW2 3573   4.962   4.569   2.292
  892SOL     OW 3574   2.328   4.324   0.749
  892SOL    HW1 3575   2.411   4.296   0.702
  892SOL    HW2 3576   2.352   4.366   0.837
  893SOL     OW 3577   1.718   5.041   2.636
  893SOL    HW1 3578   1.627   5.039   2.594
  893SOL    HW2 3579   1.784   4.996   2.576
  894SOL     OW 3580   0.698   4.785   1.373
  894SOL    HW1 3581   0.776   4.722   1.373
  894SOL    HW2 3582   0.650   4.779   1.286
  895SOL     OW 3583   0.026   5.211   4.212
  895SOL    HW1 3584   0.109   5.158   4.197
  895SOL    HW2 3585   6.986   5.160   4.270
  896SOL     OW 3586   6.913   1.064   6.325
  896SOL    HW1 3587   6.928   1.035   6.420
  896SOL    HW2 3588   6.999   1.058   6.274
  897SOL     OW 3589   5.559   1.163   0.921
  897SOL    HW1 3590   5.608   1.248   0.899
  897SOL    HW2 3591   5.582   1.093   0.853
  898SOL     OW 3592   4.035   1.050   2.738
  898SOL    HW1 3593   4.125   1.016   2.767
  898SOL    HW2 3594   4.026   1.039   2.639
  899SOL     OW 3595   6.478   6.545   6.701
  899SOL    HW1 3596   6.544   6.475   6.726
  899SOL    HW2 3597   6.497   6.630   6.751
  900SOL     OW 3598   5.306   5.337   6.919
  900SOL    HW1 3599   5.219   5.365   6.959
  900SOL    HW2 3600   5.381   5.377   6.972
  901SOL     OW 3601   1.186   0.412   3.120
  901SOL    HW1 3602   1.222   0.503   3.101
  901SOL    HW2 3603   1.151   0.408   3.214
  902SOL     OW 3604   0.040   3.186   1.658
  902SOL    HW1 3605   0.137   3.165   1.671
  902SOL    HW2 3606   0.011   3.251   1.729
  903SOL     OW 3607   6.861   0.690   0.696
  903SOL    HW1 3608   6.830   0.646   0.780
  903SOL    HW2 3609   6.817   0.780   0.688
  904SOL     OW 3610   2.658   0.869   3.486
  904SOL    HW1 3611   2.667   0.968   3.473
  904SOL    HW2 3612   2.575   0.837   3.439
  905SOL     OW 3613   6.020   1.966   6.151
  905SOL    HW1 3614   5.991   2.061   6.165
  905SOL    HW2 3615   5.996   1.911   6.231
  906SOL     OW 3616   5.410   3.494   0.737
  906SOL    HW1 3617   5.389   3.437   0.658
  906SOL    HW2 3618   5.360   3.580   0.732
  907SOL     OW 3619   5.577   4.089   6.423
  907SOL    HW1 3620   5.499   4.083   6.361
  907SOL    HW2 3621   5.662   4.080   6.370
  908SOL     OW 3622   0.474   3.835   3.350
  908SOL    HW1 3623   0.383   3.873   3.369
  908SOL    HW2 3624   0.542   3.908   3.350
  909SOL     OW 3625   5.251   5.087   5.929
  909SOL    HW1 3626   5.338   5.126   5.897
  909SOL    HW2 3627   5.236   5.114   6.024
  910SOL     OW 3628   3.385   4.476   0.271
  910SOL    HW1 3629   3.358   4.381   0.286
  910SOL    HW2 3630   3.397   4.491   0.172
  911SOL     OW 3631   1.076   4.790   5.740
  911SOL    HW1 3632   1.005   4.722   5.721
  911SOL    HW2 3633   1.098   4.839   5.655
  912SOL     OW 3634   5.168   1.291   5.244
  912SOL    HW1 3635   5.228   1.224   5.200
  912SOL    HW2 3636   5.076   1.253   5.252
  913SOL     OW 3637   4.539   6.273   2.959
  913SOL    HW1 3638   4.453   6.320   2.976
  913SOL    HW2 3639   4.529   6.176   2.980
  914SOL     OW 3640   3.492   6.667   5.917
  914SOL    HW1 3641   3.496   6.762   5.949
  914SOL    HW2 3642   3.409   6.653   5.863
  915SOL     OW 3643   5.112   5.662   1.404
  915SOL    HW1 3644   5.174   5.739   1.386
  915SOL    HW2 3645   5.166   5.581   1.427
  916SOL     OW 3646   0.985   3.422   2.728
  916SOL    HW1 3647   1.081   3.434   2.754
  916SOL    HW2 3648   0.938   3.510   2.734
  917SOL     OW 3649   0.447   6.813   6.602
  917SOL    HW1 3650   0.350   6.794   6.615
  917SOL    HW2 3651   0.473   6.893   6.657
  918SOL     OW 3652   3.523   6.427   6.938
  918SOL    HW1 3653   3.561   6.432   0.007
  918SOL    HW2 3654   3.448   6.361   6.936
  919SOL     OW 3655   4.595   0.755   6.281
  919SOL    HW1 3656   4.687   0.793   6.289
  919SOL    HW2 3657   4.579   0.726   6.187
  920SOL     OW 3658   3.074   4.831   2.059
  920SOL    HW1 3659   2.989   4.790   2.027
  920SOL    HW2 3660   3.151   4.775   2.031
  921SOL     OW 3661   4.780   5.618   5.319
  921SOL    HW1 3662   4.777   5.695   5.255
  921SOL    HW2 3663   4.874   5.583   5.325
  922SOL     OW 3664   3.074   3.605   3.076
  922SOL    HW1 3665   3.053   3.678   3.011
  922SOL    HW2 3666   3.066   3.640   3.169
  923SOL     OW 3667   2.362   3.736   5.716
  923SOL    HW1 3668   2.343   3.835   5.713
  923SOL    HW2 3669   2.408   3.709   5.632
  924SOL     OW 3670   0.604   3.262   1.307
  924SOL    HW1 3671   0.660   3.221   1.235
  924SOL    HW2 3672   0.559   3.189   1.359
  925SOL     OW 3673   0.479   1.479   6.712
  925SOL    HW1 3674   0.520   1.389   6.699
  925SOL    HW2 3675   0.524   1.546   6.653
  926SOL     OW 3676   2.221   2.092   1.104
  926SOL    HW1 3677   2.228   1.996   1.077
  926SOL    HW2 3678   2.125   2.118   1.108
  927SOL     OW 3679   6.749   3.254   4.745
  927SOL    HW1 3680   6.818   3.222   4.809
  927SOL    HW2 3681   6.779   3.341   4.705
  928SOL     OW 3682   2.948   5.393   5.626
  928SOL    HW1 3683   2.920   5.473   5.680
  928SOL    HW2 3684   2.872   5.363   5.569
  929SOL     OW 3685   0.390   1.960   4.673
  929SOL    HW1 3686   0.326   1.888   4.700
  929SOL    HW2 3687   0.448   1.983   4.751
  930SOL     OW 3688   5.848   5.562   5.108
  930SOL    HW1 3689   5.881   5.470   5.130
  930SOL    HW2 3690   5.748   5.562   5.110
  931SOL     OW 3691   5.955   0.490   3.272
  931SOL    HW1 3692   5.939   0.589   3.274
  931SOL    HW2 3693   6.023   0.466   3.341
  932SOL     OW 3694   3.774   0.068   3.571
  932SOL    HW1 3695   3.680   0.050   3.542
  932SOL    HW2 3696   3.806   0.153   3.529
  933SOL     OW 3697   0.891   5.561   1.864
  933SOL    HW1 3698   0.986   5.588   1.877
  933SOL    HW2 3699   0.842   5.568   1.951
  934SOL     OW 3700   1.965   2.680   0.342
  934SOL    HW1 3701   2.017   2.729   0.272
  934SOL    HW2 3702   1.870   2.670   0.311
  935SOL     OW 3703   5.591   2.718   5.686
  935SOL    HW1 3704   5.592   2.620   5.701
  935SOL    HW2 3705   5.663   2.743   5.621
  936SOL     OW 3706   1.980   0.410   6.314
  936SOL    HW1 3707   1.975   0.314   6.285
  936SOL    HW2 3708   2.051   0.457   6.261
  937SOL     OW 3709   3.308   2.420   6.490
  937SOL    HW1 3710   3.361   2.504   6.498
  937SOL    HW2 3711   3.259   2.420   6.403
  938SOL     OW 3712   4.970   6.302   4.738
  938SOL    HW1 3713   5.023   6.268   4.816
  938SOL    HW2 3714   4.963   6.230   4.669
  939SOL     OW 3715   1.581   0.076   4.798
  939SOL    HW1 3716   1.500   0.032   4.758
  939SOL    HW2 3717   1.650   0.006   4.818
  940SOL     OW 3718   1.843   5.550   0.505
  940SOL    HW1 3719   1.893   5.632   0.530
  940SOL    HW2 3720   1.878   5.472   0.556
  941SOL     OW 3721   4.003   6.953   0.970
  941SOL    HW1 3722   4.032   0.022   0.997
  941SOL    HW2 3723   4.077   6.888   0.990
  942SOL     OW 3724   6.544   5.152   6.999
  942SOL    HW1 3725   6.461   5.207   7.010
  942SOL    HW2 3726   6.610   5.203   6.944
  943SOL     OW 3727   3.561   6.266   1.012
  943SOL    HW1 3728   3.568   6.226   1.103
  943SOL    HW2 3729   3.651   6.263   0.967
  944SOL     OW 3730   6.817   6.295   2.980
  944SOL    HW1 3731   6.908   6.328   3.003
  944SOL    HW2 3732   6.806   6.201   3.013
  945SOL     OW 3733   0.554   5.599   6.846
  945SOL    HW1 3734   0.506   5.517   6.879
  945SOL    HW2 3735   0.638   5.571   6.799
  946SOL     OW 3736   5.919   1.890   3.891
  946SOL    HW1 3737   5.911   1.876   3.990
  946SOL    HW2 3738   5.831   1.874   3.848
  947SOL     OW 3739   3.755   4.078   2.472
  947SOL    HW1 3740   3.663   4.087   2.434
  947SOL    HW2 3741   3.815   4.038   2.402
  948SOL     OW 3742   3.377   1.414   3.895
  948SOL    HW1 3743   3.303   1.348   3.878
  948SOL    HW2 3744   3.422   1.393   3.982
  949SOL     OW 3745   2.769   0.074   5.699
  949SOL    HW1 3746   2.779   0.134   5.778
  949SOL    HW2 3747   2.731   0.125   5.622
  950SOL     OW 3748   6.971   6.651   1.908
  950SOL    HW1 3749   0.013   6.598   1.964
  950SOL    HW2 3750   6.888   6.667   1.961
  951SOL     OW 3751   1.430   0.252   3.116
  951SOL    HW1 3752   1.425   0.170   3.059
  951SOL    HW2 3753   1.339   0.293   3.121
  952SOL     OW 3754   3.700   1.309   2.847
  952SOL    HW1 3755   3.733   1.391   2.895
  952SOL    HW2 3756   3.714   1.229   2.906
  953SOL     OW 3757   0.903   5.714   5.983
  953SOL    HW1 3758   0.956   5.630   5.978
  953SOL    HW2 3759   0.935   5.778   5.914
  954SOL     OW 3760   4.689   6.741   2.392
  954SOL    HW1 3761   4.647   6.676   2.455
  954SOL    HW2 3762   4.632   6.749   2.310
  955SOL     OW 3763   3.195   4.665   1.255
  955SOL    HW1 3764   3.115   4.722   1.275
  955SOL    HW2 3765   3.208   4.660   1.156
  956SOL     OW 3766   3.300   0.472   1.134
  956SOL    HW1 3767   3.324   0.568   1.119
  956SOL    HW2 3768   3.370   0.413   1.093
  957SOL     OW 3769   6.040   6.844   3.400
  957SOL    HW1 3770   5.959   6.788   3.384
  957SOL    HW2 3771   6.060   6.846   3.498
  958SOL     OW 3772   5.882   5.908   1.976
  958SOL    HW1 3773   5.790   5.876   1.957
  958SOL    HW2 3774   5.940   5.893   1.896
  959SOL     OW 3775   4.898   0.229   3.060
  959SOL    HW1 3776   4.863   0.210   3.152
  959SOL    HW2 3777   4.911   0.143   3.011
  960SOL     OW 3778   1.512   6.143   5.405
  960SOL    HW1 3779   1.491   6.241   5.398
  960SOL    HW2 3780   1.611   6.130   5.406
  961SOL     OW 3781   3.853   1.323   3.684
  961SOL    HW1 3782   3.819   1.240   3.640
  961SOL    HW2 3783   3.776   1.385   3.702
  962SOL     OW 3784   0.155   0.222   4.714
  962SOL    HW1 3785   0.122   0.314   4.733
  962SOL    HW2 3786   0.212   0.190   4.789
  963SOL     OW 3787   5.984   2.909   1.291
  963SOL    HW1 3788   5.924   2.987   1.309
  963SOL    HW2 3789   5.961   2.834   1.352
  964SOL     OW 3790   3.328   6.295   4.930
  964SOL    HW1 3791   3.378   6.311   4.844
  964SOL    HW2 3792   3.333   6.378   4.987
  965SOL     OW 3793   4.875   1.816   3.905
  965SOL    HW1 3794   4.879   1.820   3.805
  965SOL    HW2 3795   4.888   1.722   3.935
  966SOL     OW 3796   5.381   0.945   3.178
  966SOL    HW1 3797   5.443   0.872   3.205
  966SOL    HW2 3798   5.295   0.936   3.229
  967SOL     OW 3799   3.957   5.424   5.765
  967SOL    HW1 3800   3.997   5.515   5.761
  967SOL    HW2 3801   4.023   5.360   5.805
  968SOL     OW 3802   3.729   0.518   1.119
  968SOL    HW1 3803   3.695   0.437   1.071
  968SOL    HW2 3804   3.699   0.516   1.214
  969SOL     OW 3805   2.775   3.498   6.847
  969SOL    HW1 3806   2.813   3.514   6.755
  969SOL    HW2 3807   2.842   3.525   6.916
  970SOL     OW 3808   4.224   6.242   5.052
  970SOL    HW1 3809   4.153   6.269   5.118
  970SOL    HW2 3810   4.310   6.229   5.101
  971SOL     OW 3811   5.146   3.482   3.497
  971SOL    HW1 3812   5.131   3.383   3.499
  971SOL    HW2 3813   5.176   3.509   3.405
  972SOL     OW 3814   0.478   1.835   0.714
  972SOL    HW1 3815   0.426   1.872   0.791
  972SOL    HW2 3816   0.416   1.810   0.641
  973SOL     OW 3817   6.547   2.552   4.649
  973SOL    HW1 3818   6.565   2.468   4.598
  973SOL    HW2 3819   6.482   2.533   4.723
  974SOL     OW 3820   0.876   3.080   1.756
  974SOL    HW1 3821   0.943   3.081   1.682
  974SOL    HW2 3822   0.920   3.103   1.842
  975SOL     OW 3823   2.955   0.354   1.556
  975SOL    HW1 3824   3.014   0.423   1.598
  975SOL    HW2 3825   3.009   0.272   1.536
  976SOL     OW 3826   6.879   3.018   3.914
  976SOL    HW1 3827   6.827   2.933   3.923
  976SOL    HW2 3828   6.922   3.041   4.001
  977SOL     OW 3829   6.428   1.491   2.344
  977SOL    HW1 3830   6.468   1.453   2.261
  977SOL    HW2 3831   6.330   1.506   2.330
  978SOL     OW 3832   4.980   2.528   1.009
  978SOL    HW1 3833   4.960   2.544   0.913
  978SOL    HW2 3834   4.894   2.522   1.060
  979SOL     OW 3835   0.049   5.004   6.384
  979SOL    HW1 3836   0.059   4.961   6.473
  979SOL    HW2 3837   0.137   5.041   6.354
  980SOL     OW 3838   4.749   1.340   4.052
  980SOL    HW1 3839   4.752   1.323   4.151
  980SOL    HW2 3840   4.675   1.287   4.011
  981SOL     OW 3841   0.536   5.966   5.561
  981SOL    HW1 3842   0.632   5.942   5.577
  981SOL    HW2 3843   0.491   5.984   5.648
  982SOL     OW 3844   0.059   1.105   6.701
  982SOL    HW1 3845   0.015   1.030   6.651
  982SOL    HW2 3846   7.014   1.149   6.760
  983SOL     OW 3847   0.082   3.583   2.419
  983SOL    HW1 3848   0.052   3.665   2.468
  983SOL    HW2 3849   0.174   3.558   2.448
  984SOL     OW 3850   0.083   3.315   3.789
  984SOL    HW1 3851   7.009   3.319   3.810
  984SOL    HW2 3852   0.107   3.389   3.726
  985SOL     OW 3853   5.716   5.335   5.285
  985SOL    HW1 3854   5.633   5.337   5.230
  985SOL    HW2 3855   5.740   5.240   5.305
  986SOL     OW 3856   4.144   5.497   1.711
  986SOL    HW1 3857   4.088   5.515   1.630
  986SOL    HW2 3858   4.222   5.439   1.685
  987SOL     OW 3859   4.590   4.414   4.491
  987SOL    HW1 3860   4.622   4.489   4.549
  987SOL    HW2 3861   4.626   4.327   4.526
  988SOL     OW 3862   2.962   4.813   2.302
  988SOL    HW1 3863   2.900   4.736   2.287
  988SOL    HW2 3864   3.037   4.809   2.235
  989SOL     OW 3865   0.157   2.524   1.113
  989SOL    HW1 3866   0.209   2.574   1.044
  989SOL    HW2 3867   0.211   2.517   1.197
  990SOL     OW 3868   3.722   0.090   5.138
  990SOL    HW1 3869   3.792   0.096   5.067
  990SOL    HW2 3870   3.731   0.167   5.201
  991SOL     OW 3871   1.191   5.999   3.897
  991SOL    HW1 3872   1.183   6.097   3.916
  991SOL    HW2 3873   1.230   5.952   3.976
  992SOL     OW 3874   6.371   3.136   0.467
  992SOL    HW1 3875   6.350   3.186   0.551
  992SOL    HW2 3876   6.453   3.081   0.481
  993SOL     OW 3877   1.815   5.407   6.492
  993SOL    HW1 3878   1.872   5.481   6.529
  993SOL    HW2 3879   1.867   5.356   6.424
  994SOL     OW 3880   2.605   6.988   1.593
  994SOL    HW1 3881   2.604   0.039   1.527
  994SOL    HW2 3882   2.511   6.963   1.617
  995SOL     OW 3883   5.784   4.132   5.813
  995SOL    HW1 3884   5.737   4.101   5.895
  995SOL    HW2 3885   5.729   4.107   5.732
  996SOL     OW 3886   3.980   6.421   4.934
  996SOL    HW1 3887   4.025   6.341   4.894
  996SOL    HW2 3888   4.040   6.500   4.927
  997SOL     OW 3889   1.236   6.281   3.658
  997SOL    HW1 3890   1.319   6.233   3.632
  997SOL    HW2 3891   1.221   6.271   3.757
  998SOL     OW 3892   4.693   0.104   0.474
  998SOL    HW1 3893   4.747   0.150   0.404
  998SOL    HW2 3894   4.670   0.168   0.547
  999SOL     OW 3895   5.755   3.000   2.154
  999SOL    HW1 3896   5.745   2.946   2.070
  999SOL    HW2 3897   5.709   3.088   2.142
 1000SOL     OW 3898   5.714   1.948   2.061
 1000SOL    HW1 3899   5.732   2.034   2.109
 1000SOL    HW2 3900   5.738   1.958   1.964
 1001SOL     OW 3901   2.605   6.461   3.211
 1001SOL    HW1 3902   2.651   6.546   3.238
 1001SOL    HW2 3903   2.565   6.418   3.291
 1002SOL     OW 3904   3.929   2.315   0.750
 1002SOL    HW1 3905   3.936   2.381   0.675
 1002SOL    HW2 3906   3.843   2.265   0.742
 1003SOL     OW 3907   0.595   1.193   4.041
 1003SOL    HW1 3908   0.537   1.190   3.960
 1003SOL    HW2 3909   0.674   1.133   4.028
 1004SOL     OW 3910   5.004   1.624   4.313
 1004SOL    HW1 3911   4.974   1.619   4.408
 1004SOL    HW2 3912   5.058   1.706   4.299
 1005SOL     OW 3913   0.854   5.585   1.596
 1005SOL    HW1 3914   0.862   5.583   1.696
 1005SOL    HW2 3915   0.785   5.519   1.566
 1006SOL     OW 3916   1.969   4.594   1.490
 1006SOL    HW1 3917   1.915   4.568   1.571
 1006SOL    HW2 3918   1.961   4.523   1.420
 1007SOL     OW 3919   4.618   1.225   6.330
 1007SOL    HW1 3920   4.526   1.221   6.291
 1007SOL    HW2 3921   4.620   1.172   6.415
 1008SOL     OW 3922   0.515   4.680   5.080
 1008SOL    HW1 3923   0.493   4.688   4.983
 1008SOL    HW2 3924   0.444   4.627   5.126
 1009SOL     OW 3925   6.123   6.402   6.499
 1009SOL    HW1 3926   6.133   6.355   6.587
 1009SOL    HW2 3927   6.168   6.491   6.505
 1010SOL     OW 3928   3.085   3.761   0.570
 1010SOL    HW1 3929   3.030   3.800   0.497
 1010SOL    HW2 3930   3.054   3.797   0.658
 1011SOL     OW 3931   0.171   5.151   2.344
 1011SOL    HW1 3932   0.125   5.139   2.256
 1011SOL    HW2 3933   0.260   5.193   2.330
 1012SOL     OW 3934   5.674   6.103   3.220
 1012SOL    HW1 3935   5.676   6.033   3.149
 1012SOL    HW2 3936   5.646   6.063   3.307
 1013SOL     OW 3937   0.730   1.223   6.223
 1013SOL    HW1 3938   0.705   1.317   6.201
 1013SOL    HW2 3939   0.800   1.192   6.159
 1014SOL     OW 3940   0.761   4.627   4.214
 1014SOL    HW1 3941   0.816   4.556   4.169
 1014SOL    HW2 3942   0.798   4.717   4.190
 1015SOL     OW 3943   3.093   6.493   0.344
 1015SOL    HW1 3944   3.009   6.458   0.302
 1015SOL    HW2 3945   3.169   6.432   0.321
 1016SOL     OW 3946   6.920   4.881   0.392
 1016SOL    HW1 3947   6.914   4.980   0.377
 1016SOL    HW2 3948   6.960   4.863   0.482
 1017SOL     OW 3949   2.156   1.189   2.375
 1017SOL    HW1 3950   2.218   1.186   2.453
 1017SOL    HW2 3951   2.184   1.121   2.307
 1018SOL     OW 3952   5.668   6.323   5.273
 1018SOL    HW1 3953   5.714   6.410   5.256
 1018SOL    HW2 3954   5.635   6.285   5.187
 1019SOL     OW 3955   6.263   3.982   1.254
 1019SOL    HW1 3956   6.224   3.993   1.346
 1019SOL    HW2 3957   6.342   4.042   1.244
 1020SOL     OW 3958   5.598   1.390   1.474
 1020SOL    HW1 3959   5.581   1.458   1.545
 1020SOL    HW2 3960   5.544   1.308   1.492
 1021SOL     OW 3961   1.118   6.657   0.644
 1021SOL    HW1 3962   1.129   6.733   0.708
 1021SOL    HW2 3963   1.130   6.571   0.692
 1022SOL     OW 3964   2.140   5.145   6.364
 1022SOL    HW1 3965   2.163   5.101   6.278
 1022SOL    HW2 3966   2.053   5.109   6.398
 1023SOL     OW 3967   0.779   1.399   2.396
 1023SOL    HW1 3968   0.735   1.488   2.384
 1023SOL    HW2 3969   0.860   1.410   2.454
 1024SOL     OW 3970   1.988   2.535   4.550
 1024SOL    HW1 3971   2.086   2.539   4.528
 1024SOL    HW2 3972   1.977   2.503   4.644
 1025SOL     OW 3973   4.593   4.244   1.196
 1025SOL    HW1 3974   4.549   4.307   1.132
 1025SOL    HW2 3975   4.526   4.214   1.265
 1026SOL     OW 3976   3.309   2.837   1.877
 1026SOL    HW1 3977   3.230   2.782   1.849
 1026SOL    HW2 3978   3.293   2.873   1.969
 1027SOL     OW 3979   6.599   0.111   0.219
 1027SOL    HW1 3980   6.634   0.060   0.141
 1027SOL    HW2 3981   6.606   0.055   0.301
 1028SOL     OW 3982   1.063   4.766   2.958
 1028SOL    HW1 3983   1.083   4.863   2.945
 1028SOL    HW2 3984   1.114   4.732   3.037
 1029SOL     OW 3985   0.400   0.793   4.887
 1029SOL    HW1 3986   0.473   0.861   4.881
 1029SOL    HW2 3987   0.313   0.839   4.901
 1030SOL     OW 3988   4.192   3.588   0.964
 1030SOL    HW1 3989   4.226   3.680   0.946
 1030SOL    HW2 3990   4.228   3.525   0.895
 1031SOL     OW 3991   3.849   2.654   0.637
 1031SOL    HW1 3992   3.764   2.642   0.688
 1031SOL    HW2 3993   3.830   2.702   0.551
 1032SOL     OW 3994   1.585   1.385   1.083
 1032SOL    HW1 3995   1.531   1.433   1.013
 1032SOL    HW2 3996   1.571   1.429   1.171
 1033SOL     OW 3997   6.732   6.839   1.902
 1033SOL    HW1 3998   6.788   6.922   1.897
 1033SOL    HW2 3999   6.716   6.803   1.810
 1034SOL     OW 4000   2.727   0.808   5.099
 1034SOL    HW1 4001   2.802   0.834   5.037
 1034SOL    HW2 4002   2.762   0.749   5.171
 1035SOL     OW 4003   1.502   0.337   0.221
 1035SOL    HW1 4004   1.552   0.322   0.136
 1035SOL    HW2 4005   1.499   0.435   0.240
 1036SOL     OW 4006   5.112   1.520   2.312
 1036SOL    HW1 4007   5.075   1.427   2.316
 1036SOL    HW2 4008   5.090   1.562   2.224
 1037SOL     OW 4009   1.512   3.678   3.242
 1037SOL    HW1 4010   1.583   3.723   3.188
 1037SOL    HW2 4011   1.433   3.739   3.249
 1038SOL     OW 4012   1.967   6.383   0.270
 1038SOL    HW1 4013   1.872   6.413   0.274
 1038SOL    HW2 4014   2.014   6.410   0.354
 1039SOL     OW 4015   2.996   3.577   2.651
 1039SOL    HW1 4016   3.009   3.478   2.652
 1039SOL    HW2 4017   2.976   3.609   2.744
 1040SOL     OW 4018   3.776   1.165   2.639
 1040SOL    HW1 4019   3.874   1.151   2.648
 1040SOL    HW2 4020   3.747   1.237   2.702
 1041SOL     OW 4021   6.747   6.484   6.538
 1041SOL    HW1 4022   6.721   6.559   6.598
 1041SOL    HW2 4023   6.737   6.397   6.588
 1042SOL     OW 4024   5.393   3.668   4.173
 1042SOL    HW1 4025   5.451   3.619   4.107
 1042SOL    HW2 4026   5.312   3.613   4.193
 1043SOL     OW 4027   2.383   1.927   3.789
 1043SOL    HW1 4028   2.322   1.874   3.730
 1043SOL    HW2 4029   2.441   1.985   3.732
 1044SOL     OW 4030   6.047   4.575   2.444
 1044SOL    HW1 4031   6.081   4.573   2.538
 1044SOL    HW2 4032   6.114   4.620   2.385
 1045SOL     OW 4033   2.470   0.384   2.849
 1045SOL    HW1 4034   2.426   0.409   2.762
 1045SOL    HW2 4035   2.401   0.378   2.921
 1046SOL     OW 4036   2.942   2.583   0.645
 1046SOL    HW1 4037   2.967   2.551   0.736
 1046SOL    HW2 4038   2.844   2.600   0.641
 1047SOL     OW 4039   3.787   1.047   3.585
 1047SOL    HW1 4040   3.795   1.051   3.485
 1047SOL    HW2 4041   3.739   0.963   3.611
 1048SOL     OW 4042   0.885   0.047   2.355
 1048SOL    HW1 4043   0.981   0.020   2.361
 1048SOL    HW2 4044   0.852   0.034   2.261
 1049SOL     OW 4045   3.429   6.876   0.665
 1049SOL    HW1 4046   3.404   6.884   0.569
 1049SOL    HW2 4047   3.517   6.827   0.673
 1050SOL     OW 4048   2.376   1.756   4.336
 1050SOL    HW1 4049   2.290   1.764   4.387
 1050SOL    HW2 4050   2.387   1.662   4.304
 1051SOL     OW 4051   1.708   2.037   5.601
 1051SOL    HW1 4052   1.668   1.986   5.525
 1051SOL    HW2 4053   1.741   1.972   5.670
 1052SOL     OW 4054   4.251   2.130   6.500
 1052SOL    HW1 4055   4.310   2.192   6.449
 1052SOL    HW2 4056   4.157   2.164   6.498
 1053SOL     OW 4057   5.077   2.991   3.968
 1053SOL    HW1 4058   5.103   2.898   3.942
 1053SOL    HW2 4059   5.136   3.057   3.921
 1054SOL     OW 4060   4.798   5.454   6.613
 1054SOL    HW1 4061   4.837   5.451   6.521
 1054SOL    HW2 4062   4.731   5.528   6.619
 1055SOL     OW 4063   5.457   5.607   6.394
 1055SOL    HW1 4064   5.506   5.576   6.313
 1055SOL    HW2 4065   5.370   5.648   6.367
 1056SOL     OW 4066   3.593   3.516   0.400
 1056SOL    HW1 4067   3.688   3.491   0.419
 1056SOL    HW2 4068   3.537   3.496   0.480
 1057SOL     OW 4069   3.216   3.397   6.917
 1057SOL    HW1 4070   3.131   3.446   6.933
 1057SOL    HW2 4071   3.254   3.425   6.829
 1058SOL     OW 4072   2.977   2.119   1.874
 1058SOL    HW1 4073   2.940   2.164   1.956
 1058SOL    HW2 4074   3.061   2.165   1.847
 1059SOL     OW 4075   2.178   6.006   2.195
 1059SOL    HW1 4076   2.249   6.006   2.265
 1059SOL    HW2 4077   2.165   6.099   2.160
 1060SOL     OW 4078   6.382   0.420   5.683
 1060SOL    HW1 4079   6.360   0.480   5.760
 1060SOL    HW2 4080   6.407   0.330   5.717
 1061SOL     OW 4081   6.942   3.365   6.546
 1061SOL    HW1 4082   6.898   3.425   6.613
 1061SOL    HW2 4083   6.991   3.293   6.595
 1062SOL     OW 4084   3.192   4.589   5.445
 1062SOL    HW1 4085   3.107   4.637   5.468
 1062SOL    HW2 4086   3.267   4.625   5.501
 1063SOL     OW 4087   2.801   6.373   4.104
 1063SOL    HW1 4088   2.780   6.389   4.201
 1063SOL    HW2 4089   2.828   6.278   4.091
 1064SOL     OW 4090   1.125   4.019   0.584
 1064SOL    HW1 4091   1.067   3.965   0.522
 1064SOL    HW2 4092   1.201   3.963   0.615
 1065SOL     OW 4093   5.937   0.966   4.995
 1065SOL    HW1 4094   5.890   0.884   4.960
 1065SOL    HW2 4095   6.035   0.947   5.003
 1066SOL     OW 4096   4.759   6.284   0.843
 1066SOL    HW1 4097   4.816   6.348   0.791
 1066SOL    HW2 4098   4.813   6.205   0.868
 1067SOL     OW 4099   3.212   1.169   0.216
 1067SOL    HW1 4100   3.265   1.254   0.218
 1067SOL    HW2 4101   3.177   1.150   0.307
 1068SOL     OW 4102   6.017   3.160   1.634
 1068SOL    HW1 4103   5.976   3.208   1.556
 1068SOL    HW2 4104   5.961   3.174   1.715
 1069SOL     OW 4105   6.957   2.451   2.961
 1069SOL    HW1 4106   6.961   2.356   2.931
 1069SOL    HW2 4107   7.019   2.506   2.905
 1070SOL     OW 4108   0.768   0.886   2.172
 1070SOL    HW1 4109   0.823   0.966   2.148
 1070SOL    HW2 4110   0.827   0.817   2.214
 1071SOL     OW 4111   0.578   2.874   6.011
 1071SOL    HW1 4112   0.659   2.925   5.984
 1071SOL    HW2 4113   0.566   2.880   6.110
 1072SOL     OW 4114   2.360   1.612   1.907
 1072SOL    HW1 4115   2.362   1.668   1.824
 1072SOL    HW2 4116   2.453   1.581   1.928
 1073SOL     OW 4117   5.427   2.268   2.907
 1073SOL    HW1 4118   5.444   2.195   2.841
 1073SOL    HW2 4119   5.402   2.352   2.859
 1074SOL     OW 4120   3.522   5.576   1.969
 1074SOL    HW1 4121   3.543   5.673   1.980
 1074SOL    HW2 4122   3.444   5.566   1.908
 1075SOL     OW 4123   6.454   4.001   4.837
 1075SOL    HW1 4124   6.355   3.989   4.839
 1075SOL    HW2 4125   6.483   4.033   4.746
 1076SOL     OW 4126   2.234   4.181   5.419
 1076SOL    HW1 4127   2.308   4.212   5.360
 1076SOL    HW2 4128   2.200   4.093   5.386
 1077SOL     OW 4129   6.753   6.361   0.596
 1077SOL    HW1 4130   6.848   6.391   0.596
 1077SOL    HW2 4131   6.700   6.415   0.662
 1078SOL     OW 4132   5.495   6.760   4.193
 1078SOL    HW1 4133   5.484   6.827   4.266
 1078SOL    HW2 4134   5.518   6.807   4.108
 1079SOL     OW 4135   0.988   6.520   1.363
 1079SOL    HW1 4136   0.932   6.474   1.431
 1079SOL    HW2 4137   1.049   6.454   1.319
 1080SOL     OW 4138   4.841   5.611   0.315
 1080SOL    HW1 4139   4.787   5.693   0.293
 1080SOL    HW2 4140   4.795   5.531   0.276
 1081SOL     OW 4141   0.089   6.720   3.341
 1081SOL    HW1 4142   0.007   6.762   3.380
 1081SOL    HW2 4143   0.169   6.777   3.362
 1082SOL     OW 4144   4.361   0.234   0.057
 1082SOL    HW1 4145   4.343   0.273   0.147
 1082SOL    HW2 4146   4.457   0.210   0.050
 1083SOL     OW 4147   6.167   4.192   2.302
 1083SOL    HW1 4148   6.122   4.269   2.259
 1083SOL    HW2 4149   6.260   4.218   2.327
 1084SOL     OW 4150   4.477   0.615   5.114
 1084SOL    HW1 4151   4.433   0.632   5.202
 1084SOL    HW2 4152   4.445   0.682   5.047
 1085SOL     OW 4153   1.549   3.225   5.005
 1085SOL    HW1 4154   1.560   3.231   4.905
 1085SOL    HW2 4155   1.522   3.314   5.041
 1086SOL     OW 4156   5.806   4.760   1.859
 1086SOL    HW1 4157   5.780   4.693   1.790
 1086SOL    HW2 4158   5.725   4.812   1.888
 1087SOL     OW 4159   3.835   6.996   5.741
 1087SOL    HW1 4160   3.857   6.934   5.817
 1087SOL    HW2 4161   3.817   6.943   5.659
 1088SOL     OW 4162   6.828   5.216   4.666
 1088SOL    HW1 4163   6.784   5.274   4.597
 1088SOL    HW2 4164   6.909   5.173   4.626
 1089SOL     OW 4165   5.994   5.183   4.220
 1089SOL    HW1 4166   5.965   5.267   4.266
 1089SOL    HW2 4167   6.088   5.160   4.248
 1090SOL     OW 4168   5.700   2.578   4.911
 1090SOL    HW1 4169   5.605   2.599   4.888
 1090SOL    HW2 4170   5.760   2.621   4.844
 1091SOL     OW 4171   2.195   3.845   3.027
 1091SOL    HW1 4172   2.194   3.909   2.950
 1091SOL    HW2 4173   2.195   3.751   2.993
 1092SOL     OW 4174   1.121   6.414   0.762
 1092SOL    HW1 4175   1.046   6.393   0.824
 1092SOL    HW2 4176   1.205   6.373   0.796
 1093SOL     OW 4177   1.281   0.683   3.085
 1093SOL    HW1 4178   1.195   0.713   3.128
 1093SOL    HW2 4179   1.352   0.752   3.102
 1094SOL     OW 4180   0.420   0.128   2.957
 1094SOL    HW1 4181   0.408   0.051   3.020
 1094SOL    HW2 4182   0.518   0.144   2.941
 1095SOL     OW 4183   6.129   4.021   1.031
 1095SOL    HW1 4184   6.177   4.017   1.118
 1095SOL    HW2 4185   6.192   3.997   0.957
 1096SOL     OW 4186   2.163   5.730   2.107
 1096SOL    HW1 4187   2.171   5.825   2.136
 1096SOL    HW2 4188   2.239   5.677   2.145
 1097SOL     OW 4189   2.718   5.885   4.517
 1097SOL    HW1 4190   2.724   5.945   4.596
 1097SOL    HW2 4191   2.694   5.938   4.436
 1098SOL     OW 4192   6.702   4.120   0.005
 1098SOL    HW1 4193   6.720   4.031   0.046
 1098SOL    HW2 4194   6.750   4.127   6.940
 1099SOL     OW 4195   5.653   0.363   6.575
 1099SOL    HW1 4196   5.677   0.428   6.646
 1099SOL    HW2 4197   5.554   0.364   6.561
 1100SOL     OW 4198   4.788   1.288   4.318
 1100SOL    HW1 4199   4.884   1.270   4.296
 1100SOL    HW2 4200   4.775   1.285   4.417
 1101SOL     OW 4201   4.699   2.677   6.790
 1101SOL    HW1 4202   4.631   2.616   6.748
 1101SOL    HW2 4203   4.774   2.693   6.726
 1102SOL     OW 4204   3.117   0.799   3.775
 1102SOL    HW1 4205   3.052   0.724   3.790
 1102SOL    HW2 4206   3.194   0.790   3.839
 1103SOL     OW 4207   3.437   5.726   0.958
 1103SOL    HW1 4208   3.507   5.756   0.894
 1103SOL    HW2 4209   3.411   5.632   0.939
 1104SOL     OW 4210   6.443   1.368   3.329
 1104SOL    HW1 4211   6.390   1.385   3.412
 1104SOL    HW2 4212   6.384   1.377   3.249
 1105SOL     OW 4213   4.843   0.864   6.353
 1105SOL    HW1 4214   4.826   0.951   6.308
 1105SOL    HW2 4215   4.919   0.873   6.417
 1106SOL     OW 4216   6.062   2.076   1.908
 1106SOL    HW1 4217   6.060   2.009   1.982
 1106SOL    HW2 4218   5.974   2.075   1.860
 1107SOL     OW 4219   1.139   2.039   0.464
 1107SOL    HW1 4220   1.197   1.990   0.400
 1107SOL    HW2 4221   1.098   2.118   0.419
 1108SOL     OW 4222   2.215   1.400   3.494
 1108SOL    HW1 4223   2.270   1.458   3.434
 1108SOL    HW2 4224   2.180   1.322   3.442
 1109SOL     OW 4225   4.904   1.702   4.988
 1109SOL    HW1 4226   4.905   1.733   5.083
 1109SOL    HW2 4227   4.857   1.769   4.931
 1110SOL     OW 4228   1.232   0.676   2.560
 1110SOL    HW1 4229   1.274   0.667   2.650
 1110SOL    HW2 4230   1.277   0.614   2.495
 1111SOL     OW 4231   5.560   3.429   6.145
 1111SOL    HW1 4232   5.623   3.392   6.077
 1111SOL    HW2 4233   5.493   3.359   6.170
 1112SOL     OW 4234   5.744   0.540   2.359
 1112SOL    HW1 4235   5.767   0.529   2.456
 1112SOL    HW2 4236   5.776   0.629   2.327
 1113SOL     OW 4237   6.582   2.574   3.235
 1113SOL    HW1 4238   6.577   2.479   3.267
 1113SOL    HW2 4239   6.659   2.583   3.172
 1114SOL     OW 4240   3.486   3.413   5.132
 1114SOL    HW1 4241   3.503   3.314   5.128
 1114SOL    HW2 4242   3.521   3.455   5.048
 1115SOL     OW 4243   2.056   5.273   5.817
 1115SOL    HW1 4244   1.992   5.240   5.747
 1115SOL    HW2 4245   2.004   5.301   5.898
 1116SOL     OW 4246   4.471   6.970   0.430
 1116SOL    HW1 4247   4.436   6.956   0.337
 1116SOL    HW2 4248   4.568   6.946   0.433
 1117SOL     OW 4249   2.077   2.504   1.694
 1117SOL    HW1 4250   2.016   2.540   1.765
 1117SOL    HW2 4251   2.156   2.459   1.737
 1118SOL     OW 4252   4.889   6.744   0.082
 1118SOL    HW1 4253   4.880   6.684   0.002
 1118SOL    HW2 4254   4.956   6.705   0.145
 1119SOL     OW 4255   2.671   5.257   3.993
 1119SOL    HW1 4256   2.678   5.260   3.894
 1119SOL    HW2 4257   2.624   5.173   4.021
 1120SOL     OW 4258   6.956   3.332   1.432
 1120SOL    HW1 4259   6.985   3.411   1.484
 1120SOL    HW2 4260   6.997   3.249   1.470
 1121SOL     OW 4261   5.986   4.902   5.867
 1121SOL    HW1 4262   6.067   4.850   5.840
 1121SOL    HW2 4263   6.013   4.977   5.927
 1122SOL     OW 4264   6.213   0.863   1.958
 1122SOL    HW1 4265   6.284   0.902   2.017
 1122SOL    HW2 4266   6.235   0.882   1.862
 1123SOL     OW 4267   4.143   1.685   4.700
 1123SOL    HW1 4268   4.109   1.727   4.784
 1123SOL    HW2 4269   4.065   1.653   4.645
 1124SOL     OW 4270   2.305   2.788   3.753
 1124SOL    HW1 4271   2.324   2.765   3.848
 1124SOL    HW2 4272   2.322   2.708   3.695
 1125SOL     OW 4273   1.610   3.245   3.655
 1125SOL    HW1 4274   1.554   3.244   3.572
 1125SOL    HW2 4275   1.552   3.261   3.735
 1126SOL     OW 4276   4.453   4.684   4.015
 1126SOL    HW1 4277   4.399   4.766   4.031
 1126SOL    HW2 4278   4.424   4.640   3.930
 1127SOL     OW 4279   6.143   6.548   1.159
 1127SOL    HW1 4280   6.161   6.534   1.062
 1127SOL    HW2 4281   6.058   6.600   1.170
 1128SOL     OW 4282   4.033   1.740   5.222
 1128SOL    HW1 4283   3.976   1.659   5.232
 1128SOL    HW2 4284   4.079   1.760   5.309
 1129SOL     OW 4285   1.081   0.901   7.001
 1129SOL    HW1 4286   0.986   0.916   0.005
 1129SOL    HW2 4287   1.117   0.820   0.024
 1130SOL     OW 4288   2.315   5.335   1.595
 1130SOL    HW1 4289   2.337   5.238   1.605
 1130SOL    HW2 4290   2.326   5.381   1.683
 1131SOL     OW 4291   1.322   5.493   3.956
 1131SOL    HW1 4292   1.390   5.530   4.020
 1131SOL    HW2 4293   1.232   5.493   4.000
 1132SOL     OW 4294   1.254   1.680   2.948
 1132SOL    HW1 4295   1.312   1.679   2.866
 1132SOL    HW2 4296   1.160   1.702   2.922
 1133SOL     OW 4297   1.331   6.519   6.573
 1133SOL    HW1 4298   1.355   6.449   6.505
 1133SOL    HW2 4299   1.408   6.583   6.582
 1134SOL     OW 4300   4.839   5.747   0.575
 1134SOL    HW1 4301   4.854   5.712   0.483
 1134SOL    HW2 4302   4.833   5.671   0.640
 1135SOL     OW 4303   1.770   0.570   3.087
 1135SOL    HW1 4304   1.674   0.550   3.070
 1135SOL    HW2 4305   1.794   0.657   3.045
 1136SOL     OW 4306   1.522   4.527   2.519
 1136SOL    HW1 4307   1.443   4.480   2.481
 1136SOL    HW2 4308   1.598   4.463   2.529
 1137SOL     OW 4309   0.998   5.252   4.483
 1137SOL    HW1 4310   0.963   5.250   4.576
 1137SOL    HW2 4311   1.054   5.171   4.467
 1138SOL     OW 4312   1.939   3.822   4.670
 1138SOL    HW1 4313   1.971   3.897   4.612
 1138SOL    HW2 4314   1.887   3.860   4.747
 1139SOL     OW 4315   3.088   5.792   5.059
 1139SOL    HW1 4316   3.152   5.835   5.123
 1139SOL    HW2 4317   3.125   5.703   5.029
 1140SOL     OW 4318   2.084   2.705   1.510
 1140SOL    HW1 4319   2.131   2.689   1.423
 1140SOL    HW2 4320   2.082   2.620   1.563
 1141SOL     OW 4321   6.262   4.982   5.545
 1141SOL    HW1 4322   6.230   5.014   5.455
 1141SOL    HW2 4323   6.360   4.996   5.553
 1142SOL     OW 4324   0.908   5.706   3.027
 1142SOL    HW1 4325   0.931   5.765   3.105
 1142SOL    HW2 4326   0.857   5.626   3.059
 1143SOL     OW 4327   6.551   4.440   1.642
 1143SOL    HW1 4328   6.571   4.345   1.616
 1143SOL    HW2 4329   6.516   4.489   1.563
 1144SOL     OW 4330   5.076   4.553   0.561
 1144SOL    HW1 4331   4.994   4.603   0.589
 1144SOL    HW2 4332   5.155   4.586   0.613
 1145SOL     OW 4333   6.338   6.873   0.604
 1145SOL    HW1 4334   6.294   6.818   0.533
 1145SOL    HW2 4335   6.437   6.858   0.602
 1146SOL     OW 4336   1.772   1.075   1.458
 1146SOL    HW1 4337   1.858   1.058   1.505
 1146SOL    HW2 4338   1.708   1.120   1.520
 1147SOL     OW 4339   2.110   6.419   1.178
 1147SOL    HW1 4340   2.088   6.460   1.089
 1147SOL    HW2 4341   2.036   6.360   1.208
 1148SOL     OW 4342   3.669   6.208   2.155
 1148SOL    HW1 4343   3.571   6.191   2.146
 1148SOL    HW2 4344   3.709   6.142   2.218
 1149SOL     OW 4345   5.297   2.223   1.213
 1149SOL    HW1 4346   5.252   2.291   1.273
 1149SOL    HW2 4347   5.233   2.149   1.193
 1150SOL     OW 4348   1.159   2.325   1.049
 1150SOL    HW1 4349   1.191   2.409   1.005
 1150SOL    HW2 4350   1.236   2.280   1.095
 1151SOL     OW 4351   5.455   5.091   4.174
 1151SOL    HW1 4352   5.470   5.116   4.270
 1151SOL    HW2 4353   5.543   5.091   4.126
 1152SOL     OW 4354   3.958   6.293   6.037
 1152SOL    HW1 4355   4.020   6.371   6.032
 1152SOL    HW2 4356   3.911   6.292   6.125
 1153SOL     OW 4357   5.553   6.730   1.259
 1153SOL    HW1 4358   5.605   6.813   1.279
 1153SOL    HW2 4359   5.491   6.748   1.182
 1154SOL     OW 4360   1.573   3.322   0.676
 1154SOL    HW1 4361   1.580   3.236   0.727
 1154SOL    HW2 4362   1.514   3.308   0.596
 1155SOL     OW 4363   3.668   5.862   3.724
 1155SOL    HW1 4364   3.689   5.820   3.813
 1155SOL    HW2 4365   3.609   5.942   3.739
 1156SOL     OW 4366   2.756   1.206   1.840
 1156SOL    HW1 4367   2.743   1.107   1.842
 1156SOL    HW2 4368   2.692   1.247   1.774
 1157SOL     OW 4369   2.813   2.140   0.385
 1157SOL    HW1 4370   2.830   2.084   0.305
 1157SOL    HW2 4371   2.837   2.090   0.468
 1158SOL     OW 4372   5.396   4.643   4.020
 1158SOL    HW1 4373   5.318   4.589   3.989
 1158SOL    HW2 4374   5.376   4.741   4.010
 1159SOL     OW 4375   5.753   4.944   0.456
 1159SOL    HW1 4376   5.833   4.886   0.473
 1159SOL    HW2 4377   5.767   4.997   0.373
 1160SOL     OW 4378   4.488   2.109   0.631
 1160SOL    HW1 4379   4.584   2.130   0.616
 1160SOL    HW2 4380   4.480   2.029   0.691
 1161SOL     OW 4381   6.565   5.050   0.924
 1161SOL    HW1 4382   6.508   5.015   0.998
 1161SOL    HW2 4383   6.598   4.974   0.869
 1162SOL     OW 4384   2.594   2.439   4.791
 1162SOL    HW1 4385   2.649   2.360   4.816
 1162SOL    HW2 4386   2.598   2.508   4.863
 1163SOL     OW 4387   4.995   2.240   1.826
 1163SOL    HW1 4388   4.965   2.336   1.822
 1163SOL    HW2 4389   4.960   2.191   1.747
 1164SOL     OW 4390   4.303   2.088   5.572
 1164SOL    HW1 4391   4.296   2.186   5.556
 1164SOL    HW2 4392   4.268   2.066   5.663
 1165SOL     OW 4393   4.402   0.213   3.542
 1165SOL    HW1 4394   4.356   0.203   3.630
 1165SOL    HW2 4395   4.334   0.226   3.470
 1166SOL     OW 4396   3.751   4.112   6.322
 1166SOL    HW1 4397   3.725   4.190   6.379
 1166SOL    HW2 4398   3.812   4.052   6.375
 1167SOL     OW 4399   5.408   4.329   3.061
 1167SOL    HW1 4400   5.466   4.366   3.134
 1167SOL    HW2 4401   5.319   4.305   3.099
 1168SOL     OW 4402   0.514   6.737   0.965
 1168SOL    HW1 4403   0.509   6.722   0.866
 1168SOL    HW2 4404   0.427   6.714   1.007
 1169SOL     OW 4405   4.707   1.728   5.376
 1169SOL    HW1 4406   4.665   1.744   5.287
 1169SOL    HW2 4407   4.794   1.777   5.381
 1170SOL     OW 4408   5.230   4.552   2.497
 1170SOL    HW1 4409   5.169   4.558   2.576
 1170SOL    HW2 4410   5.187   4.495   2.426
 1171SOL     OW 4411   0.527   6.229   0.727
 1171SOL    HW1 4412   0.550   6.162   0.656
 1171SOL    HW2 4413   0.501   6.316   0.684
 1172SOL     OW 4414   5.842   3.202   6.980
 1172SOL    HW1 4415   5.863   3.159   6.892
 1172SOL    HW2 4416   5.844   3.302   6.970
 1173SOL     OW 4417   4.203   2.623   0.979
 1173SOL    HW1 4418   4.114   2.580   0.995
 1173SOL    HW2 4419   4.265   2.602   1.055
 1174SOL     OW 4420   2.809   4.765   0.573
 1174SOL    HW1 4421   2.723   4.813   0.584
 1174SOL    HW2 4422   2.826   4.707   0.653
 1175SOL     OW 4423   3.322   3.941   4.147
 1175SOL    HW1 4424   3.352   3.869   4.209
 1175SOL    HW2 4425   3.271   3.902   4.070
 1176SOL     OW 4426   5.544   2.931   6.835
 1176SOL    HW1 4427   5.490   2.863   6.785
 1176SOL    HW2 4428   5.610   2.884   6.894
 1177SOL     OW 4429   0.948   1.808   5.262
 1177SOL    HW1 4430   0.872   1.849   5.211
 1177SOL    HW2 4431   1.033   1.854   5.238
 1178SOL     OW 4432   4.504   6.766   0.034
 1178SOL    HW1 4433   4.484   6.668   0.045
 1178SOL    HW2 4434   4.544   6.801   0.119
 1179SOL     OW 4435   0.114   5.746   0.726
 1179SOL    HW1 4436   0.204   5.785   0.745
 1179SOL    HW2 4437   0.076   5.789   0.644
 1180SOL     OW 4438   3.656   6.728   0.651
 1180SOL    HW1 4439   3.661   6.648   0.711
 1180SOL    HW2 4440   3.718   6.799   0.684
 1181SOL     OW 4441   6.413   6.332   6.448
 1181SOL    HW1 4442   6.468   6.357   6.369
 1181SOL    HW2 4443   6.330   6.389   6.450
 1182SOL     OW 4444   4.849   3.735   3.535
 1182SOL    HW1 4445   4.804   3.818   3.567
 1182SOL    HW2 4446   4.875   3.746   3.439
 1183SOL     OW 4447   2.093   4.591   6.897
 1183SOL    HW1 4448   2.072   4.687   6.879
 1183SOL    HW2 4449   2.013   4.546   6.937
 1184SOL     OW 4450   0.343   0.651   5.530
 1184SOL    HW1 4451   0.416   0.583   5.522
 1184SOL    HW2 4452   0.361   0.728   5.469
 1185SOL     OW 4453   6.269   1.650   6.777
 1185SOL    HW1 4454   6.334   1.602   6.836
 1185SOL    HW2 4455   6.319   1.711   6.715
 1186SOL     OW 4456   5.605   6.634   4.416
 1186SOL    HW1 4457   5.693   6.656   4.374
 1186SOL    HW2 4458   5.531   6.649   4.350
 1187SOL     OW 4459   6.430   2.053   6.118
 1187SOL    HW1 4460   6.525   2.036   6.145
 1187SOL    HW2 4461   6.402   1.985   6.050
 1188SOL     OW 4462   4.016   1.725   6.471
 1188SOL    HW1 4463   3.983   1.683   6.387
 1188SOL    HW2 4464   3.980   1.818   6.478
 1189SOL     OW 4465   5.964   3.574   3.655
 1189SOL    HW1 4466   5.914   3.533   3.732
 1189SOL    HW2 4467   5.916   3.656   3.624
 1190SOL     OW 4468   3.152   0.295   3.771
 1190SOL    HW1 4469   3.138   0.384   3.813
 1190SOL    HW2 4470   3.156   0.225   3.842
 1191SOL     OW 4471   3.384   6.350   2.829
 1191SOL    HW1 4472   3.286   6.355   2.814
 1191SOL    HW2 4473   3.416   6.434   2.872
 1192SOL     OW 4474   6.319   5.740   3.497
 1192SOL    HW1 4475   6.342   5.774   3.588
 1192SOL    HW2 4476   6.258   5.661   3.505
 1193SOL     OW 4477   6.630   5.806   4.450
 1193SOL    HW1 4478   6.615   5.889   4.397
 1193SOL    HW2 4479   6.704   5.753   4.409
 1194SOL     OW 4480   3.473   0.300   1.017
 1194SOL    HW1 4481   3.427   0.242   0.949
 1194SOL    HW2 4482   3.571   0.299   1.000
 1195SOL     OW 4483   4.900   2.654   3.107
 1195SOL    HW1 4484   4.874   2.575   3.051
 1195SOL    HW2 4485   4.820   2.690   3.154
 1196SOL     OW 4486   0.170   6.595   5.133
 1196SOL    HW1 4487   0.091   6.607   5.073
 1196SOL    HW2 4488   0.182   6.498   5.153
 1197SOL     OW 4489   1.987   6.212   0.508
 1197SOL    HW1 4490   1.985   6.257   0.419
 1197SOL    HW2 4491   1.914   6.248   0.566
 1198SOL     OW 4492   1.531   2.434   6.927
 1198SOL    HW1 4493   1.472   2.360   6.961
 1198SOL    HW2 4494   1.626   2.413   6.949
 1199SOL     OW 4495   6.097   3.767   2.347
 1199SOL    HW1 4496   6.023   3.825   2.381
 1199SOL    HW2 4497   6.084   3.748   2.250
 1200SOL     OW 4498   3.437   4.175   2.738
 1200SOL    HW1 4499   3.530   4.147   2.762
 1200SOL    HW2 4500   3.379   4.172   2.819
 1201SOL     OW 4501   1.410   2.246   4.968
 1201SOL    HW1 4502   1.418   2.282   4.875
 1201SOL    HW2 4503   1.475   2.172   4.981
 1202SOL     OW 4504   1.107   5.811   5.164
 1202SOL    HW1 4505   1.140   5.743   5.099
 1202SOL    HW2 4506   1.160   5.805   5.249
 1203SOL     OW 4507   4.115   6.047   5.325
 1203SOL    HW1 4508   4.164   5.966   5.291
 1203SOL    HW2 4509   4.117   6.119   5.255
 1204SOL     OW 4510   2.021   6.893   3.174
 1204SOL    HW1 4511   2.033   6.976   3.119
 1204SOL    HW2 4512   1.992   6.818   3.114
 1205SOL     OW 4513   5.758   3.712   1.998
 1205SOL    HW1 4514   5.710   3.680   2.080
 1205SOL    HW2 4515   5.778   3.810   2.007
 1206SOL     OW 4516   3.309   3.479   4.311
 1206SOL    HW1 4517   3.294   3.440   4.402
 1206SOL    HW2 4518   3.232   3.456   4.252
 1207SOL     OW 4519   1.120   6.034   2.928
 1207SOL    HW1 4520   1.124   6.131   2.904
 1207SOL    HW2 4521   1.077   6.024   3.018
 1208SOL     OW 4522   3.290   3.403   6.592
 1208SOL    HW1 4523   3.312   3.314   6.554
 1208SOL    HW2 4524   3.216   3.445   6.539
 1209SOL     OW 4525   4.007   6.278   5.206
 1209SOL    HW1 4526   4.000   6.367   5.162
 1209SOL    HW2 4527   3.965   6.209   5.147
 1210SOL     OW 4528   3.101   0.850   2.733
 1210SOL    HW1 4529   3.166   0.839   2.808
 1210SOL    HW2 4530   3.101   0.945   2.702
 1211SOL     OW 4531   0.914   2.681   0.355
 1211SOL    HW1 4532   0.917   2.669   0.256
 1211SOL    HW2 4533   0.888   2.595   0.398
 1212SOL     OW 4534   1.131   6.991   0.115
 1212SOL    HW1 4535   1.228   7.015   0.121
 1212SOL    HW2 4536   1.085   7.017   0.200
 1213SOL     OW 4537   5.626   3.104   1.044
 1213SOL    HW1 4538   5.587   3.192   1.070
 1213SOL    HW2 4539   5.713   3.118   0.997
 1214SOL     OW 4540   6.835   2.536   2.504
 1214SOL    HW1 4541   6.787   2.450   2.520
 1214SOL    HW2 4542   6.932   2.519   2.490
 1215SOL     OW 4543   1.908   6.014   3.026
 1215SOL    HW1 4544   1.839   6.082   3.053
 1215SOL    HW2 4545   1.916   5.945   3.098
 1216SOL     OW 4546   3.914   0.141   1.892
 1216SOL    HW1 4547   3.971   0.115   1.970
 1216SOL    HW2 4548   3.916   0.241   1.881
 1217SOL     OW 4549   2.791   3.845   6.599
 1217SOL    HW1 4550   2.710   3.879   6.647
 1217SOL    HW2 4551   2.783   3.867   6.502
 1218SOL     OW 4552   2.395   5.188   3.665
 1218SOL    HW1 4553   2.298   5.213   3.670
 1218SOL    HW2 4554   2.409   5.097   3.703
 1219SOL     OW 4555   4.113   5.843   1.707
 1219SOL    HW1 4556   4.056   5.775   1.661
 1219SOL    HW2 4557   4.074   5.934   1.692
 1220SOL     OW 4558   0.554   4.658   1.701
 1220SOL    HW1 4559   0.493   4.640   1.778
 1220SOL    HW2 4560   0.563   4.757   1.687
 1221SOL     OW 4561   4.383   4.757   6.486
 1221SOL    HW1 4562   4.291   4.724   6.465
 1221SOL    HW2 4563   4.435   4.685   6.531
 1222SOL     OW 4564   6.652   1.035   6.650
 1222SOL    HW1 4565   6.596   0.989   6.581
 1222SOL    HW2 4566   6.646   1.134   6.637
 1223SOL     OW 4567   3.759   6.748   1.289
 1223SOL    HW1 4568   3.766   6.758   1.388
 1223SOL    HW2 4569   3.845   6.711   1.253
 1224SOL     OW 4570   2.970   1.189   1.630
 1224SOL    HW1 4571   2.905   1.221   1.699
 1224SOL    HW2 4572   3.056   1.240   1.639
 1225SOL     OW 4573   3.019   3.681   6.157
 1225SOL    HW1 4574   2.930   3.706   6.118
 1225SOL    HW2 4575   3.091   3.733   6.110
 1226SOL     OW 4576   2.211   5.066   0.376
 1226SOL    HW1 4577   2.119   5.043   0.407
 1226SOL    HW2 4578   2.229   5.163   0.392
 1227SOL     OW 4579   1.295   4.210   6.139
 1227SOL    HW1 4580   1.242   4.126   6.150
 1227SOL    HW2 4581   1.350   4.226   6.221
 1228SOL     OW 4582   4.052   1.976   6.787
 1228SOL    HW1 4583   4.090   1.950   6.698
 1228SOL    HW2 4584   3.970   1.922   6.805
 1229SOL     OW 4585   3.500   3.725   6.486
 1229SOL    HW1 4586   3.535   3.794   6.423
 1229SOL    HW2 4587   3.419   3.760   6.533
 1230SOL     OW 4588   4.365   0.376   3.847
 1230SOL    HW1 4589   4.355   0.439   3.770
 1230SOL    HW2 4590   4.308   0.295   3.831
 1231SOL     OW 4591   0.933   3.493   4.224
 1231SOL    HW1 4592   1.031   3.511   4.228
 1231SOL    HW2 4593   0.883   3.578   4.238
 1232SOL     OW 4594   1.889   3.137   3.063
 1232SOL    HW1 4595   1.852   3.141   2.970
 1232SOL    HW2 4596   1.989   3.126   3.058
 1233SOL     OW 4597   0.683   2.462   4.292
 1233SOL    HW1 4598   0.744   2.394   4.332
 1233SOL    HW2 4599   0.737   2.528   4.240
 1234SOL     OW 4600   6.270   4.729   4.365
 1234SOL    HW1 4601   6.346   4.792   4.349
 1234SOL    HW2 4602   6.269   4.659   4.293
 1235SOL     OW 4603   6.940   5.055   3.449
 1235SOL    HW1 4604   6.911   5.016   3.537
 1235SOL    HW2 4605   7.013   5.121   3.464
 1236SOL     OW 4606   5.527   0.811   6.619
 1236SOL    HW1 4607   5.465   0.740   6.585
 1236SOL    HW2 4608   5.540   0.880   6.548
 1237SOL     OW 4609   2.009   4.627   6.204
 1237SOL    HW1 4610   1.982   4.630   6.108
 1237SOL    HW2 4611   2.031   4.719   6.235
 1238SOL     OW 4612   1.780   1.657   0.914
 1238SOL    HW1 4613   1.822   1.588   0.855
 1238SOL    HW2 4614   1.691   1.624   0.946
 1239SOL     OW 4615   1.061   0.216   5.886
 1239SOL    HW1 4616   1.123   0.140   5.866
 1239SOL    HW2 4617   1.114   0.297   5.907
 1240SOL     OW 4618   5.282   5.613   0.828
 1240SOL    HW1 4619   5.366   5.581   0.871
 1240SOL    HW2 4620   5.217   5.639   0.899
 1241SOL     OW 4621   0.187   2.154   4.633
 1241SOL    HW1 4622   0.247   2.075   4.633
 1241SOL    HW2 4623   0.171   2.183   4.728
 1242SOL     OW 4624   1.998   2.341   6.498
 1242SOL    HW1 4625   1.916   2.297   6.535
 1242SOL    HW2 4626   2.016   2.426   6.548
 1243SOL     OW 4627   2.631   5.007   5.171
 1243SOL    HW1 4628   2.709   4.954   5.206
 1243SOL    HW2 4629   2.634   5.007   5.071
 1244SOL     OW 4630   0.548   1.893   2.832
 1244SOL    HW1 4631   0.559   1.984   2.793
 1244SOL    HW2 4632   0.462   1.889   2.884
 1245SOL     OW 4633   2.944   2.946   5.676
 1245SOL    HW1 4634   3.006   2.887   5.727
 1245SOL    HW2 4635   2.942   2.919   5.580
 1246SOL     OW 4636   1.346   6.540   1.258
 1246SOL    HW1 4637   1.437   6.528   1.298
 1246SOL    HW2 4638   1.285   6.582   1.326
 1247SOL     OW 4639   0.956   6.595   6.305
 1247SOL    HW1 4640   0.990   6.648   6.227
 1247SOL    HW2 4641   0.981   6.642   6.390
 1248SOL     OW 4642   2.373   0.033   3.760
 1248SOL    HW1 4643   2.318   0.069   3.685
 1248SOL    HW2 4644   2.465   0.011   3.727
 1249SOL     OW 4645   5.776   2.889   3.096
 1249SOL    HW1 4646   5.680   2.882   3.067
 1249SOL    HW2 4647   5.828   2.815   3.053
 1250SOL     OW 4648   0.275   3.123   4.464
 1250SOL    HW1 4649   0.204   3.099   4.398
 1250SOL    HW2 4650   0.275   3.055   4.538
 1251SOL     OW 4651   3.164   0.344   6.680
 1251SOL    HW1 4652   3.140   0.406   6.755
 1251SOL    HW2 4653   3.184   0.398   6.598
 1252SOL     OW 4654   3.440   3.990   0.365
 1252SOL    HW1 4655   3.394   3.961   0.281
 1252SOL    HW2 4656   3.399   3.943   0.443
 1253SOL     OW 4657   4.889   1.078   3.042
 1253SOL    HW1 4658   4.928   0.991   3.072
 1253SOL    HW2 4659   4.931   1.153   3.095
 1254SOL     OW 4660   5.409   0.974   3.739
 1254SOL    HW1 4661   5.429   0.930   3.826
 1254SOL    HW2 4662   5.312   0.998   3.734
 1255SOL     OW 4663   5.977   0.281   1.916
 1255SOL    HW1 4664   5.912   0.218   1.957
 1255SOL    HW2 4665   6.051   0.300   1.980
 1256SOL     OW 4666   4.598   2.647   3.794
 1256SOL    HW1 4667   4.668   2.698   3.744
 1256SOL    HW2 4668   4.601   2.673   3.890
 1257SOL     OW 4669   5.989   1.094   4.387
 1257SOL    HW1 4670   5.953   1.111   4.479
 1257SOL    HW2 4671   5.913   1.075   4.324
 1258SOL     OW 4672   0.039   4.947   3.222
 1258SOL    HW1 4673   7.008   4.905   3.150
 1258SOL    HW2 4674   7.002   4.984   3.292
 1259SOL     OW 4675   5.246   2.043   4.534
 1259SOL    HW1 4676   5.164   2.094   4.507
 1259SOL    HW2 4677   5.219   1.967   4.593
 1260SOL     OW 4678   0.550   1.732   5.030
 1260SOL    HW1 4679   0.594   1.651   5.068
 1260SOL    HW2 4680   0.606   1.812   5.048
 1261SOL     OW 4681   6.841   3.556   1.220
 1261SOL    HW1 4682   6.904   3.487   1.185
 1261SOL    HW2 4683   6.800   3.606   1.143
 1262SOL     OW 4684   5.063   6.204   2.008
 1262SOL    HW1 4685   5.153   6.162   2.018
 1262SOL    HW2 4686   4.994   6.132   2.000
 1263SOL     OW 4687   0.523   1.906   3.309
 1263SOL    HW1 4688   0.552   1.814   3.285
 1263SOL    HW2 4689   0.423   1.912   3.308
 1264SOL     OW 4690   0.678   2.635   5.357
 1264SOL    HW1 4691   0.748   2.692   5.314
 1264SOL    HW2 4692   0.677   2.652   5.456
 1265SOL     OW 4693   5.798   0.030   5.440
 1265SOL    HW1 4694   5.850   0.114   5.456
 1265SOL    HW2 4695   5.769   7.015   5.528
 1266SOL     OW 4696   3.424   1.562   5.191
 1266SOL    HW1 4697   3.463   1.653   5.204
 1266SOL    HW2 4698   3.341   1.553   5.246
 1267SOL     OW 4699   2.980   0.382   1.955
 1267SOL    HW1 4700   2.981   0.425   1.864
 1267SOL    HW2 4701   2.892   0.399   1.999
 1268SOL     OW 4702   4.106   2.311   5.361
 1268SOL    HW1 4703   4.065   2.228   5.399
 1268SOL    HW2 4704   4.129   2.374   5.436
 1269SOL     OW 4705   5.650   1.827   3.574
 1269SOL    HW1 4706   5.730   1.776   3.541
 1269SOL    HW2 4707   5.643   1.817   3.673
 1270SOL     OW 4708   6.153   5.349   2.914
 1270SOL    HW1 4709   6.219   5.280   2.944
 1270SOL    HW2 4710   6.075   5.351   2.976
 1271SOL     OW 4711   1.610   0.843   1.960
 1271SOL    HW1 4712   1.698   0.852   2.008
 1271SOL    HW2 4713   1.618   0.885   1.870
 1272SOL     OW 4714   6.236   2.191   0.637
 1272SOL    HW1 4715   6.264   2.175   0.732
 1272SOL    HW2 4716   6.227   2.103   0.590
 1273SOL     OW 4717   1.783   4.413   5.564
 1273SOL    HW1 4718   1.743   4.322   5.559
 1273SOL    HW2 4719   1.879   4.406   5.593
 1274SOL     OW 4720   0.228   4.022   4.408
 1274SOL    HW1 4721   0.185   4.044   4.496
 1274SOL    HW2 4722   0.159   3.987   4.345
 1275SOL     OW 4723   1.759   1.622   3.051
 1275SOL    HW1 4724   1.854   1.607   3.026
 1275SOL    HW2 4725   1.745   1.718   3.075
 1276SOL     OW 4726   5.770   4.312   3.866
 1276SOL    HW1 4727   5.779   4.352   3.775
 1276SOL    HW2 4728   5.680   4.270   3.876
 1277SOL     OW 4729   1.630   6.150   6.425
 1277SOL    HW1 4730   1.692   6.132   6.501
 1277SOL    HW2 4731   1.597   6.063   6.387
 1278SOL     OW 4732   0.286   6.024   2.545
 1278SOL    HW1 4733   0.195   6.010   2.585
 1278SOL    HW2 4734   0.278   6.030   2.446
 1279SOL     OW 4735   2.940   3.331   0.671
 1279SOL    HW1 4736   2.970   3.312   0.765
 1279SOL    HW2 4737   3.005   3.392   0.627
 1280SOL     OW 4738   2.585   2.533   3.811
 1280SOL    HW1 4739   2.561   2.487   3.897
 1280SOL    HW2 4740   2.625   2.623   3.831
 1281SOL     OW 4741   5.020   6.259   5.399
 1281SOL    HW1 4742   4.996   6.297   5.310
 1281SOL    HW2 4743   5.085   6.320   5.445
 1282SOL     OW 4744   0.917   2.838   1.139
 1282SOL    HW1 4745   0.854   2.915   1.130
 1282SOL    HW2 4746   0.871   2.753   1.111
 1283SOL     OW 4747   0.647   1.187   4.364
 1283SOL    HW1 4748   0.573   1.246   4.331
 1283SOL    HW2 4749   0.735   1.223   4.332
 1284SOL     OW 4750   3.894   2.123   1.795
 1284SOL    HW1 4751   3.821   2.171   1.844
 1284SOL    HW2 4752   3.964   2.094   1.860
 1285SOL     OW 4753   4.410   1.624   4.655
 1285SOL    HW1 4754   4.318   1.648   4.685
 1285SOL    HW2 4755   4.405   1.570   4.571
 1286SOL     OW 4756   4.715   1.046   2.280
 1286SOL    HW1 4757   4.725   1.121   2.215
 1286SOL    HW2 4758   4.638   1.064   2.341
 1287SOL     OW 4759   5.019   5.054   6.331
 1287SOL    HW1 4760   5.073   5.072   6.414
 1287SOL    HW2 4761   5.001   4.956   6.324
 1288SOL     OW 4762   4.515   4.441   6.462
 1288SOL    HW1 4763   4.586   4.417   6.529
 1288SOL    HW2 4764   4.440   4.377   6.469
 1289SOL     OW 4765   0.892   6.850   0.472
 1289SOL    HW1 4766   0.858   6.851   0.567
 1289SOL    HW2 4767   0.946   6.767   0.457
 1290SOL     OW 4768   1.378   6.564   5.208
 1290SOL    HW1 4769   1.334   6.515   5.132
 1290SOL    HW2 4770   1.476   6.549   5.204
 1291SOL     OW 4771   5.548   5.327   3.443
 1291SOL    HW1 4772   5.624   5.272   3.408
 1291SOL    HW2 4773   5.503   5.374   3.367
 1292SOL     OW 4774   0.504   6.718   2.861
 1292SOL    HW1 4775   0.443   6.668   2.799
 1292SOL    HW2 4776   0.586   6.747   2.811
 1293SOL     OW 4777   5.138   0.296   1.192
 1293SOL    HW1 4778   5.062   0.242   1.156
 1293SOL    HW2 4779   5.182   0.245   1.266
 1294SOL     OW 4780   2.128   4.599   5.380
 1294SOL    HW1 4781   2.215   4.617   5.334
 1294SOL    HW2 4782   2.127   4.647   5.468
 1295SOL     OW 4783   0.119   4.639   0.503
 1295SOL    HW1 4784   0.165   4.727   0.519
 1295SOL    HW2 4785   0.113   4.623   0.404
 1296SOL     OW 4786   4.573   0.463   5.531
 1296SOL    HW1 4787   4.629   0.433   5.608
 1296SOL    HW2 4788   4.539   0.383   5.482
 1297SOL     OW 4789   6.525   6.771   6.862
 1297SOL    HW1 4790   6.532   6.871   6.855
 1297SOL    HW2 4791   6.463   6.747   6.936
 1298SOL     OW 4792   5.406   0.480   3.298
 1298SOL    HW1 4793   5.321   0.465   3.348
 1298SOL    HW2 4794   5.424   0.579   3.291
 1299SOL     OW 4795   1.186   4.472   4.849
 1299SOL    HW1 4796   1.152   4.448   4.758
 1299SOL    HW2 4797   1.286   4.471   4.849
 1300SOL     OW 4798   1.508   5.511   0.064
 1300SOL    HW1 4799   1.463   5.556   0.141
 1300SOL    HW2 4800   1.494   5.567   7.004
 1301SOL     OW 4801   6.186   1.062   0.254
 1301SOL    HW1 4802   6.096   1.061   0.210
 1301SOL    HW2 4803   6.178   1.028   0.347
 1302SOL     OW 4804   6.906   0.067   4.896
 1302SOL    HW1 4805   6.947   0.063   4.804
 1302SOL    HW2 4806   6.976   0.044   4.963
 1303SOL     OW 4807   3.138   6.609   1.325
 1303SOL    HW1 4808   3.104   6.676   1.259
 1303SOL    HW2 4809   3.209   6.553   1.282
 1304SOL     OW 4810   0.010   0.156   0.199
 1304SOL    HW1 4811   0.033   0.248   0.170
 1304SOL    HW2 4812   6.938   0.136   0.178
 1305SOL     OW 4813   4.327   3.871   5.896
 1305SOL    HW1 4814   4.345   3.936   5.822
 1305SOL    HW2 4815   4.316   3.921   5.982
 1306SOL     OW 4816   2.848   6.166   4.296
 1306SOL    HW1 4817   2.821   6.085   4.244
 1306SOL    HW2 4818   2.947   6.163   4.313
 1307SOL     OW 4819   2.108   3.173   4.215
 1307SOL    HW1 4820   2.116   3.216   4.305
 1307SOL    HW2 4821   2.018   3.195   4.176
 1308SOL     OW 4822   0.036   3.878   6.357
 1308SOL    HW1 4823   0.069   3.791   6.393
 1308SOL    HW2 4824   6.980   3.908   6.411
 1309SOL     OW 4825   6.153   4.123   6.676
 1309SOL    HW1 4826   6.055   4.135   6.663
 1309SOL    HW2 4827   6.195   4.096   6.590
 1310SOL     OW 4828   2.177   3.156   3.097
 1310SOL    HW1 4829   2.207   3.250   3.085
 1310SOL    HW2 4830   2.198   3.125   3.190
 1311SOL     OW 4831   5.995   5.253   0.129
 1311SOL    HW1 4832   6.077   5.197   0.132
 1311SOL    HW2 4833   5.984   5.302   0.216
 1312SOL     OW 4834   2.773   1.480   6.498
 1312SOL    HW1 4835   2.777   1.566   6.447
 1312SOL    HW2 4836   2.728   1.496   6.586
 1313SOL     OW 4837   5.633   5.278   1.997
 1313SOL    HW1 4838   5.685   5.313   1.919
 1313SOL    HW2 4839   5.693   5.225   2.056
 1314SOL     OW 4840   2.251   1.026   3.611
 1314SOL    HW1 4841   2.196   0.946   3.636
 1314SOL    HW2 4842   2.197   1.109   3.624
 1315SOL     OW 4843   6.347   0.960   3.178
 1315SOL    HW1 4844   6.338   0.864   3.152
 1315SOL    HW2 4845   6.311   1.018   3.104
 1316SOL     OW 4846   5.408   0.030   6.115
 1316SOL    HW1 4847   5.445   0.003   6.204
 1316SOL    HW2 4848   5.351   6.980   6.079
 1317SOL     OW 4849   3.631   2.859   4.523
 1317SOL    HW1 4850   3.583   2.878   4.609
 1317SOL    HW2 4851   3.729   2.850   4.541
 1318SOL     OW 4852   1.938   1.545   6.414
 1318SOL    HW1 4853   1.909   1.585   6.501
 1318SOL    HW2 4854   1.860   1.497   6.373
 1319SOL     OW 4855   6.585   1.381   0.584
 1319SOL    HW1 4856   6.673   1.372   0.539
 1319SOL    HW2 4857   6.515   1.332   0.532
 1320SOL     OW 4858   2.759   2.991   6.094
 1320SOL    HW1 4859   2.826   2.941   6.149
 1320SOL    HW2 4860   2.753   2.948   6.003
 1321SOL     OW 4861   6.939   2.554   1.580
 1321SOL    HW1 4862   6.941   2.643   1.534
 1321SOL    HW2 4863   6.981   2.485   1.520
 1322SOL     OW 4864   2.546   2.645   6.824
 1322SOL    HW1 4865   2.570   2.734   6.784
 1322SOL    HW2 4866   2.587   2.638   6.914
 1323SOL     OW 4867   3.954   0.790   1.504
 1323SOL    HW1 4868   3.969   0.703   1.456
 1323SOL    HW2 4869   4.001   0.787   1.592
 1324SOL     OW 4870   2.450   4.274   6.153
 1324SOL    HW1 4871   2.384   4.348   6.166
 1324SOL    HW2 4872   2.401   4.188   6.139
 1325SOL     OW 4873   4.282   6.152   4.422
 1325SOL    HW1 4874   4.199   6.124   4.471
 1325SOL    HW2 4875   4.310   6.242   4.455
 1326SOL     OW 4876   4.778   1.168   4.576
 1326SOL    HW1 4877   4.871   1.191   4.545
 1326SOL    HW2 4878   4.778   1.160   4.675
 1327SOL     OW 4879   4.918   5.714   2.328
 1327SOL    HW1 4880   4.870   5.627   2.315
 1327SOL    HW2 4881   4.991   5.702   2.395
 1328SOL     OW 4882   1.991   2.304   5.690
 1328SOL    HW1 4883   2.051   2.319   5.768
 1328SOL    HW2 4884   1.900   2.279   5.721
 1329SOL     OW 4885   1.392   3.134   3.952
 1329SOL    HW1 4886   1.373   3.188   3.870
 1329SOL    HW2 4887   1.310   3.084   3.980
 1330SOL     OW 4888   6.273   3.356   2.927
 1330SOL    HW1 4889   6.314   3.266   2.913
 1330SOL    HW2 4890   6.319   3.423   2.868
 1331SOL     OW 4891   4.436   1.925   3.070
 1331SOL    HW1 4892   4.419   1.914   2.972
 1331SOL    HW2 4893   4.458   2.021   3.089
 1332SOL     OW 4894   2.285   5.943   6.883
 1332SOL    HW1 4895   2.259   5.910   6.792
 1332SOL    HW2 4896   2.289   6.043   6.882
 1333SOL     OW 4897   3.372   3.327   3.003
 1333SOL    HW1 4898   3.382   3.233   3.036
 1333SOL    HW2 4899   3.421   3.337   2.916
 1334SOL     OW 4900   6.327   4.316   1.790
 1334SOL    HW1 4901   6.380   4.391   1.750
 1334SOL    HW2 4902   6.389   4.247   1.828
 1335SOL     OW 4903   0.423   3.424   2.907
 1335SOL    HW1 4904   0.391   3.478   2.985
 1335SOL    HW2 4905   0.507   3.376   2.933
 1336SOL     OW 4906   2.278   6.943   5.594
 1336SOL    HW1 4907   2.310   6.904   5.507
 1336SOL    HW2 4908   2.289   6.875   5.667
 1337SOL     OW 4909   0.704   0.064   2.128
 1337SOL    HW1 4910   0.635   7.016   2.126
 1337SOL    HW2 4911   0.688   0.129   2.053
 1338SOL     OW 4912   0.023   3.861   5.164
 1338SOL    HW1 4913   0.008   3.917   5.083
 1338SOL    HW2 4914   0.079   3.782   5.140
 1339SOL     OW 4915   5.489   1.295   0.140
 1339SOL    HW1 4916   5.571   1.347   0.163
 1339SOL    HW2 4917   5.489   1.276   0.042
 1340SOL     OW 4918   3.255   2.623   1.116
 1340SOL    HW1 4919   3.303   2.550   1.163
 1340SOL    HW2 4920   3.190   2.666   1.178
 1341SOL     OW 4921   5.737   5.781   6.416
 1341SOL    HW1 4922   5.746   5.683   6.399
 1341SOL    HW2 4923   5.645   5.811   6.393
 1342SOL     OW 4924   1.835   5.936   1.289
 1342SOL    HW1 4925   1.902   5.986   1.343
 1342SOL    HW2 4926   1.743   5.960   1.319
 1343SOL     OW 4927   4.890   6.281   2.800
 1343SOL    HW1 4928   4.878   6.238   2.889
 1343SOL    HW2 4929   4.925   6.374   2.812
 1344SOL     OW 4930   1.061   0.811   4.114
 1344SOL    HW1 4931   0.969   0.772   4.125
 1344SOL    HW2 4932   1.061   0.874   4.036
 1345SOL     OW 4933   1.374   6.526   5.852
 1345SOL    HW1 4934   1.404   6.495   5.942
 1345SOL    HW2 4935   1.452   6.558   5.799
 1346SOL     OW 4936   3.113   5.341   4.137
 1346SOL    HW1 4937   3.016   5.361   4.144
 1346SOL    HW2 4938   3.162   5.386   4.211
 1347SOL     OW 4939   1.421   0.797   6.363
 1347SOL    HW1 4940   1.326   0.777   6.386
 1347SOL    HW2 4941   1.469   0.713   6.340
 1348SOL     OW 4942   1.488   6.789   4.900
 1348SOL    HW1 4943   1.503   6.839   4.815
 1348SOL    HW2 4944   1.572   6.787   4.953
 1349SOL     OW 4945   5.544   3.782   4.400
 1349SOL    HW1 4946   5.485   3.749   4.327
 1349SOL    HW2 4947   5.570   3.706   4.460
 1350SOL     OW 4948   4.864   4.797   6.592
 1350SOL    HW1 4949   4.838   4.738   6.668
 1350SOL    HW2 4950   4.915   4.876   6.628
 1351SOL     OW 4951   0.004   2.643   6.414
 1351SOL    HW1 4952   6.928   2.632   6.407
 1351SOL    HW2 4953   0.024   2.722   6.471
 1352SOL     OW 4954   7.018   0.586   2.664
 1352SOL    HW1 4955   6.953   0.618   2.733
 1352SOL    HW2 4956   6.989   0.617   2.573
 1353SOL     OW 4957   6.240   2.043   6.344
 1353SOL    HW1 4958   6.267   2.129   6.388
 1353SOL    HW2 4959   6.250   2.052   6.245
 1354SOL     OW 4960   5.081   5.012   2.868
 1354SOL    HW1 4961   4.995   5.033   2.822
 1354SOL    HW2 4962   5.064   4.951   2.945
 1355SOL     OW 4963   4.150   3.558   5.089
 1355SOL    HW1 4964   4.130   3.463   5.113
 1355SOL    HW2 4965   4.065   3.611   5.088
 1356SOL     OW 4966   2.734   3.167   6.793
 1356SOL    HW1 4967   2.776   3.171   6.702
 1356SOL    HW2 4968   2.724   3.259   6.830
 1357SOL     OW 4969   1.058   3.087   5.515
 1357SOL    HW1 4970   1.144   3.137   5.529
 1357SOL    HW2 4971   1.077   2.989   5.518
 1358SOL     OW 4972   2.280   6.881   6.729
 1358SOL    HW1 4973   2.324   6.943   6.794
 1358SOL    HW2 4974   2.183   6.902   6.724
 1359SOL     OW 4975   6.486   4.889   6.800
 1359SOL    HW1 4976   6.448   4.957   6.737
 1359SOL    HW2 4977   6.572   4.924   6.838
 1360SOL     OW 4978   2.799   1.710   6.350
 1360SOL    HW1 4979   2.822   1.728   6.254
 1360SOL    HW2 4980   2.701   1.722   6.364
 1361SOL     OW 4981   6.549   5.540   5.226
 1361SOL    HW1 4982   6.597   5.483   5.160
 1361SOL    HW2 4983   6.454   5.551   5.196
 1362SOL     OW 4984   3.617   3.818   4.110
 1362SOL    HW1 4985   3.523   3.803   4.081
 1362SOL    HW2 4986   3.649   3.739   4.162
 1363SOL     OW 4987   0.596   6.486   3.327
 1363SOL    HW1 4988   0.506   6.452   3.302
 1363SOL    HW2 4989   0.616   6.462   3.422
 1364SOL     OW 4990   3.918   4.014   6.965
 1364SOL    HW1 4991   3.834   4.068   6.955
 1364SOL    HW2 4992   3.902   3.938   0.005
 1365SOL     OW 4993   5.963   2.699   6.203
 1365SOL    HW1 4994   6.025   2.624   6.179
 1365SOL    HW2 4995   5.912   2.675   6.286
 1366SOL     OW 4996   2.161   0.542   5.012
 1366SOL    HW1 4997   2.123   0.630   4.986
 1366SOL    HW2 4998   2.259   0.540   4.994
 1367SOL     OW 4999   2.601   1.807   2.427
 1367SOL    HW1 5000   2.659   1.832   2.505
 1367SOL    HW2 5001   2.521   1.867   2.426
 1368SOL     OW 5002   6.897   0.557   2.967
 1368SOL    HW1 5003   6.930   0.630   3.026
 1368SOL    HW2 5004   6.809   0.524   3.000
 1369SOL     OW 5005   0.043   0.235   2.514
 1369SOL    HW1 5006   0.033   0.189   2.603
 1369SOL    HW2 5007   0.117   0.301   2.519
 1370SOL     OW 5008   1.802   0.844   2.253
 1370SOL    HW1 5009   1.864   0.825   2.329
 1370SOL    HW2 5010   1.711   0.867   2.289
 1371SOL     OW 5011   3.036   6.989   6.306
 1371SOL    HW1 5012   3.128   6.967   6.274
 1371SOL    HW2 5013   2.988   6.905   6.331
 1372SOL     OW 5014   2.633   2.024   1.506
 1372SOL    HW1 5015   2.727   2.013   1.536
 1372SOL    HW2 5016   2.572   2.026   1.586
 1373SOL     OW 5017   1.859   5.815   6.652
 1373SOL    HW1 5018   1.932   5.756   6.619
 1373SOL    HW2 5019   1.842   5.796   6.749
 1374SOL     OW 5020   5.143   3.689   5.583
 1374SOL    HW1 5021   5.163   3.685   5.485
 1374SOL    HW2 5022   5.206   3.630   5.632
 1375SOL     OW 5023   0.970   3.978   4.436
 1375SOL    HW1 5024   1.064   4.013   4.431
 1375SOL    HW2 5025   0.914   4.042   4.488
 1376SOL     OW 5026   5.254   0.612   2.077
 1376SOL    HW1 5027   5.244   0.603   2.176
 1376SOL    HW2 5028   5.166   0.596   2.032
 1377SOL     OW 5029   0.523   4.263   4.942
 1377SOL    HW1 5030   0.611   4.221   4.962
 1377SOL    HW2 5031   0.482   4.295   5.028
 1378SOL     OW 5032   1.740   2.146   0.309
 1378SOL    HW1 5033   1.709   2.228   0.262
 1378SOL    HW2 5034   1.837   2.155   0.332
 1379SOL     OW 5035   4.373   5.749   1.711
 1379SOL    HW1 5036   4.279   5.783   1.712
 1379SOL    HW2 5037   4.424   5.791   1.637
 1380SOL     OW 5038   5.936   5.061   2.752
 1380SOL    HW1 5039   6.012   5.021   2.700
 1380SOL    HW2 5040   5.850   5.037   2.708
 1381SOL     OW 5041   4.852   6.941   2.502
 1381SOL    HW1 5042   4.805   7.015   2.551
 1381SOL    HW2 5043   4.786   6.891   2.446
 1382SOL     OW 5044   0.423   4.268   0.506
 1382SOL    HW1 5045   0.459   4.175   0.509
 1382SOL    HW2 5046   0.491   4.328   0.463
 1383SOL     OW 5047   2.537   0.093   0.744
 1383SOL    HW1 5048   2.597   0.020   0.775
 1383SOL    HW2 5049   2.551   0.174   0.802
 1384SOL     OW 5050   1.438   1.519   1.721
 1384SOL    HW1 5051   1.438   1.422   1.696
 1384SOL    HW2 5052   1.384   1.532   1.804
 1385SOL     OW 5053   5.014   3.706   3.920
 1385SOL    HW1 5054   4.990   3.648   3.842
 1385SOL    HW2 5055   5.068   3.653   3.985
 1386SOL     OW 5056   2.846   2.331   3.410
 1386SOL    HW1 5057   2.803   2.297   3.326
 1386SOL    HW2 5058   2.910   2.262   3.444
 1387SOL     OW 5059   3.427   1.012   3.678
 1387SOL    HW1 5060   3.447   1.089   3.618
 1387SOL    HW2 5061   3.328   0.997   3.682
 1388SOL     OW 5062   5.068   2.008   3.632
 1388SOL    HW1 5063   5.035   2.038   3.721
 1388SOL    HW2 5064   5.123   1.925   3.643
 1389SOL     OW 5065   6.907   0.496   3.656
 1389SOL    HW1 5066   6.911   0.429   3.730
 1389SOL    HW2 5067   7.001   0.520   3.629
 1390SOL     OW 5068   5.491   1.800   2.209
 1390SOL    HW1 5069   5.497   1.796   2.308
 1390SOL    HW2 5070   5.581   1.822   2.171
 1391SOL     OW 5071   5.589   0.654   5.035
 1391SOL    HW1 5072   5.533   0.725   4.993
 1391SOL    HW2 5073   5.586   0.571   4.979
 1392SOL     OW 5074   3.811   6.827   5.217
 1392SOL    HW1 5075   3.758   6.896   5.168
 1392SOL    HW2 5076   3.775   6.736   5.197
 1393SOL     OW 5077   5.242   0.649   6.995
 1393SOL    HW1 5078   5.167   0.584   6.983
 1393SOL    HW2 5079   5.269   0.650   0.068
 1394SOL     OW 5080   4.145   0.878   4.290
 1394SOL    HW1 5081   4.102   0.916   4.372
 1394SOL    HW2 5082   4.152   0.779   4.298
 1395SOL     OW 5083   0.687   5.076   2.537
 1395SOL    HW1 5084   0.597   5.035   2.543
 1395SOL    HW2 5085   0.719   5.102   2.628
 1396SOL     OW 5086   1.477   1.465   3.624
 1396SOL    HW1 5087   1.547   1.440   3.557
 1396SOL    HW2 5088   1.389   1.476   3.578
 1397SOL     OW 5089   2.623   4.450   5.598
 1397SOL    HW1 5090   2.712   4.459   5.642
 1397SOL    HW2 5091   2.582   4.363   5.622
 1398SOL     OW 5092   3.258   6.756   6.769
 1398SOL    HW1 5093   3.354   6.783   6.780
 1398SOL    HW2 5094   3.199   6.833   6.789
 1399SOL     OW 5095   3.715   0.192   7.004
 1399SOL    HW1 5096   3.621   0.182   6.972
 1399SOL    HW2 5097   3.750   0.104   0.012
 1400SOL     OW 5098   0.450   1.232   5.530
 1400SOL    HW1 5099   0.370   1.181   5.500
 1400SOL    HW2 5100   0.532   1.175   5.520
 1401SOL     OW 5101   4.623   0.070   2.237
 1401SOL    HW1 5102   4.662   0.106   2.321
 1401SOL    HW2 5103   4.532   0.110   2.223
 1402SOL     OW 5104   4.770   4.291   1.869
 1402SOL    HW1 5105   4.764   4.214   1.805
 1402SOL    HW2 5106   4.692   4.290   1.931
 1403SOL     OW 5107   3.102   3.143   6.884
 1403SOL    HW1 5108   3.165   3.221   6.894
 1403SOL    HW2 5109   3.096   3.119   6.787
 1404SOL     OW 5110   3.583   6.509   0.170
 1404SOL    HW1 5111   3.539   6.574   0.232
 1404SOL    HW2 5112   3.681   6.526   0.166
 1405SOL     OW 5113   1.301   4.163   6.869
 1405SOL    HW1 5114   1.382   4.151   6.811
 1405SOL    HW2 5115   1.295   4.087   6.933
 1406SOL     OW 5116   2.024   2.580   6.636
 1406SOL    HW1 5117   2.123   2.593   6.628
 1406SOL    HW2 5118   1.998   2.587   6.732
 1407SOL     OW 5119   0.142   2.469   2.041
 1407SOL    HW1 5120   0.075   2.413   2.090
 1407SOL    HW2 5121   0.096   2.520   1.969
 1408SOL     OW 5122   5.961   6.318   1.187
 1408SOL    HW1 5123   6.029   6.356   1.125
 1408SOL    HW2 5124   5.872   6.359   1.167
 1409SOL     OW 5125   5.732   1.956   5.732
 1409SOL    HW1 5126   5.708   1.980   5.826
 1409SOL    HW2 5127   5.800   2.021   5.698
 1410SOL     OW 5128   3.036   0.499   0.549
 1410SOL    HW1 5129   3.050   0.401   0.563
 1410SOL    HW2 5130   2.952   0.528   0.595
 1411SOL     OW 5131   3.198   6.748   0.283
 1411SOL    HW1 5132   3.179   6.657   0.320
 1411SOL    HW2 5133   3.191   6.746   0.183
 1412SOL     OW 5134   2.548   1.406   6.680
 1412SOL    HW1 5135   2.536   1.490   6.733
 1412SOL    HW2 5136   2.541   1.327   6.741
 1413SOL     OW 5137   2.689   1.446   5.077
 1413SOL    HW1 5138   2.646   1.398   5.001
 1413SOL    HW2 5139   2.619   1.497   5.128
 1414SOL     OW 5140   0.422   4.998   1.939
 1414SOL    HW1 5141   0.357   4.922   1.935
 1414SOL    HW2 5142   0.511   4.967   1.904
 1415SOL     OW 5143   3.648   1.833   5.250
 1415SOL    HW1 5144   3.631   1.889   5.330
 1415SOL    HW2 5145   3.589   1.862   5.175
 1416SOL     OW 5146   4.738   0.456   4.899
 1416SOL    HW1 5147   4.805   0.399   4.852
 1416SOL    HW2 5148   4.665   0.482   4.835
 1417SOL     OW 5149   3.641   3.698   4.425
 1417SOL    HW1 5150   3.674   3.746   4.506
 1417SOL    HW2 5151   3.716   3.648   4.382
 1418SOL     OW 5152   3.519   3.944   5.247
 1418SOL    HW1 5153   3.534   3.897   5.161
 1418SOL    HW2 5154   3.605   3.948   5.299
 1419SOL     OW 5155   0.312   5.257   1.916
 1419SOL    HW1 5156   0.372   5.280   1.839
 1419SOL    HW2 5157   0.351   5.181   1.967
 1420SOL     OW 5158   2.711   6.702   3.279
 1420SOL    HW1 5159   2.729   6.694   3.181
 1420SOL    HW2 5160   2.774   6.768   3.320
 1421SOL     OW 5161   1.985   5.336   0.666
 1421SOL    HW1 5162   2.017   5.245   0.693
 1421SOL    HW2 5163   1.913   5.365   0.729
 1422SOL     OW 5164   1.814   4.151   6.875
 1422SOL    HW1 5165   1.740   4.216   6.859
 1422SOL    HW2 5166   1.899   4.186   6.836
 1423SOL     OW 5167   4.416   0.900   4.546
 1423SOL    HW1 5168   4.506   0.935   4.519
 1423SOL    HW2 5169   4.355   0.977   4.564
 1424SOL     OW 5170   6.708   3.287   1.312
 1424SOL    HW1 5171   6.790   3.302   1.368
 1424SOL    HW2 5172   6.680   3.373   1.270
 1425SOL     OW 5173   5.570   6.522   3.433
 1425SOL    HW1 5174   5.614   6.461   3.367
 1425SOL    HW2 5175   5.592   6.492   3.526
 1426SOL     OW 5176   3.801   1.447   0.658
 1426SOL    HW1 5177   3.760   1.510   0.724
 1426SOL    HW2 5178   3.899   1.463   0.652
 1427SOL     OW 5179   0.990   1.203   4.062
 1427SOL    HW1 5180   1.059   1.185   3.992
 1427SOL    HW2 5181   0.923   1.129   4.063
 1428SOL     OW 5182   1.770   3.894   3.771
 1428SOL    HW1 5183   1.714   3.977   3.772
 1428SOL    HW2 5184   1.744   3.837   3.693
 1429SOL     OW 5185   6.427   0.385   1.604
 1429SOL    HW1 5186   6.339   0.384   1.652
 1429SOL    HW2 5187   6.424   0.455   1.533
 1430SOL     OW 5188   2.157   3.892   4.451
 1430SOL    HW1 5189   2.173   3.972   4.393
 1430SOL    HW2 5190   2.123   3.816   4.396
 1431SOL     OW 5191   3.632   2.134   0.676
 1431SOL    HW1 5192   3.576   2.073   0.732
 1431SOL    HW2 5193   3.577   2.210   0.644
 1432SOL     OW 5194   3.360   0.475   2.850
 1432SOL    HW1 5195   3.417   0.442   2.775
 1432SOL    HW2 5196   3.409   0.545   2.902
 1433SOL     OW 5197   3.197   1.898   4.284
 1433SOL    HW1 5198   3.269   1.958   4.317
 1433SOL    HW2 5199   3.224   1.857   4.197
 1434SOL     OW 5200   5.698   3.450   0.842
 1434SOL    HW1 5201   5.605   3.449   0.803
 1434SOL    HW2 5202   5.764   3.458   0.767
 1435SOL     OW 5203   0.147   6.360   4.479
 1435SOL    HW1 5204   0.109   6.355   4.572
 1435SOL    HW2 5205   0.095   6.299   4.419
 1436SOL     OW 5206   5.713   0.988   0.180
 1436SOL    HW1 5207   5.741   0.965   0.273
 1436SOL    HW2 5208   5.622   1.030   0.182
 1437SOL     OW 5209   4.382   1.043   0.545
 1437SOL    HW1 5210   4.385   1.123   0.485
 1437SOL    HW2 5211   4.294   0.996   0.534
 1438SOL     OW 5212   2.353   0.038   3.299
 1438SOL    HW1 5213   2.393   0.130   3.291
 1438SOL    HW2 5214   2.331   0.004   3.208
 1439SOL     OW 5215   0.038   5.223   4.865
 1439SOL    HW1 5216   6.975   5.214   4.815
 1439SOL    HW2 5217   0.097   5.146   4.842
 1440SOL     OW 5218   3.521   3.271   2.706
 1440SOL    HW1 5219   3.423   3.286   2.695
 1440SOL    HW2 5220   3.538   3.176   2.733
 1441SOL     OW 5221   0.391   1.840   6.006
 1441SOL    HW1 5222   0.421   1.831   6.101
 1441SOL    HW2 5223   0.298   1.806   5.998
 1442SOL     OW 5224   5.511   5.677   6.979
 1442SOL    HW1 5225   5.548   5.701   6.889
 1442SOL    HW2 5226   5.479   5.760   0.002
 1443SOL     OW 5227   1.536   3.486   3.847
 1443SOL    HW1 5228   1.575   3.461   3.758
 1443SOL    HW2 5229   1.610   3.495   3.914
 1444SOL     OW 5230   4.910   0.020   4.451
 1444SOL    HW1 5231   4.896   6.956   4.499
 1444SOL    HW2 5232   4.828   0.042   4.397
 1445SOL     OW 5233   6.733   2.519   0.144
 1445SOL    HW1 5234   6.657   2.583   0.152
 1445SOL    HW2 5235   6.747   2.495   0.048
 1446SOL     OW 5236   2.848   5.748   2.314
 1446SOL    HW1 5237   2.880   5.674   2.255
 1446SOL    HW2 5238   2.925   5.806   2.338
 1447SOL     OW 5239   6.775   0.916   4.533
 1447SOL    HW1 5240   6.801   1.012   4.549
 1447SOL    HW2 5241   6.676   0.911   4.521
 1448SOL     OW 5242   5.608   0.913   0.593
 1448SOL    HW1 5243   5.660   0.860   0.526
 1448SOL    HW2 5244   5.609   1.010   0.568
 1449SOL     OW 5245   4.620   5.259   0.542
 1449SOL    HW1 5246   4.609   5.180   0.482
 1449SOL    HW2 5247   4.714   5.262   0.577
 1450SOL     OW 5248   5.355   1.206   3.495
 1450SOL    HW1 5249   5.291   1.247   3.560
 1450SOL    HW2 5250   5.378   1.114   3.525
 1451SOL     OW 5251   1.151   6.939   2.337
 1451SOL    HW1 5252   1.113   6.853   2.370
 1451SOL    HW2 5253   1.201   6.923   2.252
 1452SOL     OW 5254   2.109   6.760   6.129
 1452SOL    HW1 5255   2.090   6.842   6.074
 1452SOL    HW2 5256   2.030   6.741   6.187
 1453SOL     OW 5257   6.039   4.350   4.180
 1453SOL    HW1 5258   5.965   4.407   4.145
 1453SOL    HW2 5259   6.117   4.408   4.205
 1454SOL     OW 5260   5.849   3.832   1.263
 1454SOL    HW1 5261   5.920   3.770   1.295
 1454SOL    HW2 5262   5.862   3.850   1.165
 1455SOL     OW 5263   1.709   2.071   1.844
 1455SOL    HW1 5264   1.694   2.126   1.762
 1455SOL    HW2 5265   1.803   2.037   1.846
 1456SOL     OW 5266   5.570   5.418   4.880
 1456SOL    HW1 5267   5.481   5.372   4.883
 1456SOL    HW2 5268   5.585   5.469   4.964
 1457SOL     OW 5269   2.018   0.937   4.495
 1457SOL    HW1 5270   1.981   0.941   4.588
 1457SOL    HW2 5271   2.112   0.970   4.495
 1458SOL     OW 5272   6.564   5.436   0.252
 1458SOL    HW1 5273   6.562   5.520   0.307
 1458SOL    HW2 5274   6.493   5.374   0.283
 1459SOL     OW 5275   2.717   0.024   1.847
 1459SOL    HW1 5276   2.804   0.069   1.830
 1459SOL    HW2 5277   2.673   0.003   1.760
 1460SOL     OW 5278   0.089   1.293   6.518
 1460SOL    HW1 5279   0.079   1.222   6.588
 1460SOL    HW2 5280   0.180   1.288   6.478
 1461SOL     OW 5281   4.629   4.332   2.807
 1461SOL    HW1 5282   4.706   4.385   2.841
 1461SOL    HW2 5283   4.545   4.385   2.816
 1462SOL     OW 5284   5.700   6.988   4.898
 1462SOL    HW1 5285   5.601   7.005   4.895
 1462SOL    HW2 5286   5.748   0.040   4.853
 1463SOL     OW 5287   0.941   2.134   5.701
 1463SOL    HW1 5288   1.036   2.143   5.669
 1463SOL    HW2 5289   0.895   2.063   5.647
 1464SOL     OW 5290   0.824   1.051   1.102
 1464SOL    HW1 5291   0.749   1.031   1.166
 1464SOL    HW2 5292   0.864   0.966   1.069
 1465SOL     OW 5293   1.970   1.165   3.660
 1465SOL    HW1 5294   1.988   1.174   3.562
 1465SOL    HW2 5295   1.877   1.195   3.680
 1466SOL     OW 5296   6.000   5.790   4.008
 1466SOL    HW1 5297   5.953   5.741   3.935
 1466SOL    HW2 5298   6.061   5.727   4.056
 1467SOL     OW 5299   6.840   4.076   4.789
 1467SOL    HW1 5300   6.768   4.009   4.803
 1467SOL    HW2 5301   6.804   4.154   4.738
 1468SOL     OW 5302   4.726   0.072   2.694
 1468SOL    HW1 5303   4.818   0.102   2.719
 1468SOL    HW2 5304   4.668   0.069   2.775
 1469SOL     OW 5305   7.016   0.481   2.226
 1469SOL    HW1 5306   0.070   0.423   2.252
 1469SOL    HW2 5307   6.957   0.494   2.306
 1470SOL     OW 5308   0.734   0.499   3.275
 1470SOL    HW1 5309   0.687   0.586   3.292
 1470SOL    HW2 5310   0.754   0.491   3.177
 1471SOL     OW 5311   6.114   1.382   1.110
 1471SOL    HW1 5312   6.065   1.402   1.195
 1471SOL    HW2 5313   6.048   1.373   1.036
 1472SOL     OW 5314   4.604   5.115   4.729
 1472SOL    HW1 5315   4.702   5.113   4.753
 1472SOL    HW2 5316   4.558   5.185   4.783
 1473SOL     OW 5317   0.033   3.158   4.077
 1473SOL    HW1 5318   0.114   3.202   4.038
 1473SOL    HW2 5319   6.974   3.203   4.042
 1474SOL     OW 5320   4.461   6.224   2.489
 1474SOL    HW1 5321   4.512   6.271   2.561
 1474SOL    HW2 5322   4.506   6.137   2.468
 1475SOL     OW 5323   5.916   6.876   2.969
 1475SOL    HW1 5324   5.912   6.815   2.890
 1475SOL    HW2 5325   5.989   6.943   2.956
 1476SOL     OW 5326   0.719   2.222   1.394
 1476SOL    HW1 5327   0.763   2.237   1.305
 1476SOL    HW2 5328   0.790   2.212   1.465
 1477SOL     OW 5329   2.621   6.362   4.653
 1477SOL    HW1 5330   2.601   6.320   4.741
 1477SOL    HW2 5331   2.561   6.441   4.639
 1478SOL     OW 5332   0.305   3.922   0.978
 1478SOL    HW1 5333   0.379   3.860   0.954
 1478SOL    HW2 5334   0.227   3.905   0.918
 1479SOL     OW 5335   1.701   5.248   6.955
 1479SOL    HW1 5336   1.668   5.261   6.862
 1479SOL    HW2 5337   1.788   5.198   6.954
 1480SOL     OW 5338   3.271   0.831   0.288
 1480SOL    HW1 5339   3.261   0.921   0.330
 1480SOL    HW2 5340   3.243   0.835   0.193
 1481SOL     OW 5341   0.141   3.560   0.436
 1481SOL    HW1 5342   0.182   3.547   0.526
 1481SOL    HW2 5343   0.102   3.652   0.429
 1482SOL     OW 5344   5.985   0.532   6.252
 1482SOL    HW1 5345   5.901   0.482   6.275
 1482SOL    HW2 5346   5.992   0.542   6.153
 1483SOL     OW 5347   0.221   2.615   0.190
 1483SOL    HW1 5348   0.231   2.525   0.149
 1483SOL    HW2 5349   0.242   2.611   0.287
 1484SOL     OW 5350   6.581   6.768   3.566
 1484SOL    HW1 5351   6.606   6.703   3.495
 1484SOL    HW2 5352   6.482   6.767   3.579
 1485SOL     OW 5353   5.120   3.527   4.119
 1485SOL    HW1 5354   5.028   3.542   4.156
 1485SOL    HW2 5355   5.166   3.457   4.174
 1486SOL     OW 5356   4.925   2.914   1.521
 1486SOL    HW1 5357   4.916   2.830   1.467
 1486SOL    HW2 5358   4.846   2.925   1.580
 1487SOL     OW 5359   0.609   6.999   5.483
 1487SOL    HW1 5360   0.529   7.022   5.427
 1487SOL    HW2 5361   0.670   6.939   5.431
 1488SOL     OW 5362   4.880   2.087   4.232
 1488SOL    HW1 5363   4.870   2.155   4.158
 1488SOL    HW2 5364   4.804   2.022   4.228
 1489SOL     OW 5365   3.107   5.001   4.790
 1489SOL    HW1 5366   3.177   4.964   4.728
 1489SOL    HW2 5367   3.121   5.099   4.800
 1490SOL     OW 5368   2.626   2.814   0.386
 1490SOL    HW1 5369   2.709   2.771   0.350
 1490SOL    HW2 5370   2.569   2.745   0.431
 1491SOL     OW 5371   0.633   2.011   4.043
 1491SOL    HW1 5372   0.706   2.077   4.031
 1491SOL    HW2 5373   0.672   1.918   4.042
 1492SOL     OW 5374   0.394   1.907   2.043
 1492SOL    HW1 5375   0.374   1.809   2.044
 1492SOL    HW2 5376   0.309   1.959   2.052
 1493SOL     OW 5377   6.328   2.800   4.984
 1493SOL    HW1 5378   6.389   2.728   5.016
 1493SOL    HW2 5379   6.356   2.887   5.024
 1494SOL     OW 5380   5.398   1.585   3.760
 1494SOL    HW1 5381   5.488   1.564   3.721
 1494SOL    HW2 5382   5.406   1.597   3.859
 1495SOL     OW 5383   1.594   3.858   1.738
 1495SOL    HW1 5384   1.605   3.929   1.669
 1495SOL    HW2 5385   1.683   3.816   1.758
 1496SOL     OW 5386   0.870   0.545   2.415
 1496SOL    HW1 5387   0.819   0.461   2.398
 1496SOL    HW2 5388   0.927   0.566   2.335
 1497SOL     OW 5389   5.681   5.012   6.091
 1497SOL    HW1 5390   5.659   5.061   6.006
 1497SOL    HW2 5391   5.671   4.914   6.076
 1498SOL     OW 5392   3.285   5.771   7.015
 1498SOL    HW1 5393   3.255   5.717   6.936
 1498SOL    HW2 5394   3.325   5.857   6.983
 1499SOL     OW 5395   1.079   4.240   4.255
 1499SOL    HW1 5396   1.084   4.209   4.350
 1499SOL    HW2 5397   1.122   4.172   4.195
 1500SOL     OW 5398   4.095   6.538   5.958
 1500SOL    HW1 5399   4.116   6.630   5.990
 1500SOL    HW2 5400   4.055   6.543   5.867
 1501SOL     OW 5401   3.547   0.257   1.305
 1501SOL    HW1 5402   3.585   0.174   1.346
 1501SOL    HW2 5403   3.501   0.235   1.219
 1502SOL     OW 5404   0.337   1.228   6.402
 1502SOL    HW1 5405   0.332   1.264   6.309
 1502SOL    HW2 5406   0.433   1.226   6.432
 1503SOL     OW 5407   3.596   3.817   5.026
 1503SOL    HW1 5408   3.644   3.878   4.963
 1503SOL    HW2 5409   3.613   3.722   5.001
 1504SOL     OW 5410   2.970   0.113   3.933
 1504SOL    HW1 5411   2.879   0.152   3.943
 1504SOL    HW2 5412   2.983   0.082   3.839
 1505SOL     OW 5413   5.236   6.684   3.108
 1505SOL    HW1 5414   5.148   6.727   3.090
 1505SOL    HW2 5415   5.279   6.656   3.022
 1506SOL     OW 5416   0.093   6.162   4.294
 1506SOL    HW1 5417   0.130   6.083   4.245
 1506SOL    HW2 5418   0.141   6.245   4.265
 1507SOL     OW 5419   2.279   1.530   0.051
 1507SOL    HW1 5420   2.246   1.578   6.992
 1507SOL    HW2 5421   2.275   1.591   0.129
 1508SOL     OW 5422   4.644   6.520   0.976
 1508SOL    HW1 5423   4.694   6.434   0.963
 1508SOL    HW2 5424   4.582   6.511   1.054
 1509SOL     OW 5425   5.547   1.483   6.813
 1509SOL    HW1 5426   5.514   1.388   6.811
 1509SOL    HW2 5427   5.647   1.483   6.802
 1510SOL     OW 5428   6.516   1.714   2.213
 1510SOL    HW1 5429   6.577   1.788   2.242
 1510SOL    HW2 5430   6.459   1.686   2.290
 1511SOL     OW 5431   0.492   3.066   0.263
 1511SOL    HW1 5432   0.456   2.979   0.228
 1511SOL    HW2 5433   0.592   3.062   0.264
 1512SOL     OW 5434   6.858   0.788   2.165
 1512SOL    HW1 5435   6.803   0.708   2.189
 1512SOL    HW2 5436   6.944   0.758   2.124
 1513SOL     OW 5437   1.995   0.921   2.752
 1513SOL    HW1 5438   1.923   0.936   2.685
 1513SOL    HW2 5439   2.061   0.855   2.717
 1514SOL     OW 5440   4.636   0.674   6.015
 1514SOL    HW1 5441   4.670   0.758   5.972
 1514SOL    HW2 5442   4.713   0.614   6.036
 1515SOL     OW 5443   5.809   5.364   5.822
 1515SOL    HW1 5444   5.771   5.456   5.805
 1515SOL    HW2 5445   5.755   5.297   5.771
 1516SOL     OW 5446   6.050   1.875   2.100
 1516SOL    HW1 5447   6.004   1.819   2.032
 1516SOL    HW2 5448   6.115   1.818   2.151
 1517SOL     OW 5449   3.661   5.486   2.332
 1517SOL    HW1 5450   3.581   5.428   2.317
 1517SOL    HW2 5451   3.723   5.478   2.254
 1518SOL     OW 5452   0.913   4.912   0.928
 1518SOL    HW1 5453   0.903   4.813   0.940
 1518SOL    HW2 5454   0.964   4.949   1.005
 1519SOL     OW 5455   0.605   4.338   1.080
 1519SOL    HW1 5456   0.635   4.245   1.104
 1519SOL    HW2 5457   0.518   4.333   1.032
 1520SOL     OW 5458   1.653   3.970   2.763
 1520SOL    HW1 5459   1.585   4.021   2.816
 1520SOL    HW2 5460   1.636   3.872   2.772
 1521SOL     OW 5461   2.126   5.764   5.173
 1521SOL    HW1 5462   2.120   5.687   5.110
 1521SOL    HW2 5463   2.220   5.776   5.204
 1522SOL     OW 5464   1.650   2.209   6.004
 1522SOL    HW1 5465   1.641   2.275   6.078
 1522SOL    HW2 5466   1.699   2.251   5.928
 1523SOL     OW 5467   5.756   0.455   1.829
 1523SOL    HW1 5468   5.804   0.376   1.866
 1523SOL    HW2 5469   5.695   0.493   1.899
 1524SOL     OW 5470   0.607   1.952   1.373
 1524SOL    HW1 5471   0.654   1.876   1.417
 1524SOL    HW2 5472   0.645   2.039   1.407
 1525SOL     OW 5473   5.334   0.969   5.488
 1525SOL    HW1 5474   5.431   0.955   5.508
 1525SOL    HW2 5475   5.285   0.883   5.498
 1526SOL     OW 5476   5.554   2.584   0.133
 1526SOL    HW1 5477   5.546   2.614   0.038
 1526SOL    HW2 5478   5.593   2.492   0.136
 1527SOL     OW 5479   2.797   0.686   5.319
 1527SOL    HW1 5480   2.883   0.691   5.369
 1527SOL    HW2 5481   2.734   0.624   5.366
 1528SOL     OW 5482   5.285   6.180   3.848
 1528SOL    HW1 5483   5.337   6.190   3.932
 1528SOL    HW2 5484   5.341   6.132   3.780
 1529SOL     OW 5485   2.044   0.098   5.097
 1529SOL    HW1 5486   2.085   0.054   5.017
 1529SOL    HW2 5487   2.015   0.190   5.073
 1530SOL     OW 5488   2.960   6.444   1.526
 1530SOL    HW1 5489   3.021   6.498   1.467
 1530SOL    HW2 5490   2.982   6.462   1.622
 1531SOL     OW 5491   5.941   1.470   6.479
 1531SOL    HW1 5492   6.028   1.506   6.514
 1531SOL    HW2 5493   5.957   1.381   6.437
 1532SOL     OW 5494   3.197   1.642   5.346
 1532SOL    HW1 5495   3.101   1.615   5.353
 1532SOL    HW2 5496   3.230   1.674   5.435
 1533SOL     OW 5497   4.653   3.452   0.284
 1533SOL    HW1 5498   4.606   3.379   0.333
 1533SOL    HW2 5499   4.693   3.416   0.200
 1534SOL     OW 5500   0.280   0.323   7.014
 1534SOL    HW1 5501   0.269   0.363   0.082
 1534SOL    HW2 5502   0.344   0.247   7.018
 1535SOL     OW 5503   5.414   3.999   4.509
 1535SOL    HW1 5504   5.468   4.038   4.584
 1535SOL    HW2 5505   5.466   3.927   4.464
 1536SOL     OW 5506   2.905   6.131   3.069
 1536SOL    HW1 5507   2.924   6.229   3.059
 1536SOL    HW2 5508   2.975   6.079   3.021
 1537SOL     OW 5509   1.787   5.808   4.192
 1537SOL    HW1 5510   1.753   5.838   4.281
 1537SOL    HW2 5511   1.864   5.745   4.205
 1538SOL     OW 5512   3.304   6.324   0.276
 1538SOL    HW1 5513   3.365   6.403   0.274
 1538SOL    HW2 5514   3.338   6.254   0.213
 1539SOL     OW 5515   2.380   6.846   2.406
 1539SOL    HW1 5516   2.320   6.779   2.449
 1539SOL    HW2 5517   2.468   6.848   2.454
 1540SOL     OW 5518   5.883   0.317   5.129
 1540SOL    HW1 5519   5.940   0.399   5.142
 1540SOL    HW2 5520   5.920   0.261   5.055
 1541SOL     OW 5521   5.206   1.961   1.897
 1541SOL    HW1 5522   5.151   1.939   1.816
 1541SOL    HW2 5523   5.170   2.044   1.940
 1542SOL     OW 5524   6.602   5.429   1.263
 1542SOL    HW1 5525   6.660   5.441   1.183
 1542SOL    HW2 5526   6.543   5.350   1.251
 1543SOL     OW 5527   3.466   3.398   3.290
 1543SOL    HW1 5528   3.499   3.491   3.278
 1543SOL    HW2 5529   3.411   3.371   3.211
 1544SOL     OW 5530   3.606   3.669   1.745
 1544SOL    HW1 5531   3.593   3.704   1.837
 1544SOL    HW2 5532   3.573   3.736   1.678
 1545SOL     OW 5533   0.342   6.749   5.344
 1545SOL    HW1 5534   0.334   6.840   5.304
 1545SOL    HW2 5535   0.311   6.680   5.278
 1546SOL     OW 5536   0.333   6.653   0.416
 1546SOL    HW1 5537   0.371   6.690   0.331
 1546SOL    HW2 5538   0.236   6.634   0.403
 1547SOL     OW 5539   3.073   6.147   6.953
 1547SOL    HW1 5540   2.988   6.184   6.917
 1547SOL    HW2 5541   3.060   6.123   0.026
 1548SOL     OW 5542   6.487   4.322   3.009
 1548SOL    HW1 5543   6.470   4.325   2.910
 1548SOL    HW2 5544   6.400   4.317   3.058
 1549SOL     OW 5545   6.020   1.960   1.052
 1549SOL    HW1 5546   5.958   2.010   0.991
 1549SOL    HW2 5547   6.022   1.863   1.025
 1550SOL     OW 5548   2.427   5.258   2.523
 1550SOL    HW1 5549   2.378   5.248   2.609
 1550SOL    HW2 5550   2.485   5.178   2.509
 1551SOL     OW 5551   0.767   2.524   1.659
 1551SOL    HW1 5552   0.755   2.590   1.733
 1551SOL    HW2 5553   0.851   2.545   1.609
 1552SOL     OW 5554   1.711   6.686   1.990
 1552SOL    HW1 5555   1.644   6.653   1.925
 1552SOL    HW2 5556   1.804   6.670   1.955
 1553SOL     OW 5557   5.429   1.560   5.397
 1553SOL    HW1 5558   5.501   1.591   5.335
 1553SOL    HW2 5559   5.455   1.584   5.491
 1554SOL     OW 5560   2.821   3.084   0.624
 1554SOL    HW1 5561   2.829   3.182   0.645
 1554SOL    HW2 5562   2.725   3.058   0.620
 1555SOL     OW 5563   4.506   1.279   1.201
 1555SOL    HW1 5564   4.409   1.301   1.187
 1555SOL    HW2 5565   4.554   1.360   1.235
 1556SOL     OW 5566   3.166   2.189   0.697
 1556SOL    HW1 5567   3.140   2.260   0.763
 1556SOL    HW2 5568   3.142   2.218   0.605
 1557SOL     OW 5569   2.147   2.739   1.185
 1557SOL    HW1 5570   2.246   2.743   1.171
 1557SOL    HW2 5571   2.113   2.829   1.213
 1558SOL     OW 5572   4.511   2.521   6.709
 1558SOL    HW1 5573   4.455   2.568   6.640
 1558SOL    HW2 5574   4.499   2.422   6.699
 1559SOL     OW 5575   2.484   6.339   3.429
 1559SOL    HW1 5576   2.527   6.249   3.431
 1559SOL    HW2 5577   2.524   6.397   3.500
 1560SOL     OW 5578   4.465   3.006   1.512
 1560SOL    HW1 5579   4.411   3.058   1.578
 1560SOL    HW2 5580   4.551   2.977   1.553
 1561SOL     OW 5581   6.219   6.294   0.466
 1561SOL    HW1 5582   6.285   6.239   0.415
 1561SOL    HW2 5583   6.261   6.381   0.492
 1562SOL     OW 5584   2.705   6.991   2.969
 1562SOL    HW1 5585   2.707   0.045   2.906
 1562SOL    HW2 5586   2.767   6.919   2.936
 1563SOL     OW 5587   2.205   4.047   3.796
 1563SOL    HW1 5588   2.223   4.002   3.884
 1563SOL    HW2 5589   2.245   4.138   3.796
 1564SOL     OW 5590   1.287   1.949   3.255
 1564SOL    HW1 5591   1.286   2.027   3.192
 1564SOL    HW2 5592   1.308   1.866   3.204
 1565SOL     OW 5593   5.177   1.576   5.293
 1565SOL    HW1 5594   5.260   1.564   5.349
 1565SOL    HW2 5595   5.137   1.487   5.275
 1566SOL     OW 5596   1.293   3.255   3.736
 1566SOL    HW1 5597   1.246   3.337   3.702
 1566SOL    HW2 5598   1.307   3.191   3.661
 1567SOL     OW 5599   5.432   0.557   4.702
 1567SOL    HW1 5600   5.366   0.583   4.772
 1567SOL    HW2 5601   5.384   0.516   4.624
 1568SOL     OW 5602   2.265   4.468   1.236
 1568SOL    HW1 5603   2.169   4.466   1.265
 1568SOL    HW2 5604   2.308   4.380   1.258
 1569SOL     OW 5605   2.268   1.001   2.231
 1569SOL    HW1 5606   2.259   0.902   2.222
 1569SOL    HW2 5607   2.327   1.022   2.309
 1570SOL     OW 5608   3.008   6.026   6.244
 1570SOL    HW1 5609   2.956   6.012   6.160
 1570SOL    HW2 5610   3.039   5.938   6.280
 1571SOL     OW 5611   0.818   1.506   5.037
 1571SOL    HW1 5612   0.803   1.414   5.002
 1571SOL    HW2 5613   0.803   1.507   5.136
 1572SOL     OW 5614   1.770   6.292   3.379
 1572SOL    HW1 5615   1.833   6.361   3.414
 1572SOL    HW2 5616   1.736   6.237   3.455
 1573SOL     OW 5617   5.494   6.219   0.476
 1573SOL    HW1 5618   5.574   6.174   0.437
 1573SOL    HW2 5619   5.484   6.193   0.572
 1574SOL     OW 5620   0.297   3.170   2.911
 1574SOL    HW1 5621   0.338   3.260   2.894
 1574SOL    HW2 5622   0.334   3.133   2.996
 1575SOL     OW 5623   6.498   2.677   0.142
 1575SOL    HW1 5624   6.467   2.735   0.217
 1575SOL    HW2 5625   6.456   2.708   0.056
 1576SOL     OW 5626   1.495   6.153   2.553
 1576SOL    HW1 5627   1.586   6.173   2.592
 1576SOL    HW2 5628   1.502   6.079   2.487
 1577SOL     OW 5629   3.977   5.623   3.865
 1577SOL    HW1 5630   3.880   5.623   3.890
 1577SOL    HW2 5631   3.987   5.600   3.769
 1578SOL     OW 5632   5.415   1.808   1.599
 1578SOL    HW1 5633   5.448   1.853   1.682
 1578SOL    HW2 5634   5.454   1.852   1.518
 1579SOL     OW 5635   1.399   3.282   2.236
 1579SOL    HW1 5636   1.314   3.272   2.184
 1579SOL    HW2 5637   1.389   3.238   2.325
 1580SOL     OW 5638   3.395   3.768   3.911
 1580SOL    HW1 5639   3.482   3.770   3.861
 1580SOL    HW2 5640   3.325   3.727   3.853
 1581SOL     OW 5641   5.233   4.365   5.730
 1581SOL    HW1 5642   5.138   4.336   5.717
 1581SOL    HW2 5643   5.234   4.456   5.771
 1582SOL     OW 5644   4.149   5.894   3.703
 1582SOL    HW1 5645   4.220   5.826   3.724
 1582SOL    HW2 5646   4.082   5.896   3.777
 1583SOL     OW 5647   0.326   5.489   4.628
 1583SOL    HW1 5648   0.310   5.443   4.715
 1583SOL    HW2 5649   0.316   5.424   4.553
 1584SOL     OW 5650   0.345   4.496   0.092
 1584SOL    HW1 5651   0.411   4.421   0.089
 1584SOL    HW2 5652   0.304   4.508   0.002
 1585SOL     OW 5653   4.716   6.239   4.195
 1585SOL    HW1 5654   4.787   6.280   4.138
 1585SOL    HW2 5655   4.626   6.264   4.159
 1586SOL     OW 5656   2.502   5.896   3.494
 1586SOL    HW1 5657   2.600   5.912   3.482
 1586SOL    HW2 5658   2.469   5.951   3.570
 1587SOL     OW 5659   3.652   6.973   0.468
 1587SOL    HW1 5660   3.684   6.978   0.563
 1587SOL    HW2 5661   3.554   6.993   0.465
 1588SOL     OW 5662   6.382   1.921   3.939
 1588SOL    HW1 5663   6.454   1.872   3.890
 1588SOL    HW2 5664   6.315   1.957   3.874
 1589SOL     OW 5665   0.200   1.632   4.381
 1589SOL    HW1 5666   0.269   1.583   4.434
 1589SOL    HW2 5667   0.197   1.727   4.411
 1590SOL     OW 5668   5.847   0.616   3.714
 1590SOL    HW1 5669   5.911   0.668   3.659
 1590SOL    HW2 5670   5.758   0.614   3.669
 1591SOL     OW 5671   0.086   5.404   0.610
 1591SOL    HW1 5672   0.165   5.446   0.565
 1591SOL    HW2 5673   0.102   5.305   0.620
 1592SOL     OW 5674   6.782   4.520   5.039
 1592SOL    HW1 5675   6.728   4.544   5.120
 1592SOL    HW2 5676   6.722   4.513   4.960
 1593SOL     OW 5677   4.000   5.694   1.516
 1593SOL    HW1 5678   3.929   5.758   1.489
 1593SOL    HW2 5679   4.079   5.704   1.456
 1594SOL     OW 5680   5.430   1.568   2.691
 1594SOL    HW1 5681   5.474   1.658   2.688
 1594SOL    HW2 5682   5.413   1.536   2.598
 1595SOL     OW 5683   0.279   4.164   6.940
 1595SOL    HW1 5684   0.323   4.126   6.859
 1595SOL    HW2 5685   0.346   4.214   6.994
 1596SOL     OW 5686   5.233   4.537   4.306
 1596SOL    HW1 5687   5.301   4.565   4.375
 1596SOL    HW2 5688   5.182   4.457   4.340
 1597SOL     OW 5689   4.329   6.949   1.320
 1597SOL    HW1 5690   4.303   6.858   1.353
 1597SOL    HW2 5691   4.395   6.940   1.246
 1598SOL     OW 5692   1.023   5.489   6.065
 1598SOL    HW1 5693   1.085   5.551   6.114
 1598SOL    HW2 5694   1.071   5.403   6.045
 1599SOL     OW 5695   5.324   5.438   4.243
 1599SOL    HW1 5696   5.288   5.429   4.336
 1599SOL    HW2 5697   5.283   5.367   4.184
 1600SOL     OW 5698   4.604   1.089   1.511
 1600SOL    HW1 5699   4.581   1.167   1.452
 1600SOL    HW2 5700   4.535   1.079   1.582
 1601SOL     OW 5701   6.001   0.613   4.516
 1601SOL    HW1 5702   6.035   0.617   4.610
 1601SOL    HW2 5703   6.040   0.689   4.464
 1602SOL     OW 5704   4.051   5.556   2.980
 1602SOL    HW1 5705   4.042   5.489   2.907
 1602SOL    HW2 5706   4.041   5.511   3.069
 1603SOL     OW 5707   3.363   5.169   1.616
 1603SOL    HW1 5708   3.385   5.129   1.527
 1603SOL    HW2 5709   3.420   5.127   1.686
 1604SOL     OW 5710   4.629   5.338   1.758
 1604SOL    HW1 5711   4.623   5.309   1.854
 1604SOL    HW2 5712   4.671   5.265   1.704
 1605SOL     OW 5713   4.538   5.073   0.058
 1605SOL    HW1 5714   4.615   5.090   0.120
 1605SOL    HW2 5715   4.514   5.158   0.011
 1606SOL     OW 5716   4.634   5.689   4.965
 1606SOL    HW1 5717   4.683   5.738   5.037
 1606SOL    HW2 5718   4.698   5.661   4.893
 1607SOL     OW 5719   4.966   3.929   3.781
 1607SOL    HW1 5720   4.936   4.007   3.836
 1607SOL    HW2 5721   4.991   3.853   3.841
 1608SOL     OW 5722   6.452   3.455   3.112
 1608SOL    HW1 5723   6.524   3.387   3.095
 1608SOL    HW2 5724   6.371   3.430   3.059
 1609SOL     OW 5725   1.787   0.089   0.665
 1609SOL    HW1 5726   1.724   0.139   0.606
 1609SOL    HW2 5727   1.751   0.088   0.758
 1610SOL     OW 5728   6.093   5.903   1.283
 1610SOL    HW1 5729   5.996   5.911   1.260
 1610SOL    HW2 5730   6.119   5.806   1.286
 1611SOL     OW 5731   0.292   4.537   6.834
 1611SOL    HW1 5732   0.384   4.576   6.829
 1611SOL    HW2 5733   0.272   4.487   6.750
 1612SOL     OW 5734   5.180   1.079   2.426
 1612SOL    HW1 5735   5.274   1.107   2.410
 1612SOL    HW2 5736   5.119   1.157   2.414
 1613SOL     OW 5737   0.404   6.155   2.806
 1613SOL    HW1 5738   0.497   6.125   2.789
 1613SOL    HW2 5739   0.341   6.108   2.745
 1614SOL     OW 5740   5.516   1.592   5.683
 1614SOL    HW1 5741   5.423   1.558   5.694
 1614SOL    HW2 5742   5.563   1.591   5.771
 1615SOL     OW 5743   6.606   3.316   5.653
 1615SOL    HW1 5744   6.695   3.272   5.640
 1615SOL    HW2 5745   6.613   3.384   5.726
 1616SOL     OW 5746   0.982   1.408   3.590
 1616SOL    HW1 5747   1.036   1.365   3.519
 1616SOL    HW2 5748   0.940   1.338   3.647
 1617SOL     OW 5749   0.096   5.787   4.443
 1617SOL    HW1 5750   0.099   5.829   4.533
 1617SOL    HW2 5751   0.037   5.841   4.383
 1618SOL     OW 5752   2.637   5.654   3.029
 1618SOL    HW1 5753   2.581   5.630   3.108
 1618SOL    HW2 5754   2.675   5.746   3.041
 1619SOL     OW 5755   0.880   3.685   6.079
 1619SOL    HW1 5756   0.911   3.646   5.993
 1619SOL    HW2 5757   0.812   3.626   6.121
 1620SOL     OW 5758   2.959   6.879   4.544
 1620SOL    HW1 5759   2.937   6.914   4.453
 1620SOL    HW2 5760   2.888   6.814   4.572
 1621SOL     OW 5761   5.675   4.869   1.046
 1621SOL    HW1 5762   5.616   4.902   0.972
 1621SOL    HW2 5763   5.743   4.940   1.069
 1622SOL     OW 5764   6.855   3.101   3.001
 1622SOL    HW1 5765   6.802   3.186   3.004
 1622SOL    HW2 5766   6.946   3.117   3.038
 1623SOL     OW 5767   0.479   2.608   4.094
 1623SOL    HW1 5768   0.570   2.640   4.118
 1623SOL    HW2 5769   0.456   2.528   4.148
 1624SOL     OW 5770   4.582   2.995   0.575
 1624SOL    HW1 5771   4.491   2.980   0.614
 1624SOL    HW2 5772   4.639   3.044   0.642
 1625SOL     OW 5773   1.099   6.104   0.378
 1625SOL    HW1 5774   1.155   6.173   0.331
 1625SOL    HW2 5775   1.007   6.104   0.340
 1626SOL     OW 5776   2.533   1.926   1.772
 1626SOL    HW1 5777   2.509   1.858   1.703
 1626SOL    HW2 5778   2.500   1.896   1.861
 1627SOL     OW 5779   4.602   1.598   6.274
 1627SOL    HW1 5780   4.581   1.529   6.205
 1627SOL    HW2 5781   4.684   1.571   6.325
 1628SOL     OW 5782   5.283   5.848   1.290
 1628SOL    HW1 5783   5.213   5.920   1.293
 1628SOL    HW2 5784   5.369   5.886   1.256
 1629SOL     OW 5785   1.517   6.644   3.165
 1629SOL    HW1 5786   1.563   6.703   3.098
 1629SOL    HW2 5787   1.454   6.698   3.220
 1630SOL     OW 5788   0.513   4.898   6.248
 1630SOL    HW1 5789   0.579   4.891   6.323
 1630SOL    HW2 5790   0.508   4.811   6.199
 1631SOL     OW 5791   4.908   4.339   0.110
 1631SOL    HW1 5792   4.952   4.378   0.191
 1631SOL    HW2 5793   4.960   4.364   0.028
 1632SOL     OW 5794   6.321   6.588   2.395
 1632SOL    HW1 5795   6.232   6.621   2.365
 1632SOL    HW2 5796   6.314   6.494   2.428
 1633SOL     OW 5797   6.670   3.856   4.379
 1633SOL    HW1 5798   6.769   3.873   4.375
 1633SOL    HW2 5799   6.623   3.922   4.321
 1634SOL     OW 5800   1.463   4.015   6.472
 1634SOL    HW1 5801   1.363   4.019   6.469
 1634SOL    HW2 5802   1.496   3.954   6.401
 1635SOL     OW 5803   2.966   0.721   4.406
 1635SOL    HW1 5804   2.937   0.773   4.326
 1635SOL    HW2 5805   2.886   0.694   4.459
 1636SOL     OW 5806   0.344   6.270   1.555
 1636SOL    HW1 5807   0.327   6.336   1.628
 1636SOL    HW2 5808   0.258   6.251   1.507
 1637SOL     OW 5809   1.136   1.205   1.814
 1637SOL    HW1 5810   1.039   1.221   1.797
 1637SOL    HW2 5811   1.168   1.270   1.884
 1638SOL     OW 5812   5.492   2.263   3.549
 1638SOL    HW1 5813   5.447   2.174   3.551
 1638SOL    HW2 5814   5.521   2.288   3.642
 1639SOL     OW 5815   4.778   2.445   1.164
 1639SOL    HW1 5816   4.713   2.489   1.225
 1639SOL    HW2 5817   4.736   2.364   1.123
 1640SOL     OW 5818   6.249   1.189   0.027
 1640SOL    HW1 5819   6.222   1.137   6.969
 1640SOL    HW2 5820   6.228   1.136   0.109
 1641SOL     OW 5821   5.729   1.106   3.082
 1641SOL    HW1 5822   5.648   1.111   3.023
 1641SOL    HW2 5823   5.705   1.134   3.175
 1642SOL     OW 5824   6.882   3.168   6.071
 1642SOL    HW1 5825   6.885   3.265   6.093
 1642SOL    HW2 5826   6.874   3.157   5.972
 1643SOL     OW 5827   2.191   5.058   4.329
 1643SOL    HW1 5828   2.287   5.080   4.316
 1643SOL    HW2 5829   2.176   5.021   4.421
 1644SOL     OW 5830   5.974   1.754   1.277
 1644SOL    HW1 5831   6.031   1.693   1.331
 1644SOL    HW2 5832   6.006   1.753   1.182
 1645SOL     OW 5833   2.405   1.149   4.276
 1645SOL    HW1 5834   2.358   1.134   4.363
 1645SOL    HW2 5835   2.437   1.061   4.240
 1646SOL     OW 5836   0.301   5.566   1.980
 1646SOL    HW1 5837   0.288   5.543   1.883
 1646SOL    HW2 5838   0.239   5.511   2.036
 1647SOL     OW 5839   6.477   3.064   5.068
 1647SOL    HW1 5840   6.448   3.143   5.122
 1647SOL    HW2 5841   6.475   3.088   4.971
 1648SOL     OW 5842   5.573   6.146   2.183
 1648SOL    HW1 5843   5.505   6.208   2.221
 1648SOL    HW2 5844   5.546   6.051   2.203
 1649SOL     OW 5845   3.849   0.847   2.556
 1649SOL    HW1 5846   3.917   0.916   2.531
 1649SOL    HW2 5847   3.761   0.891   2.573
 1650SOL     OW 5848   2.662   2.415   5.071
 1650SOL    HW1 5849   2.756   2.419   5.104
 1650SOL    HW2 5850   2.603   2.463   5.135
 1651SOL     OW 5851   1.351   2.223   4.207
 1651SOL    HW1 5852   1.407   2.301   4.179
 1651SOL    HW2 5853   1.347   2.157   4.132
 1652SOL     OW 5854   6.980   4.194   1.776
 1652SOL    HW1 5855   6.946   4.256   1.847
 1652SOL    HW2 5856   0.009   4.245   1.708
 1653SOL     OW 5857   6.505   4.126   1.891
 1653SOL    HW1 5858   6.559   4.048   1.859
 1653SOL    HW2 5859   6.553   4.170   1.967
 1654SOL     OW 5860   6.824   3.575   1.707
 1654SOL    HW1 5861   6.830   3.615   1.616
 1654SOL    HW2 5862   6.799   3.645   1.773
 1655SOL     OW 5863   6.936   0.117   5.962
 1655SOL    HW1 5864   6.948   0.169   6.046
 1655SOL    HW2 5865   7.016   0.127   5.903
 1656SOL     OW 5866   2.261   4.179   2.648
 1656SOL    HW1 5867   2.329   4.231   2.596
 1656SOL    HW2 5868   2.186   4.154   2.587
 1657SOL     OW 5869   0.323   1.371   6.092
 1657SOL    HW1 5870   0.351   1.338   6.002
 1657SOL    HW2 5871   0.226   1.353   6.106
 1658SOL     OW 5872   5.166   6.997   5.723
 1658SOL    HW1 5873   5.204   6.911   5.758
 1658SOL    HW2 5874   5.240   0.039   5.707
 1659SOL     OW 5875   3.262   0.371   6.382
 1659SOL    HW1 5876   3.277   0.446   6.317
 1659SOL    HW2 5877   3.280   0.284   6.336
 1660SOL     OW 5878   2.883   0.638   2.347
 1660SOL    HW1 5879   2.818   0.665   2.276
 1660SOL    HW2 5880   2.963   0.697   2.342
 1661SOL     OW 5881   4.814   5.076   3.366
 1661SOL    HW1 5882   4.885   5.006   3.361
 1661SOL    HW2 5883   4.796   5.098   3.462
 1662SOL     OW 5884   0.278   1.606   3.771
 1662SOL    HW1 5885   0.347   1.628   3.840
 1662SOL    HW2 5886   0.201   1.558   3.814
 1663SOL     OW 5887   6.051   4.273   1.083
 1663SOL    HW1 5888   5.952   4.267   1.096
 1663SOL    HW2 5889   6.086   4.185   1.050
 1664SOL     OW 5890   1.481   1.927   6.239
 1664SOL    HW1 5891   1.500   1.942   6.142
 1664SOL    HW2 5892   1.385   1.904   6.251
 1665SOL     OW 5893   2.053   4.280   6.904
 1665SOL    HW1 5894   2.123   4.261   6.835
 1665SOL    HW2 5895   2.090   4.262   6.995
 1666SOL     OW 5896   5.401   6.375   5.428
 1666SOL    HW1 5897   5.385   6.351   5.523
 1666SOL    HW2 5898   5.497   6.401   5.415
 1667SOL     OW 5899   6.657   4.836   1.459
 1667SOL    HW1 5900   6.745   4.812   1.417
 1667SOL    HW2 5901   6.633   4.930   1.435
 1668SOL     OW 5902   6.711   3.321   1.701
 1668SOL    HW1 5903   6.747   3.406   1.741
 1668SOL    HW2 5904   6.743   3.313   1.606
 1669SOL     OW 5905   6.148   2.527   5.084
 1669SOL    HW1 5906   6.089   2.454   5.049
 1669SOL    HW2 5907   6.096   2.612   5.087
 1670SOL     OW 5908   3.038   4.358   5.347
 1670SOL    HW1 5909   2.969   4.403   5.290
 1670SOL    HW2 5910   3.099   4.427   5.386
 1671SOL     OW 5911   5.990   2.350   0.775
 1671SOL    HW1 5912   6.085   2.333   0.751
 1671SOL    HW2 5913   5.986   2.398   0.863
 1672SOL     OW 5914   0.360   2.130   1.559
 1672SOL    HW1 5915   0.384   2.062   1.627
 1672SOL    HW2 5916   0.262   2.149   1.564
 1673SOL     OW 5917   1.003   0.665   5.903
 1673SOL    HW1 5918   1.047   0.684   5.815
 1673SOL    HW2 5919   1.040   0.580   5.941
 1674SOL     OW 5920   5.164   2.552   3.045
 1674SOL    HW1 5921   5.075   2.595   3.057
 1674SOL    HW2 5922   5.189   2.502   3.129
 1675SOL     OW 5923   5.565   1.080   2.225
 1675SOL    HW1 5924   5.552   1.107   2.321
 1675SOL    HW2 5925   5.508   1.000   2.205
 1676SOL     OW 5926   1.196   2.464   3.946
 1676SOL    HW1 5927   1.141   2.535   3.989
 1676SOL    HW2 5928   1.285   2.459   3.992
 1677SOL     OW 5929   3.255   3.947   2.187
 1677SOL    HW1 5930   3.332   4.002   2.155
 1677SOL    HW2 5931   3.237   3.968   2.283
 1678SOL     OW 5932   0.350   6.808   0.191
 1678SOL    HW1 5933   0.286   6.866   0.141
 1678SOL    HW2 5934   0.426   6.784   0.131
 1679SOL     OW 5935   5.924   1.909   0.556
 1679SOL    HW1 5936   5.881   1.910   0.466
 1679SOL    HW2 5937   6.015   1.950   0.550
 1680SOL     OW 5938   5.786   2.502   3.128
 1680SOL    HW1 5939   5.832   2.414   3.111
 1680SOL    HW2 5940   5.757   2.506   3.223
 1681SOL     OW 5941   3.904   6.113   4.421
 1681SOL    HW1 5942   3.959   6.065   4.353
 1681SOL    HW2 5943   3.837   6.171   4.374
 1682SOL     OW 5944   3.628   1.271   5.276
 1682SOL    HW1 5945   3.610   1.357   5.228
 1682SOL    HW2 5946   3.657   1.201   5.211
 1683SOL     OW 5947   0.805   3.228   2.651
 1683SOL    HW1 5948   0.891   3.274   2.674
 1683SOL    HW2 5949   0.743   3.292   2.607
 1684SOL     OW 5950   3.270   5.390   1.390
 1684SOL    HW1 5951   3.276   5.472   1.447
 1684SOL    HW2 5952   3.360   5.348   1.383
 1685SOL     OW 5953   0.363   1.743   5.569
 1685SOL    HW1 5954   0.298   1.728   5.644
 1685SOL    HW2 5955   0.368   1.661   5.513
 1686SOL     OW 5956   3.512   5.268   1.342
 1686SOL    HW1 5957   3.536   5.188   1.287
 1686SOL    HW2 5958   3.591   5.296   1.396
 1687SOL     OW 5959   4.420   4.445   7.017
 1687SOL    HW1 5960   4.445   4.395   0.077
 1687SOL    HW2 5961   4.400   4.379   6.944
 1688SOL     OW 5962   2.837   0.332   3.357
 1688SOL    HW1 5963   2.751   0.291   3.324
 1688SOL    HW2 5964   2.838   0.429   3.334
 1689SOL     OW 5965   4.025   0.769   1.794
 1689SOL    HW1 5966   4.095   0.700   1.809
 1689SOL    HW2 5967   4.002   0.813   1.881
 1690SOL     OW 5968   0.088   4.677   4.529
 1690SOL    HW1 5969   0.075   4.677   4.628
 1690SOL    HW2 5970   0.069   4.586   4.493
 1691SOL     OW 5971   4.176   2.605   5.341
 1691SOL    HW1 5972   4.249   2.662   5.378
 1691SOL    HW2 5973   4.207   2.565   5.255
 1692SOL     OW 5974   6.632   5.192   2.383
 1692SOL    HW1 5975   6.574   5.254   2.436
 1692SOL    HW2 5976   6.726   5.198   2.415
 1693SOL     OW 5977   5.686   6.815   5.106
 1693SOL    HW1 5978   5.695   6.869   5.023
 1693SOL    HW2 5979   5.606   6.755   5.099
 1694SOL     OW 5980   4.650   1.122   6.564
 1694SOL    HW1 5981   4.593   1.114   6.646
 1694SOL    HW2 5982   4.735   1.169   6.587
 1695SOL     OW 5983   4.589   0.321   4.669
 1695SOL    HW1 5984   4.559   0.414   4.647
 1695SOL    HW2 5985   4.560   0.298   4.762
 1696SOL     OW 5986   4.968   6.931   1.164
 1696SOL    HW1 5987   4.885   6.877   1.145
 1696SOL    HW2 5988   4.968   6.960   1.259
 1697SOL     OW 5989   4.256   3.308   1.705
 1697SOL    HW1 5990   4.202   3.324   1.787
 1697SOL    HW2 5991   4.317   3.231   1.719
 1698SOL     OW 5992   4.384   1.060   1.711
 1698SOL    HW1 5993   4.435   0.985   1.755
 1698SOL    HW2 5994   4.293   1.064   1.751
 1699SOL     OW 5995   1.808   0.792   1.351
 1699SOL    HW1 5996   1.807   0.882   1.394
 1699SOL    HW2 5997   1.891   0.782   1.297
 1700SOL     OW 5998   5.628   3.419   2.636
 1700SOL    HW1 5999   5.666   3.490   2.695
 1700SOL    HW2 6000   5.697   3.349   2.619
 1701SOL     OW 6001   1.171   5.376   5.346
 1701SOL    HW1 6002   1.253   5.416   5.388
 1701SOL    HW2 6003   1.194   5.344   5.254
 1702SOL     OW 6004   2.036   2.227   6.975
 1702SOL    HW1 6005   2.071   2.320   6.966
 1702SOL    HW2 6006   2.112   2.163   6.972
 1703SOL     OW 6007   1.397   2.466   2.173
 1703SOL    HW1 6008   1.384   2.459   2.074
 1703SOL    HW2 6009   1.326   2.413   2.220
 1704SOL     OW 6010   3.038   3.105   6.607
 1704SOL    HW1 6011   3.009   3.023   6.558
 1704SOL    HW2 6012   2.976   3.180   6.586
 1705SOL     OW 6013   5.426   2.682   0.857
 1705SOL    HW1 6014   5.356   2.630   0.905
 1705SOL    HW2 6015   5.438   2.771   0.900
 1706SOL     OW 6016   5.551   0.569   5.751
 1706SOL    HW1 6017   5.610   0.581   5.671
 1706SOL    HW2 6018   5.496   0.651   5.764
 1707SOL     OW 6019   3.367   1.520   2.254
 1707SOL    HW1 6020   3.466   1.533   2.244
 1707SOL    HW2 6021   3.319   1.580   2.190
 1708SOL     OW 6022   2.703   4.840   1.924
 1708SOL    HW1 6023   2.759   4.761   1.948
 1708SOL    HW2 6024   2.702   4.851   1.825
 1709SOL     OW 6025   5.450   5.151   1.690
 1709SOL    HW1 6026   5.458   5.105   1.602
 1709SOL    HW2 6027   5.413   5.088   1.758
 1710SOL     OW 6028   4.682   2.654   2.049
 1710SOL    HW1 6029   4.648   2.624   2.138
 1710SOL    HW2 6030   4.672   2.753   2.041
 1711SOL     OW 6031   4.370   5.262   6.971
 1711SOL    HW1 6032   4.272   5.258   6.993
 1711SOL    HW2 6033   4.382   5.245   6.873
 1712SOL     OW 6034   0.618   2.032   2.193
 1712SOL    HW1 6035   0.541   1.969   2.185
 1712SOL    HW2 6036   0.601   2.114   2.139
 1713SOL     OW 6037   2.857   1.519   2.570
 1713SOL    HW1 6038   2.866   1.610   2.530
 1713SOL    HW2 6039   2.806   1.525   2.655
 1714SOL     OW 6040   2.897   4.693   1.301
 1714SOL    HW1 6041   2.823   4.653   1.354
 1714SOL    HW2 6042   2.902   4.791   1.318
 1715SOL     OW 6043   1.723   6.282   0.908
 1715SOL    HW1 6044   1.703   6.206   0.846
 1715SOL    HW2 6045   1.733   6.247   1.001
 1716SOL     OW 6046   5.103   1.382   2.800
 1716SOL    HW1 6047   5.007   1.409   2.788
 1716SOL    HW2 6048   5.156   1.461   2.829
 1717SOL     OW 6049   3.482   6.044   3.799
 1717SOL    HW1 6050   3.417   6.120   3.804
 1717SOL    HW2 6051   3.437   5.960   3.832
 1718SOL     OW 6052   1.833   3.719   1.849
 1718SOL    HW1 6053   1.826   3.634   1.797
 1718SOL    HW2 6054   1.928   3.732   1.879
 1719SOL     OW 6055   1.180   4.751   3.225
 1719SOL    HW1 6056   1.110   4.798   3.278
 1719SOL    HW2 6057   1.191   4.657   3.259
 1720SOL     OW 6058   1.362   3.077   5.320
 1720SOL    HW1 6059   1.440   3.045   5.266
 1720SOL    HW2 6060   1.310   2.998   5.353
 1721SOL     OW 6061   2.381   2.471   0.089
 1721SOL    HW1 6062   2.425   2.560   0.099
 1721SOL    HW2 6063   2.359   2.434   0.179
 1722SOL     OW 6064   3.110   2.066   2.989
 1722SOL    HW1 6065   3.193   2.011   3.000
 1722SOL    HW2 6066   3.101   2.094   2.893
 1723SOL     OW 6067   6.447   4.867   1.657
 1723SOL    HW1 6068   6.540   4.899   1.638
 1723SOL    HW2 6069   6.383   4.943   1.646
 1724SOL     OW 6070   6.202   3.502   0.827
 1724SOL    HW1 6071   6.197   3.560   0.909
 1724SOL    HW2 6072   6.268   3.541   0.763
 1725SOL     OW 6073   1.569   6.704   5.419
 1725SOL    HW1 6074   1.661   6.693   5.382
 1725SOL    HW2 6075   1.508   6.736   5.348
 1726SOL     OW 6076   5.247   4.909   3.422
 1726SOL    HW1 6077   5.241   5.009   3.427
 1726SOL    HW2 6078   5.337   4.884   3.386
 1727SOL     OW 6079   3.039   3.488   4.186
 1727SOL    HW1 6080   3.066   3.584   4.182
 1727SOL    HW2 6081   2.990   3.470   4.272
 1728SOL     OW 6082   5.665   2.070   4.798
 1728SOL    HW1 6083   5.569   2.099   4.801
 1728SOL    HW2 6084   5.696   2.049   4.891
 1729SOL     OW 6085   1.852   3.537   2.965
 1729SOL    HW1 6086   1.931   3.546   3.026
 1729SOL    HW2 6087   1.874   3.471   2.892
 1730SOL     OW 6088   2.709   0.634   4.801
 1730SOL    HW1 6089   2.776   0.694   4.844
 1730SOL    HW2 6090   2.754   0.549   4.773
 1731SOL     OW 6091   5.821   4.390   3.611
 1731SOL    HW1 6092   5.863   4.387   3.521
 1731SOL    HW2 6093   5.849   4.473   3.659
 1732SOL     OW 6094   4.114   3.302   5.142
 1732SOL    HW1 6095   4.165   3.244   5.205
 1732SOL    HW2 6096   4.085   3.247   5.063
 1733SOL     OW 6097   1.308   1.750   0.052
 1733SOL    HW1 6098   1.258   1.733   6.990
 1733SOL    HW2 6099   1.406   1.752   0.033
 1734SOL     OW 6100   0.820   4.169   1.851
 1734SOL    HW1 6101   0.735   4.216   1.877
 1734SOL    HW2 6102   0.798   4.079   1.814
 1735SOL     OW 6103   3.376   5.676   5.956
 1735SOL    HW1 6104   3.306   5.704   5.890
 1735SOL    HW2 6105   3.422   5.594   5.923
 1736SOL     OW 6106   4.581   1.994   5.671
 1736SOL    HW1 6107   4.483   2.007   5.660
 1736SOL    HW2 6108   4.630   2.074   5.636
 1737SOL     OW 6109   2.374   1.152   6.481
 1737SOL    HW1 6110   2.437   1.225   6.457
 1737SOL    HW2 6111   2.425   1.069   6.501
 1738SOL     OW 6112   1.228   3.779   2.008
 1738SOL    HW1 6113   1.185   3.709   2.066
 1738SOL    HW2 6114   1.215   3.755   1.912
 1739SOL     OW 6115   4.552   5.309   2.240
 1739SOL    HW1 6116   4.577   5.226   2.289
 1739SOL    HW2 6117   4.633   5.346   2.195
 1740SOL     OW 6118   6.603   2.192   4.648
 1740SOL    HW1 6119   6.513   2.195   4.692
 1740SOL    HW2 6120   6.674   2.181   4.717
 1741SOL     OW 6121   1.147   3.174   4.453
 1741SOL    HW1 6122   1.179   3.195   4.545
 1741SOL    HW2 6123   1.210   3.110   4.409
 1742SOL     OW 6124   6.019   0.199   0.107
 1742SOL    HW1 6125   5.997   0.254   0.026
 1742SOL    HW2 6126   6.053   0.109   0.077
 1743SOL     OW 6127   1.128   2.337   1.724
 1743SOL    HW1 6128   1.209   2.391   1.702
 1743SOL    HW2 6129   1.154   2.258   1.779
 1744SOL     OW 6130   3.584   1.970   5.506
 1744SOL    HW1 6131   3.677   2.005   5.517
 1744SOL    HW2 6132   3.582   1.872   5.526
 1745SOL     OW 6133   6.236   6.617   0.798
 1745SOL    HW1 6134   6.161   6.558   0.829
 1745SOL    HW2 6135   6.291   6.645   0.877
 1746SOL     OW 6136   2.455   5.319   2.801
 1746SOL    HW1 6137   2.399   5.241   2.831
 1746SOL    HW2 6138   2.518   5.344   2.875
 1747SOL     OW 6139   2.762   6.832   2.037
 1747SOL    HW1 6140   2.719   6.906   1.985
 1747SOL    HW2 6141   2.772   6.860   2.132
 1748SOL     OW 6142   6.934   1.635   3.704
 1748SOL    HW1 6143   6.936   1.733   3.685
 1748SOL    HW2 6144   6.849   1.612   3.750
 1749SOL     OW 6145   6.606   5.119   2.865
 1749SOL    HW1 6146   6.583   5.172   2.784
 1749SOL    HW2 6147   6.527   5.063   2.892
 1750SOL     OW 6148   2.678   1.345   1.350
 1750SOL    HW1 6149   2.621   1.428   1.349
 1750SOL    HW2 6150   2.708   1.325   1.257
 1751SOL     OW 6151   6.252   4.118   4.403
 1751SOL    HW1 6152   6.272   4.213   4.377
 1751SOL    HW2 6153   6.161   4.114   4.445
 1752SOL     OW 6154   6.395   0.716   2.435
 1752SOL    HW1 6155   6.419   0.735   2.340
 1752SOL    HW2 6156   6.353   0.626   2.441
 1753SOL     OW 6157   6.598   1.554   1.254
 1753SOL    HW1 6158   6.569   1.496   1.178
 1753SOL    HW2 6159   6.523   1.614   1.282
 1754SOL     OW 6160   2.196   5.202   3.392
 1754SOL    HW1 6161   2.259   5.134   3.355
 1754SOL    HW2 6162   2.188   5.191   3.491
 1755SOL     OW 6163   5.969   6.353   5.407
 1755SOL    HW1 6164   6.049   6.413   5.402
 1755SOL    HW2 6165   5.946   6.319   5.316
 1756SOL     OW 6166   4.536   6.134   1.585
 1756SOL    HW1 6167   4.513   6.218   1.537
 1756SOL    HW2 6168   4.604   6.153   1.656
 1757SOL     OW 6169   2.636   5.007   4.887
 1757SOL    HW1 6170   2.681   4.929   4.843
 1757SOL    HW2 6171   2.693   5.089   4.877
 1758SOL     OW 6172   0.486   6.509   4.061
 1758SOL    HW1 6173   0.464   6.412   4.048
 1758SOL    HW2 6174   0.405   6.556   4.097
 1759SOL     OW 6175   1.648   5.360   6.181
 1759SOL    HW1 6176   1.665   5.426   6.254
 1759SOL    HW2 6177   1.694   5.391   6.098
 1760SOL     OW 6178   5.995   1.343   4.153
 1760SOL    HW1 6179   6.025   1.399   4.231
 1760SOL    HW2 6180   5.950   1.261   4.186
 1761SOL     OW 6181   5.266   2.367   3.840
 1761SOL    HW1 6182   5.341   2.302   3.826
 1761SOL    HW2 6183   5.283   2.419   3.924
 1762SOL     OW 6184   0.892   1.758   5.821
 1762SOL    HW1 6185   0.869   1.764   5.723
 1762SOL    HW2 6186   0.811   1.778   5.875
 1763SOL     OW 6187   1.489   4.704   3.938
 1763SOL    HW1 6188   1.395   4.703   3.904
 1763SOL    HW2 6189   1.550   4.740   3.868
 1764SOL     OW 6190   0.683   5.666   3.630
 1764SOL    HW1 6191   0.736   5.727   3.572
 1764SOL    HW2 6192   0.594   5.649   3.587
 1765SOL     OW 6193   5.094   3.805   1.993
 1765SOL    HW1 6194   4.996   3.790   2.005
 1765SOL    HW2 6195   5.144   3.730   2.037
 1766SOL     OW 6196   4.177   5.154   3.853
 1766SOL    HW1 6197   4.126   5.169   3.769
 1766SOL    HW2 6198   4.113   5.150   3.930
 1767SOL     OW 6199   1.564   4.078   1.564
 1767SOL    HW1 6200   1.558   4.166   1.611
 1767SOL    HW2 6201   1.626   4.084   1.487
 1768SOL     OW 6202   3.852   4.885   3.136
 1768SOL    HW1 6203   3.758   4.851   3.131
 1768SOL    HW2 6204   3.909   4.820   3.186
 1769SOL     OW 6205   5.179   0.446   0.966
 1769SOL    HW1 6206   5.148   0.400   1.049
 1769SOL    HW2 6207   5.166   0.386   0.887
 1770SOL     OW 6208   2.531   4.670   0.650
 1770SOL    HW1 6209   2.519   4.647   0.747
 1770SOL    HW2 6210   2.468   4.744   0.626
 1771SOL     OW 6211   1.396   3.122   5.976
 1771SOL    HW1 6212   1.359   3.069   6.052
 1771SOL    HW2 6213   1.459   3.191   6.011
 1772SOL     OW 6214   2.732   5.163   2.349
 1772SOL    HW1 6215   2.774   5.108   2.278
 1772SOL    HW2 6216   2.775   5.254   2.351
 1773SOL     OW 6217   2.318   6.400   4.666
 1773SOL    HW1 6218   2.222   6.395   4.694
 1773SOL    HW2 6219   2.371   6.332   4.717
 1774SOL     OW 6220   5.649   5.577   1.617
 1774SOL    HW1 6221   5.557   5.606   1.591
 1774SOL    HW2 6222   5.716   5.640   1.577
 1775SOL     OW 6223   1.803   6.741   0.950
 1775SOL    HW1 6224   1.894   6.700   0.952
 1775SOL    HW2 6225   1.773   6.760   1.044
 1776SOL     OW 6226   4.901   3.304   6.389
 1776SOL    HW1 6227   4.924   3.365   6.464
 1776SOL    HW2 6228   4.977   3.299   6.325
 1777SOL     OW 6229   4.685   5.214   6.796
 1777SOL    HW1 6230   4.655   5.166   6.714
 1777SOL    HW2 6231   4.778   5.248   6.783
 1778SOL     OW 6232   7.019   0.744   3.342
 1778SOL    HW1 6233   7.009   0.645   3.347
 1778SOL    HW2 6234   7.020   0.773   3.246
 1779SOL     OW 6235   6.755   0.229   4.408
 1779SOL    HW1 6236   6.766   0.266   4.500
 1779SOL    HW2 6237   6.665   0.255   4.372
 1780SOL     OW 6238   2.749   6.703   4.297
 1780SOL    HW1 6239   2.818   6.717   4.226
 1780SOL    HW2 6240   2.751   6.780   4.361
 1781SOL     OW 6241   5.035   1.377   6.310
 1781SOL    HW1 6242   5.103   1.303   6.313
 1781SOL    HW2 6243   5.020   1.404   6.215
 1782SOL     OW 6244   4.935   0.339   2.457
 1782SOL    HW1 6245   4.908   0.422   2.408
 1782SOL    HW2 6246   4.854   0.281   2.472
 1783SOL     OW 6247   1.790   3.264   0.131
 1783SOL    HW1 6248   1.746   3.334   0.188
 1783SOL    HW2 6249   1.732   3.244   0.053
 1784SOL     OW 6250   2.318   5.662   1.446
 1784SOL    HW1 6251   2.286   5.753   1.418
 1784SOL    HW2 6252   2.242   5.610   1.483
 1785SOL     OW 6253   1.912   5.077   4.249
 1785SOL    HW1 6254   1.903   5.170   4.213
 1785SOL    HW2 6255   1.999   5.069   4.298
 1786SOL     OW 6256   0.410   5.633   2.288
 1786SOL    HW1 6257   0.386   5.575   2.209
 1786SOL    HW2 6258   0.503   5.668   2.276
 1787SOL     OW 6259   2.769   2.640   6.333
 1787SOL    HW1 6260   2.794   2.614   6.240
 1787SOL    HW2 6261   2.686   2.695   6.330
 1788SOL     OW 6262   3.684   4.230   0.477
 1788SOL    HW1 6263   3.683   4.207   0.380
 1788SOL    HW2 6264   3.673   4.146   0.531
 1789SOL     OW 6265   5.671   2.782   2.364
 1789SOL    HW1 6266   5.659   2.824   2.274
 1789SOL    HW2 6267   5.764   2.747   2.373
 1790SOL     OW 6268   2.628   1.822   5.028
 1790SOL    HW1 6269   2.589   1.870   4.949
 1790SOL    HW2 6270   2.561   1.817   5.101
 1791SOL     OW 6271   6.462   0.257   3.476
 1791SOL    HW1 6272   6.436   0.242   3.380
 1791SOL    HW2 6273   6.502   0.173   3.513
 1792SOL     OW 6274   6.896   2.825   6.068
 1792SOL    HW1 6275   6.855   2.871   5.989
 1792SOL    HW2 6276   6.829   2.818   6.141
 1793SOL     OW 6277   0.474   1.444   5.068
 1793SOL    HW1 6278   0.399   1.508   5.087
 1793SOL    HW2 6279   0.452   1.355   5.107
 1794SOL     OW 6280   6.465   1.832   6.665
 1794SOL    HW1 6281   6.433   1.919   6.701
 1794SOL    HW2 6282   6.495   1.844   6.570
 1795SOL     OW 6283   5.507   4.386   0.749
 1795SOL    HW1 6284   5.607   4.382   0.761
 1795SOL    HW2 6285   5.486   4.419   0.657
 1796SOL     OW 6286   6.253   0.349   6.915
 1796SOL    HW1 6287   6.300   0.332   7.002
 1796SOL    HW2 6288   6.165   0.393   6.932
 1797SOL     OW 6289   3.262   6.359   5.554
 1797SOL    HW1 6290   3.272   6.268   5.515
 1797SOL    HW2 6291   3.165   6.380   5.568
 1798SOL     OW 6292   2.593   3.769   6.930
 1798SOL    HW1 6293   2.513   3.778   6.871
 1798SOL    HW2 6294   2.606   3.673   6.954
 1799SOL     OW 6295   3.273   1.711   2.049
 1799SOL    HW1 6296   3.177   1.727   2.070
 1799SOL    HW2 6297   3.282   1.672   1.957
 1800SOL     OW 6298   5.742   2.235   5.659
 1800SOL    HW1 6299   5.656   2.274   5.625
 1800SOL    HW2 6300   5.811   2.238   5.587
 1801SOL     OW 6301   0.865   1.810   2.198
 1801SOL    HW1 6302   0.945   1.786   2.143
 1801SOL    HW2 6303   0.795   1.850   2.139
 1802SOL     OW 6304   6.202   4.644   4.619
 1802SOL    HW1 6305   6.233   4.666   4.527
 1802SOL    HW2 6306   6.272   4.669   4.686
 1803SOL     OW 6307   7.002   6.251   3.823
 1803SOL    HW1 6308   6.984   6.273   3.919
 1803SOL    HW2 6309   0.004   6.334   3.774
 1804SOL     OW 6310   0.847   3.113   6.281
 1804SOL    HW1 6311   0.900   3.049   6.336
 1804SOL    HW2 6312   0.891   3.203   6.284
 1805SOL     OW 6313   6.373   4.844   5.810
 1805SOL    HW1 6314   6.381   4.908   5.733
 1805SOL    HW2 6315   6.295   4.783   5.794
 1806SOL     OW 6316   0.325   1.222   1.336
 1806SOL    HW1 6317   0.381   1.175   1.268
 1806SOL    HW2 6318   0.313   1.318   1.310
 1807SOL     OW 6319   6.169   2.462   2.271
 1807SOL    HW1 6320   6.141   2.536   2.209
 1807SOL    HW2 6321   6.091   2.402   2.288
 1808SOL     OW 6322   6.596   0.444   6.890
 1808SOL    HW1 6323   6.509   0.490   6.869
 1808SOL    HW2 6324   6.646   0.497   6.957
 1809SOL     OW 6325   4.434   0.380   5.008
 1809SOL    HW1 6326   4.455   0.471   5.043
 1809SOL    HW2 6327   4.381   0.387   4.923
 1810SOL     OW 6328   1.274   1.623   5.130
 1810SOL    HW1 6329   1.330   1.554   5.084
 1810SOL    HW2 6330   1.303   1.631   5.225
 1811SOL     OW 6331   3.698   5.235   1.880
 1811SOL    HW1 6332   3.725   5.331   1.872
 1811SOL    HW2 6333   3.721   5.187   1.795
 1812SOL     OW 6334   4.319   1.025   6.622
 1812SOL    HW1 6335   4.401   1.064   6.663
 1812SOL    HW2 6336   4.238   1.052   6.675
 1813SOL     OW 6337   5.916   3.700   1.768
 1813SOL    HW1 6338   5.861   3.741   1.695
 1813SOL    HW2 6339   5.859   3.682   1.847
 1814SOL     OW 6340   6.446   5.726   0.983
 1814SOL    HW1 6341   6.495   5.812   0.966
 1814SOL    HW2 6342   6.491   5.652   0.933
 1815SOL     OW 6343   6.133   5.481   1.509
 1815SOL    HW1 6344   6.124   5.383   1.490
 1815SOL    HW2 6345   6.062   5.510   1.573
 1816SOL     OW 6346   3.334   4.947   4.655
 1816SOL    HW1 6347   3.355   4.936   4.752
 1816SOL    HW2 6348   3.418   4.948   4.602
 1817SOL     OW 6349   6.671   2.583   3.617
 1817SOL    HW1 6350   6.615   2.665   3.608
 1817SOL    HW2 6351   6.706   2.576   3.710
 1818SOL     OW 6352   2.331   1.823   0.419
 1818SOL    HW1 6353   2.431   1.819   0.429
 1818SOL    HW2 6354   2.302   1.919   0.418
 1819SOL     OW 6355   0.980   3.417   1.120
 1819SOL    HW1 6356   0.941   3.488   1.178
 1819SOL    HW2 6357   0.934   3.417   1.031
 1820SOL     OW 6358   4.142   6.637   4.882
 1820SOL    HW1 6359   4.112   6.708   4.946
 1820SOL    HW2 6360   4.241   6.626   4.888
 1821SOL     OW 6361   3.638   1.290   2.399
 1821SOL    HW1 6362   3.652   1.378   2.353
 1821SOL    HW2 6363   3.707   1.277   2.470
 1822SOL     OW 6364   2.160   4.097   4.655
 1822SOL    HW1 6365   2.166   4.066   4.749
 1822SOL    HW2 6366   2.183   4.021   4.593
 1823SOL     OW 6367   4.235   6.905   3.625
 1823SOL    HW1 6368   4.226   6.895   3.724
 1823SOL    HW2 6369   4.158   6.959   3.590
 1824SOL     OW 6370   4.662   2.636   1.746
 1824SOL    HW1 6371   4.641   2.634   1.844
 1824SOL    HW2 6372   4.580   2.614   1.694
 1825SOL     OW 6373   1.363   3.834   0.312
 1825SOL    HW1 6374   1.375   3.914   0.370
 1825SOL    HW2 6375   1.451   3.786   0.302
 1826SOL     OW 6376   3.881   3.228   0.205
 1826SOL    HW1 6377   3.895   3.208   0.302
 1826SOL    HW2 6378   3.810   3.168   0.168
 1827SOL     OW 6379   5.289   4.630   0.705
 1827SOL    HW1 6380   5.312   4.607   0.799
 1827SOL    HW2 6381   5.364   4.602   0.644
 1828SOL     OW 6382   2.366   5.488   5.209
 1828SOL    HW1 6383   2.268   5.496   5.190
 1828SOL    HW2 6384   2.381   5.420   5.281
 1829SOL     OW 6385   1.670   6.362   2.384
 1829SOL    HW1 6386   1.680   6.439   2.447
 1829SOL    HW2 6387   1.731   6.288   2.412
 1830SOL     OW 6388   4.375   1.434   6.509
 1830SOL    HW1 6389   4.444   1.425   6.580
 1830SOL    HW2 6390   4.285   1.446   6.551
 1831SOL     OW 6391   3.545   4.493   0.029
 1831SOL    HW1 6392   3.501   4.404   0.019
 1831SOL    HW2 6393   3.643   4.484   0.012
 1832SOL     OW 6394   2.121   2.761   5.898
 1832SOL    HW1 6395   2.117   2.799   5.805
 1832SOL    HW2 6396   2.042   2.793   5.950
 1833SOL     OW 6397   5.766   1.528   0.678
 1833SOL    HW1 6398   5.693   1.557   0.615
 1833SOL    HW2 6399   5.854   1.535   0.632
 1834SOL     OW 6400   2.029   4.079   6.547
 1834SOL    HW1 6401   1.976   4.130   6.480
 1834SOL    HW2 6402   1.987   3.990   6.564
 1835SOL     OW 6403   6.203   0.035   0.001
 1835SOL    HW1 6404   6.255   0.121   0.002
 1835SOL    HW2 6405   6.267   6.981   0.005
 1836SOL     OW 6406   5.765   1.194   4.526
 1836SOL    HW1 6407   5.692   1.198   4.594
 1836SOL    HW2 6408   5.755   1.271   4.463
 1837SOL     OW 6409   1.327   2.138   1.188
 1837SOL    HW1 6410   1.339   2.179   1.279
 1837SOL    HW2 6411   1.401   2.074   1.170
 1838SOL     OW 6412   5.240   0.593   0.534
 1838SOL    HW1 6413   5.260   0.592   0.632
 1838SOL    HW2 6414   5.214   0.501   0.504
 1839SOL     OW 6415   6.668   1.865   5.982
 1839SOL    HW1 6416   6.716   1.952   5.973
 1839SOL    HW2 6417   6.587   1.865   5.923
 1840SOL     OW 6418   2.757   6.824   5.629
 1840SOL    HW1 6419   2.742   6.910   5.677
 1840SOL    HW2 6420   2.843   6.828   5.578
 1841SOL     OW 6421   2.539   0.073   2.064
 1841SOL    HW1 6422   2.491   0.141   2.008
 1841SOL    HW2 6423   2.627   0.051   2.021
 1842SOL     OW 6424   6.702   4.468   1.853
 1842SOL    HW1 6425   6.663   4.469   1.761
 1842SOL    HW2 6426   6.743   4.379   1.871
 1843SOL     OW 6427   2.697   0.899   6.757
 1843SOL    HW1 6428   2.793   0.924   6.753
 1843SOL    HW2 6429   2.678   0.852   6.844
 1844SOL     OW 6430   4.887   3.409   0.783
 1844SOL    HW1 6431   4.905   3.480   0.850
 1844SOL    HW2 6432   4.972   3.360   0.762
 1845SOL     OW 6433   0.780   2.821   4.490
 1845SOL    HW1 6434   0.850   2.809   4.560
 1845SOL    HW2 6435   0.762   2.919   4.477
 1846SOL     OW 6436   3.883   1.689   2.489
 1846SOL    HW1 6437   3.906   1.745   2.568
 1846SOL    HW2 6438   3.814   1.621   2.515
 1847SOL     OW 6439   3.438   5.970   6.661
 1847SOL    HW1 6440   3.479   6.059   6.643
 1847SOL    HW2 6441   3.339   5.979   6.669
 1848SOL     OW 6442   3.166   5.858   4.681
 1848SOL    HW1 6443   3.123   5.862   4.591
 1848SOL    HW2 6444   3.170   5.763   4.712
 1849SOL     OW 6445   4.678   2.681   2.369
 1849SOL    HW1 6446   4.700   2.768   2.325
 1849SOL    HW2 6447   4.724   2.676   2.457
 1850SOL     OW 6448   5.015   1.492   1.100
 1850SOL    HW1 6449   4.975   1.422   1.159
 1850SOL    HW2 6450   4.957   1.505   1.020
 1851SOL     OW 6451   0.940   4.982   3.782
 1851SOL    HW1 6452   0.939   5.034   3.867
 1851SOL    HW2 6453   0.923   5.044   3.705
 1852SOL     OW 6454   0.600   0.016   3.516
 1852SOL    HW1 6455   0.624   0.091   3.455
 1852SOL    HW2 6456   0.526   0.045   3.577
 1853SOL     OW 6457   0.872   1.863   5.523
 1853SOL    HW1 6458   0.772   1.865   5.525
 1853SOL    HW2 6459   0.903   1.834   5.432
 1854SOL     OW 6460   0.500   6.860   4.298
 1854SOL    HW1 6461   0.441   6.887   4.221
 1854SOL    HW2 6462   0.594   6.888   4.278
 1855SOL     OW 6463   6.822   1.353   5.219
 1855SOL    HW1 6464   6.766   1.412   5.277
 1855SOL    HW2 6465   6.830   1.394   5.128
 1856SOL     OW 6466   5.151   3.870   6.426
 1856SOL    HW1 6467   5.149   3.773   6.401
 1856SOL    HW2 6468   5.224   3.916   6.374
 1857SOL     OW 6469   4.675   0.833   6.590
 1857SOL    HW1 6470   4.610   0.905   6.568
 1857SOL    HW2 6471   4.761   0.849   6.542
 1858SOL     OW 6472   5.404   2.136   4.328
 1858SOL    HW1 6473   5.346   2.118   4.407
 1858SOL    HW2 6474   5.355   2.109   4.244
 1859SOL     OW 6475   6.049   6.327   2.818
 1859SOL    HW1 6476   5.964   6.276   2.835
 1859SOL    HW2 6477   6.029   6.407   2.762
 1860SOL     OW 6478   2.333   0.926   0.340
 1860SOL    HW1 6479   2.395   0.853   0.311
 1860SOL    HW2 6480   2.241   0.887   0.355
 1861SOL     OW 6481   6.600   7.012   5.246
 1861SOL    HW1 6482   6.509   7.000   5.286
 1861SOL    HW2 6483   6.666   0.010   5.318
 1862SOL     OW 6484   3.808   5.178   5.137
 1862SOL    HW1 6485   3.903   5.207   5.150
 1862SOL    HW2 6486   3.747   5.239   5.188
 1863SOL     OW 6487   6.849   1.110   1.471
 1863SOL    HW1 6488   6.817   1.051   1.397
 1863SOL    HW2 6489   6.922   1.063   1.522
 1864SOL     OW 6490   2.103   6.170   2.819
 1864SOL    HW1 6491   2.197   6.200   2.838
 1864SOL    HW2 6492   2.064   6.130   2.902
 1865SOL     OW 6493   6.139   2.687   5.820
 1865SOL    HW1 6494   6.094   2.599   5.809
 1865SOL    HW2 6495   6.161   2.725   5.730
 1866SOL     OW 6496   0.444   3.887   5.402
 1866SOL    HW1 6497   0.352   3.858   5.428
 1866SOL    HW2 6498   0.510   3.817   5.427
 1867SOL     OW 6499   1.482   0.989   1.243
 1867SOL    HW1 6500   1.544   0.936   1.185
 1867SOL    HW2 6501   1.404   1.021   1.188
 1868SOL     OW 6502   5.568   3.511   5.796
 1868SOL    HW1 6503   5.638   3.511   5.724
 1868SOL    HW2 6504   5.565   3.601   5.840
 1869SOL     OW 6505   5.125   0.428   5.032
 1869SOL    HW1 6506   5.129   0.527   5.047
 1869SOL    HW2 6507   5.152   0.407   4.938
 1870SOL     OW 6508   5.587   0.934   5.613
 1870SOL    HW1 6509   5.517   0.892   5.671
 1870SOL    HW2 6510   5.676   0.895   5.635
 1871SOL     OW 6511   2.610   4.856   7.012
 1871SOL    HW1 6512   2.537   4.922   0.010
 1871SOL    HW2 6513   2.694   4.884   0.034
 1872SOL     OW 6514   2.583   3.262   0.524
 1872SOL    HW1 6515   2.649   3.293   0.455
 1872SOL    HW2 6516   2.532   3.184   0.490
 1873SOL     OW 6517   6.176   1.416   2.100
 1873SOL    HW1 6518   6.175   1.349   2.173
 1873SOL    HW2 6519   6.113   1.491   2.121
 1874SOL     OW 6520   2.190   5.379   6.249
 1874SOL    HW1 6521   2.167   5.303   6.309
 1874SOL    HW2 6522   2.288   5.380   6.232
 1875SOL     OW 6523   1.383   6.326   2.315
 1875SOL    HW1 6524   1.469   6.347   2.361
 1875SOL    HW2 6525   1.326   6.269   2.374
 1876SOL     OW 6526   0.939   4.932   5.942
 1876SOL    HW1 6527   0.847   4.947   5.905
 1876SOL    HW2 6528   0.993   4.878   5.878
 1877SOL     OW 6529   0.430   0.931   3.537
 1877SOL    HW1 6530   0.392   0.970   3.454
 1877SOL    HW2 6531   0.358   0.881   3.586
 1878SOL     OW 6532   6.043   4.083   4.099
 1878SOL    HW1 6533   6.016   4.169   4.143
 1878SOL    HW2 6534   6.027   4.089   4.001
 1879SOL     OW 6535   4.117   6.192   5.708
 1879SOL    HW1 6536   4.162   6.108   5.678
 1879SOL    HW2 6537   4.018   6.177   5.708
 1880SOL     OW 6538   1.723   3.530   4.767
 1880SOL    HW1 6539   1.678   3.442   4.757
 1880SOL    HW2 6540   1.812   3.518   4.811
 1881SOL     OW 6541   2.153   2.402   3.262
 1881SOL    HW1 6542   2.189   2.495   3.264
 1881SOL    HW2 6543   2.227   2.337   3.280
 1882SOL     OW 6544   4.304   6.693   0.438
 1882SOL    HW1 6545   4.295   6.791   0.420
 1882SOL    HW2 6546   4.349   6.680   0.526
 1883SOL     OW 6547   2.143   3.635   2.831
 1883SOL    HW1 6548   2.160   3.575   2.753
 1883SOL    HW2 6549   2.060   3.687   2.816
 1884SOL     OW 6550   4.783   0.671   6.937
 1884SOL    HW1 6551   4.745   0.627   6.856
 1884SOL    HW2 6552   4.709   0.692   7.001
 1885SOL     OW 6553   0.152   1.563   0.848
 1885SOL    HW1 6554   0.074   1.535   0.793
 1885SOL    HW2 6555   0.197   1.642   0.806
 1886SOL     OW 6556   3.657   3.216   4.424
 1886SOL    HW1 6557   3.727   3.238   4.491
 1886SOL    HW2 6558   3.639   3.118   4.425
 1887SOL     OW 6559   0.571   5.841   5.271
 1887SOL    HW1 6560   0.671   5.842   5.274
 1887SOL    HW2 6561   0.535   5.910   5.333
 1888SOL     OW 6562   2.067   1.620   6.129
 1888SOL    HW1 6563   2.159   1.660   6.133
 1888SOL    HW2 6564   2.035   1.602   6.222
 1889SOL     OW 6565   3.540   3.702   0.082
 1889SOL    HW1 6566   3.590   3.738   0.160
 1889SOL    HW2 6567   3.554   3.761   0.002
 1890SOL     OW 6568   5.870   6.585   6.465
 1890SOL    HW1 6569   5.923   6.505   6.493
 1890SOL    HW2 6570   5.836   6.633   6.546
 1891SOL     OW 6571   5.493   3.440   6.751
 1891SOL    HW1 6572   5.511   3.344   6.731
 1891SOL    HW2 6573   5.478   3.490   6.665
 1892SOL     OW 6574   4.286   0.803   3.014
 1892SOL    HW1 6575   4.213   0.734   3.014
 1892SOL    HW2 6576   4.264   0.874   3.081
 1893SOL     OW 6577   2.948   2.035   6.727
 1893SOL    HW1 6578   2.925   2.129   6.700
 1893SOL    HW2 6579   2.985   1.986   6.648
 1894SOL     OW 6580   5.130   3.252   0.800
 1894SOL    HW1 6581   5.158   3.178   0.739
 1894SOL    HW2 6582   5.095   3.213   0.885
 1895SOL     OW 6583   4.650   5.796   3.164
 1895SOL    HW1 6584   4.579   5.726   3.161
 1895SOL    HW2 6585   4.685   5.805   3.257
 1896SOL     OW 6586   7.006   1.372   4.676
 1896SOL    HW1 6587   6.953   1.453   4.652
 1896SOL    HW2 6588   0.015   1.327   4.592
 1897SOL     OW 6589   5.369   5.418   3.258
 1897SOL    HW1 6590   5.298   5.356   3.225
 1897SOL    HW2 6591   5.353   5.509   3.221
 1898SOL     OW 6592   5.434   6.765   0.228
 1898SOL    HW1 6593   5.368   6.740   0.299
 1898SOL    HW2 6594   5.482   6.683   0.196
 1899SOL     OW 6595   2.105   2.764   3.563
 1899SOL    HW1 6596   2.161   2.792   3.640
 1899SOL    HW2 6597   2.143   2.802   3.478
 1900SOL     OW 6598   2.783   5.562   1.378
 1900SOL    HW1 6599   2.861   5.505   1.403
 1900SOL    HW2 6600   2.718   5.565   1.454
 1901SOL     OW 6601   0.580   1.517   5.922
 1901SOL    HW1 6602   0.504   1.452   5.919
 1901SOL    HW2 6603   0.594   1.548   6.016
 1902SOL     OW 6604   1.507   2.608   4.800
 1902SOL    HW1 6605   1.588   2.575   4.850
 1902SOL    HW2 6606   1.450   2.661   4.862
 1903SOL     OW 6607   6.771   5.771   3.725
 1903SOL    HW1 6608   6.728   5.821   3.800
 1903SOL    HW2 6609   6.771   5.829   3.643
 1904SOL     OW 6610   0.792   0.124   4.328
 1904SOL    HW1 6611   0.756   0.207   4.287
 1904SOL    HW2 6612   0.775   0.046   4.268
 1905SOL     OW 6613   5.896   3.417   5.409
 1905SOL    HW1 6614   5.930   3.328   5.379
 1905SOL    HW2 6615   5.972   3.469   5.449
 1906SOL     OW 6616   2.479   6.446   5.686
 1906SOL    HW1 6617   2.477   6.357   5.640
 1906SOL    HW2 6618   2.386   6.485   5.688
 1907SOL     OW 6619   3.922   6.739   3.185
 1907SOL    HW1 6620   4.019   6.759   3.172
 1907SOL    HW2 6621   3.899   6.742   3.282
 1908SOL     OW 6622   5.125   4.854   0.681
 1908SOL    HW1 6623   5.193   4.781   0.681
 1908SOL    HW2 6624   5.086   4.864   0.590
 1909SOL     OW 6625   5.173   5.518   3.538
 1909SOL    HW1 6626   5.115   5.436   3.540
 1909SOL    HW2 6627   5.132   5.589   3.595
 1910SOL     OW 6628   4.991   3.931   4.085
 1910SOL    HW1 6629   5.009   3.930   4.183
 1910SOL    HW2 6630   4.952   3.844   4.057
 1911SOL     OW 6631   0.738   2.391   5.680
 1911SOL    HW1 6632   0.732   2.339   5.765
 1911SOL    HW2 6633   0.735   2.328   5.602
 1912SOL     OW 6634   3.186   6.628   2.551
 1912SOL    HW1 6635   3.124   6.679   2.610
 1912SOL    HW2 6636   3.155   6.533   2.545
 1913SOL     OW 6637   2.845   3.988   6.826
 1913SOL    HW1 6638   2.844   3.961   6.730
 1913SOL    HW2 6639   2.755   3.972   6.866
 1914SOL     OW 6640   4.333   1.382   4.915
 1914SOL    HW1 6641   4.239   1.416   4.915
 1914SOL    HW2 6642   4.349   1.328   4.833
 1915SOL     OW 6643   3.003   6.467   5.553
 1915SOL    HW1 6644   3.003   6.515   5.465
 1915SOL    HW2 6645   2.913   6.427   5.569
 1916SOL     OW 6646   3.414   6.752   2.656
 1916SOL    HW1 6647   3.339   6.689   2.641
 1916SOL    HW2 6648   3.476   6.749   2.577
 1917SOL     OW 6649   3.771   4.021   3.429
 1917SOL    HW1 6650   3.702   4.070   3.482
 1917SOL    HW2 6651   3.861   4.063   3.445
 1918SOL     OW 6652   0.553   6.365   5.583
 1918SOL    HW1 6653   0.538   6.349   5.680
 1918SOL    HW2 6654   0.525   6.458   5.560
 1919SOL     OW 6655   5.545   0.398   2.212
 1919SOL    HW1 6656   5.622   0.395   2.275
 1919SOL    HW2 6657   5.552   0.480   2.154
 1920SOL     OW 6658   6.424   6.151   4.543
 1920SOL    HW1 6659   6.450   6.172   4.637
 1920SOL    HW2 6660   6.424   6.235   4.489
 1921SOL     OW 6661   2.562   6.469   6.799
 1921SOL    HW1 6662   2.623   6.464   6.879
 1921SOL    HW2 6663   2.491   6.536   6.816
 1922SOL     OW 6664   3.794   4.466   6.918
 1922SOL    HW1 6665   3.881   4.457   6.966
 1922SOL    HW2 6666   3.795   4.550   6.863
 1923SOL     OW 6667   1.653   2.857   1.294
 1923SOL    HW1 6668   1.715   2.871   1.217
 1923SOL    HW2 6669   1.677   2.771   1.340
 1924SOL     OW 6670   0.351   3.679   1.225
 1924SOL    HW1 6671   0.274   3.729   1.266
 1924SOL    HW2 6672   0.370   3.716   1.134
 1925SOL     OW 6673   2.862   4.335   0.583
 1925SOL    HW1 6674   2.834   4.279   0.505
 1925SOL    HW2 6675   2.959   4.358   0.574
 1926SOL     OW 6676   0.488   0.703   3.305
 1926SOL    HW1 6677   0.426   0.722   3.229
 1926SOL    HW2 6678   0.436   0.696   3.390
 1927SOL     OW 6679   5.150   3.400   1.431
 1927SOL    HW1 6680   5.088   3.410   1.354
 1927SOL    HW2 6681   5.118   3.455   1.508
 1928SOL     OW 6682   0.204   5.280   4.476
 1928SOL    HW1 6683   0.149   5.364   4.480
 1928SOL    HW2 6684   0.147   5.201   4.496
 1929SOL     OW 6685   0.754   4.771   2.730
 1929SOL    HW1 6686   0.772   4.869   2.740
 1929SOL    HW2 6687   0.656   4.756   2.721
 1930SOL     OW 6688   6.313   5.662   5.747
 1930SOL    HW1 6689   6.254   5.737   5.776
 1930SOL    HW2 6690   6.364   5.689   5.666
 1931SOL     OW 6691   1.984   2.474   4.127
 1931SOL    HW1 6692   1.900   2.487   4.075
 1931SOL    HW2 6693   1.963   2.432   4.216
 1932SOL     OW 6694   6.161   3.295   2.349
 1932SOL    HW1 6695   6.250   3.335   2.331
 1932SOL    HW2 6696   6.089   3.355   2.313
 1933SOL     OW 6697   3.083   5.109   0.276
 1933SOL    HW1 6698   3.061   5.023   0.321
 1933SOL    HW2 6699   3.111   5.092   0.181
 1934SOL     OW 6700   0.228   6.342   2.911
 1934SOL    HW1 6701   0.259   6.431   2.944
 1934SOL    HW2 6702   0.305   6.278   2.907
 1935SOL     OW 6703   1.051   1.262   3.340
 1935SOL    HW1 6704   1.067   1.187   3.275
 1935SOL    HW2 6705   0.958   1.298   3.326
 1936SOL     OW 6706   0.364   5.858   4.913
 1936SOL    HW1 6707   0.381   5.811   4.826
 1936SOL    HW2 6708   0.449   5.863   4.965
 1937SOL     OW 6709   4.703   1.834   3.015
 1937SOL    HW1 6710   4.758   1.767   3.065
 1937SOL    HW2 6711   4.616   1.849   3.062
 1938SOL     OW 6712   5.095   6.973   3.710
 1938SOL    HW1 6713   5.193   6.984   3.694
 1938SOL    HW2 6714   5.053   6.925   3.633
 1939SOL     OW 6715   2.743   0.329   4.479
 1939SOL    HW1 6716   2.840   0.343   4.498
 1939SOL    HW2 6717   2.727   0.234   4.453
 1940SOL     OW 6718   6.145   6.802   6.724
 1940SOL    HW1 6719   6.195   6.751   6.655
 1940SOL    HW2 6720   6.178   6.897   6.727
 1941SOL     OW 6721   4.457   5.023   2.768
 1941SOL    HW1 6722   4.357   5.026   2.763
 1941SOL    HW2 6723   4.495   5.010   2.676
 1942SOL     OW 6724   0.072   3.045   2.815
 1942SOL    HW1 6725   0.057   3.064   2.718
 1942SOL    HW2 6726   0.142   3.106   2.851
 1943SOL     OW 6727   3.424   5.135   3.298
 1943SOL    HW1 6728   3.414   5.228   3.331
 1943SOL    HW2 6729   3.501   5.130   3.235
 1944SOL     OW 6730   6.913   6.273   2.178
 1944SOL    HW1 6731   6.831   6.272   2.235
 1944SOL    HW2 6732   6.934   6.180   2.149
 1945SOL     OW 6733   2.896   4.799   2.902
 1945SOL    HW1 6734   2.934   4.817   2.993
 1945SOL    HW2 6735   2.925   4.870   2.839
 1946SOL     OW 6736   1.485   6.761   6.627
 1946SOL    HW1 6737   1.570   6.810   6.607
 1946SOL    HW2 6738   1.472   6.753   6.726
 1947SOL     OW 6739   4.297   0.593   3.695
 1947SOL    HW1 6740   4.310   0.604   3.596
 1947SOL    HW2 6741   4.332   0.675   3.741
 1948SOL     OW 6742   6.128   2.815   5.306
 1948SOL    HW1 6743   6.056   2.811   5.236
 1948SOL    HW2 6744   6.172   2.726   5.315
 1949SOL     OW 6745   4.908   3.562   6.887
 1949SOL    HW1 6746   4.918   3.607   6.976
 1949SOL    HW2 6747   4.985   3.501   6.871
 1950SOL     OW 6748   2.919   5.233   0.882
 1950SOL    HW1 6749   3.011   5.195   0.892
 1950SOL    HW2 6750   2.918   5.327   0.916
 1951SOL     OW 6751   6.144   2.930   6.914
 1951SOL    HW1 6752   6.146   2.999   6.842
 1951SOL    HW2 6753   6.207   2.956   6.987
 1952SOL     OW 6754   3.128   3.053   4.217
 1952SOL    HW1 6755   3.160   2.964   4.252
 1952SOL    HW2 6756   3.088   3.041   4.126
 1953SOL     OW 6757   0.678   2.167   4.545
 1953SOL    HW1 6758   0.590   2.211   4.528
 1953SOL    HW2 6759   0.678   2.125   4.636
 1954SOL     OW 6760   2.567   1.951   4.379
 1954SOL    HW1 6761   2.521   2.040   4.382
 1954SOL    HW2 6762   2.498   1.878   4.381
 1955SOL     OW 6763   6.489   5.807   2.621
 1955SOL    HW1 6764   6.565   5.765   2.572
 1955SOL    HW2 6765   6.517   5.897   2.655
 1956SOL     OW 6766   4.303   5.790   2.962
 1956SOL    HW1 6767   4.285   5.730   2.885
 1956SOL    HW2 6768   4.248   5.761   3.041
 1957SOL     OW 6769   2.567   6.263   5.116
 1957SOL    HW1 6770   2.660   6.257   5.150
 1957SOL    HW2 6771   2.516   6.332   5.167
 1958SOL     OW 6772   4.085   3.871   6.136
 1958SOL    HW1 6773   4.176   3.909   6.156
 1958SOL    HW2 6774   4.030   3.939   6.088
 1959SOL     OW 6775   2.619   0.251   0.951
 1959SOL    HW1 6776   2.617   0.351   0.946
 1959SOL    HW2 6777   2.711   0.221   0.974
 1960SOL     OW 6778   5.235   5.277   2.638
 1960SOL    HW1 6779   5.137   5.278   2.657
 1960SOL    HW2 6780   5.272   5.186   2.657
 1961SOL     OW 6781   5.544   4.548   5.597
 1961SOL    HW1 6782   5.562   4.477   5.529
 1961SOL    HW2 6783   5.615   4.619   5.589
 1962SOL     OW 6784   0.238   6.673   4.318
 1962SOL    HW1 6785   0.142   6.679   4.343
 1962SOL    HW2 6786   0.294   6.664   4.400
 1963SOL     OW 6787   2.486   1.420   3.789
 1963SOL    HW1 6788   2.545   1.339   3.793
 1963SOL    HW2 6789   2.427   1.422   3.870
 1964SOL     OW 6790   6.594   3.081   2.198
 1964SOL    HW1 6791   6.644   2.994   2.194
 1964SOL    HW2 6792   6.624   3.140   2.122
 1965SOL     OW 6793   2.239   0.128   3.513
 1965SOL    HW1 6794   2.283   0.057   3.458
 1965SOL    HW2 6795   2.184   0.187   3.454
 1966SOL     OW 6796   6.941   6.594   6.877
 1966SOL    HW1 6797   7.003   6.540   6.820
 1966SOL    HW2 6798   6.879   6.646   6.818
 1967SOL     OW 6799   5.906   2.678   4.756
 1967SOL    HW1 6800   6.001   2.706   4.771
 1967SOL    HW2 6801   5.862   2.743   4.693
 1968SOL     OW 6802   4.300   5.699   4.962
 1968SOL    HW1 6803   4.314   5.763   4.887
 1968SOL    HW2 6804   4.253   5.745   5.037
 1969SOL     OW 6805   6.473   0.645   1.486
 1969SOL    HW1 6806   6.555   0.661   1.433
 1969SOL    HW2 6807   6.397   0.698   1.449
 1970SOL     OW 6808   1.746   1.059   4.031
 1970SOL    HW1 6809   1.771   1.085   4.124
 1970SOL    HW2 6810   1.646   1.065   4.020
 1971SOL     OW 6811   6.943   1.377   5.872
 1971SOL    HW1 6812   6.932   1.463   5.922
 1971SOL    HW2 6813   6.921   1.392   5.775
 1972SOL     OW 6814   1.287   6.929   3.769
 1972SOL    HW1 6815   1.350   6.953   3.694
 1972SOL    HW2 6816   1.260   7.013   3.816
 1973SOL     OW 6817   2.941   3.021   0.325
 1973SOL    HW1 6818   2.873   3.045   0.394
 1973SOL    HW2 6819   2.973   3.104   0.279
 1974SOL     OW 6820   6.414   6.328   4.163
 1974SOL    HW1 6821   6.372   6.418   4.163
 1974SOL    HW2 6822   6.487   6.325   4.095
 1975SOL     OW 6823   2.626   7.007   3.693
 1975SOL    HW1 6824   2.660   0.059   3.749
 1975SOL    HW2 6825   2.689   6.991   3.617
 1976SOL     OW 6826   6.482   4.612   5.917
 1976SOL    HW1 6827   6.449   4.705   5.905
 1976SOL    HW2 6828   6.405   4.550   5.930
 1977SOL     OW 6829   3.325   2.121   5.169
 1977SOL    HW1 6830   3.248   2.184   5.161
 1977SOL    HW2 6831   3.292   2.028   5.185
 1978SOL     OW 6832   6.779   2.217   4.887
 1978SOL    HW1 6833   6.776   2.287   4.959
 1978SOL    HW2 6834   6.868   2.220   4.842
 1979SOL     OW 6835   6.890   3.861   2.321
 1979SOL    HW1 6836   6.906   3.828   2.414
 1979SOL    HW2 6837   6.856   3.955   2.325
 1980SOL     OW 6838   2.652   0.747   2.783
 1980SOL    HW1 6839   2.715   0.824   2.786
 1980SOL    HW2 6840   2.683   0.680   2.715
 1981SOL     OW 6841   5.783   3.312   2.030
 1981SOL    HW1 6842   5.797   3.340   1.935
 1981SOL    HW2 6843   5.862   3.260   2.062
 1982SOL     OW 6844   0.190   0.105   5.547
 1982SOL    HW1 6845   0.125   0.098   5.471
 1982SOL    HW2 6846   0.237   0.017   5.559
 1983SOL     OW 6847   0.851   4.643   1.597
 1983SOL    HW1 6848   0.882   4.562   1.547
 1983SOL    HW2 6849   0.767   4.678   1.556
 1984SOL     OW 6850   4.341   0.730   5.350
 1984SOL    HW1 6851   4.386   0.710   5.437
 1984SOL    HW2 6852   4.352   0.827   5.328
 1985SOL     OW 6853   1.261   5.494   1.634
 1985SOL    HW1 6854   1.226   5.416   1.685
 1985SOL    HW2 6855   1.331   5.541   1.688
 1986SOL     OW 6856   6.833   2.665   0.543
 1986SOL    HW1 6857   6.810   2.573   0.512
 1986SOL    HW2 6858   6.848   2.664   0.642
 1987SOL     OW 6859   2.799   3.328   0.360
 1987SOL    HW1 6860   2.776   3.423   0.342
 1987SOL    HW2 6861   2.886   3.323   0.409
 1988SOL     OW 6862   4.991   3.144   1.033
 1988SOL    HW1 6863   4.991   3.052   1.071
 1988SOL    HW2 6864   4.904   3.162   0.988
 1989SOL     OW 6865   2.401   2.519   3.602
 1989SOL    HW1 6866   2.451   2.543   3.685
 1989SOL    HW2 6867   2.355   2.431   3.614
 1990SOL     OW 6868   0.968   0.612   2.913
 1990SOL    HW1 6869   0.950   0.648   2.821
 1990SOL    HW2 6870   0.895   0.549   2.938
 1991SOL     OW 6871   4.638   6.327   2.701
 1991SOL    HW1 6872   4.582   6.309   2.782
 1991SOL    HW2 6873   4.734   6.306   2.722
 1992SOL     OW 6874   2.700   5.070   5.551
 1992SOL    HW1 6875   2.673   5.157   5.590
 1992SOL    HW2 6876   2.800   5.064   5.546
 1993SOL     OW 6877   3.098   3.242   4.421
 1993SOL    HW1 6878   3.020   3.302   4.403
 1993SOL    HW2 6879   3.108   3.177   4.345
 1994SOL     OW 6880   6.770   2.129   2.010
 1994SOL    HW1 6881   6.693   2.147   2.072
 1994SOL    HW2 6882   6.769   2.033   1.984
 1995SOL     OW 6883   3.665   2.083   1.487
 1995SOL    HW1 6884   3.762   2.088   1.510
 1995SOL    HW2 6885   3.619   2.168   1.516
 1996SOL     OW 6886   2.346   4.543   5.220
 1996SOL    HW1 6887   2.412   4.616   5.201
 1996SOL    HW2 6888   2.394   4.457   5.234
 1997SOL     OW 6889   5.829   6.054   4.257
 1997SOL    HW1 6890   5.791   6.090   4.342
 1997SOL    HW2 6891   5.812   5.956   4.251
 1998SOL     OW 6892   2.892   4.912   4.619
 1998SOL    HW1 6893   2.835   4.855   4.678
 1998SOL    HW2 6894   2.970   4.946   4.670
 1999SOL     OW 6895   2.629   1.827   2.162
 1999SOL    HW1 6896   2.640   1.816   2.261
 1999SOL    HW2 6897   2.545   1.879   2.144
 2000SOL     OW 6898   3.043   1.291   4.968
 2000SOL    HW1 6899   3.009   1.356   4.900
 2000SOL    HW2 6900   2.969   1.267   5.031
 2001SOL     OW 6901   2.303   2.544   6.715
 2001SOL    HW1 6902   2.394   2.564   6.752
 2001SOL    HW2 6903   2.305   2.551   6.615
 2002SOL     OW 6904   1.734   4.725   4.748
 2002SOL    HW1 6905   1.638   4.729   4.776
 2002SOL    HW2 6906   1.792   4.725   4.830
 2003SOL     OW 6907   6.277   3.961   3.560
 2003SOL    HW1 6908   6.367   3.963   3.603
 2003SOL    HW2 6909   6.264   3.874   3.513
 2004SOL     OW 6910   3.464   0.174   6.913
 2004SOL    HW1 6911   3.402   0.159   6.836
 2004SOL    HW2 6912   3.411   0.174   6.998
 2005SOL     OW 6913   2.971   6.614   5.283
 2005SOL    HW1 6914   3.043   6.673   5.319
 2005SOL    HW2 6915   2.883   6.641   5.323
 2006SOL     OW 6916   4.639   6.691   3.311
 2006SOL    HW1 6917   4.675   6.784   3.314
 2006SOL    HW2 6918   4.616   6.666   3.217
 2007SOL     OW 6919   6.586   5.766   6.891
 2007SOL    HW1 6920   6.660   5.818   6.849
 2007SOL    HW2 6921   6.621   5.676   6.920
 2008SOL     OW 6922   6.876   5.744   5.593
 2008SOL    HW1 6923   6.837   5.671   5.537
 2008SOL    HW2 6924   6.853   5.833   5.553
 2009SOL     OW 6925   1.179   0.702   0.122
 2009SOL    HW1 6926   1.165   0.603   0.114
 2009SOL    HW2 6927   1.219   0.723   0.211
 2010SOL     OW 6928   2.147   1.040   0.826
 2010SOL    HW1 6929   2.065   0.994   0.793
 2010SOL    HW2 6930   2.211   1.053   0.750
 2011SOL     OW 6931   6.627   1.767   4.709
 2011SOL    HW1 6932   6.563   1.707   4.756
 2011SOL    HW2 6933   6.668   1.831   4.774
 2012SOL     OW 6934   6.850   3.121   1.125
 2012SOL    HW1 6935   6.784   3.083   1.061
 2012SOL    HW2 6936   6.802   3.160   1.204
 2013SOL     OW 6937   3.956   2.222   1.551
 2013SOL    HW1 6938   3.986   2.181   1.637
 2013SOL    HW2 6939   3.901   2.303   1.571
 2014SOL     OW 6940   3.238   5.359   3.105
 2014SOL    HW1 6941   3.244   5.316   3.015
 2014SOL    HW2 6942   3.330   5.362   3.146
 2015SOL     OW 6943   3.421   5.637   0.168
 2015SOL    HW1 6944   3.364   5.685   0.102
 2015SOL    HW2 6945   3.402   5.539   0.163
 2016SOL     OW 6946   5.936   5.595   4.239
 2016SOL    HW1 6947   5.986   5.534   4.178
 2016SOL    HW2 6948   5.854   5.629   4.194
 2017SOL     OW 6949   2.044   5.248   2.193
 2017SOL    HW1 6950   1.957   5.273   2.152
 2017SOL    HW2 6951   2.068   5.155   2.167
 2018SOL     OW 6952   0.586   4.164   5.761
 2018SOL    HW1 6953   0.524   4.176   5.838
 2018SOL    HW2 6954   0.532   4.151   5.677
 2019SOL     OW 6955   5.214   1.091   2.928
 2019SOL    HW1 6956   5.173   1.175   2.963
 2019SOL    HW2 6957   5.220   1.023   3.001
 2020SOL     OW 6958   2.226   5.443   3.254
 2020SOL    HW1 6959   2.204   5.358   3.302
 2020SOL    HW2 6960   2.176   5.519   3.296
 2021SOL     OW 6961   1.709   6.004   1.898
 2021SOL    HW1 6962   1.718   5.975   1.803
 2021SOL    HW2 6963   1.800   6.016   1.939
 2022SOL     OW 6964   3.303   5.595   1.593
 2022SOL    HW1 6965   3.396   5.584   1.560
 2022SOL    HW2 6966   3.294   5.552   1.683
 2023SOL     OW 6967   6.589   2.119   5.402
 2023SOL    HW1 6968   6.514   2.053   5.396
 2023SOL    HW2 6969   6.578   2.174   5.485
 2024SOL     OW 6970   6.059   0.257   3.444
 2024SOL    HW1 6971   6.142   0.263   3.499
 2024SOL    HW2 6972   6.078   0.204   3.361
 2025SOL     OW 6973   6.012   1.079   1.099
 2025SOL    HW1 6974   6.063   1.128   1.170
 2025SOL    HW2 6975   6.030   1.121   1.011
 2026SOL     OW 6976   2.149   1.716   5.123
 2026SOL    HW1 6977   2.109   1.791   5.176
 2026SOL    HW2 6978   2.101   1.707   5.036
 2027SOL     OW 6979   6.834   0.094   1.908
 2027SOL    HW1 6980   6.823   0.180   1.958
 2027SOL    HW2 6981   6.853   0.113   1.812
 2028SOL     OW 6982   3.961   3.903   5.730
 2028SOL    HW1 6983   4.026   3.846   5.780
 2028SOL    HW2 6984   3.936   3.857   5.645
 2029SOL     OW 6985   1.787   0.489   0.439
 2029SOL    HW1 6986   1.781   0.500   0.340
 2029SOL    HW2 6987   1.734   0.408   0.466
 2030SOL     OW 6988   1.914   3.069   2.669
 2030SOL    HW1 6989   1.942   3.165   2.664
 2030SOL    HW2 6990   1.959   3.017   2.597
 2031SOL     OW 6991   6.449   0.185   2.518
 2031SOL    HW1 6992   6.412   0.151   2.605
 2031SOL    HW2 6993   6.460   0.109   2.455
 2032SOL     OW 6994   4.666   5.947   2.144
 2032SOL    HW1 6995   4.743   6.009   2.132
 2032SOL    HW2 6996   4.599   5.989   2.204
 2033SOL     OW 6997   0.312   5.203   6.679
 2033SOL    HW1 6998   0.225   5.157   6.698
 2033SOL    HW2 6999   0.306   5.251   6.592
 2034SOL     OW 7000   2.166   5.480   4.045
 2034SOL    HW1 7001   2.190   5.387   4.016
 2034SOL    HW2 7002   2.179   5.543   3.968
 2035SOL     OW 7003   0.615   2.254   3.604
 2035SOL    HW1 7004   0.699   2.217   3.643
 2035SOL    HW2 7005   0.543   2.184   3.609
 2036SOL     OW 7006   0.564   4.927   0.678
 2036SOL    HW1 7007   0.581   4.829   0.682
 2036SOL    HW2 7008   0.604   4.971   0.759
 2037SOL     OW 7009   0.128   2.236   6.684
 2037SOL    HW1 7010   0.113   2.303   6.610
 2037SOL    HW2 7011   0.214   2.188   6.668
 2038SOL     OW 7012   1.398   6.933   4.661
 2038SOL    HW1 7013   1.303   6.924   4.632
 2038SOL    HW2 7014   1.457   6.882   4.599
 2039SOL     OW 7015   1.243   5.277   1.789
 2039SOL    HW1 7016   1.232   5.265   1.888
 2039SOL    HW2 7017   1.334   5.247   1.762
 2040SOL     OW 7018   3.880   3.607   4.723
 2040SOL    HW1 7019   3.892   3.570   4.631
 2040SOL    HW2 7020   3.969   3.618   4.767
 2041SOL     OW 7021   4.825   2.803   7.015
 2041SOL    HW1 7022   4.877   2.880   6.978
 2041SOL    HW2 7023   4.787   2.749   6.940
 2042SOL     OW 7024   3.124   5.500   0.736
 2042SOL    HW1 7025   3.124   5.578   0.674
 2042SOL    HW2 7026   3.054   5.513   0.806
 2043SOL     OW 7027   4.159   5.972   2.247
 2043SOL    HW1 7028   4.166   5.906   2.172
 2043SOL    HW2 7029   4.144   6.063   2.209
 2044SOL     OW 7030   6.712   0.980   1.996
 2044SOL    HW1 7031   6.650   1.025   2.061
 2044SOL    HW2 7032   6.760   0.905   2.041
 2045SOL     OW 7033   3.246   6.519   6.639
 2045SOL    HW1 7034   3.245   6.614   6.671
 2045SOL    HW2 7035   3.318   6.507   6.571
 2046SOL     OW 7036   5.751   6.775   5.694
 2046SOL    HW1 7037   5.792   6.734   5.613
 2046SOL    HW2 7038   5.796   6.862   5.713
 2047SOL     OW 7039   5.099   3.449   0.514
 2047SOL    HW1 7040   5.102   3.491   0.604
 2047SOL    HW2 7041   5.185   3.401   0.496
 2048SOL     OW 7042   4.647   6.287   5.363
 2048SOL    HW1 7043   4.657   6.279   5.462
 2048SOL    HW2 7044   4.686   6.207   5.318
 2049SOL     OW 7045   4.939   5.277   6.779
 2049SOL    HW1 7046   4.987   5.321   6.855
 2049SOL    HW2 7047   4.930   5.341   6.703
 2050SOL     OW 7048   5.678   0.919   3.437
 2050SOL    HW1 7049   5.643   1.008   3.406
 2050SOL    HW2 7050   5.737   0.933   3.517
 2051SOL     OW 7051   3.186   5.332   1.121
 2051SOL    HW1 7052   3.108   5.381   1.083
 2051SOL    HW2 7053   3.214   5.375   1.207
 2052SOL     OW 7054   2.193   2.694   0.895
 2052SOL    HW1 7055   2.288   2.700   0.866
 2052SOL    HW2 7056   2.178   2.751   0.975
 2053SOL     OW 7057   4.839   1.132   0.930
 2053SOL    HW1 7058   4.897   1.182   0.867
 2053SOL    HW2 7059   4.746   1.128   0.894
 2054SOL     OW 7060   0.646   3.080   0.916
 2054SOL    HW1 7061   0.546   3.087   0.915
 2054SOL    HW2 7062   0.673   2.985   0.904
 2055SOL     OW 7063   6.338   1.237   3.891
 2055SOL    HW1 7064   6.321   1.213   3.796
 2055SOL    HW2 7065   6.252   1.264   3.935
 2056SOL     OW 7066   0.664   6.735   2.519
 2056SOL    HW1 7067   0.701   6.777   2.602
 2056SOL    HW2 7068   0.619   6.805   2.463
 2057SOL     OW 7069   4.923   3.377   3.879
 2057SOL    HW1 7070   4.880   3.304   3.825
 2057SOL    HW2 7071   4.936   3.458   3.822
 2058SOL     OW 7072   0.486   0.761   1.738
 2058SOL    HW1 7073   0.410   0.822   1.715
 2058SOL    HW2 7074   0.509   0.771   1.835
 2059SOL     OW 7075   1.496   0.953   6.636
 2059SOL    HW1 7076   1.401   0.958   6.666
 2059SOL    HW2 7077   1.555   0.989   6.708
 2060SOL     OW 7078   0.251   4.653   2.979
 2060SOL    HW1 7079   0.165   4.630   3.025
 2060SOL    HW2 7080   0.284   4.574   2.928
 2061SOL     OW 7081   1.615   0.859   0.621
 2061SOL    HW1 7082   1.647   0.802   0.545
 2061SOL    HW2 7083   1.598   0.952   0.587
 2062SOL     OW 7084   3.972   0.543   3.927
 2062SOL    HW1 7085   3.918   0.468   3.965
 2062SOL    HW2 7086   3.988   0.612   3.997
 2063SOL     OW 7087   2.464   2.221   1.103
 2063SOL    HW1 7088   2.370   2.197   1.083
 2063SOL    HW2 7089   2.471   2.253   1.197
 2064SOL     OW 7090   1.113   1.976   1.177
 2064SOL    HW1 7091   1.054   2.030   1.117
 2064SOL    HW2 7092   1.189   2.032   1.209
 2065SOL     OW 7093   6.852   2.862   2.732
 2065SOL    HW1 7094   6.806   2.843   2.819
 2065SOL    HW2 7095   6.931   2.921   2.748
 2066SOL     OW 7096   1.321   6.242   3.028
 2066SOL    HW1 7097   1.317   6.328   2.978
 2066SOL    HW2 7098   1.373   6.175   2.975
 2067SOL     OW 7099   0.378   0.690   0.245
 2067SOL    HW1 7100   0.416   0.635   0.320
 2067SOL    HW2 7101   0.384   0.638   0.160
 2068SOL     OW 7102   2.145   2.205   5.023
 2068SOL    HW1 7103   2.068   2.149   4.991
 2068SOL    HW2 7104   2.168   2.178   5.116
 2069SOL     OW 7105   1.328   2.066   2.170
 2069SOL    HW1 7106   1.293   2.156   2.194
 2069SOL    HW2 7107   1.341   2.012   2.253
 2070SOL     OW 7108   6.948   1.415   2.847
 2070SOL    HW1 7109   6.863   1.416   2.901
 2070SOL    HW2 7110   6.938   1.476   2.768
 2071SOL     OW 7111   2.773   6.266   5.537
 2071SOL    HW1 7112   2.756   6.228   5.628
 2071SOL    HW2 7113   2.724   6.212   5.469
 2072SOL     OW 7114   5.318   5.018   2.697
 2072SOL    HW1 7115   5.231   5.031   2.745
 2072SOL    HW2 7116   5.393   5.021   2.763
 2073SOL     OW 7117   3.206   6.749   5.359
 2073SOL    HW1 7118   3.213   6.847   5.342
 2073SOL    HW2 7119   3.281   6.720   5.418
 2074SOL     OW 7120   5.634   2.625   2.919
 2074SOL    HW1 7121   5.689   2.560   2.972
 2074SOL    HW2 7122   5.579   2.575   2.852
 2075SOL     OW 7123   4.120   3.007   5.877
 2075SOL    HW1 7124   4.075   3.083   5.831
 2075SOL    HW2 7125   4.218   3.008   5.855
 2076SOL     OW 7126   5.224   0.307   0.424
 2076SOL    HW1 7127   5.228   0.211   0.450
 2076SOL    HW2 7128   5.183   0.316   0.334
 2077SOL     OW 7129   4.469   0.967   4.099
 2077SOL    HW1 7130   4.423   0.879   4.107
 2077SOL    HW2 7131   4.480   1.007   4.191
 2078SOL     OW 7132   3.950   5.900   3.888
 2078SOL    HW1 7133   3.902   5.944   3.964
 2078SOL    HW2 7134   3.967   5.804   3.909
 2079SOL     OW 7135   6.404   6.710   3.940
 2079SOL    HW1 7136   6.367   6.665   4.021
 2079SOL    HW2 7137   6.474   6.777   3.968
 2080SOL     OW 7138   2.382   1.740   3.504
 2080SOL    HW1 7139   2.423   1.804   3.438
 2080SOL    HW2 7140   2.445   1.728   3.581
 2081SOL     OW 7141   0.986   6.412   4.011
 2081SOL    HW1 7142   0.892   6.380   4.004
 2081SOL    HW2 7143   1.012   6.459   3.927
 2082SOL     OW 7144   4.866   0.871   2.403
 2082SOL    HW1 7145   4.804   0.807   2.448
 2082SOL    HW2 7146   4.812   0.941   2.356
 2083SOL     OW 7147   3.924   4.078   6.080
 2083SOL    HW1 7148   3.861   4.034   6.016
 2083SOL    HW2 7149   3.877   4.097   6.166
 2084SOL     OW 7150   6.803   2.645   3.096
 2084SOL    HW1 7151   6.858   2.728   3.086
 2084SOL    HW2 7152   6.834   2.576   3.032
 2085SOL     OW 7153   6.092   6.701   6.992
 2085SOL    HW1 7154   6.071   6.725   6.898
 2085SOL    HW2 7155   6.020   6.735   0.029
 2086SOL     OW 7156   3.448   4.771   0.016
 2086SOL    HW1 7157   3.537   4.797   0.055
 2086SOL    HW2 7158   3.454   4.678   7.002
 2087SOL     OW 7159   5.396   5.767   3.750
 2087SOL    HW1 7160   5.424   5.686   3.699
 2087SOL    HW2 7161   5.384   5.742   3.846
 2088SOL     OW 7162   2.518   6.611   1.737
 2088SOL    HW1 7163   2.446   6.617   1.807
 2088SOL    HW2 7164   2.601   6.654   1.771
 2089SOL     OW 7165   2.223   1.146   6.883
 2089SOL    HW1 7166   2.250   1.051   6.867
 2089SOL    HW2 7167   2.301   1.198   6.918
 2090SOL     OW 7168   3.212   3.635   3.781
 2090SOL    HW1 7169   3.213   3.559   3.846
 2090SOL    HW2 7170   3.117   3.661   3.762
 2091SOL     OW 7171   2.961   4.136   0.780
 2091SOL    HW1 7172   2.955   4.189   0.864
 2091SOL    HW2 7173   2.897   4.172   0.712
 2092SOL     OW 7174   6.937   6.426   1.173
 2092SOL    HW1 7175   6.957   6.458   1.266
 2092SOL    HW2 7176   6.877   6.492   1.127
 2093SOL     OW 7177   1.436   1.928   1.454
 2093SOL    HW1 7178   1.484   1.880   1.527
 2093SOL    HW2 7179   1.468   1.895   1.365
 2094SOL     OW 7180   6.597   0.329   1.806
 2094SOL    HW1 7181   6.543   0.362   1.729
 2094SOL    HW2 7182   6.645   0.406   1.848
 2095SOL     OW 7183   6.317   4.518   5.356
 2095SOL    HW1 7184   6.332   4.469   5.442
 2095SOL    HW2 7185   6.256   4.596   5.372
 2096SOL     OW 7186   4.742   4.394   3.493
 2096SOL    HW1 7187   4.783   4.345   3.570
 2096SOL    HW2 7188   4.664   4.448   3.525
 2097SOL     OW 7189   6.610   3.743   6.051
 2097SOL    HW1 7190   6.664   3.677   5.998
 2097SOL    HW2 7191   6.530   3.698   6.089
 2098SOL     OW 7192   4.115   0.290   4.222
 2098SOL    HW1 7193   4.211   0.315   4.208
 2098SOL    HW2 7194   4.060   0.373   4.233
 2099SOL     OW 7195   2.775   2.016   3.559
 2099SOL    HW1 7196   2.693   2.061   3.523
 2099SOL    HW2 7197   2.830   1.981   3.483
 2100SOL     OW 7198   4.208   4.775   6.093
 2100SOL    HW1 7199   4.163   4.770   6.182
 2100SOL    HW2 7200   4.251   4.687   6.072
 2101SOL     OW 7201   6.219   0.068   2.004
 2101SOL    HW1 7202   6.200   0.143   2.068
 2101SOL    HW2 7203   6.299   0.091   1.948
 2102SOL     OW 7204   0.410   5.151   1.022
 2102SOL    HW1 7205   0.463   5.231   0.994
 2102SOL    HW2 7206   0.472   5.076   1.044
 2103SOL     OW 7207   3.724   3.470   6.268
 2103SOL    HW1 7208   3.735   3.430   6.178
 2103SOL    HW2 7209   3.758   3.407   6.338
 2104SOL     OW 7210   1.442   4.467   5.829
 2104SOL    HW1 7211   1.413   4.493   5.737
 2104SOL    HW2 7212   1.408   4.375   5.850
 2105SOL     OW 7213   5.790   6.135   2.422
 2105SOL    HW1 7214   5.708   6.170   2.376
 2105SOL    HW2 7215   5.843   6.079   2.358
 2106SOL     OW 7216   5.605   6.409   6.378
 2106SOL    HW1 7217   5.672   6.336   6.363
 2106SOL    HW2 7218   5.642   6.474   6.446
 2107SOL     OW 7219   2.854   5.122   0.395
 2107SOL    HW1 7220   2.857   5.175   0.479
 2107SOL    HW2 7221   2.937   5.139   0.342
 2108SOL     OW 7222   6.169   4.550   6.426
 2108SOL    HW1 7223   6.136   4.627   6.372
 2108SOL    HW2 7224   6.263   4.568   6.456
 2109SOL     OW 7225   5.442   5.371   2.398
 2109SOL    HW1 7226   5.377   5.358   2.473
 2109SOL    HW2 7227   5.421   5.308   2.324
 2110SOL     OW 7228   1.039   4.936   5.506
 2110SOL    HW1 7229   1.020   5.034   5.494
 2110SOL    HW2 7230   0.998   4.884   5.431
 2111SOL     OW 7231   2.063   2.069   6.549
 2111SOL    HW1 7232   2.131   2.014   6.501
 2111SOL    HW2 7233   2.053   2.157   6.503
 2112SOL     OW 7234   5.159   4.113   0.862
 2112SOL    HW1 7235   5.126   4.200   0.826
 2112SOL    HW2 7236   5.252   4.096   0.829
 2113SOL     OW 7237   6.705   1.841   3.109
 2113SOL    HW1 7238   6.673   1.752   3.142
 2113SOL    HW2 7239   6.734   1.896   3.186
 2114SOL     OW 7240   1.629   3.532   0.053
 2114SOL    HW1 7241   1.645   3.622   0.094
 2114SOL    HW2 7242   1.659   3.532   6.981
 2115SOL     OW 7243   4.133   5.508   1.974
 2115SOL    HW1 7244   4.213   5.452   1.998
 2115SOL    HW2 7245   4.125   5.512   1.875
 2116SOL     OW 7246   0.521   3.653   4.231
 2116SOL    HW1 7247   0.561   3.611   4.150
 2116SOL    HW2 7248   0.432   3.612   4.251
 2117SOL     OW 7249   6.989   5.875   5.878
 2117SOL    HW1 7250   7.012   5.857   5.783
 2117SOL    HW2 7251   7.023   5.965   5.905
 2118SOL     OW 7252   0.124   3.048   2.172
 2118SOL    HW1 7253   0.096   2.958   2.137
 2118SOL    HW2 7254   0.214   3.071   2.134
 2119SOL     OW 7255   4.366   6.271   0.374
 2119SOL    HW1 7256   4.329   6.303   0.286
 2119SOL    HW2 7257   4.456   6.313   0.389
 2120SOL     OW 7258   0.016   3.869   2.091
 2120SOL    HW1 7259   0.090   3.925   2.128
 2120SOL    HW2 7260   6.965   3.864   2.157
 2121SOL     OW 7261   0.417   3.806   5.129
 2121SOL    HW1 7262   0.470   3.721   5.126
 2121SOL    HW2 7263   0.425   3.847   5.219
 2122SOL     OW 7264   4.219   4.935   5.325
 2122SOL    HW1 7265   4.290   4.974   5.384
 2122SOL    HW2 7266   4.151   4.889   5.382
 2123SOL     OW 7267   4.710   5.458   3.372
 2123SOL    HW1 7268   4.803   5.493   3.387
 2123SOL    HW2 7269   4.712   5.387   3.302
 2124SOL     OW 7270   2.769   2.317   1.413
 2124SOL    HW1 7271   2.835   2.254   1.371
 2124SOL    HW2 7272   2.796   2.411   1.391
 2125SOL     OW 7273   5.189   6.284   0.643
 2125SOL    HW1 7274   5.222   6.196   0.678
 2125SOL    HW2 7275   5.109   6.269   0.585
 2126SOL     OW 7276   3.048   1.558   1.382
 2126SOL    HW1 7277   3.124   1.549   1.447
 2126SOL    HW2 7278   3.018   1.466   1.354
 2127SOL     OW 7279   5.549   2.745   4.541
 2127SOL    HW1 7280   5.484   2.769   4.469
 2127SOL    HW2 7281   5.516   2.779   4.629
 2128SOL     OW 7282   0.397   3.693   4.675
 2128SOL    HW1 7283   0.430   3.611   4.628
 2128SOL    HW2 7284   0.419   3.774   4.622
 2129SOL     OW 7285   4.544   2.215   5.095
 2129SOL    HW1 7286   4.606   2.150   5.140
 2129SOL    HW2 7287   4.597   2.277   5.038
 2130SOL     OW 7288   4.836   7.018   3.471
 2130SOL    HW1 7289   4.836   0.011   3.570
 2130SOL    HW2 7290   4.781   0.064   3.425
 2131SOL     OW 7291   5.151   1.965   6.599
 2131SOL    HW1 7292   5.167   2.062   6.616
 2131SOL    HW2 7293   5.132   1.950   6.502
 2132SOL     OW 7294   2.005   3.743   0.885
 2132SOL    HW1 7295   1.983   3.836   0.913
 2132SOL    HW2 7296   1.935   3.680   0.919
 2133SOL     OW 7297   2.227   4.375   6.449
 2133SOL    HW1 7298   2.295   4.435   6.406
 2133SOL    HW2 7299   2.175   4.427   6.516
 2134SOL     OW 7300   0.060   6.862   0.434
 2134SOL    HW1 7301   0.030   6.805   0.357
 2134SOL    HW2 7302   0.159   6.873   0.431
 2135SOL     OW 7303   6.516   5.009   5.530
 2135SOL    HW1 7304   6.513   4.916   5.493
 2135SOL    HW2 7305   6.586   5.015   5.600
 2136SOL     OW 7306   1.361   5.663   6.858
 2136SOL    HW1 7307   1.305   5.712   6.791
 2136SOL    HW2 7308   1.415   5.729   6.910
 2137SOL     OW 7309   1.537   6.401   3.877
 2137SOL    HW1 7310   1.611   6.429   3.937
 2137SOL    HW2 7311   1.460   6.464   3.887
 2138SOL     OW 7312   5.160   2.081   1.539
 2138SOL    HW1 7313   5.080   2.122   1.496
 2138SOL    HW2 7314   5.141   1.987   1.565
 2139SOL     OW 7315   3.307   6.081   5.472
 2139SOL    HW1 7316   3.309   5.989   5.434
 2139SOL    HW2 7317   3.399   6.105   5.504
 2140SOL     OW 7318   2.169   2.145   3.464
 2140SOL    HW1 7319   2.148   2.228   3.515
 2140SOL    HW2 7320   2.246   2.161   3.402
 2141SOL     OW 7321   6.634   3.195   3.198
 2141SOL    HW1 7322   6.628   3.220   3.101
 2141SOL    HW2 7323   6.643   3.096   3.207
 2142SOL     OW 7324   1.782   2.507   2.165
 2142SOL    HW1 7325   1.877   2.506   2.197
 2142SOL    HW2 7326   1.734   2.585   2.206
 2143SOL     OW 7327   6.716   5.591   5.427
 2143SOL    HW1 7328   6.714   5.522   5.499
 2143SOL    HW2 7329   6.670   5.554   5.346
 2144SOL     OW 7330   6.508   4.622   2.713
 2144SOL    HW1 7331   6.493   4.642   2.616
 2144SOL    HW2 7332   6.421   4.627   2.762
 2145SOL     OW 7333   4.269   1.416   2.837
 2145SOL    HW1 7334   4.360   1.400   2.875
 2145SOL    HW2 7335   4.270   1.393   2.739
 2146SOL     OW 7336   1.891   1.702   6.672
 2146SOL    HW1 7337   1.835   1.717   6.753
 2146SOL    HW2 7338   1.876   1.776   6.606
 2147SOL     OW 7339   6.028   6.820   4.925
 2147SOL    HW1 7340   5.978   6.859   5.003
 2147SOL    HW2 7341   5.963   6.779   4.861
 2148SOL     OW 7342   1.128   2.249   4.969
 2148SOL    HW1 7343   1.226   2.231   4.976
 2148SOL    HW2 7344   1.086   2.184   4.905
 2149SOL     OW 7345   0.335   6.486   0.168
 2149SOL    HW1 7346   0.280   6.518   0.244
 2149SOL    HW2 7347   0.311   6.537   0.085
 2150SOL     OW 7348   1.480   2.520   0.603
 2150SOL    HW1 7349   1.495   2.602   0.547
 2150SOL    HW2 7350   1.566   2.496   0.648
 2151SOL     OW 7351   0.814   4.790   6.725
 2151SOL    HW1 7352   0.821   4.702   6.773
 2151SOL    HW2 7353   0.894   4.803   6.667
 2152SOL     OW 7354   5.105   6.118   4.261
 2152SOL    HW1 7355   5.041   6.042   4.255
 2152SOL    HW2 7356   5.198   6.085   4.254
 2153SOL     OW 7357   4.780   6.975   4.044
 2153SOL    HW1 7358   4.793   6.992   3.947
 2153SOL    HW2 7359   4.804   6.879   4.064
 2154SOL     OW 7360   2.599   6.772   2.781
 2154SOL    HW1 7361   2.530   6.704   2.757
 2154SOL    HW2 7362   2.556   6.847   2.830
 2155SOL     OW 7363   4.579   0.790   1.293
 2155SOL    HW1 7364   4.595   0.880   1.252
 2155SOL    HW2 7365   4.603   0.719   1.227
 2156SOL     OW 7366   5.912   2.092   5.349
 2156SOL    HW1 7367   5.911   1.992   5.338
 2156SOL    HW2 7368   5.886   2.135   5.263
 2157SOL     OW 7369   4.143   6.179   3.896
 2157SOL    HW1 7370   4.117   6.223   3.810
 2157SOL    HW2 7371   4.127   6.080   3.889
 2158SOL     OW 7372   2.626   6.822   0.791
 2158SOL    HW1 7373   2.550   6.782   0.842
 2158SOL    HW2 7374   2.617   6.798   0.695
 2159SOL     OW 7375   0.021   1.228   5.531
 2159SOL    HW1 7376   0.031   1.183   5.620
 2159SOL    HW2 7377   6.965   1.191   5.483
 2160SOL     OW 7378   5.505   7.004   6.762
 2160SOL    HW1 7379   5.475   6.914   6.732
 2160SOL    HW2 7380   5.527   7.001   6.859
 2161SOL     OW 7381   1.719   3.872   0.537
 2161SOL    HW1 7382   1.779   3.804   0.494
 2161SOL    HW2 7383   1.744   3.883   0.633
 2162SOL     OW 7384   1.599   0.208   0.464
 2162SOL    HW1 7385   1.543   0.125   0.464
 2162SOL    HW2 7386   1.589   0.255   0.376
 2163SOL     OW 7387   1.200   2.955   4.039
 2163SOL    HW1 7388   1.108   2.988   4.061
 2163SOL    HW2 7389   1.231   2.894   4.112
 2164SOL     OW 7390   2.314   4.221   1.922
 2164SOL    HW1 7391   2.306   4.293   1.991
 2164SOL    HW2 7392   2.410   4.215   1.892
 2165SOL     OW 7393   5.968   1.209   5.112
 2165SOL    HW1 7394   5.894   1.220   5.178
 2165SOL    HW2 7395   5.953   1.125   5.059
 2166SOL     OW 7396   0.521   2.733   1.464
 2166SOL    HW1 7397   0.502   2.668   1.389
 2166SOL    HW2 7398   0.620   2.744   1.474
 2167SOL     OW 7399   1.238   2.398   3.093
 2167SOL    HW1 7400   1.253   2.440   3.183
 2167SOL    HW2 7401   1.284   2.451   3.023
 2168SOL     OW 7402   1.757   2.537   3.182
 2168SOL    HW1 7403   1.718   2.626   3.204
 2168SOL    HW2 7404   1.801   2.498   3.263
 2169SOL     OW 7405   6.862   0.172   1.237
 2169SOL    HW1 7406   6.831   0.163   1.143
 2169SOL    HW2 7407   6.830   0.259   1.275
 2170SOL     OW 7408   1.563   2.881   6.579
 2170SOL    HW1 7409   1.607   2.808   6.632
 2170SOL    HW2 7410   1.617   2.899   6.497
 2171SOL     OW 7411   6.865   6.072   1.596
 2171SOL    HW1 7412   6.935   6.031   1.654
 2171SOL    HW2 7413   6.909   6.126   1.524
 2172SOL     OW 7414   2.767   2.210   4.894
 2172SOL    HW1 7415   2.811   2.201   4.984
 2172SOL    HW2 7416   2.708   2.132   4.877
 2173SOL     OW 7417   4.947   0.500   4.580
 2173SOL    HW1 7418   4.915   0.418   4.628
 2173SOL    HW2 7419   4.873   0.536   4.523
 2174SOL     OW 7420   5.292   0.309   6.089
 2174SOL    HW1 7421   5.308   0.211   6.078
 2174SOL    HW2 7422   5.258   0.346   6.003
 2175SOL     OW 7423   3.913   2.832   5.625
 2175SOL    HW1 7424   3.823   2.788   5.630
 2175SOL    HW2 7425   3.902   2.931   5.631
 2176SOL     OW 7426   6.590   2.271   2.907
 2176SOL    HW1 7427   6.522   2.230   2.846
 2176SOL    HW2 7428   6.561   2.363   2.933
 2177SOL     OW 7429   0.723   0.834   5.871
 2177SOL    HW1 7430   0.712   0.753   5.928
 2177SOL    HW2 7431   0.765   0.809   5.784
 2178SOL     OW 7432   1.685   2.729   2.322
 2178SOL    HW1 7433   1.713   2.823   2.342
 2178SOL    HW2 7434   1.701   2.671   2.403
 2179SOL     OW 7435   1.202   4.171   0.226
 2179SOL    HW1 7436   1.155   4.259   0.213
 2179SOL    HW2 7437   1.277   4.183   0.291
 2180SOL     OW 7438   0.408   5.382   3.205
 2180SOL    HW1 7439   0.454   5.412   3.288
 2180SOL    HW2 7440   0.376   5.462   3.154
 2181SOL     OW 7441   4.189   4.745   4.239
 2181SOL    HW1 7442   4.175   4.657   4.195
 2181SOL    HW2 7443   4.234   4.731   4.328
 2182SOL     OW 7444   6.916   6.456   1.479
 2182SOL    HW1 7445   6.889   6.453   1.575
 2182SOL    HW2 7446   6.920   6.551   1.449
 2183SOL     OW 7447   3.495   3.320   6.938
 2183SOL    HW1 7448   3.563   3.377   6.984
 2183SOL    HW2 7449   3.404   3.355   6.956
 2184SOL     OW 7450   6.226   1.683   0.061
 2184SOL    HW1 7451   6.294   1.720   0.124
 2184SOL    HW2 7452   6.261   1.598   0.021
 2185SOL     OW 7453   0.835   1.692   6.211
 2185SOL    HW1 7454   0.826   1.722   6.116
 2185SOL    HW2 7455   0.918   1.638   6.222
 2186SOL     OW 7456   6.924   6.517   5.277
 2186SOL    HW1 7457   6.873   6.475   5.202
 2186SOL    HW2 7458   7.005   6.462   5.298
 2187SOL     OW 7459   5.721   4.530   1.710
 2187SOL    HW1 7460   5.790   4.480   1.658
 2187SOL    HW2 7461   5.656   4.466   1.751
 2188SOL     OW 7462   3.072   0.905   0.847
 2188SOL    HW1 7463   3.128   0.838   0.896
 2188SOL    HW2 7464   2.988   0.922   0.898
 2189SOL     OW 7465   1.908   0.511   2.381
 2189SOL    HW1 7466   1.976   0.583   2.372
 2189SOL    HW2 7467   1.840   0.538   2.449
 2190SOL     OW 7468   6.665   4.970   2.150
 2190SOL    HW1 7469   6.569   4.977   2.174
 2190SOL    HW2 7470   6.678   4.902   2.078
 2191SOL     OW 7471   3.742   6.764   0.041
 2191SOL    HW1 7472   3.766   6.693   0.107
 2191SOL    HW2 7473   3.736   6.852   0.087
 2192SOL     OW 7474   4.542   2.235   1.730
 2192SOL    HW1 7475   4.581   2.269   1.816
 2192SOL    HW2 7476   4.615   2.224   1.662
 2193SOL     OW 7477   1.571   0.773   4.647
 2193SOL    HW1 7478   1.511   0.694   4.652
 2193SOL    HW2 7479   1.586   0.797   4.551
 2194SOL     OW 7480   0.914   4.748   5.327
 2194SOL    HW1 7481   0.841   4.813   5.304
 2194SOL    HW2 7482   0.875   4.669   5.374
 2195SOL     OW 7483   0.320   3.570   5.715
 2195SOL    HW1 7484   0.351   3.508   5.644
 2195SOL    HW2 7485   0.387   3.643   5.727
 2196SOL     OW 7486   4.040   1.160   6.786
 2196SOL    HW1 7487   4.017   1.085   6.724
 2196SOL    HW2 7488   3.998   1.245   6.752
 2197SOL     OW 7489   3.917   5.320   6.655
 2197SOL    HW1 7490   3.873   5.231   6.662
 2197SOL    HW2 7491   3.849   5.392   6.670
 2198SOL     OW 7492   1.743   1.394   6.319
 2198SOL    HW1 7493   1.703   1.363   6.405
 2198SOL    HW2 7494   1.669   1.414   6.254
 2199SOL     OW 7495   4.018   6.480   3.907
 2199SOL    HW1 7496   4.079   6.452   3.833
 2199SOL    HW2 7497   4.072   6.504   3.987
 2200SOL     OW 7498   2.589   2.245   4.558
 2200SOL    HW1 7499   2.656   2.318   4.548
 2200SOL    HW2 7500   2.523   2.269   4.629
 2201SOL     OW 7501   5.704   3.486   4.863
 2201SOL    HW1 7502   5.649   3.481   4.947
 2201SOL    HW2 7503   5.789   3.535   4.882
 2202SOL     OW 7504   3.825   6.916   4.041
 2202SOL    HW1 7505   3.855   6.892   4.134
 2202SOL    HW2 7506   3.862   6.850   3.976
 2203SOL     OW 7507   2.038   5.491   0.998
 2203SOL    HW1 7508   2.096   5.443   0.933
 2203SOL    HW2 7509   2.085   5.573   1.031
 2204SOL     OW 7510   5.229   2.878   1.055
 2204SOL    HW1 7511   5.188   2.839   0.973
 2204SOL    HW2 7512   5.211   2.818   1.133
 2205SOL     OW 7513   5.873   5.623   1.043
 2205SOL    HW1 7514   5.908   5.709   1.080
 2205SOL    HW2 7515   5.779   5.609   1.073
 2206SOL     OW 7516   3.670   2.752   5.727
 2206SOL    HW1 7517   3.632   2.751   5.819
 2206SOL    HW2 7518   3.619   2.816   5.670
 2207SOL     OW 7519   4.450   5.596   1.962
 2207SOL    HW1 7520   4.541   5.617   1.927
 2207SOL    HW2 7521   4.383   5.659   1.922
 2208SOL     OW 7522   6.596   6.360   3.167
 2208SOL    HW1 7523   6.681   6.359   3.115
 2208SOL    HW2 7524   6.567   6.266   3.185
 2209SOL     OW 7525   2.626   5.329   3.712
 2209SOL    HW1 7526   2.575   5.247   3.740
 2209SOL    HW2 7527   2.634   5.331   3.612
 2210SOL     OW 7528   5.108   6.607   1.940
 2210SOL    HW1 7529   5.168   6.686   1.943
 2210SOL    HW2 7530   5.030   6.621   2.001
 2211SOL     OW 7531   1.380   1.248   1.639
 2211SOL    HW1 7532   1.386   1.236   1.540
 2211SOL    HW2 7533   1.284   1.247   1.667
 2212SOL     OW 7534   2.870   5.949   6.022
 2212SOL    HW1 7535   2.859   6.010   5.943
 2212SOL    HW2 7536   2.941   5.882   6.002
 2213SOL     OW 7537   3.461   1.413   4.507
 2213SOL    HW1 7538   3.406   1.330   4.499
 2213SOL    HW2 7539   3.401   1.491   4.526
 2214SOL     OW 7540   4.146   4.651   6.354
 2214SOL    HW1 7541   4.127   4.561   6.315
 2214SOL    HW2 7542   4.066   4.684   6.404
 2215SOL     OW 7543   5.501   5.617   6.662
 2215SOL    HW1 7544   5.490   5.619   6.563
 2215SOL    HW2 7545   5.592   5.653   6.686
 2216SOL     OW 7546   0.350   5.674   0.273
 2216SOL    HW1 7547   0.333   5.748   0.338
 2216SOL    HW2 7548   0.429   5.696   0.216
 2217SOL     OW 7549   4.241   1.219   3.579
 2217SOL    HW1 7550   4.218   1.295   3.640
 2217SOL    HW2 7551   4.169   1.149   3.585
 2218SOL     OW 7552   6.428   5.460   5.496
 2218SOL    HW1 7553   6.469   5.473   5.405
 2218SOL    HW2 7554   6.494   5.414   5.556
 2219SOL     OW 7555   5.628   1.991   0.789
 2219SOL    HW1 7556   5.649   1.894   0.778
 2219SOL    HW2 7557   5.567   2.020   0.715
 2220SOL     OW 7558   6.827   6.464   4.205
 2220SOL    HW1 7559   6.854   6.522   4.128
 2220SOL    HW2 7560   6.727   6.463   4.212
 2221SOL     OW 7561   5.731   0.757   4.285
 2221SOL    HW1 7562   5.632   0.757   4.299
 2221SOL    HW2 7563   5.771   0.678   4.332
 2222SOL     OW 7564   3.448   1.202   3.495
 2222SOL    HW1 7565   3.485   1.186   3.404
 2222SOL    HW2 7566   3.460   1.298   3.520
 2223SOL     OW 7567   0.815   0.148   5.519
 2223SOL    HW1 7568   0.878   0.075   5.492
 2223SOL    HW2 7569   0.725   0.109   5.537
 2224SOL     OW 7570   5.550   4.308   6.591
 2224SOL    HW1 7571   5.585   4.298   6.684
 2224SOL    HW2 7572   5.569   4.225   6.539
 2225SOL     OW 7573   6.835   6.627   1.020
 2225SOL    HW1 7574   6.831   6.677   0.933
 2225SOL    HW2 7575   6.779   6.675   1.087
 2226SOL     OW 7576   2.694   3.378   0.099
 2226SOL    HW1 7577   2.770   3.390   0.035
 2226SOL    HW2 7578   2.726   3.335   0.182
 2227SOL     OW 7579   4.116   1.996   1.875
 2227SOL    HW1 7580   4.143   2.055   1.952
 2227SOL    HW2 7581   4.170   2.021   1.795
 2228SOL     OW 7582   5.098   6.757   6.710
 2228SOL    HW1 7583   5.135   6.750   6.802
 2228SOL    HW2 7584   5.173   6.776   6.646
 2229SOL     OW 7585   2.881   3.454   4.426
 2229SOL    HW1 7586   2.784   3.439   4.439
 2229SOL    HW2 7587   2.903   3.550   4.446
 2230SOL     OW 7588   6.630   1.039   6.243
 2230SOL    HW1 7589   6.555   0.990   6.286
 2230SOL    HW2 7590   6.717   1.005   6.279
 2231SOL     OW 7591   1.077   6.937   6.365
 2231SOL    HW1 7592   1.037   6.866   6.423
 2231SOL    HW2 7593   1.117   6.894   6.283
 2232SOL     OW 7594   1.738   0.779   6.551
 2232SOL    HW1 7595   1.661   0.832   6.516
 2232SOL    HW2 7596   1.788   0.834   6.618
 2233SOL     OW 7597   2.702   5.105   0.771
 2233SOL    HW1 7598   2.768   5.178   0.791
 2233SOL    HW2 7599   2.735   5.019   0.810
 2234SOL     OW 7600   4.712   2.255   1.500
 2234SOL    HW1 7601   4.629   2.310   1.488
 2234SOL    HW2 7602   4.718   2.188   1.426
 2235SOL     OW 7603   0.746   2.054   3.130
 2235SOL    HW1 7604   0.690   2.009   3.200
 2235SOL    HW2 7605   0.771   1.988   3.059
 2236SOL     OW 7606   2.819   4.810   5.216
 2236SOL    HW1 7607   2.868   4.789   5.301
 2236SOL    HW2 7608   2.838   4.739   5.148
 2237SOL     OW 7609   5.755   6.829   6.122
 2237SOL    HW1 7610   5.685   6.802   6.056
 2237SOL    HW2 7611   5.721   6.904   6.179
 2238SOL     OW 7612   5.560   3.855   2.273
 2238SOL    HW1 7613   5.538   3.762   2.244
 2238SOL    HW2 7614   5.590   3.908   2.194
 2239SOL     OW 7615   4.048   0.030   2.972
 2239SOL    HW1 7616   4.141   0.052   3.000
 2239SOL    HW2 7617   4.035   6.954   2.972
 2240SOL     OW 7618   4.753   5.237   2.007
 2240SOL    HW1 7619   4.755   5.139   1.989
 2240SOL    HW2 7620   4.812   5.258   2.085
 2241SOL     OW 7621   0.932   1.763   3.219
 2241SOL    HW1 7622   0.846   1.711   3.222
 2241SOL    HW2 7623   0.949   1.793   3.125
 2242SOL     OW 7624   5.472   2.410   4.332
 2242SOL    HW1 7625   5.435   2.317   4.337
 2242SOL    HW2 7626   5.529   2.428   4.412
 2243SOL     OW 7627   2.338   0.442   0.270
 2243SOL    HW1 7628   2.387   0.402   0.193
 2243SOL    HW2 7629   2.276   0.374   0.309
 2244SOL     OW 7630   2.948   1.897   1.059
 2244SOL    HW1 7631   3.009   1.931   0.987
 2244SOL    HW2 7632   2.990   1.914   1.148
 2245SOL     OW 7633   0.154   0.877   0.225
 2245SOL    HW1 7634   0.214   0.910   0.152
 2245SOL    HW2 7635   0.174   0.781   0.244
 2246SOL     OW 7636   5.383   0.777   5.766
 2246SOL    HW1 7637   5.314   0.763   5.695
 2246SOL    HW2 7638   5.352   0.735   5.851
 2247SOL     OW 7639   2.880   3.393   1.623
 2247SOL    HW1 7640   2.826   3.317   1.586
 2247SOL    HW2 7641   2.850   3.413   1.716
 2248SOL     OW 7642   4.909   3.148   4.545
 2248SOL    HW1 7643   4.830   3.088   4.538
 2248SOL    HW2 7644   4.918   3.202   4.462
 2249SOL     OW 7645   1.985   6.518   3.794
 2249SOL    HW1 7646   1.929   6.447   3.836
 2249SOL    HW2 7647   2.081   6.499   3.812
 2250SOL     OW 7648   4.563   5.814   6.433
 2250SOL    HW1 7649   4.626   5.891   6.437
 2250SOL    HW2 7650   4.470   5.844   6.454
 2251SOL     OW 7651   3.762   6.904   4.876
 2251SOL    HW1 7652   3.724   6.997   4.870
 2251SOL    HW2 7653   3.710   6.851   4.942
 2252SOL     OW 7654   4.156   1.297   2.603
 2252SOL    HW1 7655   4.082   1.356   2.636
 2252SOL    HW2 7656   4.161   1.303   2.503
 2253SOL     OW 7657   0.908   3.194   2.027
 2253SOL    HW1 7658   0.893   3.167   2.123
 2253SOL    HW2 7659   0.983   3.259   2.022
 2254SOL     OW 7660   3.440   2.835   3.328
 2254SOL    HW1 7661   3.522   2.807   3.279
 2254SOL    HW2 7662   3.465   2.893   3.406
 2255SOL     OW 7663   1.627   2.506   5.946
 2255SOL    HW1 7664   1.574   2.507   6.031
 2255SOL    HW2 7665   1.569   2.481   5.869
 2256SOL     OW 7666   4.623   0.350   1.528
 2256SOL    HW1 7667   4.680   0.389   1.600
 2256SOL    HW2 7668   4.662   0.373   1.438
 2257SOL     OW 7669   0.344   0.401   6.274
 2257SOL    HW1 7670   0.262   0.439   6.230
 2257SOL    HW2 7671   0.344   0.425   6.371
 2258SOL     OW 7672   2.006   6.970   3.609
 2258SOL    HW1 7673   2.083   0.010   3.597
 2258SOL    HW2 7674   1.925   7.022   3.638
 2259SOL     OW 7675   5.858   0.118   4.759
 2259SOL    HW1 7676   5.935   0.120   4.823
 2259SOL    HW2 7677   5.880   0.175   4.679
 2260SOL     OW 7678   1.651   3.732   1.195
 2260SOL    HW1 7679   1.611   3.821   1.172
 2260SOL    HW2 7680   1.735   3.745   1.248
 2261SOL     OW 7681   5.222   4.240   6.396
 2261SOL    HW1 7682   5.248   4.249   6.492
 2261SOL    HW2 7683   5.131   4.279   6.382
 2262SOL     OW 7684   0.184   6.748   3.861
 2262SOL    HW1 7685   0.199   6.803   3.943
 2262SOL    HW2 7686   0.196   6.806   3.780
 2263SOL     OW 7687   2.596   4.528   6.540
 2263SOL    HW1 7688   2.551   4.484   6.463
 2263SOL    HW2 7689   2.528   4.574   6.597
 2264SOL     OW 7690   1.960   6.961   6.958
 2264SOL    HW1 7691   1.872   7.003   6.978
 2264SOL    HW2 7692   1.995   6.914   0.016
 2265SOL     OW 7693   0.260   6.464   3.696
 2265SOL    HW1 7694   0.208   6.465   3.611
 2265SOL    HW2 7695   0.248   6.551   3.743
 2266SOL     OW 7696   4.783   3.901   6.316
 2266SOL    HW1 7697   4.684   3.893   6.325
 2266SOL    HW2 7698   4.820   3.954   6.392
 2267SOL     OW 7699   5.531   3.160   4.112
 2267SOL    HW1 7700   5.615   3.172   4.164
 2267SOL    HW2 7701   5.479   3.083   4.150
 2268SOL     OW 7702   0.748   6.232   4.996
 2268SOL    HW1 7703   0.734   6.250   5.093
 2268SOL    HW2 7704   0.835   6.272   4.967
 2269SOL     OW 7705   2.154   2.479   5.835
 2269SOL    HW1 7706   2.149   2.414   5.912
 2269SOL    HW2 7707   2.204   2.561   5.864
 2270SOL     OW 7708   5.503   2.258   6.242
 2270SOL    HW1 7709   5.482   2.333   6.305
 2270SOL    HW2 7710   5.433   2.253   6.171
 2271SOL     OW 7711   4.022   5.475   5.123
 2271SOL    HW1 7712   4.115   5.456   5.089
 2271SOL    HW2 7713   4.025   5.489   5.221
 2272SOL     OW 7714   5.836   1.278   6.242
 2272SOL    HW1 7715   5.783   1.210   6.192
 2272SOL    HW2 7716   5.775   1.340   6.290
 2273SOL     OW 7717   0.787   2.567   4.000
 2273SOL    HW1 7718   0.791   2.653   4.051
 2273SOL    HW2 7719   0.782   2.587   3.902
 2274SOL     OW 7720   0.955   1.233   7.005
 2274SOL    HW1 7721   1.042   1.281   7.020
 2274SOL    HW2 7722   0.936   1.229   6.907
 2275SOL     OW 7723   5.810   3.780   3.558
 2275SOL    HW1 7724   5.833   3.877   3.560
 2275SOL    HW2 7725   5.764   3.758   3.473
 2276SOL     OW 7726   1.879   1.828   1.153
 2276SOL    HW1 7727   1.845   1.780   1.072
 2276SOL    HW2 7728   1.807   1.831   1.222
 2277SOL     OW 7729   3.676   3.205   3.332
 2277SOL    HW1 7730   3.616   3.279   3.301
 2277SOL    HW2 7731   3.720   3.231   3.418
 2278SOL     OW 7732   6.630   3.149   3.863
 2278SOL    HW1 7733   6.710   3.088   3.870
 2278SOL    HW2 7734   6.591   3.143   3.771
 2279SOL     OW 7735   1.211   5.056   5.776
 2279SOL    HW1 7736   1.283   5.010   5.828
 2279SOL    HW2 7737   1.129   4.999   5.776
 2280SOL     OW 7738   4.836   2.261   5.415
 2280SOL    HW1 7739   4.756   2.300   5.461
 2280SOL    HW2 7740   4.876   2.189   5.472
 2281SOL     OW 7741   5.076   7.006   2.338
 2281SOL    HW1 7742   4.997   6.952   2.366
 2281SOL    HW2 7743   5.046   0.071   2.302
 2282SOL     OW 7744   3.506   5.437   5.890
 2282SOL    HW1 7745   3.597   5.399   5.870
 2282SOL    HW2 7746   3.452   5.370   5.941
 2283SOL     OW 7747   0.161   0.951   4.867
 2283SOL    HW1 7748   0.119   0.863   4.846
 2283SOL    HW2 7749   0.103   1.025   4.832
 2284SOL     OW 7750   1.833   3.874   6.520
 2284SOL    HW1 7751   1.765   3.884   6.447
 2284SOL    HW2 7752   1.791   3.830   6.599
 2285SOL     OW 7753   1.364   4.884   6.615
 2285SOL    HW1 7754   1.407   4.794   6.606
 2285SOL    HW2 7755   1.412   4.950   6.558
 2286SOL     OW 7756   4.425   4.505   2.799
 2286SOL    HW1 7757   4.381   4.584   2.758
 2286SOL    HW2 7758   4.373   4.475   2.879
 2287SOL     OW 7759   1.341   1.609   4.593
 2287SOL    HW1 7760   1.263   1.671   4.581
 2287SOL    HW2 7761   1.423   1.654   4.557
 2288SOL     OW 7762   6.646   5.472   2.516
 2288SOL    HW1 7763   6.641   5.551   2.455
 2288SOL    HW2 7764   6.730   5.477   2.570
 2289SOL     OW 7765   0.224   5.261   0.158
 2289SOL    HW1 7766   0.166   5.337   0.187
 2289SOL    HW2 7767   0.172   5.176   0.163
 2290SOL     OW 7768   0.789   5.463   6.461
 2290SOL    HW1 7769   0.844   5.535   6.419
 2290SOL    HW2 7770   0.792   5.472   6.561
 2291SOL     OW 7771   2.170   1.715   6.878
 2291SOL    HW1 7772   2.090   1.754   6.923
 2291SOL    HW2 7773   2.164   1.730   6.779
 2292SOL     OW 7774   1.779   1.112   4.310
 2292SOL    HW1 7775   1.793   1.209   4.330
 2292SOL    HW2 7776   1.742   1.067   4.391
 2293SOL     OW 7777   5.783   3.998   2.763
 2293SOL    HW1 7778   5.845   3.924   2.737
 2293SOL    HW2 7779   5.714   4.010   2.691
 2294SOL     OW 7780   4.095   6.611   0.285
 2294SOL    HW1 7781   4.127   6.665   0.207
 2294SOL    HW2 7782   4.143   6.641   0.367
 2295SOL     OW 7783   0.939   1.102   2.080
 2295SOL    HW1 7784   1.037   1.103   2.097
 2295SOL    HW2 7785   0.920   1.147   1.993
 2296SOL     OW 7786   3.187   6.143   0.456
 2296SOL    HW1 7787   3.236   6.094   0.529
 2296SOL    HW2 7788   3.250   6.206   0.411
 2297SOL     OW 7789   4.294   6.901   6.944
 2297SOL    HW1 7790   4.381   6.870   6.982
 2297SOL    HW2 7791   4.309   6.986   6.894
 2298SOL     OW 7792   3.907   3.105   6.645
 2298SOL    HW1 7793   3.936   3.200   6.650
 2298SOL    HW2 7794   3.847   3.084   6.722
 2299SOL     OW 7795   4.313   0.031   0.653
 2299SOL    HW1 7796   4.280   6.962   0.670
 2299SOL    HW2 7797   4.364   0.033   0.566
 2300SOL     OW 7798   1.361   4.622   1.123
 2300SOL    HW1 7799   1.398   4.713   1.103
 2300SOL    HW2 7800   1.310   4.625   1.210
 2301SOL     OW 7801   3.930   3.765   1.872
 2301SOL    HW1 7802   3.881   3.852   1.885
 2301SOL    HW2 7803   3.877   3.691   1.913
 2302SOL     OW 7804   2.508   5.214   3.131
 2302SOL    HW1 7805   2.575   5.288   3.118
 2302SOL    HW2 7806   2.521   5.144   3.061
 2303SOL     OW 7807   6.952   3.053   6.317
 2303SOL    HW1 7808   0.024   3.074   6.341
 2303SOL    HW2 7809   6.940   3.061   6.218
 2304SOL     OW 7810   2.200   1.249   4.657
 2304SOL    HW1 7811   2.149   1.184   4.714
 2304SOL    HW2 7812   2.163   1.341   4.671
 2305SOL     OW 7813   4.154   4.918   1.947
 2305SOL    HW1 7814   4.193   4.831   1.977
 2305SOL    HW2 7815   4.089   4.901   1.872
 2306SOL     OW 7816   0.443   4.608   0.416
 2306SOL    HW1 7817   0.354   4.563   0.412
 2306SOL    HW2 7818   0.431   4.707   0.416
 2307SOL     OW 7819   0.758   1.322   3.081
 2307SOL    HW1 7820   0.707   1.305   2.997
 2307SOL    HW2 7821   0.746   1.417   3.109
 2308SOL     OW 7822   1.016   0.074   0.348
 2308SOL    HW1 7823   1.076   0.092   0.426
 2308SOL    HW2 7824   0.951   0.002   0.371
 2309SOL     OW 7825   2.498   5.223   6.019
 2309SOL    HW1 7826   2.426   5.192   5.956
 2309SOL    HW2 7827   2.575   5.159   6.014
 2310SOL     OW 7828   5.651   1.446   3.388
 2310SOL    HW1 7829   5.551   1.447   3.380
 2310SOL    HW2 7830   5.683   1.352   3.387
 2311SOL     OW 7831   2.758   0.607   2.589
 2311SOL    HW1 7832   2.792   0.637   2.500
 2311SOL    HW2 7833   2.835   0.582   2.647
 2312SOL     OW 7834   2.473   1.039   2.407
 2312SOL    HW1 7835   2.506   0.951   2.441
 2312SOL    HW2 7836   2.521   1.114   2.453
 2313SOL     OW 7837   5.018   4.189   1.929
 2313SOL    HW1 7838   5.048   4.201   2.024
 2313SOL    HW2 7839   4.926   4.227   1.919
 2314SOL     OW 7840   6.179   6.479   3.033
 2314SOL    HW1 7841   6.111   6.422   2.987
 2314SOL    HW2 7842   6.209   6.552   2.972
 2315SOL     OW 7843   4.562   5.938   4.958
 2315SOL    HW1 7844   4.602   5.979   4.875
 2315SOL    HW2 7845   4.537   5.843   4.940
 2316SOL     OW 7846   2.929   1.397   5.997
 2316SOL    HW1 7847   2.877   1.474   5.959
 2316SOL    HW2 7848   2.921   1.318   5.936
 2317SOL     OW 7849   7.013   5.294   2.910
 2317SOL    HW1 7850   6.946   5.267   2.980
 2317SOL    HW2 7851   7.020   5.393   2.907
 2318SOL     OW 7852   0.754   4.279   4.009
 2318SOL    HW1 7853   0.675   4.340   3.997
 2318SOL    HW2 7854   0.832   4.332   4.042
 2319SOL     OW 7855   1.551   5.564   3.466
 2319SOL    HW1 7856   1.481   5.567   3.537
 2319SOL    HW2 7857   1.625   5.627   3.490
 2320SOL     OW 7858   1.146   1.739   5.538
 2320SOL    HW1 7859   1.168   1.750   5.634
 2320SOL    HW2 7860   1.069   1.798   5.514
 2321SOL     OW 7861   1.866   5.088   5.327
 2321SOL    HW1 7862   1.954   5.044   5.312
 2321SOL    HW2 7863   1.794   5.036   5.281
 2322SOL     OW 7864   1.972   3.983   1.776
 2322SOL    HW1 7865   2.004   3.900   1.822
 2322SOL    HW2 7866   1.895   4.022   1.828
 2323SOL     OW 7867   2.748   5.521   0.687
 2323SOL    HW1 7868   2.688   5.564   0.619
 2323SOL    HW2 7869   2.731   5.560   0.777
 2324SOL     OW 7870   6.913   5.181   2.488
 2324SOL    HW1 7871   6.986   5.241   2.456
 2324SOL    HW2 7872   6.932   5.154   2.583
 2325SOL     OW 7873   6.243   5.220   2.554
 2325SOL    HW1 7874   6.183   5.280   2.502
 2325SOL    HW2 7875   6.310   5.274   2.604
 2326SOL     OW 7876   1.875   0.467   0.129
 2326SOL    HW1 7877   1.879   0.545   0.066
 2326SOL    HW2 7878   1.868   0.382   0.076
 2327SOL     OW 7879   6.867   6.741   2.252
 2327SOL    HW1 7880   6.847   6.662   2.195
 2327SOL    HW2 7881   6.884   6.821   2.194
 2328SOL     OW 7882   2.207   3.837   2.279
 2328SOL    HW1 7883   2.160   3.750   2.266
 2328SOL    HW2 7884   2.157   3.893   2.344
 2329SOL     OW 7885   0.522   4.893   3.013
 2329SOL    HW1 7886   0.530   4.990   3.038
 2329SOL    HW2 7887   0.491   4.841   3.092
 2330SOL     OW 7888   6.110   3.264   0.896
 2330SOL    HW1 7889   6.141   3.238   0.987
 2330SOL    HW2 7890   6.158   3.346   0.866
 2331SOL     OW 7891   4.804   5.923   1.311
 2331SOL    HW1 7892   4.765   5.996   1.255
 2331SOL    HW2 7893   4.900   5.942   1.328
 2332SOL     OW 7894   5.805   0.020   5.765
 2332SOL    HW1 7895   5.737   0.009   5.836
 2332SOL    HW2 7896   5.894   0.041   5.806
 2333SOL     OW 7897   1.002   4.392   2.200
 2333SOL    HW1 7898   0.928   4.458   2.206
 2333SOL    HW2 7899   1.083   4.435   2.162
 2334SOL     OW 7900   3.101   1.392   6.452
 2334SOL    HW1 7901   3.039   1.412   6.528
 2334SOL    HW2 7902   3.067   1.436   6.369
 2335SOL     OW 7903   6.600   1.560   3.242
 2335SOL    HW1 7904   6.566   1.473   3.276
 2335SOL    HW2 7905   6.552   1.635   3.288
 2336SOL     OW 7906   1.686   1.926   3.642
 2336SOL    HW1 7907   1.648   1.844   3.685
 2336SOL    HW2 7908   1.747   1.972   3.706
 2337SOL     OW 7909   3.937   1.254   1.637
 2337SOL    HW1 7910   3.870   1.295   1.574
 2337SOL    HW2 7911   3.898   1.172   1.677
 2338SOL     OW 7912   6.884   3.534   4.137
 2338SOL    HW1 7913   6.854   3.441   4.117
 2338SOL    HW2 7914   6.827   3.599   4.086
 2339SOL     OW 7915   3.211   3.011   3.644
 2339SOL    HW1 7916   3.232   3.105   3.617
 2339SOL    HW2 7917   3.158   2.967   3.572
 2340SOL     OW 7918   2.476   4.395   6.802
 2340SOL    HW1 7919   2.522   4.313   6.769
 2340SOL    HW2 7920   2.435   4.444   6.724
 2341SOL     OW 7921   2.401   4.298   4.180
 2341SOL    HW1 7922   2.461   4.230   4.138
 2341SOL    HW2 7923   2.445   4.388   4.176
 2342SOL     OW 7924   3.217   1.042   4.082
 2342SOL    HW1 7925   3.246   0.961   4.030
 2342SOL    HW2 7926   3.293   1.073   4.139
 2343SOL     OW 7927   0.659   0.100   1.541
 2343SOL    HW1 7928   0.650   0.164   1.617
 2343SOL    HW2 7929   0.589   0.120   1.472
 2344SOL     OW 7930   5.654   4.438   0.229
 2344SOL    HW1 7931   5.742   4.460   0.188
 2344SOL    HW2 7932   5.656   4.464   0.326
 2345SOL     OW 7933   3.663   6.089   4.897
 2345SOL    HW1 7934   3.567   6.069   4.879
 2345SOL    HW2 7935   3.715   6.080   4.811
 2346SOL     OW 7936   4.650   3.880   0.241
 2346SOL    HW1 7937   4.593   3.812   0.195
 2346SOL    HW2 7938   4.721   3.834   0.295
 2347SOL     OW 7939   1.802   1.922   1.424
 2347SOL    HW1 7940   1.746   1.983   1.367
 2347SOL    HW2 7941   1.884   1.971   1.454
 2348SOL     OW 7942   0.436   5.203   2.253
 2348SOL    HW1 7943   0.486   5.195   2.167
 2348SOL    HW2 7944   0.498   5.237   2.324
 2349SOL     OW 7945   1.160   4.322   5.346
 2349SOL    HW1 7946   1.255   4.301   5.368
 2349SOL    HW2 7947   1.149   4.330   5.247
 2350SOL     OW 7948   4.901   3.685   0.127
 2350SOL    HW1 7949   4.867   3.631   0.205
 2350SOL    HW2 7950   4.920   3.778   0.158
 2351SOL     OW 7951   2.393   6.064   1.831
 2351SOL    HW1 7952   2.348   5.975   1.842
 2351SOL    HW2 7953   2.428   6.073   1.738
 2352SOL     OW 7954   6.896   2.521   3.425
 2352SOL    HW1 7955   6.956   2.446   3.454
 2352SOL    HW2 7956   6.806   2.510   3.467
 2353SOL     OW 7957   2.801   5.054   4.293
 2353SOL    HW1 7958   2.742   5.074   4.372
 2353SOL    HW2 7959   2.835   5.140   4.255
 2354SOL     OW 7960   2.498   2.426   4.057
 2354SOL    HW1 7961   2.532   2.332   4.048
 2354SOL    HW2 7962   2.428   2.429   4.128
 2355SOL     OW 7963   2.611   5.769   5.027
 2355SOL    HW1 7964   2.522   5.813   5.015
 2355SOL    HW2 7965   2.601   5.670   5.025
 2356SOL     OW 7966   6.790   2.886   0.011
 2356SOL    HW1 7967   6.831   2.810   0.062
 2356SOL    HW2 7968   6.851   2.965   0.015
 2357SOL     OW 7969   2.196   6.662   3.072
 2357SOL    HW1 7970   2.135   6.741   3.067
 2357SOL    HW2 7971   2.212   6.638   3.167
 2358SOL     OW 7972   3.411   4.672   5.618
 2358SOL    HW1 7973   3.466   4.589   5.624
 2358SOL    HW2 7974   3.445   4.730   5.544
 2359SOL     OW 7975   1.896   0.333   4.656
 2359SOL    HW1 7976   1.921   0.244   4.619
 2359SOL    HW2 7977   1.797   0.338   4.669
 2360SOL     OW 7978   6.681   4.356   0.113
 2360SOL    HW1 7979   6.599   4.407   0.090
 2360SOL    HW2 7980   6.683   4.270   0.061
 2361SOL     OW 7981   3.480   1.079   0.060
 2361SOL    HW1 7982   3.399   1.086   0.119
 2361SOL    HW2 7983   3.481   0.990   0.015
 2362SOL     OW 7984   2.789   5.820   3.355
 2362SOL    HW1 7985   2.839   5.901   3.386
 2362SOL    HW2 7986   2.748   5.838   3.266
 2363SOL     OW 7987   3.950   0.735   4.122
 2363SOL    HW1 7988   4.019   0.799   4.155
 2363SOL    HW2 7989   3.868   0.785   4.094
 2364SOL     OW 7990   1.383   2.618   1.403
 2364SOL    HW1 7991   1.303   2.677   1.390
 2364SOL    HW2 7992   1.430   2.605   1.316
 2365SOL     OW 7993   4.784   2.063   7.016
 2365SOL    HW1 7994   4.718   2.020   6.954
 2365SOL    HW2 7995   4.800   2.003   0.071
 2366SOL     OW 7996   4.495   5.397   0.741
 2366SOL    HW1 7997   4.540   5.345   0.668
 2366SOL    HW2 7998   4.429   5.338   0.788
 2367SOL     OW 7999   2.226   3.566   5.888
 2367SOL    HW1 8000   2.288   3.620   5.831
 2367SOL    HW2 8001   2.138   3.612   5.894
 2368SOL     OW 8002   6.370   6.020   2.294
 2368SOL    HW1 8003   6.292   6.063   2.248
 2368SOL    HW2 8004   6.337   5.966   2.372
 2369SOL     OW 8005   2.478   1.000   3.169
 2369SOL    HW1 8006   2.394   0.965   3.127
 2369SOL    HW2 8007   2.456   1.058   3.246
 2370SOL     OW 8008   6.221   2.813   6.396
 2370SOL    HW1 8009   6.222   2.912   6.382
 2370SOL    HW2 8010   6.184   2.768   6.315
 2371SOL     OW 8011   2.329   6.538   1.496
 2371SOL    HW1 8012   2.394   6.563   1.424
 2371SOL    HW2 8013   2.370   6.556   1.585
 2372SOL     OW 8014   6.469   3.142   2.730
 2372SOL    HW1 8015   6.409   3.064   2.709
 2372SOL    HW2 8016   6.447   3.217   2.668
 2373SOL     OW 8017   2.405   3.436   6.681
 2373SOL    HW1 8018   2.430   3.489   6.601
 2373SOL    HW2 8019   2.376   3.344   6.652
 2374SOL     OW 8020   5.512   2.995   4.715
 2374SOL    HW1 8021   5.454   3.073   4.739
 2374SOL    HW2 8022   5.579   2.980   4.787
 2375SOL     OW 8023   1.863   6.999   5.560
 2375SOL    HW1 8024   1.929   7.015   5.486
 2375SOL    HW2 8025   1.911   6.969   5.642
 2376SOL     OW 8026   6.327   2.773   4.576
 2376SOL    HW1 8027   6.314   2.729   4.488
 2376SOL    HW2 8028   6.420   2.810   4.582
 2377SOL     OW 8029   3.616   2.936   3.898
 2377SOL    HW1 8030   3.599   3.027   3.934
 2377SOL    HW2 8031   3.707   2.933   3.857
 2378SOL     OW 8032   5.259   2.714   0.604
 2378SOL    HW1 8033   5.353   2.695   0.632
 2378SOL    HW2 8034   5.222   2.634   0.556
 2379SOL     OW 8035   6.727   6.862   6.481
 2379SOL    HW1 8036   6.810   6.851   6.426
 2379SOL    HW2 8037   6.650   6.883   6.420
 2380SOL     OW 8038   6.294   1.863   2.458
 2380SOL    HW1 8039   6.354   1.819   2.525
 2380SOL    HW2 8040   6.244   1.937   2.501
 2381SOL     OW 8041   1.941   6.384   2.733
 2381SOL    HW1 8042   1.941   6.438   2.817
 2381SOL    HW2 8043   2.000   6.304   2.744
 2382SOL     OW 8044   1.411   3.452   5.512
 2382SOL    HW1 8045   1.354   3.370   5.521
 2382SOL    HW2 8046   1.481   3.436   5.442
 2383SOL     OW 8047   5.958   5.957   2.240
 2383SOL    HW1 8048   5.930   5.941   2.145
 2383SOL    HW2 8049   5.991   5.871   2.279
 2384SOL     OW 8050   4.064   1.625   1.833
 2384SOL    HW1 8051   4.037   1.662   1.922
 2384SOL    HW2 8052   4.151   1.664   1.806
 2385SOL     OW 8053   0.839   2.600   0.099
 2385SOL    HW1 8054   0.846   2.674   0.032
 2385SOL    HW2 8055   0.742   2.586   0.122
 2386SOL     OW 8056   4.399   5.274   3.915
 2386SOL    HW1 8057   4.456   5.211   3.969
 2386SOL    HW2 8058   4.304   5.245   3.921
 2387SOL     OW 8059   1.588   1.475   2.851
 2387SOL    HW1 8060   1.635   1.492   2.938
 2387SOL    HW2 8061   1.531   1.553   2.827
 2388SOL     OW 8062   6.819   1.881   4.028
 2388SOL    HW1 8063   6.740   1.826   4.054
 2388SOL    HW2 8064   6.825   1.962   4.087
 2389SOL     OW 8065   3.474   6.295   2.511
 2389SOL    HW1 8066   3.551   6.281   2.574
 2389SOL    HW2 8067   3.393   6.323   2.563
 2390SOL     OW 8068   3.277   4.183   1.057
 2390SOL    HW1 8069   3.368   4.217   1.082
 2390SOL    HW2 8070   3.247   4.115   1.123
 2391SOL     OW 8071   4.293   5.416   5.043
 2391SOL    HW1 8072   4.308   5.505   5.000
 2391SOL    HW2 8073   4.379   5.382   5.079
 2392SOL     OW 8074   3.881   1.393   6.675
 2392SOL    HW1 8075   3.833   1.372   6.590
 2392SOL    HW2 8076   3.966   1.442   6.654
 2393SOL     OW 8077   3.479   5.198   4.943
 2393SOL    HW1 8078   3.558   5.236   4.895
 2393SOL    HW2 8079   3.475   5.099   4.928
 2394SOL     OW 8080   6.924   4.665   5.925
 2394SOL    HW1 8081   6.971   4.678   6.013
 2394SOL    HW2 8082   6.977   4.602   5.868
 2395SOL     OW 8083   4.708   6.554   6.432
 2395SOL    HW1 8084   4.780   6.573   6.365
 2395SOL    HW2 8085   4.619   6.578   6.393
 2396SOL     OW 8086   3.617   5.380   0.850
 2396SOL    HW1 8087   3.539   5.424   0.894
 2396SOL    HW2 8088   3.584   5.317   0.780
 2397SOL     OW 8089   0.276   3.576   4.395
 2397SOL    HW1 8090   0.214   3.554   4.319
 2397SOL    HW2 8091   0.361   3.523   4.384
 2398SOL     OW 8092   4.780   3.729   5.380
 2398SOL    HW1 8093   4.798   3.689   5.470
 2398SOL    HW2 8094   4.720   3.668   5.328
 2399SOL     OW 8095   4.192   2.503   1.546
 2399SOL    HW1 8096   4.136   2.586   1.542
 2399SOL    HW2 8097   4.173   2.446   1.466
 2400SOL     OW 8098   1.689   4.932   0.374
 2400SOL    HW1 8099   1.606   4.929   0.430
 2400SOL    HW2 8100   1.664   4.945   0.278
 2401SOL     OW 8101   6.877   6.173   6.138
 2401SOL    HW1 8102   6.905   6.255   6.188
 2401SOL    HW2 8103   6.956   6.133   6.092
 2402SOL     OW 8104   6.650   6.290   3.983
 2402SOL    HW1 8105   6.730   6.271   4.039
 2402SOL    HW2 8106   6.665   6.254   3.890
 2403SOL     OW 8107   0.743   1.241   4.988
 2403SOL    HW1 8108   0.671   1.194   5.040
 2403SOL    HW2 8109   0.703   1.281   4.905
 2404SOL     OW 8110   1.309   0.693   0.380
 2404SOL    HW1 8111   1.400   0.677   0.342
 2404SOL    HW2 8112   1.259   0.606   0.384
 2405SOL     OW 8113   2.757   4.046   1.247
 2405SOL    HW1 8114   2.744   3.953   1.279
 2405SOL    HW2 8115   2.782   4.045   1.150
 2406SOL     OW 8116   4.851   1.010   1.502
 2406SOL    HW1 8117   4.762   1.050   1.524
 2406SOL    HW2 8118   4.839   0.941   1.430
 2407SOL     OW 8119   5.124   6.992   3.348
 2407SOL    HW1 8120   5.145   0.044   3.285
 2407SOL    HW2 8121   5.029   7.000   3.378
 2408SOL     OW 8122   4.321   5.116   2.287
 2408SOL    HW1 8123   4.242   5.132   2.346
 2408SOL    HW2 8124   4.404   5.115   2.343
 2409SOL     OW 8125   1.486   4.291   0.539
 2409SOL    HW1 8126   1.387   4.276   0.544
 2409SOL    HW2 8127   1.533   4.203   0.527
 2410SOL     OW 8128   3.665   2.884   3.173
 2410SOL    HW1 8129   3.740   2.881   3.238
 2410SOL    HW2 8130   3.690   2.942   3.095
 2411SOL     OW 8131   4.335   0.438   4.121
 2411SOL    HW1 8132   4.342   0.534   4.146
 2411SOL    HW2 8133   4.332   0.430   4.021
 2412SOL     OW 8134   4.181   3.552   1.243
 2412SOL    HW1 8135   4.177   3.580   1.147
 2412SOL    HW2 8136   4.251   3.482   1.255
 2413SOL     OW 8137   4.395   0.049   3.037
 2413SOL    HW1 8138   4.373   0.007   3.125
 2413SOL    HW2 8139   4.433   0.140   3.052
 2414SOL     OW 8140   5.273   3.354   4.276
 2414SOL    HW1 8141   5.323   3.293   4.215
 2414SOL    HW2 8142   5.337   3.399   4.338
 2415SOL     OW 8143   4.433   0.925   3.407
 2415SOL    HW1 8144   4.344   0.970   3.400
 2415SOL    HW2 8145   4.479   0.955   3.491
 2416SOL     OW 8146   5.509   2.170   6.598
 2416SOL    HW1 8147   5.468   2.131   6.680
 2416SOL    HW2 8148   5.545   2.261   6.618
 2417SOL     OW 8149   3.227   4.208   5.587
 2417SOL    HW1 8150   3.165   4.248   5.518
 2417SOL    HW2 8151   3.294   4.150   5.541
 2418SOL     OW 8152   3.432   2.861   2.976
 2418SOL    HW1 8153   3.495   2.922   3.026
 2418SOL    HW2 8154   3.396   2.792   3.039
 2419SOL     OW 8155   0.023   0.480   3.314
 2419SOL    HW1 8156   0.073   0.444   3.392
 2419SOL    HW2 8157   0.009   0.408   3.246
 2420SOL     OW 8158   2.109   0.031   1.507
 2420SOL    HW1 8159   2.050   0.110   1.522
 2420SOL    HW2 8160   2.119   7.003   1.593
 2421SOL     OW 8161   3.408   1.684   3.117
 2421SOL    HW1 8162   3.365   1.709   3.203
 2421SOL    HW2 8163   3.380   1.591   3.092
 2422SOL     OW 8164   5.273   1.878   0.840
 2422SOL    HW1 8165   5.324   1.907   0.921
 2422SOL    HW2 8166   5.240   1.959   0.791
 2423SOL     OW 8167   1.879   4.852   2.483
 2423SOL    HW1 8168   1.936   4.771   2.498
 2423SOL    HW2 8169   1.935   4.934   2.487
 2424SOL     OW 8170   6.648   0.390   0.283
 2424SOL    HW1 8171   6.640   0.406   0.382
 2424SOL    HW2 8172   6.620   0.296   0.263
 2425SOL     OW 8173   6.929   0.003   4.424
 2425SOL    HW1 8174   6.960   0.082   4.372
 2425SOL    HW2 8175   6.896   6.955   4.362
 2426SOL     OW 8176   2.361   4.675   4.307
 2426SOL    HW1 8177   2.288   4.607   4.310
 2426SOL    HW2 8178   2.392   4.695   4.400
 2427SOL     OW 8179   6.181   0.073   5.538
 2427SOL    HW1 8180   6.151   0.036   5.450
 2427SOL    HW2 8181   6.135   0.025   5.612
 2428SOL     OW 8182   5.650   1.201   0.536
 2428SOL    HW1 8183   5.640   1.291   0.579
 2428SOL    HW2 8184   5.744   1.190   0.505
 2429SOL     OW 8185   4.804   5.014   2.554
 2429SOL    HW1 8186   4.735   5.054   2.494
 2429SOL    HW2 8187   4.821   4.919   2.527
 2430SOL     OW 8188   4.552   6.786   2.724
 2430SOL    HW1 8189   4.623   6.771   2.793
 2430SOL    HW2 8190   4.467   6.814   2.770
 2431SOL     OW 8191   4.296   6.922   2.277
 2431SOL    HW1 8192   4.370   6.936   2.343
 2431SOL    HW2 8193   4.290   6.825   2.254
 2432SOL     OW 8194   2.532   6.346   2.346
 2432SOL    HW1 8195   2.590   6.291   2.285
 2432SOL    HW2 8196   2.436   6.325   2.327
 2433SOL     OW 8197   4.793   0.575   0.595
 2433SOL    HW1 8198   4.863   0.614   0.655
 2433SOL    HW2 8199   4.836   0.533   0.515
 2434SOL     OW 8200   3.411   2.955   4.369
 2434SOL    HW1 8201   3.418   2.936   4.271
 2434SOL    HW2 8202   3.488   2.914   4.416
 2435SOL     OW 8203   5.779   6.206   6.273
 2435SOL    HW1 8204   5.794   6.139   6.347
 2435SOL    HW2 8205   5.866   6.230   6.231
 2436SOL     OW 8206   2.863   4.598   0.779
 2436SOL    HW1 8207   2.911   4.582   0.865
 2436SOL    HW2 8208   2.820   4.513   0.748
 2437SOL     OW 8209   6.795   0.662   5.564
 2437SOL    HW1 8210   6.817   0.753   5.599
 2437SOL    HW2 8211   6.744   0.611   5.633
 2438SOL     OW 8212   3.554   3.265   0.888
 2438SOL    HW1 8213   3.515   3.200   0.954
 2438SOL    HW2 8214   3.485   3.289   0.820
 2439SOL     OW 8215   6.134   4.628   6.008
 2439SOL    HW1 8216   6.179   4.540   6.024
 2439SOL    HW2 8217   6.144   4.654   5.912
 2440SOL     OW 8218   6.081   5.072   5.330
 2440SOL    HW1 8219   6.046   5.143   5.392
 2440SOL    HW2 8220   6.007   5.040   5.272
 2441SOL     OW 8221   6.298   2.420   0.519
 2441SOL    HW1 8222   6.261   2.342   0.570
 2441SOL    HW2 8223   6.224   2.470   0.474
 2442SOL     OW 8224   6.611   1.983   4.900
 2442SOL    HW1 8225   6.684   2.045   4.930
 2442SOL    HW2 8226   6.549   1.965   4.977
 2443SOL     OW 8227   2.729   4.772   5.558
 2443SOL    HW1 8228   2.728   4.868   5.531
 2443SOL    HW2 8229   2.641   4.730   5.537
 2444SOL     OW 8230   3.864   2.568   6.014
 2444SOL    HW1 8231   3.886   2.658   5.976
 2444SOL    HW2 8232   3.852   2.503   5.939
 2445SOL     OW 8233   1.323   0.409   0.854
 2445SOL    HW1 8234   1.228   0.442   0.859
 2445SOL    HW2 8235   1.358   0.423   0.761
 2446SOL     OW 8236   4.645   2.958   6.403
 2446SOL    HW1 8237   4.734   2.926   6.434
 2446SOL    HW2 8238   4.593   2.881   6.366
 2447SOL     OW 8239   1.262   3.562   6.303
 2447SOL    HW1 8240   1.350   3.606   6.319
 2447SOL    HW2 8241   1.276   3.469   6.269
 2448SOL     OW 8242   6.814   0.407   4.617
 2448SOL    HW1 8243   6.829   0.505   4.604
 2448SOL    HW2 8244   6.872   0.374   4.691
 2449SOL     OW 8245   7.000   2.867   5.645
 2449SOL    HW1 8246   7.004   2.787   5.584
 2449SOL    HW2 8247   0.060   2.870   5.701
 2450SOL     OW 8248   2.608   3.454   1.442
 2450SOL    HW1 8249   2.682   3.519   1.426
 2450SOL    HW2 8250   2.569   3.469   1.533
 2451SOL     OW 8251   1.861   5.556   3.861
 2451SOL    HW1 8252   1.827   5.644   3.893
 2451SOL    HW2 8253   1.798   5.483   3.888
 2452SOL     OW 8254   2.546   2.149   5.127
 2452SOL    HW1 8255   2.529   2.090   5.048
 2452SOL    HW2 8256   2.580   2.238   5.096
 2453SOL     OW 8257   0.319   4.196   1.012
 2453SOL    HW1 8258   0.314   4.097   1.024
 2453SOL    HW2 8259   0.268   4.222   0.931
 2454SOL     OW 8260   1.160   0.185   2.136
 2454SOL    HW1 8261   1.183   0.094   2.103
 2454SOL    HW2 8262   1.128   0.241   2.060
 2455SOL     OW 8263   5.574   3.625   1.368
 2455SOL    HW1 8264   5.651   3.577   1.325
 2455SOL    HW2 8265   5.601   3.655   1.460
 2456SOL     OW 8266   2.819   6.818   1.585
 2456SOL    HW1 8267   2.744   6.884   1.574
 2456SOL    HW2 8268   2.808   6.770   1.672
 2457SOL     OW 8269   5.831   5.895   1.173
 2457SOL    HW1 8270   5.814   5.967   1.106
 2457SOL    HW2 8271   5.751   5.883   1.231
 2458SOL     OW 8272   0.702   6.573   1.645
 2458SOL    HW1 8273   0.642   6.555   1.723
 2458SOL    HW2 8274   0.789   6.526   1.657
 2459SOL     OW 8275   1.130   1.654   0.368
 2459SOL    HW1 8276   1.183   1.574   0.340
 2459SOL    HW2 8277   1.185   1.737   0.353
 2460SOL     OW 8278   2.643   4.288   1.270
 2460SOL    HW1 8279   2.548   4.280   1.301
 2460SOL    HW2 8280   2.691   4.202   1.285
 2461SOL     OW 8281   4.532   1.451   3.226
 2461SOL    HW1 8282   4.504   1.546   3.240
 2461SOL    HW2 8283   4.455   1.390   3.247
 2462SOL     OW 8284   3.004   4.056   6.374
 2462SOL    HW1 8285   3.102   4.061   6.353
 2462SOL    HW2 8286   2.977   4.135   6.428
 2463SOL     OW 8287   0.840   2.816   5.243
 2463SOL    HW1 8288   0.854   2.840   5.147
 2463SOL    HW2 8289   0.834   2.899   5.298
 2464SOL     OW 8290   0.858   3.384   0.511
 2464SOL    HW1 8291   0.803   3.331   0.575
 2464SOL    HW2 8292   0.950   3.399   0.549
 2465SOL     OW 8293   6.324   4.684   2.921
 2465SOL    HW1 8294   6.333   4.646   3.013
 2465SOL    HW2 8295   6.271   4.621   2.864
 2466SOL     OW 8296   3.540   1.778   1.509
 2466SOL    HW1 8297   3.599   1.778   1.589
 2466SOL    HW2 8298   3.596   1.789   1.427
 2467SOL     OW 8299   0.576   0.984   4.788
 2467SOL    HW1 8300   0.569   1.066   4.732
 2467SOL    HW2 8301   0.661   0.986   4.840
 2468SOL     OW 8302   6.119   5.174   6.589
 2468SOL    HW1 8303   6.029   5.132   6.585
 2468SOL    HW2 8304   6.113   5.269   6.557
 2469SOL     OW 8305   2.876   2.623   6.045
 2469SOL    HW1 8306   2.886   2.527   6.016
 2469SOL    HW2 8307   2.845   2.678   5.968
 2470SOL     OW 8308   5.213   2.722   1.340
 2470SOL    HW1 8309   5.274   2.767   1.406
 2470SOL    HW2 8310   5.118   2.741   1.365
 2471SOL     OW 8311   0.173   1.179   2.873
 2471SOL    HW1 8312   0.111   1.102   2.861
 2471SOL    HW2 8313   0.140   1.237   2.947
 2472SOL     OW 8314   6.232   0.594   3.534
 2472SOL    HW1 8315   6.243   0.504   3.578
 2472SOL    HW2 8316   6.321   0.640   3.530
 2473SOL     OW 8317   0.208   6.059   5.022
 2473SOL    HW1 8318   0.258   6.015   4.947
 2473SOL    HW2 8319   0.113   6.027   5.022
 2474SOL     OW 8320   6.590   6.700   4.505
 2474SOL    HW1 8321   6.497   6.674   4.527
 2474SOL    HW2 8322   6.614   6.784   4.552
 2475SOL     OW 8323   3.657   2.309   6.066
 2475SOL    HW1 8324   3.670   2.375   6.140
 2475SOL    HW2 8325   3.649   2.359   5.979
 2476SOL     OW 8326   0.789   1.559   3.498
 2476SOL    HW1 8327   0.791   1.656   3.522
 2476SOL    HW2 8328   0.860   1.511   3.549
 2477SOL     OW 8329   4.574   4.558   2.552
 2477SOL    HW1 8330   4.622   4.646   2.559
 2477SOL    HW2 8331   4.521   4.543   2.635
 2478SOL     OW 8332   6.710   0.457   2.185
 2478SOL    HW1 8333   6.743   0.431   2.275
 2478SOL    HW2 8334   6.756   0.402   2.115
 2479SOL     OW 8335   1.144   3.373   0.213
 2479SOL    HW1 8336   1.216   3.350   0.147
 2479SOL    HW2 8337   1.115   3.468   0.199
 2480SOL     OW 8338   6.742   5.440   1.656
 2480SOL    HW1 8339   6.774   5.399   1.571
 2480SOL    HW2 8340   6.821   5.476   1.707
 2481SOL     OW 8341   4.232   4.673   2.428
 2481SOL    HW1 8342   4.220   4.574   2.438
 2481SOL    HW2 8343   4.284   4.692   2.344
 2482SOL     OW 8344   4.238   2.282   4.495
 2482SOL    HW1 8345   4.278   2.373   4.505
 2482SOL    HW2 8346   4.182   2.263   4.576
 2483SOL     OW 8347   1.157   3.639   0.115
 2483SOL    HW1 8348   1.097   3.633   0.036
 2483SOL    HW2 8349   1.249   3.663   0.084
 2484SOL     OW 8350   3.648   4.520   5.789
 2484SOL    HW1 8351   3.622   4.598   5.846
 2484SOL    HW2 8352   3.596   4.440   5.817
 2485SOL     OW 8353   1.004   5.338   6.854
 2485SOL    HW1 8354   1.042   5.415   6.906
 2485SOL    HW2 8355   1.043   5.252   6.888
 2486SOL     OW 8356   0.738   5.351   3.596
 2486SOL    HW1 8357   0.670   5.298   3.646
 2486SOL    HW2 8358   0.718   5.448   3.604
 2487SOL     OW 8359   3.030   1.211   1.095
 2487SOL    HW1 8360   3.070   1.298   1.066
 2487SOL    HW2 8361   3.030   1.206   1.195
 2488SOL     OW 8362   3.037   5.545   6.456
 2488SOL    HW1 8363   3.130   5.572   6.479
 2488SOL    HW2 8364   3.013   5.462   6.506
 2489SOL     OW 8365   0.044   5.505   4.493
 2489SOL    HW1 8366   7.006   5.489   4.416
 2489SOL    HW2 8367   0.068   5.602   4.497
 2490SOL     OW 8368   5.778   3.080   1.295
 2490SOL    HW1 8369   5.833   3.160   1.272
 2490SOL    HW2 8370   5.687   3.090   1.253
 2491SOL     OW 8371   6.780   4.039   2.665
 2491SOL    HW1 8372   6.745   4.131   2.646
 2491SOL    HW2 8373   6.872   4.046   2.703
 2492SOL     OW 8374   4.231   1.608   6.856
 2492SOL    HW1 8375   4.141   1.621   6.898
 2492SOL    HW2 8376   4.298   1.667   6.901
 2493SOL     OW 8377   6.356   0.557   5.451
 2493SOL    HW1 8378   6.320   0.635   5.502
 2493SOL    HW2 8379   6.377   0.483   5.514
 2494SOL     OW 8380   5.224   5.209   0.728
 2494SOL    HW1 8381   5.230   5.111   0.744
 2494SOL    HW2 8382   5.237   5.228   0.631
 2495SOL     OW 8383   0.285   1.087   2.413
 2495SOL    HW1 8384   0.240   0.998   2.410
 2495SOL    HW2 8385   0.298   1.116   2.508
 2496SOL     OW 8386   2.073   4.603   0.468
 2496SOL    HW1 8387   2.152   4.542   0.478
 2496SOL    HW2 8388   2.094   4.673   0.400
 2497SOL     OW 8389   6.026   1.275   6.770
 2497SOL    HW1 8390   6.005   1.177   6.767
 2497SOL    HW2 8391   5.952   1.324   6.816
 2498SOL     OW 8392   0.820   3.119   4.524
 2498SOL    HW1 8393   0.852   3.175   4.447
 2498SOL    HW2 8394   0.891   3.116   4.595
 2499SOL     OW 8395   5.132   0.901   6.974
 2499SOL    HW1 8396   5.174   0.941   0.032
 2499SOL    HW2 8397   5.174   0.812   6.955
 2500SOL     OW 8398   5.089   3.306   5.789
 2500SOL    HW1 8399   5.064   3.357   5.872
 2500SOL    HW2 8400   5.010   3.252   5.759
 2501SOL     OW 8401   6.779   4.830   1.058
 2501SOL    HW1 8402   6.804   4.925   1.081
 2501SOL    HW2 8403   6.769   4.822   0.959
 2502SOL     OW 8404   1.000   6.717   3.329
 2502SOL    HW1 8405   1.047   6.800   3.358
 2502SOL    HW2 8406   1.066   6.654   3.288
 2503SOL     OW 8407   5.365   6.515   4.338
 2503SOL    HW1 8408   5.356   6.543   4.242
 2503SOL    HW2 8409   5.442   6.453   4.347
 2504SOL     OW 8410   2.543   5.018   2.940
 2504SOL    HW1 8411   2.488   4.988   2.862
 2504SOL    HW2 8412   2.616   4.952   2.958
 2505SOL     OW 8413   5.157   3.976   4.857
 2505SOL    HW1 8414   5.123   4.002   4.766
 2505SOL    HW2 8415   5.114   4.034   4.926
 2506SOL     OW 8416   0.677   0.857   0.465
 2506SOL    HW1 8417   0.736   0.793   0.514
 2506SOL    HW2 8418   0.585   0.854   0.504
 2507SOL     OW 8419   6.687   6.462   0.293
 2507SOL    HW1 8420   6.678   6.553   0.252
 2507SOL    HW2 8421   6.719   6.470   0.387
 2508SOL     OW 8422   1.780   1.763   1.689
 2508SOL    HW1 8423   1.696   1.761   1.744
 2508SOL    HW2 8424   1.762   1.809   1.602
 2509SOL     OW 8425   5.998   6.969   3.828
 2509SOL    HW1 8426   6.025   6.912   3.750
 2509SOL    HW2 8427   5.929   6.920   3.882
 2510SOL     OW 8428   3.846   6.071   2.361
 2510SOL    HW1 8429   3.878   5.983   2.326
 2510SOL    HW2 8430   3.816   6.061   2.455
 2511SOL     OW 8431   0.625   5.970   3.706
 2511SOL    HW1 8432   0.695   6.021   3.657
 2511SOL    HW2 8433   0.556   6.033   3.741
 2512SOL     OW 8434   5.907   3.510   4.435
 2512SOL    HW1 8435   5.890   3.428   4.490
 2512SOL    HW2 8436   5.849   3.509   4.354
 2513SOL     OW 8437   6.921   5.081   1.110
 2513SOL    HW1 8438   7.013   5.067   1.146
 2513SOL    HW2 8439   6.925   5.145   1.033
 2514SOL     OW 8440   6.886   2.132   4.151
 2514SOL    HW1 8441   6.929   2.180   4.074
 2514SOL    HW2 8442   6.927   2.163   4.237
 2515SOL     OW 8443   1.019   4.395   6.295
 2515SOL    HW1 8444   0.943   4.364   6.351
 2515SOL    HW2 8445   1.052   4.483   6.330
 2516SOL     OW 8446   4.410   6.727   4.342
 2516SOL    HW1 8447   4.358   6.813   4.342
 2516SOL    HW2 8448   4.507   6.746   4.324
 2517SOL     OW 8449   2.702   5.901   0.714
 2517SOL    HW1 8450   2.608   5.868   0.720
 2517SOL    HW2 8451   2.754   5.866   0.792
 2518SOL     OW 8452   1.971   1.841   6.994
 2518SOL    HW1 8453   1.931   1.911   6.935
 2518SOL    HW2 8454   1.956   1.866   0.066
 2519SOL     OW 8455   6.050   4.147   4.608
 2519SOL    HW1 8456   5.969   4.101   4.573
 2519SOL    HW2 8457   6.043   4.245   4.589
 2520SOL     OW 8458   3.919   5.822   0.728
 2520SOL    HW1 8459   3.882   5.870   0.648
 2520SOL    HW2 8460   3.860   5.745   0.750
 2521SOL     OW 8461   5.595   6.614   5.861
 2521SOL    HW1 8462   5.501   6.648   5.874
 2521SOL    HW2 8463   5.642   6.671   5.794
 2522SOL     OW 8464   2.604   4.687   5.021
 2522SOL    HW1 8465   2.577   4.707   5.115
 2522SOL    HW2 8466   2.704   4.684   5.015
 2523SOL     OW 8467   0.865   2.130   6.404
 2523SOL    HW1 8468   0.830   2.217   6.437
 2523SOL    HW2 8469   0.915   2.084   6.477
 2524SOL     OW 8470   1.667   0.091   4.407
 2524SOL    HW1 8471   1.597   0.091   4.478
 2524SOL    HW2 8472   1.649   0.165   4.342
 2525SOL     OW 8473   2.726   4.677   2.230
 2525SOL    HW1 8474   2.787   4.651   2.156
 2525SOL    HW2 8475   2.631   4.659   2.203
 2526SOL     OW 8476   1.709   2.902   4.695
 2526SOL    HW1 8477   1.785   2.897   4.631
 2526SOL    HW2 8478   1.740   2.878   4.787
 2527SOL     OW 8479   0.026   6.553   3.977
 2527SOL    HW1 8480   6.961   6.547   3.930
 2527SOL    HW2 8481   0.092   6.601   3.918
 2528SOL     OW 8482   5.488   5.209   0.982
 2528SOL    HW1 8483   5.510   5.199   1.079
 2528SOL    HW2 8484   5.499   5.305   0.955
 2529SOL     OW 8485   5.115   4.243   5.301
 2529SOL    HW1 8486   5.201   4.273   5.343
 2529SOL    HW2 8487   5.051   4.320   5.297
 2530SOL     OW 8488   1.333   6.403   3.301
 2530SOL    HW1 8489   1.293   6.311   3.300
 2530SOL    HW2 8490   1.406   6.406   3.370
 2531SOL     OW 8491   5.743   2.208   6.387
 2531SOL    HW1 8492   5.825   2.216   6.330
 2531SOL    HW2 8493   5.661   2.212   6.329
 2532SOL     OW 8494   0.612   5.706   6.233
 2532SOL    HW1 8495   0.686   5.650   6.270
 2532SOL    HW2 8496   0.565   5.656   6.160
 2533SOL     OW 8497   5.625   0.948   4.722
 2533SOL    HW1 8498   5.659   0.855   4.711
 2533SOL    HW2 8499   5.558   0.968   4.649
 2534SOL     OW 8500   6.438   1.364   2.773
 2534SOL    HW1 8501   6.346   1.343   2.743
 2534SOL    HW2 8502   6.439   1.451   2.823
 2535SOL     OW 8503   2.879   0.747   1.847
 2535SOL    HW1 8504   2.939   0.686   1.794
 2535SOL    HW2 8505   2.923   0.837   1.855
 2536SOL     OW 8506   1.061   0.405   3.366
 2536SOL    HW1 8507   1.136   0.399   3.432
 2536SOL    HW2 8508   0.975   0.420   3.414
 2537SOL     OW 8509   2.257   6.423   2.243
 2537SOL    HW1 8510   2.334   6.439   2.181
 2537SOL    HW2 8511   2.171   6.438   2.194
 2538SOL     OW 8512   0.042   5.320   5.157
 2538SOL    HW1 8513   0.090   5.399   5.196
 2538SOL    HW2 8514   0.054   5.319   5.058
 2539SOL     OW 8515   1.317   0.231   5.493
 2539SOL    HW1 8516   1.411   0.245   5.462
 2539SOL    HW2 8517   1.316   0.166   5.570
 2540SOL     OW 8518   4.990   2.556   2.099
 2540SOL    HW1 8519   5.019   2.544   2.004
 2540SOL    HW2 8520   4.892   2.574   2.102
 2541SOL     OW 8521   1.374   1.034   0.164
 2541SOL    HW1 8522   1.290   1.063   0.117
 2541SOL    HW2 8523   1.441   1.107   0.162
 2542SOL     OW 8524   4.164   1.953   2.546
 2542SOL    HW1 8525   4.171   1.967   2.447
 2542SOL    HW2 8526   4.068   1.954   2.573
 2543SOL     OW 8527   6.109   6.624   5.187
 2543SOL    HW1 8528   6.206   6.646   5.180
 2543SOL    HW2 8529   6.081   6.571   5.107
 2544SOL     OW 8530   0.026   0.403   0.394
 2544SOL    HW1 8531   0.111   0.393   0.341
 2544SOL    HW2 8532   0.003   0.315   0.436
 2545SOL     OW 8533   6.805   1.765   0.374
 2545SOL    HW1 8534   6.857   1.791   0.456
 2545SOL    HW2 8535   6.805   1.666   0.365
 2546SOL     OW 8536   5.986   3.452   2.552
 2546SOL    HW1 8537   5.914   3.387   2.530
 2546SOL    HW2 8538   6.034   3.478   2.469
 2547SOL     OW 8539   5.860   4.039   1.419
 2547SOL    HW1 8540   5.836   4.107   1.350
 2547SOL    HW2 8541   5.868   3.949   1.377
 2548SOL     OW 8542   6.382   0.219   5.369
 2548SOL    HW1 8543   6.314   0.214   5.443
 2548SOL    HW2 8544   6.470   0.248   5.407
 2549SOL     OW 8545   2.946   5.136   6.940
 2549SOL    HW1 8546   2.906   5.127   6.849
 2549SOL    HW2 8547   2.891   5.084   7.006
 2550SOL     OW 8548   3.849   0.592   0.759
 2550SOL    HW1 8549   3.919   0.582   0.688
 2550SOL    HW2 8550   3.883   0.554   0.845
 2551SOL     OW 8551   3.838   4.353   1.295
 2551SOL    HW1 8552   3.832   4.264   1.339
 2551SOL    HW2 8553   3.758   4.408   1.319
 2552SOL     OW 8554   2.979   5.360   1.449
 2552SOL    HW1 8555   3.050   5.401   1.391
 2552SOL    HW2 8556   3.021   5.302   1.517
 2553SOL     OW 8557   4.495   1.616   0.640
 2553SOL    HW1 8558   4.491   1.625   0.541
 2553SOL    HW2 8559   4.418   1.561   0.672
 2554SOL     OW 8560   1.159   6.121   1.077
 2554SOL    HW1 8561   1.085   6.062   1.109
 2554SOL    HW2 8562   1.178   6.102   0.981
 2555SOL     OW 8563   0.665   6.554   5.252
 2555SOL    HW1 8564   0.744   6.538   5.311
 2555SOL    HW2 8565   0.594   6.486   5.270
 2556SOL     OW 8566   5.779   0.509   1.321
 2556SOL    HW1 8567   5.789   0.515   1.420
 2556SOL    HW2 8568   5.848   0.447   1.284
 2557SOL     OW 8569   2.522   1.197   6.850
 2557SOL    HW1 8570   2.508   1.101   6.825
 2557SOL    HW2 8571   2.608   1.206   6.900
 2558SOL     OW 8572   6.032   3.002   0.965
 2558SOL    HW1 8573   6.061   3.079   0.908
 2558SOL    HW2 8574   6.020   3.032   1.059
 2559SOL     OW 8575   6.226   4.925   3.576
 2559SOL    HW1 8576   6.270   4.938   3.665
 2559SOL    HW2 8577   6.288   4.874   3.515
 2560SOL     OW 8578   4.220   2.850   1.724
 2560SOL    HW1 8579   4.157   2.820   1.652
 2560SOL    HW2 8580   4.296   2.785   1.731
 2561SOL     OW 8581   3.731   0.303   4.473
 2561SOL    HW1 8582   3.717   0.402   4.471
 2561SOL    HW2 8583   3.643   0.258   4.493
 2562SOL     OW 8584   1.446   6.297   4.994
 2562SOL    HW1 8585   1.511   6.283   4.919
 2562SOL    HW2 8586   1.368   6.349   4.960
 2563SOL     OW 8587   4.365   2.588   6.482
 2563SOL    HW1 8588   4.268   2.602   6.463
 2563SOL    HW2 8589   4.420   2.644   6.419
 2564SOL     OW 8590   1.527   1.488   1.320
 2564SOL    HW1 8591   1.595   1.449   1.383
 2564SOL    HW2 8592   1.506   1.581   1.348
 2565SOL     OW 8593   0.050   0.641   1.145
 2565SOL    HW1 8594   0.145   0.640   1.177
 2565SOL    HW2 8595   0.040   0.580   1.067
 2566SOL     OW 8596   2.419   1.104   0.148
 2566SOL    HW1 8597   2.363   1.067   0.222
 2566SOL    HW2 8598   2.497   1.044   0.132
 2567SOL     OW 8599   2.157   0.709   6.368
 2567SOL    HW1 8600   2.170   0.779   6.438
 2567SOL    HW2 8601   2.064   0.717   6.330
 2568SOL     OW 8602   2.841   6.144   0.773
 2568SOL    HW1 8603   2.910   6.193   0.719
 2568SOL    HW2 8604   2.804   6.069   0.718
 2569SOL     OW 8605   2.598   6.134   6.667
 2569SOL    HW1 8606   2.653   6.213   6.639
 2569SOL    HW2 8607   2.654   6.072   6.722
 2570SOL     OW 8608   0.216   0.135   3.351
 2570SOL    HW1 8609   0.124   0.150   3.315
 2570SOL    HW2 8610   0.283   0.179   3.290
 2571SOL     OW 8611   3.538   3.574   2.667
 2571SOL    HW1 8612   3.439   3.580   2.678
 2571SOL    HW2 8613   3.566   3.478   2.664
 2572SOL     OW 8614   2.970   6.122   2.177
 2572SOL    HW1 8615   2.984   6.123   2.078
 2572SOL    HW2 8616   2.995   6.032   2.213
 2573SOL     OW 8617   6.453   0.717   2.869
 2573SOL    HW1 8618   6.475   0.664   2.952
 2573SOL    HW2 8619   6.474   0.662   2.788
 2574SOL     OW 8620   0.248   4.262   2.079
 2574SOL    HW1 8621   0.245   4.248   1.980
 2574SOL    HW2 8622   0.321   4.327   2.101
 2575SOL     OW 8623   4.525   3.539   5.343
 2575SOL    HW1 8624   4.574   3.548   5.256
 2575SOL    HW2 8625   4.518   3.442   5.367
 2576SOL     OW 8626   0.245   0.394   2.767
 2576SOL    HW1 8627   0.196   0.354   2.844
 2576SOL    HW2 8628   0.181   0.440   2.706
 2577SOL     OW 8629   1.761   4.391   0.724
 2577SOL    HW1 8630   1.854   4.421   0.745
 2577SOL    HW2 8631   1.763   4.325   0.648
 2578SOL     OW 8632   4.393   2.341   4.859
 2578SOL    HW1 8633   4.434   2.257   4.894
 2578SOL    HW2 8634   4.314   2.365   4.915
 2579SOL     OW 8635   6.913   1.789   6.295
 2579SOL    HW1 8636   6.916   1.759   6.390
 2579SOL    HW2 8637   6.834   1.748   6.249
 2580SOL     OW 8638   1.785   1.846   5.748
 2580SOL    HW1 8639   1.860   1.790   5.782
 2580SOL    HW2 8640   1.739   1.891   5.825
 2581SOL     OW 8641   5.082   6.675   4.261
 2581SOL    HW1 8642   5.113   6.581   4.246
 2581SOL    HW2 8643   4.988   6.685   4.229
 2582SOL     OW 8644   6.498   3.946   3.017
 2582SOL    HW1 8645   6.488   3.908   3.109
 2582SOL    HW2 8646   6.423   4.009   2.999
 2583SOL     OW 8647   2.522   0.711   0.258
 2583SOL    HW1 8648   2.509   0.777   0.185
 2583SOL    HW2 8649   2.615   0.720   0.294
 2584SOL     OW 8650   3.833   0.196   3.083
 2584SOL    HW1 8651   3.899   0.145   3.028
 2584SOL    HW2 8652   3.742   0.157   3.071
 2585SOL     OW 8653   3.637   0.938   2.670
 2585SOL    HW1 8654   3.680   1.028   2.676
 2585SOL    HW2 8655   3.539   0.947   2.688
 2586SOL     OW 8656   1.109   1.741   4.545
 2586SOL    HW1 8657   1.048   1.758   4.623
 2586SOL    HW2 8658   1.074   1.788   4.464
 2587SOL     OW 8659   6.431   4.930   2.937
 2587SOL    HW1 8660   6.378   4.852   2.905
 2587SOL    HW2 8661   6.494   4.901   3.009
 2588SOL     OW 8662   3.599   6.849   2.823
 2588SOL    HW1 8663   3.639   6.790   2.894
 2588SOL    HW2 8664   3.513   6.809   2.792
 2589SOL     OW 8665   4.530   6.651   2.147
 2589SOL    HW1 8666   4.529   6.556   2.177
 2589SOL    HW2 8667   4.558   6.656   2.051
 2590SOL     OW 8668   4.454   5.821   3.605
 2590SOL    HW1 8669   4.410   5.742   3.562
 2590SOL    HW2 8670   4.464   5.804   3.703
 2591SOL     OW 8671   6.150   0.318   1.373
 2591SOL    HW1 8672   6.161   0.415   1.351
 2591SOL    HW2 8673   6.183   0.263   1.296
 2592SOL     OW 8674   2.852   4.699   1.654
 2592SOL    HW1 8675   2.866   4.641   1.734
 2592SOL    HW2 8676   2.919   4.675   1.583
 2593SOL     OW 8677   2.880   0.391   3.689
 2593SOL    HW1 8678   2.858   0.325   3.618
 2593SOL    HW2 8679   2.946   0.351   3.753
 2594SOL     OW 8680   2.134   5.722   6.287
 2594SOL    HW1 8681   2.184   5.803   6.255
 2594SOL    HW2 8682   2.196   5.662   6.337
 2595SOL     OW 8683   6.424   2.992   4.790
 2595SOL    HW1 8684   6.364   2.924   4.833
 2595SOL    HW2 8685   6.482   2.947   4.722
 2596SOL     OW 8686   4.829   1.544   0.919
 2596SOL    HW1 8687   4.730   1.531   0.914
 2596SOL    HW2 8688   4.868   1.541   0.827
 2597SOL     OW 8689   2.653   2.242   6.127
 2597SOL    HW1 8690   2.717   2.277   6.059
 2597SOL    HW2 8691   2.586   2.184   6.082
 2598SOL     OW 8692   6.396   0.962   2.817
 2598SOL    HW1 8693   6.429   0.979   2.724
 2598SOL    HW2 8694   6.411   0.866   2.840
 2599SOL     OW 8695   5.226   5.853   6.436
 2599SOL    HW1 8696   5.211   5.775   6.498
 2599SOL    HW2 8697   5.148   5.860   6.374
 2600SOL     OW 8698   0.499   2.903   4.864
 2600SOL    HW1 8699   0.435   2.828   4.849
 2600SOL    HW2 8700   0.529   2.940   4.775
 2601SOL     OW 8701   4.103   4.624   5.272
 2601SOL    HW1 8702   4.159   4.575   5.206
 2601SOL    HW2 8703   4.161   4.661   5.345
 2602SOL     OW 8704   5.837   6.819   6.734
 2602SOL    HW1 8705   5.930   6.831   6.699
 2602SOL    HW2 8706   5.771   6.858   6.670
 2603SOL     OW 8707   1.675   1.837   6.793
 2603SOL    HW1 8708   1.740   1.911   6.776
 2603SOL    HW2 8709   1.613   1.827   6.715
 2604SOL     OW 8710   5.692   1.711   1.343
 2604SOL    HW1 8711   5.658   1.617   1.339
 2604SOL    HW2 8712   5.783   1.715   1.302
 2605SOL     OW 8713   5.125   2.798   5.180
 2605SOL    HW1 8714   5.224   2.801   5.191
 2605SOL    HW2 8715   5.083   2.871   5.233
 2606SOL     OW 8716   6.353   4.613   1.828
 2606SOL    HW1 8717   6.354   4.687   1.897
 2606SOL    HW2 8718   6.442   4.609   1.784
 2607SOL     OW 8719   0.872   1.056   3.521
 2607SOL    HW1 8720   0.863   1.127   3.591
 2607SOL    HW2 8721   0.838   1.091   3.433
 2608SOL     OW 8722   4.386   0.694   0.016
 2608SOL    HW1 8723   4.468   0.705   0.073
 2608SOL    HW2 8724   4.389   0.606   6.993
 2609SOL     OW 8725   0.736   3.504   3.273
 2609SOL    HW1 8726   0.755   3.584   3.216
 2609SOL    HW2 8727   0.790   3.426   3.240
 2610SOL     OW 8728   5.198   5.563   4.659
 2610SOL    HW1 8729   5.292   5.592   4.673
 2610SOL    HW2 8730   5.180   5.553   4.561
 2611SOL     OW 8731   2.880   6.096   1.842
 2611SOL    HW1 8732   2.810   6.165   1.824
 2611SOL    HW2 8733   2.839   6.005   1.837
 2612SOL     OW 8734   0.695   0.178   4.982
 2612SOL    HW1 8735   0.640   0.114   5.036
 2612SOL    HW2 8736   0.635   0.247   4.942
 2613SOL     OW 8737   3.428   1.376   6.960
 2613SOL    HW1 8738   3.394   1.292   7.003
 2613SOL    HW2 8739   3.509   1.354   6.905
 2614SOL     OW 8740   6.247   6.621   6.527
 2614SOL    HW1 8741   6.341   6.612   6.561
 2614SOL    HW2 8742   6.249   6.663   6.436
 2615SOL     OW 8743   6.884   4.283   1.230
 2615SOL    HW1 8744   6.976   4.314   1.254
 2615SOL    HW2 8745   6.819   4.319   1.297
 2616SOL     OW 8746   3.794   4.005   1.863
 2616SOL    HW1 8747   3.730   4.034   1.791
 2616SOL    HW2 8748   3.887   4.029   1.837
 2617SOL     OW 8749   2.281   6.630   1.142
 2617SOL    HW1 8750   2.369   6.594   1.174
 2617SOL    HW2 8751   2.209   6.564   1.162
 2618SOL     OW 8752   0.863   6.048   0.288
 2618SOL    HW1 8753   0.828   6.096   0.208
 2618SOL    HW2 8754   0.821   5.957   0.294
 2619SOL     OW 8755   6.308   1.257   1.937
 2619SOL    HW1 8756   6.254   1.230   1.857
 2619SOL    HW2 8757   6.257   1.324   1.991
 2620SOL     OW 8758   1.112   5.513   4.104
 2620SOL    HW1 8759   1.013   5.526   4.109
 2620SOL    HW2 8760   1.147   5.487   4.194
 2621SOL     OW 8761   0.770   6.245   4.353
 2621SOL    HW1 8762   0.715   6.273   4.431
 2621SOL    HW2 8763   0.783   6.323   4.291
 2622SOL     OW 8764   2.486   2.590   4.598
 2622SOL    HW1 8765   2.506   2.518   4.664
 2622SOL    HW2 8766   2.565   2.650   4.588
 2623SOL     OW 8767   3.322   6.930   6.205
 2623SOL    HW1 8768   3.245   6.911   6.144
 2623SOL    HW2 8769   3.407   6.934   6.151
 2624SOL     OW 8770   5.337   1.802   4.419
 2624SOL    HW1 8771   5.311   1.783   4.325
 2624SOL    HW2 8772   5.298   1.889   4.448
 2625SOL     OW 8773   2.649   6.690   6.357
 2625SOL    HW1 8774   2.587   6.685   6.435
 2625SOL    HW2 8775   2.606   6.649   6.277
 2626SOL     OW 8776   2.437   6.773   3.260
 2626SOL    HW1 8777   2.395   6.850   3.308
 2626SOL    HW2 8778   2.529   6.758   3.296
 2627SOL     OW 8779   1.132   0.028   4.898
 2627SOL    HW1 8780   1.059   0.040   4.965
 2627SOL    HW2 8781   1.094   7.009   4.815
 2628SOL     OW 8782   4.741   5.373   0.245
 2628SOL    HW1 8783   4.695   5.374   0.157
 2628SOL    HW2 8784   4.711   5.293   0.298
 2629SOL     OW 8785   2.775   3.398   1.895
 2629SOL    HW1 8786   2.808   3.308   1.922
 2629SOL    HW2 8787   2.791   3.463   1.969
 2630SOL     OW 8788   3.407   2.063   2.337
 2630SOL    HW1 8789   3.390   2.037   2.242
 2630SOL    HW2 8790   3.326   2.107   2.375
 2631SOL     OW 8791   3.129   6.570   4.358
 2631SOL    HW1 8792   3.180   6.507   4.300
 2631SOL    HW2 8793   3.182   6.589   4.441
 2632SOL     OW 8794   4.575   1.522   1.432
 2632SOL    HW1 8795   4.514   1.473   1.494
 2632SOL    HW2 8796   4.659   1.545   1.480
 2633SOL     OW 8797   6.969   2.700   0.167
 2633SOL    HW1 8798   6.898   2.630   0.171
 2633SOL    HW2 8799   0.034   2.659   0.190
 2634SOL     OW 8800   2.988   4.844   0.342
 2634SOL    HW1 8801   2.933   4.798   0.412
 2634SOL    HW2 8802   3.058   4.781   0.308
 2635SOL     OW 8803   6.377   4.390   3.560
 2635SOL    HW1 8804   6.311   4.321   3.592
 2635SOL    HW2 8805   6.470   4.356   3.575
 2636SOL     OW 8806   5.562   5.563   5.119
 2636SOL    HW1 8807   5.503   5.562   5.200
 2636SOL    HW2 8808   5.543   5.645   5.065
 2637SOL     OW 8809   5.143   5.720   2.496
 2637SOL    HW1 8810   5.139   5.820   2.489
 2637SOL    HW2 8811   5.169   5.681   2.408
 2638SOL     OW 8812   5.184   5.434   0.437
 2638SOL    HW1 8813   5.137   5.485   0.509
 2638SOL    HW2 8814   5.283   5.442   0.450
 2639SOL     OW 8815   6.779   0.056   7.005
 2639SOL    HW1 8816   6.776   0.153   0.003
 2639SOL    HW2 8817   6.807   0.043   6.910
 2640SOL     OW 8818   6.889   6.312   6.857
 2640SOL    HW1 8819   6.805   6.294   6.807
 2640SOL    HW2 8820   6.868   6.351   6.946
 2641SOL     OW 8821   0.173   5.531   1.114
 2641SOL    HW1 8822   0.180   5.472   1.034
 2641SOL    HW2 8823   0.089   5.585   1.109
 2642SOL     OW 8824   6.511   0.285   4.273
 2642SOL    HW1 8825   6.470   0.251   4.188
 2642SOL    HW2 8826   6.537   0.381   4.262
 2643SOL     OW 8827   2.219   0.450   2.180
 2643SOL    HW1 8828   2.203   0.418   2.086
 2643SOL    HW2 8829   2.148   0.411   2.240
 2644SOL     OW 8830   6.036   6.273   4.480
 2644SOL    HW1 8831   6.107   6.247   4.415
 2644SOL    HW2 8832   6.077   6.293   4.569
 2645SOL     OW 8833   5.371   5.910   0.091
 2645SOL    HW1 8834   5.379   5.996   0.141
 2645SOL    HW2 8835   5.276   5.878   0.097
 2646SOL     OW 8836   5.378   5.719   6.145
 2646SOL    HW1 8837   5.316   5.661   6.091
 2646SOL    HW2 8838   5.460   5.666   6.168
 2647SOL     OW 8839   3.353   3.809   0.590
 2647SOL    HW1 8840   3.376   3.865   0.669
 2647SOL    HW2 8841   3.255   3.817   0.572
 2648SOL     OW 8842   4.110   1.342   3.907
 2648SOL    HW1 8843   4.108   1.280   3.985
 2648SOL    HW2 8844   4.054   1.423   3.927
 2649SOL     OW 8845   3.077   4.099   5.262
 2649SOL    HW1 8846   3.083   4.195   5.290
 2649SOL    HW2 8847   3.158   4.049   5.294
 2650SOL     OW 8848   0.792   6.849   2.730
 2650SOL    HW1 8849   0.817   6.944   2.713
 2650SOL    HW2 8850   0.833   6.819   2.817
 2651SOL     OW 8851   1.116   6.986   2.998
 2651SOL    HW1 8852   1.200   7.021   2.955
 2651SOL    HW2 8853   1.066   0.038   3.040
 2652SOL     OW 8854   3.078   3.070   2.431
 2652SOL    HW1 8855   3.176   3.070   2.452
 2652SOL    HW2 8856   3.029   3.115   2.505
 2653SOL     OW 8857   6.663   6.316   1.055
 2653SOL    HW1 8858   6.591   6.266   1.009
 2653SOL    HW2 8859   6.734   6.341   0.989
 2654SOL     OW 8860   6.595   2.768   6.026
 2654SOL    HW1 8861   6.527   2.695   6.028
 2654SOL    HW2 8862   6.645   2.764   5.939
 2655SOL     OW 8863   5.751   5.033   4.126
 2655SOL    HW1 8864   5.756   4.972   4.205
 2655SOL    HW2 8865   5.826   5.098   4.130
 2656SOL     OW 8866   6.302   3.296   5.244
 2656SOL    HW1 8867   6.249   3.230   5.297
 2656SOL    HW2 8868   6.241   3.352   5.189
 2657SOL     OW 8869   4.189   2.374   5.608
 2657SOL    HW1 8870   4.103   2.375   5.659
 2657SOL    HW2 8871   4.247   2.449   5.639
 2658SOL     OW 8872   6.740   4.009   5.409
 2658SOL    HW1 8873   6.649   4.040   5.435
 2658SOL    HW2 8874   6.733   3.939   5.338
 2659SOL     OW 8875   6.577   1.361   3.748
 2659SOL    HW1 8876   6.483   1.332   3.762
 2659SOL    HW2 8877   6.630   1.287   3.707
 2660SOL     OW 8878   1.028   2.050   3.963
 2660SOL    HW1 8879   0.945   2.100   3.988
 2660SOL    HW2 8880   1.004   1.971   3.906
 2661SOL     OW 8881   3.528   0.055   3.458
 2661SOL    HW1 8882   3.541   0.013   3.368
 2661SOL    HW2 8883   3.505   0.151   3.447
 2662SOL     OW 8884   3.668   1.293   4.073
 2662SOL    HW1 8885   3.724   1.249   4.003
 2662SOL    HW2 8886   3.574   1.257   4.067
 2663SOL     OW 8887   1.108   4.300   2.665
 2663SOL    HW1 8888   1.046   4.287   2.742
 2663SOL    HW2 8889   1.065   4.267   2.581
 2664SOL     OW 8890   4.591   4.415   1.707
 2664SOL    HW1 8891   4.530   4.350   1.753
 2664SOL    HW2 8892   4.681   4.412   1.751
 2665SOL     OW 8893   4.655   0.841   4.823
 2665SOL    HW1 8894   4.747   0.844   4.863
 2665SOL    HW2 8895   4.662   0.808   4.728
 2666SOL     OW 8896   5.191   5.991   1.602
 2666SOL    HW1 8897   5.108   6.046   1.610
 2666SOL    HW2 8898   5.187   5.915   1.666
 2667SOL     OW 8899   2.111   4.831   2.686
 2667SOL    HW1 8900   2.090   4.735   2.671
 2667SOL    HW2 8901   2.082   4.884   2.607
 2668SOL     OW 8902   6.513   2.730   5.645
 2668SOL    HW1 8903   6.489   2.827   5.638
 2668SOL    HW2 8904   6.527   2.693   5.554
 2669SOL     OW 8905   4.074   5.930   4.541
 2669SOL    HW1 8906   3.992   5.987   4.540
 2669SOL    HW2 8907   4.088   5.890   4.450
 2670SOL     OW 8908   2.403   6.520   4.350
 2670SOL    HW1 8909   2.346   6.438   4.341
 2670SOL    HW2 8910   2.362   6.582   4.416
 2671SOL     OW 8911   3.045   3.963   7.005
 2671SOL    HW1 8912   3.023   3.892   0.049
 2671SOL    HW2 8913   2.963   3.985   6.952
 2672SOL     OW 8914   0.584   4.625   0.655
 2672SOL    HW1 8915   0.529   4.633   0.572
 2672SOL    HW2 8916   0.654   4.554   0.642
 2673SOL     OW 8917   3.833   2.017   2.825
 2673SOL    HW1 8918   3.767   2.021   2.900
 2673SOL    HW2 8919   3.921   2.052   2.856
 2674SOL     OW 8920   5.296   5.923   4.935
 2674SOL    HW1 8921   5.227   5.888   4.872
 2674SOL    HW2 8922   5.269   5.905   5.029
 2675SOL     OW 8923   0.103   5.053   5.505
 2675SOL    HW1 8924   0.200   5.050   5.528
 2675SOL    HW2 8925   0.057   5.116   5.567
 2676SOL     OW 8926   4.259   0.608   1.762
 2676SOL    HW1 8927   4.336   0.672   1.769
 2676SOL    HW2 8928   4.294   0.514   1.772
 2677SOL     OW 8929   2.426   4.735   1.907
 2677SOL    HW1 8930   2.505   4.786   1.940
 2677SOL    HW2 8931   2.345   4.794   1.909
 2678SOL     OW 8932   0.615   6.640   6.453
 2678SOL    HW1 8933   0.687   6.593   6.503
 2678SOL    HW2 8934   0.555   6.688   6.517
 2679SOL     OW 8935   2.333   5.068   1.895
 2679SOL    HW1 8936   2.257   5.066   1.830
 2679SOL    HW2 8937   2.344   5.161   1.931
 2680SOL     OW 8938   0.120   2.247   1.159
 2680SOL    HW1 8939   0.105   2.332   1.109
 2680SOL    HW2 8940   0.215   2.242   1.190
 2681SOL     OW 8941   2.147   2.361   1.434
 2681SOL    HW1 8942   2.118   2.367   1.529
 2681SOL    HW2 8943   2.197   2.275   1.420
 2682SOL     OW 8944   0.061   2.573   3.778
 2682SOL    HW1 8945   0.151   2.533   3.797
 2682SOL    HW2 8946   0.072   2.670   3.757
 2683SOL     OW 8947   1.420   7.014   0.478
 2683SOL    HW1 8948   1.434   6.969   0.567
 2683SOL    HW2 8949   1.346   0.057   0.485
 2684SOL     OW 8950   2.178   5.244   3.033
 2684SOL    HW1 8951   2.196   5.342   3.042
 2684SOL    HW2 8952   2.227   5.194   3.104
 2685SOL     OW 8953   5.500   5.178   5.845
 2685SOL    HW1 8954   5.495   5.255   5.909
 2685SOL    HW2 8955   5.592   5.174   5.805
 2686SOL     OW 8956   0.750   3.202   5.068
 2686SOL    HW1 8957   0.709   3.153   5.145
 2686SOL    HW2 8958   0.791   3.288   5.100
 2687SOL     OW 8959   4.714   5.257   3.200
 2687SOL    HW1 8960   4.729   5.169   3.244
 2687SOL    HW2 8961   4.745   5.253   3.105
 2688SOL     OW 8962   3.516   4.791   5.357
 2688SOL    HW1 8963   3.551   4.699   5.340
 2688SOL    HW2 8964   3.439   4.808   5.296
 2689SOL     OW 8965   5.940   1.818   4.141
 2689SOL    HW1 8966   6.000   1.744   4.112
 2689SOL    HW2 8967   5.990   1.881   4.201
 2690SOL     OW 8968   3.058   3.999   3.547
 2690SOL    HW1 8969   3.036   4.095   3.528
 2690SOL    HW2 8970   3.037   3.979   3.643
 2691SOL     OW 8971   1.400   6.029   1.550
 2691SOL    HW1 8972   1.371   6.069   1.463
 2691SOL    HW2 8973   1.327   5.970   1.586
 2692SOL     OW 8974   6.793   4.028   3.843
 2692SOL    HW1 8975   6.829   4.009   3.934
 2692SOL    HW2 8976   6.869   4.039   3.779
 2693SOL     OW 8977   1.993   3.863   2.491
 2693SOL    HW1 8978   1.899   3.843   2.463
 2693SOL    HW2 8979   1.992   3.934   2.562
 2694SOL     OW 8980   1.964   1.554   2.864
 2694SOL    HW1 8981   2.002   1.464   2.844
 2694SOL    HW2 8982   2.014   1.624   2.813
 2695SOL     OW 8983   4.169   2.161   2.089
 2695SOL    HW1 8984   4.214   2.248   2.108
 2695SOL    HW2 8985   4.078   2.161   2.131
 2696SOL     OW 8986   3.800   3.290   6.017
 2696SOL    HW1 8987   3.751   3.204   6.024
 2696SOL    HW2 8988   3.763   3.343   5.940
 2697SOL     OW 8989   2.894   1.254   5.201
 2697SOL    HW1 8990   2.884   1.217   5.293
 2697SOL    HW2 8991   2.810   1.303   5.176
 2698SOL     OW 8992   1.209   1.384   6.995
 2698SOL    HW1 8993   1.304   1.382   6.963
 2698SOL    HW2 8994   1.197   1.463   0.032
 2699SOL     OW 8995   1.251   4.787   3.837
 2699SOL    HW1 8996   1.279   4.803   3.742
 2699SOL    HW2 8997   1.255   4.873   3.888
 2700SOL     OW 8998   2.315   4.521   2.766
 2700SOL    HW1 8999   2.413   4.540   2.768
 2700SOL    HW2 9000   2.266   4.586   2.824
 2701SOL     OW 9001   2.417   0.670   5.191
 2701SOL    HW1 9002   2.489   0.736   5.212
 2701SOL    HW2 9003   2.447   0.610   5.117
 2702SOL     OW 9004   6.186   6.775   3.169
 2702SOL    HW1 9005   6.144   6.802   3.255
 2702SOL    HW2 9006   6.157   6.682   3.145
 2703SOL     OW 9007   1.744   2.325   2.982
 2703SOL    HW1 9008   1.839   2.296   2.988
 2703SOL    HW2 9009   1.729   2.402   3.043
 2704SOL     OW 9010   0.982   6.584   0.411
 2704SOL    HW1 9011   1.054   6.603   0.477
 2704SOL    HW2 9012   0.997   6.494   0.370
 2705SOL     OW 9013   0.184   3.303   2.508
 2705SOL    HW1 9014   0.104   3.314   2.567
 2705SOL    HW2 9015   0.166   3.233   2.439
 2706SOL     OW 9016   6.466   2.635   3.827
 2706SOL    HW1 9017   6.480   2.710   3.763
 2706SOL    HW2 9018   6.474   2.669   3.921
 2707SOL     OW 9019   3.171   1.147   6.868
 2707SOL    HW1 9020   3.169   1.239   6.905
 2707SOL    HW2 9021   3.228   1.146   6.785
 2708SOL     OW 9022   1.428   4.625   6.801
 2708SOL    HW1 9023   1.503   4.630   6.734
 2708SOL    HW2 9024   1.443   4.547   6.862
 2709SOL     OW 9025   4.129   6.873   1.962
 2709SOL    HW1 9026   4.083   6.935   2.026
 2709SOL    HW2 9027   4.228   6.877   1.977
 2710SOL     OW 9028   6.441   4.307   2.742
 2710SOL    HW1 9029   6.403   4.222   2.708
 2710SOL    HW2 9030   6.531   4.322   2.701
 2711SOL     OW 9031   1.313   6.606   2.262
 2711SOL    HW1 9032   1.345   6.514   2.284
 2711SOL    HW2 9033   1.217   6.603   2.235
 2712SOL     OW 9034   2.823   5.476   2.699
 2712SOL    HW1 9035   2.872   5.480   2.786
 2712SOL    HW2 9036   2.757   5.551   2.695
 2713SOL     OW 9037   1.923   3.099   5.648
 2713SOL    HW1 9038   1.851   3.138   5.591
 2713SOL    HW2 9039   2.011   3.113   5.603
 2714SOL     OW 9040   5.686   0.412   0.331
 2714SOL    HW1 9041   5.652   0.478   0.264
 2714SOL    HW2 9042   5.612   0.348   0.354
 2715SOL     OW 9043   6.067   0.548   0.545
 2715SOL    HW1 9044   6.159   0.545   0.585
 2715SOL    HW2 9045   6.021   0.461   0.561
 2716SOL     OW 9046   6.176   6.445   2.039
 2716SOL    HW1 9047   6.128   6.483   1.960
 2716SOL    HW2 9048   6.142   6.487   2.123
 2717SOL     OW 9049   0.441   6.917   3.088
 2717SOL    HW1 9050   0.445   6.846   3.017
 2717SOL    HW2 9051   0.480   6.882   3.173
 2718SOL     OW 9052   0.046   3.781   3.081
 2718SOL    HW1 9053   7.010   3.862   3.074
 2718SOL    HW2 9054   0.099   3.772   2.997
 2719SOL     OW 9055   4.059   4.740   2.821
 2719SOL    HW1 9056   4.115   4.704   2.896
 2719SOL    HW2 9057   3.991   4.803   2.858
 2720SOL     OW 9058   0.826   6.505   4.660
 2720SOL    HW1 9059   0.827   6.535   4.755
 2720SOL    HW2 9060   0.775   6.419   4.653
 2721SOL     OW 9061   5.200   6.253   3.408
 2721SOL    HW1 9062   5.169   6.278   3.499
 2721SOL    HW2 9063   5.292   6.214   3.413
 2722SOL     OW 9064   0.657   5.765   2.296
 2722SOL    HW1 9065   0.689   5.782   2.389
 2722SOL    HW2 9066   0.729   5.720   2.243
 2723SOL     OW 9067   1.836   2.439   4.355
 2723SOL    HW1 9068   1.747   2.484   4.351
 2723SOL    HW2 9069   1.894   2.488   4.421
 2724SOL     OW 9070   4.607   5.968   5.927
 2724SOL    HW1 9071   4.563   5.971   5.837
 2724SOL    HW2 9072   4.543   6.003   5.996
 2725SOL     OW 9073   2.361   4.790   3.124
 2725SOL    HW1 9074   2.450   4.744   3.124
 2725SOL    HW2 9075   2.323   4.789   3.032
 2726SOL     OW 9076   4.185   6.166   2.661
 2726SOL    HW1 9077   4.172   6.116   2.747
 2726SOL    HW2 9078   4.207   6.101   2.588
 2727SOL     OW 9079   1.999   5.961   4.112
 2727SOL    HW1 9080   2.068   5.898   4.147
 2727SOL    HW2 9081   1.910   5.917   4.114
 2728SOL     OW 9082   2.500   6.727   5.598
 2728SOL    HW1 9083   2.581   6.784   5.600
 2728SOL    HW2 9084   2.524   6.633   5.622
 2729SOL     OW 9085   0.414   4.585   2.647
 2729SOL    HW1 9086   0.449   4.672   2.681
 2729SOL    HW2 9087   0.359   4.602   2.565
 2730SOL     OW 9088   1.637   4.077   1.225
 2730SOL    HW1 9089   1.675   4.136   1.154
 2730SOL    HW2 9090   1.708   4.053   1.291
 2731SOL     OW 9091   2.387   3.231   0.225
 2731SOL    HW1 9092   2.447   3.213   0.303
 2731SOL    HW2 9093   2.336   3.147   0.203
 2732SOL     OW 9094   5.566   3.034   4.416
 2732SOL    HW1 9095   5.535   3.039   4.512
 2732SOL    HW2 9096   5.525   2.954   4.373
 2733SOL     OW 9097   2.133   0.613   0.198
 2733SOL    HW1 9098   2.057   0.560   0.161
 2733SOL    HW2 9099   2.207   0.552   0.224
 2734SOL     OW 9100   1.829   6.749   4.505
 2734SOL    HW1 9101   1.735   6.741   4.538
 2734SOL    HW2 9102   1.829   6.778   4.410
 2735SOL     OW 9103   1.870   5.269   1.365
 2735SOL    HW1 9104   1.770   5.272   1.374
 2735SOL    HW2 9105   1.901   5.348   1.314
 2736SOL     OW 9106   4.166   0.287   6.639
 2736SOL    HW1 9107   4.139   0.251   6.729
 2736SOL    HW2 9108   4.127   0.230   6.567
 2737SOL     OW 9109   4.145   4.091   5.606
 2737SOL    HW1 9110   4.068   4.044   5.648
 2737SOL    HW2 9111   4.135   4.190   5.618
 2738SOL     OW 9112   6.827   4.092   4.273
 2738SOL    HW1 9113   6.875   4.069   4.189
 2738SOL    HW2 9114   6.882   4.067   4.352
 2739SOL     OW 9115   4.552   3.824   6.754
 2739SOL    HW1 9116   4.639   3.870   6.773
 2739SOL    HW2 9117   4.564   3.725   6.759
 2740SOL     OW 9118   5.896   2.500   4.389
 2740SOL    HW1 9119   5.820   2.479   4.451
 2740SOL    HW2 9120   5.863   2.556   4.313
 2741SOL     OW 9121   2.153   3.200   5.544
 2741SOL    HW1 9122   2.220   3.196   5.469
 2741SOL    HW2 9123   2.192   3.251   5.620
 2742SOL     OW 9124   3.059   6.064   5.597
 2742SOL    HW1 9125   3.023   6.019   5.515
 2742SOL    HW2 9126   3.155   6.088   5.582
 2743SOL     OW 9127   6.117   4.294   6.412
 2743SOL    HW1 9128   6.159   4.384   6.398
 2743SOL    HW2 9129   6.028   4.306   6.458
 2744SOL     OW 9130   4.968   0.134   1.026
 2744SOL    HW1 9131   4.976   0.040   1.059
 2744SOL    HW2 9132   4.946   0.133   0.929
 2745SOL     OW 9133   3.325   5.818   2.189
 2745SOL    HW1 9134   3.331   5.719   2.204
 2745SOL    HW2 9135   3.310   5.836   2.092
 2746SOL     OW 9136   1.143   2.435   0.008
 2746SOL    HW1 9137   1.214   2.367   7.011
 2746SOL    HW2 9138   1.068   2.392   0.058
 2747SOL     OW 9139   5.070   6.003   3.842
 2747SOL    HW1 9140   4.990   6.061   3.827
 2747SOL    HW2 9141   5.153   6.058   3.833
 2748SOL     OW 9142   5.415   1.258   4.833
 2748SOL    HW1 9143   5.397   1.318   4.755
 2748SOL    HW2 9144   5.385   1.302   4.917
 2749SOL     OW 9145   5.713   4.592   2.990
 2749SOL    HW1 9146   5.782   4.615   2.921
 2749SOL    HW2 9147   5.748   4.519   3.048
 2750SOL     OW 9148   0.904   6.948   6.968
 2750SOL    HW1 9149   0.978   6.973   0.007
 2750SOL    HW2 9150   0.820   6.996   6.995
 2751SOL     OW 9151   1.433   0.200   6.567
 2751SOL    HW1 9152   1.410   0.107   6.596
 2751SOL    HW2 9153   1.399   0.216   6.474
 2752SOL     OW 9154   0.429   6.511   6.308
 2752SOL    HW1 9155   0.450   6.418   6.277
 2752SOL    HW2 9156   0.513   6.554   6.342
 2753SOL     OW 9157   2.958   5.270   4.597
 2753SOL    HW1 9158   3.013   5.198   4.554
 2753SOL    HW2 9159   2.991   5.359   4.566
 2754SOL     OW 9160   0.804   5.510   4.118
 2754SOL    HW1 9161   0.723   5.471   4.162
 2754SOL    HW2 9162   0.799   5.610   4.123
 2755SOL     OW 9163   4.583   6.500   2.510
 2755SOL    HW1 9164   4.485   6.516   2.521
 2755SOL    HW2 9165   4.613   6.430   2.574
 2756SOL     OW 9166   6.970   2.582   5.266
 2756SOL    HW1 9167   6.967   2.666   5.319
 2756SOL    HW2 9168   0.040   2.544   5.269
 2757SOL     OW 9169   5.153   3.992   5.812
 2757SOL    HW1 9170   5.242   3.949   5.825
 2757SOL    HW2 9171   5.137   4.006   5.714
 2758SOL     OW 9172   0.287   6.629   1.857
 2758SOL    HW1 9173   0.311   6.532   1.860
 2758SOL    HW2 9174   0.191   6.641   1.882
 2759SOL     OW 9175   3.869   3.683   5.137
 2759SOL    HW1 9176   3.796   3.658   5.073
 2759SOL    HW2 9177   3.898   3.777   5.120
 2760SOL     OW 9178   5.250   5.470   2.926
 2760SOL    HW1 9179   5.277   5.537   2.857
 2760SOL    HW2 9180   5.189   5.402   2.885
 2761SOL     OW 9181   1.760   3.469   4.006
 2761SOL    HW1 9182   1.851   3.506   3.988
 2761SOL    HW2 9183   1.731   3.495   4.098
 2762SOL     OW 9184   4.482   1.424   2.318
 2762SOL    HW1 9185   4.434   1.477   2.249
 2762SOL    HW2 9186   4.481   1.473   2.405
 2763SOL     OW 9187   5.420   0.906   4.172
 2763SOL    HW1 9188   5.418   0.884   4.074
 2763SOL    HW2 9189   5.363   0.841   4.222
 2764SOL     OW 9190   6.933   2.158   3.244
 2764SOL    HW1 9191   6.845   2.204   3.249
 2764SOL    HW2 9192   6.950   2.128   3.150
 2765SOL     OW 9193   0.265   6.594   6.958
 2765SOL    HW1 9194   0.202   6.670   6.943
 2765SOL    HW2 9195   0.248   6.523   6.889
 2766SOL     OW 9196   4.817   0.496   0.318
 2766SOL    HW1 9197   4.860   0.529   0.234
 2766SOL    HW2 9198   4.719   0.486   0.304
 2767SOL     OW 9199   0.480   6.179   5.800
 2767SOL    HW1 9200   0.495   6.257   5.860
 2767SOL    HW2 9201   0.387   6.144   5.814
 2768SOL     OW 9202   4.059   0.160   1.654
 2768SOL    HW1 9203   4.090   0.255   1.664
 2768SOL    HW2 9204   4.003   0.135   1.732
 2769SOL     OW 9205   0.482   4.884   5.877
 2769SOL    HW1 9206   0.474   4.880   5.977
 2769SOL    HW2 9207   0.578   4.896   5.853
 2770SOL     OW 9208   2.468   6.445   0.883
 2770SOL    HW1 9209   2.379   6.403   0.863
 2770SOL    HW2 9210   2.508   6.400   0.963
 2771SOL     OW 9211   4.229   6.384   5.519
 2771SOL    HW1 9212   4.201   6.319   5.589
 2771SOL    HW2 9213   4.276   6.336   5.445
 2772SOL     OW 9214   6.051   1.862   3.107
 2772SOL    HW1 9215   6.030   1.902   3.018
 2772SOL    HW2 9216   6.056   1.934   3.176
 2773SOL     OW 9217   5.502   1.580   6.302
 2773SOL    HW1 9218   5.485   1.563   6.399
 2773SOL    HW2 9219   5.600   1.569   6.283
 2774SOL     OW 9220   6.786   0.267   3.441
 2774SOL    HW1 9221   6.801   0.350   3.494
 2774SOL    HW2 9222   6.708   0.280   3.380
 2775SOL     OW 9223   6.703   2.392   4.306
 2775SOL    HW1 9224   6.646   2.473   4.301
 2775SOL    HW2 9225   6.646   2.310   4.295
 2776SOL     OW 9226   4.942   3.740   5.889
 2776SOL    HW1 9227   4.957   3.802   5.812
 2776SOL    HW2 9228   4.969   3.786   5.974
 2777SOL     OW 9229   1.505   1.690   0.296
 2777SOL    HW1 9230   1.487   1.597   0.329
 2777SOL    HW2 9231   1.500   1.691   0.196
 2778SOL     OW 9232   2.578   6.701   5.862
 2778SOL    HW1 9233   2.605   6.791   5.893
 2778SOL    HW2 9234   2.522   6.709   5.779
 2779SOL     OW 9235   5.555   1.139   3.292
 2779SOL    HW1 9236   5.489   1.168   3.361
 2779SOL    HW2 9237   5.509   1.081   3.225
 2780SOL     OW 9238   0.842   0.724   5.305
 2780SOL    HW1 9239   0.909   0.657   5.273
 2780SOL    HW2 9240   0.886   0.814   5.315
 2781SOL     OW 9241   0.098   0.392   3.008
 2781SOL    HW1 9242   0.060   0.312   3.055
 2781SOL    HW2 9243   0.031   0.465   3.006
 2782SOL     OW 9244   5.840   6.829   4.722
 2782SOL    HW1 9245   5.818   6.903   4.786
 2782SOL    HW2 9246   5.893   6.865   4.646
 2783SOL     OW 9247   6.325   2.810   1.790
 2783SOL    HW1 9248   6.347   2.783   1.696
 2783SOL    HW2 9249   6.409   2.839   1.836
 2784SOL     OW 9250   0.818   2.276   1.777
 2784SOL    HW1 9251   0.873   2.219   1.716
 2784SOL    HW2 9252   0.801   2.365   1.734
 2785SOL     OW 9253   5.562   3.721   3.694
 2785SOL    HW1 9254   5.518   3.805   3.724
 2785SOL    HW2 9255   5.647   3.744   3.646
 2786SOL     OW 9256   6.938   5.552   0.796
 2786SOL    HW1 9257   6.903   5.513   0.710
 2786SOL    HW2 9258   7.014   5.614   0.775
 2787SOL     OW 9259   0.232   6.764   6.064
 2787SOL    HW1 9260   0.185   6.830   6.122
 2787SOL    HW2 9261   0.328   6.758   6.092
 2788SOL     OW 9262   2.863   6.363   0.210
 2788SOL    HW1 9263   2.789   6.340   0.274
 2788SOL    HW2 9264   2.824   6.394   0.124
 2789SOL     OW 9265   2.069   1.991   3.972
 2789SOL    HW1 9266   2.081   1.892   3.971
 2789SOL    HW2 9267   2.144   2.034   4.023
 2790SOL     OW 9268   0.489   4.995   1.393
 2790SOL    HW1 9269   0.415   4.934   1.422
 2790SOL    HW2 9270   0.544   4.950   1.323
 2791SOL     OW 9271   0.396   3.425   5.192
 2791SOL    HW1 9272   0.351   3.514   5.205
 2791SOL    HW2 9273   0.451   3.428   5.108
 2792SOL     OW 9274   3.022   2.620   6.715
 2792SOL    HW1 9275   3.039   2.718   6.721
 2792SOL    HW2 9276   3.100   2.570   6.754
 2793SOL     OW 9277   4.037   3.622   6.150
 2793SOL    HW1 9278   3.973   3.605   6.226
 2793SOL    HW2 9279   4.057   3.719   6.144
 2794SOL     OW 9280   1.547   1.883   6.550
 2794SOL    HW1 9281   1.543   1.976   6.514
 2794SOL    HW2 9282   1.503   1.819   6.486
 2795SOL     OW 9283   1.171   0.138   0.587
 2795SOL    HW1 9284   1.225   0.095   0.659
 2795SOL    HW2 9285   1.116   0.212   0.626
 2796SOL     OW 9286   3.306   6.257   6.889
 2796SOL    HW1 9287   3.217   6.226   6.924
 2796SOL    HW2 9288   3.294   6.344   6.842
 2797SOL     OW 9289   4.928   4.382   4.602
 2797SOL    HW1 9290   5.001   4.355   4.665
 2797SOL    HW2 9291   4.965   4.386   4.509
 2798SOL     OW 9292   5.321   2.855   1.576
 2798SOL    HW1 9293   5.394   2.814   1.630
 2798SOL    HW2 9294   5.234   2.842   1.623
 2799SOL     OW 9295   3.266   6.989   4.524
 2799SOL    HW1 9296   3.323   6.942   4.457
 2799SOL    HW2 9297   3.208   6.922   4.571
 2800SOL     OW 9298   4.898   1.253   6.653
 2800SOL    HW1 9299   4.964   1.320   6.618
 2800SOL    HW2 9300   4.932   1.216   6.740
 2801SOL     OW 9301   6.972   4.104   3.648
 2801SOL    HW1 9302   6.942   4.200   3.647
 2801SOL    HW2 9303   0.045   4.099   3.620
 2802SOL     OW 9304   1.524   4.282   4.127
 2802SOL    HW1 9305   1.489   4.369   4.160
 2802SOL    HW2 9306   1.624   4.280   4.138
 2803SOL     OW 9307   3.515   2.995   6.664
 2803SOL    HW1 9308   3.587   2.967   6.600
 2803SOL    HW2 9309   3.557   3.038   6.745
 2804SOL     OW 9310   5.790   2.359   3.692
 2804SOL    HW1 9311   5.834   2.278   3.652
 2804SOL    HW2 9312   5.787   2.432   3.625
 2805SOL     OW 9313   3.871   5.312   0.597
 2805SOL    HW1 9314   3.932   5.362   0.658
 2805SOL    HW2 9315   3.847   5.370   0.519
 2806SOL     OW 9316   0.585   3.043   4.630
 2806SOL    HW1 9317   0.670   3.083   4.596
 2806SOL    HW2 9318   0.521   3.033   4.554
 2807SOL     OW 9319   4.397   1.371   3.891
 2807SOL    HW1 9320   4.303   1.339   3.901
 2807SOL    HW2 9321   4.460   1.295   3.905
 2808SOL     OW 9322   1.063   6.112   6.715
 2808SOL    HW1 9323   0.995   6.063   6.659
 2808SOL    HW2 9324   1.031   6.118   6.809
 2809SOL     OW 9325   1.389   6.371   0.881
 2809SOL    HW1 9326   1.417   6.343   0.973
 2809SOL    HW2 9327   1.389   6.471   0.875
 2810SOL     OW 9328   0.698   6.103   2.782
 2810SOL    HW1 9329   0.750   6.165   2.723
 2810SOL    HW2 9330   0.758   6.030   2.814
 2811SOL     OW 9331   0.999   0.364   0.654
 2811SOL    HW1 9332   1.014   0.410   0.741
 2811SOL    HW2 9333   0.903   0.337   0.647
 2812SOL     OW 9334   1.758   1.197   1.183
 2812SOL    HW1 9335   1.682   1.247   1.141
 2812SOL    HW2 9336   1.731   1.167   1.275
 2813SOL     OW 9337   6.372   2.411   1.357
 2813SOL    HW1 9338   6.335   2.476   1.424
 2813SOL    HW2 9339   6.457   2.448   1.319
 2814SOL     OW 9340   2.379   4.628   6.661
 2814SOL    HW1 9341   2.288   4.590   6.679
 2814SOL    HW2 9342   2.377   4.727   6.673
 2815SOL     OW 9343   6.505   6.162   4.817
 2815SOL    HW1 9344   6.468   6.138   4.907
 2815SOL    HW2 9345   6.573   6.235   4.828
 2816SOL     OW 9346   0.991   4.934   4.871
 2816SOL    HW1 9347   0.977   4.840   4.899
 2816SOL    HW2 9348   1.030   4.986   4.947
 2817SOL     OW 9349   2.434   0.889   1.934
 2817SOL    HW1 9350   2.395   0.892   2.026
 2817SOL    HW2 9351   2.403   0.968   1.882
 2818SOL     OW 9352   1.981   1.199   0.475
 2818SOL    HW1 9353   2.046   1.236   0.409
 2818SOL    HW2 9354   1.964   1.103   0.455
 2819SOL     OW 9355   6.222   0.320   6.642
 2819SOL    HW1 9356   6.224   0.315   6.741
 2819SOL    HW2 9357   6.163   0.395   6.613
 2820SOL     OW 9358   1.773   1.583   0.121
 2820SOL    HW1 9359   1.821   1.515   0.066
 2820SOL    HW2 9360   1.827   1.604   0.203
 2821SOL     OW 9361   3.441   1.923   5.855
 2821SOL    HW1 9362   3.498   1.953   5.932
 2821SOL    HW2 9363   3.482   1.841   5.814
 2822SOL     OW 9364   4.163   2.698   1.282
 2822SOL    HW1 9365   4.146   2.599   1.281
 2822SOL    HW2 9366   4.084   2.746   1.245
 2823SOL     OW 9367   5.800   4.257   2.847
 2823SOL    HW1 9368   5.783   4.160   2.829
 2823SOL    HW2 9369   5.712   4.303   2.861
 2824SOL     OW 9370   0.693   4.259   5.372
 2824SOL    HW1 9371   0.610   4.245   5.425
 2824SOL    HW2 9372   0.728   4.171   5.340
 2825SOL     OW 9373   4.923   2.379   5.192
 2825SOL    HW1 9374   4.950   2.303   5.132
 2825SOL    HW2 9375   4.892   2.342   5.279
 2826SOL     OW 9376   3.006   3.326   0.073
 2826SOL    HW1 9377   3.043   3.267   0.001
 2826SOL    HW2 9378   3.052   3.305   0.160
 2827SOL     OW 9379   6.462   1.679   0.198
 2827SOL    HW1 9380   6.556   1.709   0.179
 2827SOL    HW2 9381   6.456   1.648   0.293
 2828SOL     OW 9382   1.889   4.542   0.209
 2828SOL    HW1 9383   1.933   4.457   0.239
 2828SOL    HW2 9384   1.841   4.584   0.285
 2829SOL     OW 9385   3.538   4.256   1.211
 2829SOL    HW1 9386   3.464   4.218   1.265
 2829SOL    HW2 9387   3.582   4.331   1.262
 2830SOL     OW 9388   2.675   5.568   4.762
 2830SOL    HW1 9389   2.643   5.596   4.852
 2830SOL    HW2 9390   2.635   5.480   4.737
 2831SOL     OW 9391   6.378   1.649   1.981
 2831SOL    HW1 9392   6.305   1.588   2.012
 2831SOL    HW2 9393   6.430   1.681   2.060
 2832SOL     OW 9394   1.794   4.030   1.429
 2832SOL    HW1 9395   1.819   3.937   1.453
 2832SOL    HW2 9396   1.871   4.091   1.447
 2833SOL     OW 9397   6.418   2.755   3.306
 2833SOL    HW1 9398   6.389   2.796   3.219
 2833SOL    HW2 9399   6.493   2.691   3.289
 2834SOL     OW 9400   3.049   0.591   4.193
 2834SOL    HW1 9401   3.015   0.623   4.281
 2834SOL    HW2 9402   3.042   0.491   4.190
 2835SOL     OW 9403   6.516   1.622   0.735
 2835SOL    HW1 9404   6.545   1.531   0.705
 2835SOL    HW2 9405   6.594   1.672   0.772
 2836SOL     OW 9406   3.378   5.996   1.553
 2836SOL    HW1 9407   3.468   5.989   1.597
 2836SOL    HW2 9408   3.390   6.004   1.454
 2837SOL     OW 9409   5.511   4.067   3.147
 2837SOL    HW1 9410   5.501   4.165   3.131
 2837SOL    HW2 9411   5.426   4.020   3.124
 2838SOL     OW 9412   0.028   3.898   5.993
 2838SOL    HW1 9413   0.052   3.931   6.084
 2838SOL    HW2 9414   0.093   3.827   5.966
 2839SOL     OW 9415   5.747   2.686   6.468
 2839SOL    HW1 9416   5.762   2.590   6.490
 2839SOL    HW2 9417   5.779   2.743   6.544
 2840SOL     OW 9418   6.402   6.117   5.058
 2840SOL    HW1 9419   6.349   6.199   5.079
 2840SOL    HW2 9420   6.351   6.036   5.087
 2841SOL     OW 9421   5.406   3.621   3.421
 2841SOL    HW1 9422   5.395   3.544   3.484
 2841SOL    HW2 9423   5.352   3.699   3.453
 2842SOL     OW 9424   0.683   6.392   3.575
 2842SOL    HW1 9425   0.617   6.346   3.635
 2842SOL    HW2 9426   0.723   6.470   3.623
 2843SOL     OW 9427   1.228   2.783   4.240
 2843SOL    HW1 9428   1.257   2.687   4.234
 2843SOL    HW2 9429   1.264   2.823   4.325
 2844SOL     OW 9430   5.433   4.029   6.781
 2844SOL    HW1 9431   5.526   4.006   6.753
 2844SOL    HW2 9432   5.431   4.053   6.878
 2845SOL     OW 9433   3.705   1.757   1.270
 2845SOL    HW1 9434   3.785   1.754   1.330
 2845SOL    HW2 9435   3.734   1.778   1.176
 2846SOL     OW 9436   5.020   7.021   6.701
 2846SOL    HW1 9437   4.955   0.011   6.626
 2846SOL    HW2 9438   5.048   6.925   6.705
 2847SOL     OW 9439   5.828   4.959   2.335
 2847SOL    HW1 9440   5.894   4.969   2.409
 2847SOL    HW2 9441   5.846   5.028   2.264
 2848SOL     OW 9442   0.651   3.416   0.245
 2848SOL    HW1 9443   0.735   3.363   0.244
 2848SOL    HW2 9444   0.657   3.487   0.316
 2849SOL     OW 9445   5.350   0.772   1.099
 2849SOL    HW1 9446   5.270   0.791   1.042
 2849SOL    HW2 9447   5.369   0.850   1.158
 2850SOL     OW 9448   6.781   0.939   0.676
 2850SOL    HW1 9449   6.723   0.999   0.731
 2850SOL    HW2 9450   6.857   0.991   0.639
 2851SOL     OW 9451   3.725   3.341   2.225
 2851SOL    HW1 9452   3.631   3.313   2.209
 2851SOL    HW2 9453   3.744   3.339   2.323
 2852SOL     OW 9454   0.706   4.971   4.935
 2852SOL    HW1 9455   0.804   4.960   4.919
 2852SOL    HW2 9456   0.656   4.893   4.895
 2853SOL     OW 9457   0.590   4.654   6.127
 2853SOL    HW1 9458   0.684   4.687   6.133
 2853SOL    HW2 9459   0.581   4.570   6.180
 2854SOL     OW 9460   2.732   0.140   6.601
 2854SOL    HW1 9461   2.816   0.158   6.550
 2854SOL    HW2 9462   2.738   0.186   6.690
 2855SOL     OW 9463   2.828   2.044   4.399
 2855SOL    HW1 9464   2.831   2.075   4.494
 2855SOL    HW2 9465   2.739   2.001   4.380
 2856SOL     OW 9466   1.371   5.385   4.534
 2856SOL    HW1 9467   1.418   5.419   4.616
 2856SOL    HW2 9468   1.375   5.285   4.532
 2857SOL     OW 9469   0.648   4.555   0.194
 2857SOL    HW1 9470   0.671   4.642   0.151
 2857SOL    HW2 9471   0.561   4.563   0.243
 2858SOL     OW 9472   5.608   4.545   4.190
 2858SOL    HW1 9473   5.693   4.535   4.139
 2858SOL    HW2 9474   5.536   4.577   4.128
 2859SOL     OW 9475   0.128   4.873   1.783
 2859SOL    HW1 9476   0.121   4.827   1.695
 2859SOL    HW2 9477   0.117   4.972   1.770
 2860SOL     OW 9478   1.271   6.840   3.174
 2860SOL    HW1 9479   1.234   6.747   3.169
 2860SOL    HW2 9480   1.220   6.900   3.113
 2861SOL     OW 9481   5.634   3.375   5.309
 2861SOL    HW1 9482   5.592   3.417   5.228
 2861SOL    HW2 9483   5.729   3.406   5.316
 2862SOL     OW 9484   4.859   1.269   0.468
 2862SOL    HW1 9485   4.910   1.213   0.403
 2862SOL    HW2 9486   4.778   1.219   0.499
 2863SOL     OW 9487   5.696   1.910   6.262
 2863SOL    HW1 9488   5.739   1.822   6.281
 2863SOL    HW2 9489   5.606   1.913   6.304
 2864SOL     OW 9490   4.259   4.693   0.906
 2864SOL    HW1 9491   4.286   4.721   0.998
 2864SOL    HW2 9492   4.196   4.761   0.867
 2865SOL     OW 9493   5.803   4.785   6.293
 2865SOL    HW1 9494   5.781   4.829   6.380
 2865SOL    HW2 9495   5.739   4.710   6.277
 2866SOL     OW 9496   4.805   5.855   0.950
 2866SOL    HW1 9497   4.847   5.764   0.948
 2866SOL    HW2 9498   4.709   5.847   0.978
 2867SOL     OW 9499   0.606   5.960   3.033
 2867SOL    HW1 9500   0.680   5.981   2.970
 2867SOL    HW2 9501   0.522   6.006   3.003
 2868SOL     OW 9502   6.610   0.288   5.506
 2868SOL    HW1 9503   6.682   0.340   5.459
 2868SOL    HW2 9504   6.564   0.348   5.571
 2869SOL     OW 9505   5.607   4.436   5.124
 2869SOL    HW1 9506   5.626   4.384   5.040
 2869SOL    HW2 9507   5.671   4.513   5.130
 2870SOL     OW 9508   0.168   1.485   1.366
 2870SOL    HW1 9509   0.148   1.514   1.272
 2870SOL    HW2 9510   0.084   1.488   1.421
 2871SOL     OW 9511   4.674   1.158   3.577
 2871SOL    HW1 9512   4.761   1.201   3.600
 2871SOL    HW2 9513   4.649   1.184   3.484
 2872SOL     OW 9514   3.617   1.644   2.589
 2872SOL    HW1 9515   3.569   1.724   2.554
 2872SOL    HW2 9516   3.555   1.590   2.646
 2873SOL     OW 9517   0.021   0.133   2.780
 2873SOL    HW1 9518   6.947   0.151   2.761
 2873SOL    HW2 9519   0.031   0.103   2.875
 2874SOL     OW 9520   1.823   0.944   2.550
 2874SOL    HW1 9521   1.867   1.033   2.538
 2874SOL    HW2 9522   1.730   0.947   2.514
 2875SOL     OW 9523   2.925   0.381   2.345
 2875SOL    HW1 9524   2.913   0.480   2.357
 2875SOL    HW2 9525   2.977   0.345   2.422
 2876SOL     OW 9526   1.242   0.010   1.031
 2876SOL    HW1 9527   1.203   0.079   1.092
 2876SOL    HW2 9528   1.227   6.943   1.069
 2877SOL     OW 9529   1.606   3.748   6.666
 2877SOL    HW1 9530   1.567   3.824   6.718
 2877SOL    HW2 9531   1.557   3.739   6.579
 2878SOL     OW 9532   3.710   3.584   4.936
 2878SOL    HW1 9533   3.647   3.520   4.892
 2878SOL    HW2 9534   3.790   3.597   4.878
 2879SOL     OW 9535   6.257   5.930   0.530
 2879SOL    HW1 9536   6.260   5.832   0.553
 2879SOL    HW2 9537   6.285   5.984   0.609
 2880SOL     OW 9538   1.489   1.907   2.843
 2880SOL    HW1 9539   1.520   1.957   2.762
 2880SOL    HW2 9540   1.492   1.968   2.923
 2881SOL     OW 9541   5.327   4.981   6.982
 2881SOL    HW1 9542   5.369   4.942   0.041
 2881SOL    HW2 9543   5.251   5.040   7.007
 2882SOL     OW 9544   5.216   6.352   0.207
 2882SOL    HW1 9545   5.126   6.351   0.250
 2882SOL    HW2 9546   5.210   6.397   0.118
 2883SOL     OW 9547   4.927   6.198   3.043
 2883SOL    HW1 9548   5.024   6.192   3.068
 2883SOL    HW2 9549   4.871   6.200   3.126
 2884SOL     OW 9550   6.202   5.192   3.517
 2884SOL    HW1 9551   6.213   5.093   3.520
 2884SOL    HW2 9552   6.133   5.220   3.585
 2885SOL     OW 9553   0.485   3.540   3.336
 2885SOL    HW1 9554   0.461   3.635   3.353
 2885SOL    HW2 9555   0.581   3.534   3.307
 2886SOL     OW 9556   2.231   4.308   4.983
 2886SOL    HW1 9557   2.249   4.210   4.989
 2886SOL    HW2 9558   2.267   4.354   5.064
 2887SOL     OW 9559   0.027   4.570   3.082
 2887SOL    HW1 9560   7.011   4.503   3.019
 2887SOL    HW2 9561   0.015   4.537   3.176
 2888SOL     OW 9562   4.410   5.870   6.798
 2888SOL    HW1 9563   4.424   5.786   6.850
 2888SOL    HW2 9564   4.491   5.928   6.805
 2889SOL     OW 9565   3.870   5.574   4.343
 2889SOL    HW1 9566   3.941   5.634   4.307
 2889SOL    HW2 9567   3.911   5.503   4.400
 2890SOL     OW 9568   1.539   2.294   0.976
 2890SOL    HW1 9569   1.477   2.257   0.907
 2890SOL    HW2 9570   1.632   2.296   0.939
 2891SOL     OW 9571   1.901   1.747   5.512
 2891SOL    HW1 9572   1.870   1.660   5.551
 2891SOL    HW2 9573   1.844   1.822   5.548
 2892SOL     OW 9574   6.018   3.971   2.027
 2892SOL    HW1 9575   6.100   4.023   2.001
 2892SOL    HW2 9576   6.042   3.874   2.037
 2893SOL     OW 9577   6.707   6.021   5.084
 2893SOL    HW1 9578   6.753   6.104   5.117
 2893SOL    HW2 9579   6.616   6.045   5.051
 2894SOL     OW 9580   1.963   5.525   1.271
 2894SOL    HW1 9581   2.006   5.498   1.184
 2894SOL    HW2 9582   1.896   5.597   1.254
 2895SOL     OW 9583   5.043   6.450   6.458
 2895SOL    HW1 9584   4.966   6.484   6.512
 2895SOL    HW2 9585   5.020   6.454   6.361
 2896SOL     OW 9586   6.499   6.824   6.031
 2896SOL    HW1 9587   6.492   6.892   5.958
 2896SOL    HW2 9588   6.492   6.732   5.993
 2897SOL     OW 9589   3.228   6.021   3.421
 2897SOL    HW1 9590   3.272   5.934   3.439
 2897SOL    HW2 9591   3.296   6.089   3.395
 2898SOL     OW 9592   5.274   2.442   2.504
 2898SOL    HW1 9593   5.273   2.362   2.564
 2898SOL    HW2 9594   5.362   2.448   2.458
 2899SOL     OW 9595   6.548   2.814   1.214
 2899SOL    HW1 9596   6.614   2.759   1.162
 2899SOL    HW2 9597   6.555   2.791   1.311
 2900SOL     OW 9598   3.284   2.933   4.963
 2900SOL    HW1 9599   3.226   2.853   4.976
 2900SOL    HW2 9600   3.235   3.002   4.909
 2901SOL     OW 9601   1.587   3.563   1.412
 2901SOL    HW1 9602   1.630   3.631   1.352
 2901SOL    HW2 9603   1.529   3.503   1.357
 2902SOL     OW 9604   5.439   6.087   3.430
 2902SOL    HW1 9605   5.520   6.118   3.479
 2902SOL    HW2 9606   5.440   5.987   3.422
 2903SOL     OW 9607   0.902   5.434   1.022
 2903SOL    HW1 9608   0.901   5.499   0.945
 2903SOL    HW2 9609   0.822   5.375   1.018
 2904SOL     OW 9610   2.712   4.683   4.223
 2904SOL    HW1 9611   2.724   4.782   4.209
 2904SOL    HW2 9612   2.742   4.659   4.315
 2905SOL     OW 9613   1.372   4.360   1.647
 2905SOL    HW1 9614   1.356   4.397   1.738
 2905SOL    HW2 9615   1.314   4.280   1.633
 2906SOL     OW 9616   6.615   6.223   6.261
 2906SOL    HW1 9617   6.712   6.210   6.239
 2906SOL    HW2 9618   6.560   6.202   6.180
 2907SOL     OW 9619   6.470   0.915   5.957
 2907SOL    HW1 9620   6.561   0.899   5.996
 2907SOL    HW2 9621   6.401   0.897   6.027
 2908SOL     OW 9622   3.892   5.978   3.609
 2908SOL    HW1 9623   3.980   5.931   3.616
 2908SOL    HW2 9624   3.823   5.930   3.664
 2909SOL     OW 9625   0.446   6.766   0.706
 2909SOL    HW1 9626   0.377   6.838   0.694
 2909SOL    HW2 9627   0.422   6.688   0.648
 2910SOL     OW 9628   1.142   0.609   4.527
 2910SOL    HW1 9629   1.102   0.687   4.479
 2910SOL    HW2 9630   1.098   0.600   4.617
 2911SOL     OW 9631   6.527   3.483   3.706
 2911SOL    HW1 9632   6.588   3.406   3.725
 2911SOL    HW2 9633   6.578   3.568   3.713
 2912SOL     OW 9634   0.342   1.220   2.658
 2912SOL    HW1 9635   0.434   1.234   2.693
 2912SOL    HW2 9636   0.277   1.215   2.734
 2913SOL     OW 9637   1.140   6.584   4.422
 2913SOL    HW1 9638   1.143   6.558   4.519
 2913SOL    HW2 9639   1.081   6.663   4.410
 2914SOL     OW 9640   3.757   4.451   0.615
 2914SOL    HW1 9641   3.707   4.537   0.627
 2914SOL    HW2 9642   3.709   4.393   0.549
 2915SOL     OW 9643   2.481   0.615   3.736
 2915SOL    HW1 9644   2.485   0.714   3.720
 2915SOL    HW2 9645   2.553   0.570   3.683
 2916SOL     OW 9646   0.434   5.762   6.419
 2916SOL    HW1 9647   0.502   5.758   6.345
 2916SOL    HW2 9648   0.352   5.713   6.391
 2917SOL     OW 9649   2.172   0.905   3.285
 2917SOL    HW1 9650   2.140   0.982   3.341
 2917SOL    HW2 9651   2.197   0.829   3.344
 2918SOL     OW 9652   5.422   1.752   1.213
 2918SOL    HW1 9653   5.458   1.822   1.150
 2918SOL    HW2 9654   5.441   1.780   1.307
 2919SOL     OW 9655   0.623   5.834   4.961
 2919SOL    HW1 9656   0.630   5.844   5.060
 2919SOL    HW2 9657   0.682   5.759   4.930
 2920SOL     OW 9658   2.717   2.317   1.770
 2920SOL    HW1 9659   2.773   2.308   1.852
 2920SOL    HW2 9660   2.775   2.315   1.689
 2921SOL     OW 9661   0.117   5.417   3.511
 2921SOL    HW1 9662   0.116   5.429   3.412
 2921SOL    HW2 9663   0.050   5.478   3.552
 2922SOL     OW 9664   4.110   5.110   3.520
 2922SOL    HW1 9665   4.142   5.195   3.562
 2922SOL    HW2 9666   4.135   5.108   3.424
 2923SOL     OW 9667   1.010   4.835   3.476
 2923SOL    HW1 9668   0.977   4.780   3.552
 2923SOL    HW2 9669   0.932   4.877   3.429
 2924SOL     OW 9670   5.052   1.524   6.883
 2924SOL    HW1 9671   5.052   1.480   6.793
 2924SOL    HW2 9672   5.144   1.559   6.903
 2925SOL     OW 9673   5.324   6.735   4.751
 2925SOL    HW1 9674   5.404   6.774   4.706
 2925SOL    HW2 9675   5.254   6.806   4.761
 2926SOL     OW 9676   6.740   2.725   4.786
 2926SOL    HW1 9677   6.673   2.667   4.738
 2926SOL    HW2 9678   6.755   2.689   4.878
 2927SOL     OW 9679   1.053   2.037   2.484
 2927SOL    HW1 9680   1.022   2.099   2.557
 2927SOL    HW2 9681   0.989   2.042   2.408
 2928SOL     OW 9682   5.000   4.863   0.442
 2928SOL    HW1 9683   5.029   4.823   0.355
 2928SOL    HW2 9684   4.901   4.874   0.442
 2929SOL     OW 9685   1.945   1.951   2.936
 2929SOL    HW1 9686   1.952   2.050   2.928
 2929SOL    HW2 9687   1.949   1.910   2.845
 2930SOL     OW 9688   0.531   2.986   4.315
 2930SOL    HW1 9689   0.467   3.014   4.243
 2930SOL    HW2 9690   0.503   2.898   4.352
 2931SOL     OW 9691   6.135   3.963   5.889
 2931SOL    HW1 9692   6.053   3.906   5.878
 2931SOL    HW2 9693   6.108   4.058   5.904
 2932SOL     OW 9694   6.851   6.666   0.512
 2932SOL    HW1 9695   6.917   6.608   0.560
 2932SOL    HW2 9696   6.866   6.761   0.537
 2933SOL     OW 9697   0.588   0.510   0.049
 2933SOL    HW1 9698   0.644   0.429   0.029
 2933SOL    HW2 9699   0.646   0.591   0.049
 2934SOL     OW 9700   5.594   4.871   2.413
 2934SOL    HW1 9701   5.690   4.887   2.388
 2934SOL    HW2 9702   5.577   4.772   2.412
 2935SOL     OW 9703   1.086   3.986   5.884
 2935SOL    HW1 9704   1.012   3.984   5.951
 2935SOL    HW2 9705   1.137   3.901   5.887
 2936SOL     OW 9706   4.294   6.489   2.525
 2936SOL    HW1 9707   4.257   6.452   2.610
 2936SOL    HW2 9708   4.295   6.417   2.455
 2937SOL     OW 9709   6.168   3.506   3.390
 2937SOL    HW1 9710   6.140   3.485   3.297
 2937SOL    HW2 9711   6.092   3.490   3.453
 2938SOL     OW 9712   0.638   5.403   1.192
 2938SOL    HW1 9713   0.668   5.499   1.193
 2938SOL    HW2 9714   0.565   5.391   1.259
 2939SOL     OW 9715   5.809   6.348   2.077
 2939SOL    HW1 9716   5.862   6.288   2.016
 2939SOL    HW2 9717   5.777   6.294   2.155
 2940SOL     OW 9718   4.859   5.975   3.631
 2940SOL    HW1 9719   4.771   5.985   3.584
 2940SOL    HW2 9720   4.918   6.053   3.609
 2941SOL     OW 9721   2.593   4.981   2.512
 2941SOL    HW1 9722   2.659   4.922   2.559
 2941SOL    HW2 9723   2.639   5.030   2.438
 2942SOL     OW 9724   3.179   1.866   1.593
 2942SOL    HW1 9725   3.255   1.911   1.641
 2942SOL    HW2 9726   3.115   1.829   1.661
 2943SOL     OW 9727   0.650   3.673   3.613
 2943SOL    HW1 9728   0.687   3.625   3.534
 2943SOL    HW2 9729   0.573   3.622   3.650
 2944SOL     OW 9730   0.977   5.359   3.287
 2944SOL    HW1 9731   0.987   5.437   3.350
 2944SOL    HW2 9732   1.057   5.353   3.228
 2945SOL     OW 9733   5.753   4.081   0.252
 2945SOL    HW1 9734   5.838   4.124   0.221
 2945SOL    HW2 9735   5.749   4.085   0.352
 2946SOL     OW 9736   3.504   4.215   4.821
 2946SOL    HW1 9737   3.528   4.227   4.724
 2946SOL    HW2 9738   3.479   4.304   4.859
 2947SOL     OW 9739   6.394   6.188   0.289
 2947SOL    HW1 9740   6.337   6.191   0.206
 2947SOL    HW2 9741   6.487   6.161   0.264
 2948SOL     OW 9742   6.288   4.655   0.489
 2948SOL    HW1 9743   6.349   4.600   0.432
 2948SOL    HW2 9744   6.279   4.612   0.579
 2949SOL     OW 9745   2.097   5.901   0.834
 2949SOL    HW1 9746   2.099   5.988   0.883
 2949SOL    HW2 9747   2.191   5.872   0.814
 2950SOL     OW 9748   5.386   5.584   1.904
 2950SOL    HW1 9749   5.380   5.484   1.905
 2950SOL    HW2 9750   5.326   5.621   1.975
 2951SOL     OW 9751   0.510   2.016   1.140
 2951SOL    HW1 9752   0.544   2.002   1.233
 2951SOL    HW2 9753   0.582   2.055   1.083
 2952SOL     OW 9754   0.546   1.851   4.477
 2952SOL    HW1 9755   0.494   1.883   4.399
 2952SOL    HW2 9756   0.506   1.886   4.562
 2953SOL     OW 9757   1.282   5.771   2.940
 2953SOL    HW1 9758   1.307   5.723   2.856
 2953SOL    HW2 9759   1.204   5.831   2.922
 2954SOL     OW 9760   0.835   4.257   6.466
 2954SOL    HW1 9761   0.883   4.189   6.523
 2954SOL    HW2 9762   0.746   4.222   6.440
 2955SOL     OW 9763   1.769   4.611   6.370
 2955SOL    HW1 9764   1.848   4.629   6.429
 2955SOL    HW2 9765   1.787   4.646   6.278
 2956SOL     OW 9766   5.933   3.674   4.830
 2956SOL    HW1 9767   6.016   3.666   4.775
 2956SOL    HW2 9768   5.918   3.770   4.855
 2957SOL     OW 9769   1.469   5.030   2.501
 2957SOL    HW1 9770   1.438   4.938   2.524
 2957SOL    HW2 9771   1.430   5.096   2.565
 2958SOL     OW 9772   1.766   4.327   1.095
 2958SOL    HW1 9773   1.795   4.351   1.002
 2958SOL    HW2 9774   1.671   4.356   1.109
 2959SOL     OW 9775   0.322   4.361   4.172
 2959SOL    HW1 9776   0.365   4.334   4.258
 2959SOL    HW2 9777   0.338   4.458   4.156
 2960SOL     OW 9778   4.971   6.648   0.995
 2960SOL    HW1 9779   5.055   6.619   1.042
 2960SOL    HW2 9780   4.926   6.567   0.956
 2961SOL     OW 9781   5.690   2.264   1.078
 2961SOL    HW1 9782   5.746   2.192   1.038
 2961SOL    HW2 9783   5.745   2.318   1.141
 2962SOL     OW 9784   0.139   0.406   3.592
 2962SOL    HW1 9785   0.192   0.475   3.643
 2962SOL    HW2 9786   0.197   0.326   3.576
 2963SOL     OW 9787   2.061   2.311   5.423
 2963SOL    HW1 9788   2.048   2.321   5.522
 2963SOL    HW2 9789   1.989   2.252   5.386
 2964SOL     OW 9790   1.290   1.231   5.973
 2964SOL    HW1 9791   1.255   1.150   6.020
 2964SOL    HW2 9792   1.220   1.303   5.977
 2965SOL     OW 9793   5.998   0.212   6.246
 2965SOL    HW1 9794   6.039   0.303   6.254
 2965SOL    HW2 9795   5.980   0.176   6.337
 2966SOL     OW 9796   3.276   6.352   3.137
 2966SOL    HW1 9797   3.231   6.362   3.048
 2966SOL    HW2 9798   3.218   6.390   3.209
 2967SOL     OW 9799   6.197   7.013   4.775
 2967SOL    HW1 9800   6.150   6.927   4.794
 2967SOL    HW2 9801   6.267   6.997   4.705
 2968SOL     OW 9802   1.602   3.821   2.218
 2968SOL    HW1 9803   1.553   3.873   2.148
 2968SOL    HW2 9804   1.698   3.811   2.192
 2969SOL     OW 9805   4.580   2.358   4.662
 2969SOL    HW1 9806   4.600   2.456   4.664
 2969SOL    HW2 9807   4.502   2.338   4.722
 2970SOL     OW 9808   3.191   2.594   5.917
 2970SOL    HW1 9809   3.190   2.552   6.007
 2970SOL    HW2 9810   3.252   2.544   5.857
 2971SOL     OW 9811   4.283   3.307   5.924
 2971SOL    HW1 9812   4.339   3.252   5.985
 2971SOL    HW2 9813   4.189   3.271   5.923
 2972SOL     OW 9814   0.631   6.233   6.528
 2972SOL    HW1 9815   0.707   6.299   6.537
 2972SOL    HW2 9816   0.544   6.281   6.538
 2973SOL     OW 9817   5.967   0.412   4.091
 2973SOL    HW1 9818   6.037   0.373   4.150
 2973SOL    HW2 9819   5.948   0.349   4.015
 2974SOL     OW 9820   5.139   6.024   2.628
 2974SOL    HW1 9821   5.127   6.124   2.631
 2974SOL    HW2 9822   5.148   5.989   2.721
 2975SOL     OW 9823   6.672   3.803   4.775
 2975SOL    HW1 9824   6.665   3.720   4.831
 2975SOL    HW2 9825   6.596   3.806   4.710
 2976SOL     OW 9826   4.157   0.490   0.971
 2976SOL    HW1 9827   4.199   0.513   1.059
 2976SOL    HW2 9828   4.213   0.421   0.925
 2977SOL     OW 9829   1.767   1.570   2.496
 2977SOL    HW1 9830   1.750   1.476   2.467
 2977SOL    HW2 9831   1.699   1.597   2.564
 2978SOL     OW 9832   3.568   6.225   0.223
 2978SOL    HW1 9833   3.634   6.299   0.208
 2978SOL    HW2 9834   3.530   6.233   0.314
 2979SOL     OW 9835   2.182   1.527   5.733
 2979SOL    HW1 9836   2.107   1.462   5.720
 2979SOL    HW2 9837   2.241   1.526   5.652
 2980SOL     OW 9838   3.105   3.045   3.941
 2980SOL    HW1 9839   3.134   3.134   3.907
 2980SOL    HW2 9840   3.165   2.974   3.904
 2981SOL     OW 9841   2.880   2.071   1.601
 2981SOL    HW1 9842   2.848   2.163   1.576
 2981SOL    HW2 9843   2.929   2.075   1.688
 2982SOL     OW 9844   1.215   0.597   1.771
 2982SOL    HW1 9845   1.298   0.543   1.785
 2982SOL    HW2 9846   1.235   0.693   1.788
 2983SOL     OW 9847   6.399   2.530   6.504
 2983SOL    HW1 9848   6.479   2.584   6.533
 2983SOL    HW2 9849   6.331   2.591   6.463
 2984SOL     OW 9850   0.727   6.494   1.160
 2984SOL    HW1 9851   0.793   6.570   1.163
 2984SOL    HW2 9852   0.749   6.435   1.082
 2985SOL     OW 9853   6.784   0.073   5.477
 2985SOL    HW1 9854   6.706   0.136   5.489
 2985SOL    HW2 9855   6.774   7.020   5.540
 2986SOL     OW 9856   4.153   3.583   2.507
 2986SOL    HW1 9857   4.138   3.527   2.425
 2986SOL    HW2 9858   4.227   3.543   2.562
 2987SOL     OW 9859   2.791   6.218   5.257
 2987SOL    HW1 9860   2.832   6.269   5.332
 2987SOL    HW2 9861   2.800   6.120   5.275
 2988SOL     OW 9862   0.528   1.866   6.270
 2988SOL    HW1 9863   0.590   1.855   6.348
 2988SOL    HW2 9864   0.562   1.939   6.211
 2989SOL     OW 9865   5.893   3.814   5.903
 2989SOL    HW1 9866   5.855   3.781   5.989
 2989SOL    HW2 9867   5.824   3.805   5.831
 2990SOL     OW 9868   4.823   1.149   4.843
 2990SOL    HW1 9869   4.862   1.066   4.883
 2990SOL    HW2 9870   4.874   1.228   4.875
 2991SOL     OW 9871   6.695   3.199   0.434
 2991SOL    HW1 9872   6.782   3.152   0.417
 2991SOL    HW2 9873   6.648   3.213   0.347
 2992SOL     OW 9874   1.582   4.096   5.004
 2992SOL    HW1 9875   1.526   4.102   5.087
 2992SOL    HW2 9876   1.564   4.009   4.958
 2993SOL     OW 9877   3.452   4.392   6.662
 2993SOL    HW1 9878   3.452   4.483   6.621
 2993SOL    HW2 9879   3.544   4.354   6.661
 2994SOL     OW 9880   2.647   5.002   4.514
 2994SOL    HW1 9881   2.619   5.091   4.551
 2994SOL    HW2 9882   2.738   4.979   4.549
 2995SOL     OW 9883   4.964   0.168   2.186
 2995SOL    HW1 9884   4.887   0.224   2.217
 2995SOL    HW2 9885   4.933   0.106   2.114
 2996SOL     OW 9886   0.524   0.772   4.059
 2996SOL    HW1 9887   0.511   0.710   3.982
 2996SOL    HW2 9888   0.461   0.849   4.051
 2997SOL     OW 9889   4.743   5.780   3.912
 2997SOL    HW1 9890   4.751   5.813   4.006
 2997SOL    HW2 9891   4.821   5.813   3.859
 2998SOL     OW 9892   2.403   0.092   2.319
 2998SOL    HW1 9893   2.456   0.075   2.236
 2998SOL    HW2 9894   2.384   0.006   2.366
 2999SOL     OW 9895   1.947   5.011   0.456
 2999SOL    HW1 9896   1.926   5.017   0.554
 2999SOL    HW2 9897   1.870   5.046   0.403
 3000SOL     OW 9898   1.849   3.929   6.153
 3000SOL    HW1 9899   1.917   3.881   6.208
 3000SOL    HW2 9900   1.894   4.000   6.099
 3001SOL     OW 9901   3.536   0.120   6.538
 3001SOL    HW1 9902   3.531   0.205   6.590
 3001SOL    HW2 9903   3.455   0.064   6.557
 3002SOL     OW 9904   1.033   2.280   2.111
 3002SOL    HW1 9905   0.952   2.275   2.053
 3002SOL    HW2 9906   1.091   2.356   2.081
 3003SOL     OW 9907   1.676   6.201   0.434
 3003SOL    HW1 9908   1.667   6.286   0.380
 3003SOL    HW2 9909   1.632   6.214   0.523
 3004SOL     OW 9910   3.150   0.602   4.623
 3004SOL    HW1 9911   3.086   0.651   4.565
 3004SOL    HW2 9912   3.101   0.559   4.699
 3005SOL     OW 9913   2.860   1.949   0.193
 3005SOL    HW1 9914   2.862   1.853   0.222
 3005SOL    HW2 9915   2.865   1.954   0.094
 3006SOL     OW 9916   5.580   0.698   6.291
 3006SOL    HW1 9917   5.571   0.606   6.254
 3006SOL    HW2 9918   5.673   0.732   6.274
 3007SOL     OW 9919   5.977   5.683   5.682
 3007SOL    HW1 9920   5.917   5.608   5.708
 3007SOL    HW2 9921   6.026   5.716   5.763
 3008SOL     OW 9922   5.594   3.958   5.577
 3008SOL    HW1 9923   5.505   3.958   5.530
 3008SOL    HW2 9924   5.580   3.941   5.674
 3009SOL     OW 9925   5.570   3.642   1.683
 3009SOL    HW1 9926   5.481   3.660   1.725
 3009SOL    HW2 9927   5.575   3.546   1.655
 3010SOL     OW 9928   4.360   4.880   1.430
 3010SOL    HW1 9929   4.459   4.883   1.443
 3010SOL    HW2 9930   4.331   4.962   1.381
 3011SOL     OW 9931   5.920   6.941   0.564
 3011SOL    HW1 9932   5.851   7.013   0.552
 3011SOL    HW2 9933   5.934   6.924   0.661
 3012SOL     OW 9934   2.629   0.989   4.349
 3012SOL    HW1 9935   2.580   1.066   4.390
 3012SOL    HW2 9936   2.595   0.973   4.257
 3013SOL     OW 9937   0.317   5.455   5.317
 3013SOL    HW1 9938   0.400   5.492   5.274
 3013SOL    HW2 9939   0.237   5.485   5.266
 3014SOL     OW 9940   4.160   0.555   0.332
 3014SOL    HW1 9941   4.152   0.638   0.277
 3014SOL    HW2 9942   4.122   0.477   0.282
 3015SOL     OW 9943   2.366   6.466   6.509
 3015SOL    HW1 9944   2.421   6.541   6.546
 3015SOL    HW2 9945   2.274   6.500   6.487
 3016SOL     OW 9946   3.495   0.815   4.296
 3016SOL    HW1 9947   3.405   0.773   4.291
 3016SOL    HW2 9948   3.524   0.820   4.392
 3017SOL     OW 9949   1.421   6.075   0.563
 3017SOL    HW1 9950   1.459   5.984   0.544
 3017SOL    HW2 9951   1.334   6.065   0.612
 3018SOL     OW 9952   2.368   2.719   1.633
 3018SOL    HW1 9953   2.270   2.736   1.645
 3018SOL    HW2 9954   2.408   2.692   1.720
 3019SOL     OW 9955   1.086   0.967   5.943
 3019SOL    HW1 9956   1.020   0.894   5.930
 3019SOL    HW2 9957   1.163   0.955   5.880
 3020SOL     OW 9958   5.406   4.396   6.198
 3020SOL    HW1 9959   5.345   4.362   6.127
 3020SOL    HW2 9960   5.381   4.356   6.286
 3021SOL     OW 9961   4.397   6.452   4.313
 3021SOL    HW1 9962   4.428   6.547   4.302
 3021SOL    HW2 9963   4.382   6.434   4.410
 3022SOL     OW 9964   3.689   6.722   3.057
 3022SOL    HW1 9965   3.628   6.695   3.131
 3022SOL    HW2 9966   3.784   6.718   3.088
 3023SOL     OW 9967   5.159   4.314   4.734
 3023SOL    HW1 9968   5.244   4.365   4.718
 3023SOL    HW2 9969   5.175   4.216   4.717
 3024SOL     OW 9970   6.234   1.517   6.528
 3024SOL    HW1 9971   6.260   1.564   6.612
 3024SOL    HW2 9972   6.254   1.419   6.536
 3025SOL     OW 9973   4.045   5.479   0.727
 3025SOL    HW1 9974   4.087   5.440   0.809
 3025SOL    HW2 9975   4.116   5.519   0.669
 3026SOL     OW 9976   0.043   6.938   2.599
 3026SOL    HW1 9977   0.125   6.887   2.576
 3026SOL    HW2 9978   0.066   7.010   2.665
 3027SOL     OW 9979   4.392   0.396   0.627
 3027SOL    HW1 9980   4.423   0.491   0.625
 3027SOL    HW2 9981   4.335   0.382   0.708
 3028SOL     OW 9982   4.139   3.325   3.969
 3028SOL    HW1 9983   4.111   3.406   4.020
 3028SOL    HW2 9984   4.171   3.255   4.033
 3029SOL     OW 9985   6.540   2.588   4.344
 3029SOL    HW1 9986   6.534   2.593   4.444
 3029SOL    HW2 9987   6.472   2.649   4.303
 3030SOL     OW 9988   0.311   4.059   6.496
 3030SOL    HW1 9989   0.235   4.000   6.469
 3030SOL    HW2 9990   0.398   4.013   6.476
 3031SOL     OW 9991   0.292   4.821   6.925
 3031SOL    HW1 9992   0.221   4.790   6.861
 3031SOL    HW2 9993   0.371   4.760   6.919
 3032SOL     OW 9994   3.658   0.096   4.034
 3032SOL    HW1 9995   3.709   0.164   3.981
 3032SOL    HW2 9996   3.709   0.010   4.036
 3033SOL     OW 9997   1.995   0.745   6.774
 3033SOL    HW1 9998   2.000   0.648   6.749
 3033SOL    HW2 9999   2.049   0.799   6.709
 3034SOL     OW10000   5.390   3.175   3.316
 3034SOL    HW110001   5.469   3.119   3.292
 3034SOL    HW210002   5.344   3.206   3.233
 3035SOL     OW10003   6.617   4.135   6.338
 3035SOL    HW110004   6.700   4.175   6.299
 3035SOL    HW210005   6.620   4.036   6.325
 3036SOL     OW10006   3.339   2.306   6.201
 3036SOL    HW110007   3.329   2.211   6.173
 3036SOL    HW210008   3.279   2.364   6.147
 3037SOL     OW10009   0.478   5.583   6.034
 3037SOL    HW110010   0.470   5.483   6.027
 3037SOL    HW210011   0.388   5.623   6.049
 3038SOL     OW10012   5.728   4.745   5.558
 3038SOL    HW110013   5.787   4.732   5.478
 3038SOL    HW210014   5.772   4.806   5.623
 3039SOL     OW10015   6.097   3.339   6.686
 3039SOL    HW110016   6.012   3.357   6.636
 3039SOL    HW210017   6.135   3.426   6.718
 3040SOL     OW10018   4.333   6.505   6.662
 3040SOL    HW110019   4.311   6.420   6.614
 3040SOL    HW210020   4.293   6.582   6.613
 3041SOL     OW10021   2.307   5.902   6.194
 3041SOL    HW110022   2.325   5.965   6.269
 3041SOL    HW210023   2.310   5.952   6.107
 3042SOL     OW10024   0.315   5.434   3.913
 3042SOL    HW110025   0.404   5.479   3.921
 3042SOL    HW210026   0.314   5.375   3.833
 3043SOL     OW10027   2.453   3.497   1.204
 3043SOL    HW110028   2.545   3.502   1.244
 3043SOL    HW210029   2.386   3.489   1.277
 3044SOL     OW10030   4.018   3.523   4.129
 3044SOL    HW110031   4.059   3.584   4.196
 3044SOL    HW210032   3.921   3.545   4.119
 3045SOL     OW10033   5.970   0.104   3.232
 3045SOL    HW110034   5.923   0.183   3.192
 3045SOL    HW210035   5.903   0.033   3.253
 3046SOL     OW10036   6.628   5.711   1.269
 3046SOL    HW110037   6.541   5.759   1.273
 3046SOL    HW210038   6.613   5.612   1.266
 3047SOL     OW10039   4.496   1.740   3.557
 3047SOL    HW110040   4.399   1.763   3.541
 3047SOL    HW210041   4.538   1.814   3.610
 3048SOL     OW10042   4.664   5.101   0.959
 3048SOL    HW110043   4.582   5.119   0.905
 3048SOL    HW210044   4.664   5.006   0.990
 3049SOL     OW10045   0.340   0.636   1.209
 3049SOL    HW110046   0.339   0.664   1.113
 3049SOL    HW210047   0.433   0.614   1.236
 3050SOL     OW10048   3.768   2.510   5.636
 3050SOL    HW110049   3.742   2.595   5.681
 3050SOL    HW210050   3.773   2.525   5.537
 3051SOL     OW10051   2.025   4.161   6.023
 3051SOL    HW110052   2.100   4.095   6.011
 3051SOL    HW210053   2.051   4.229   6.092
 3052SOL     OW10054   6.054   6.051   4.081
 3052SOL    HW110055   5.962   6.063   4.118
 3052SOL    HW210056   6.066   5.956   4.053
 3053SOL     OW10057   0.415   5.933   6.111
 3053SOL    HW110058   0.413   5.984   6.197
 3053SOL    HW210059   0.509   5.906   6.091
 3054SOL     OW10060   5.960   6.449   3.442
 3054SOL    HW110061   6.040   6.452   3.382
 3054SOL    HW210062   5.904   6.531   3.427
 3055SOL     OW10063   5.364   6.756   0.731
 3055SOL    HW110064   5.265   6.757   0.744
 3055SOL    HW210065   5.391   6.673   0.682
 3056SOL     OW10066   4.178   1.628   0.719
 3056SOL    HW110067   4.161   1.566   0.796
 3056SOL    HW210068   4.127   1.713   0.733
 3057SOL     OW10069   6.955   2.857   3.055
 3057SOL    HW110070   6.939   2.937   2.997
 3057SOL    HW210071   7.014   2.793   3.007
 3058SOL     OW10072   5.640   3.682   6.715
 3058SOL    HW110073   5.669   3.589   6.736
 3058SOL    HW210074   5.548   3.680   6.675
 3059SOL     OW10075   1.687   2.491   3.566
 3059SOL    HW110076   1.780   2.493   3.528
 3059SOL    HW210077   1.662   2.582   3.597
 3060SOL     OW10078   5.939   3.067   3.742
 3060SOL    HW110079   5.859   3.116   3.708
 3060SOL    HW210080   5.935   2.971   3.715
 3061SOL     OW10081   5.439   6.305   2.650
 3061SOL    HW110082   5.491   6.222   2.668
 3061SOL    HW210083   5.436   6.361   2.733
 3062SOL     OW10084   3.758   5.213   0.290
 3062SOL    HW110085   3.768   5.196   0.388
 3062SOL    HW210086   3.797   5.302   0.267
 3063SOL     OW10087   6.445   5.315   0.859
 3063SOL    HW110088   6.470   5.220   0.875
 3063SOL    HW210089   6.525   5.373   0.874
 3064SOL     OW10090   5.178   0.890   6.246
 3064SOL    HW110091   5.104   0.857   6.187
 3064SOL    HW210092   5.150   0.976   6.289
 3065SOL     OW10093   5.123   0.671   6.681
 3065SOL    HW110094   5.119   0.647   6.778
 3065SOL    HW210095   5.216   0.655   6.647
 3066SOL     OW10096   4.893   6.620   5.620
 3066SOL    HW110097   4.836   6.619   5.538
 3066SOL    HW210098   4.989   6.631   5.594
 3067SOL     OW10099   1.363   2.489   4.623
 3067SOL    HW110100   1.421   2.408   4.609
 3067SOL    HW210101   1.391   2.536   4.706
 3068SOL     OW10102   5.899   0.018   0.902
 3068SOL    HW110103   5.800   0.031   0.899
 3068SOL    HW210104   5.944   0.107   0.918
 3069SOL     OW10105   5.730   5.860   3.713
 3069SOL    HW110106   5.700   5.799   3.639
 3069SOL    HW210107   5.768   5.805   3.787
 3070SOL     OW10108   2.687   1.539   0.871
 3070SOL    HW110109   2.754   1.558   0.943
 3070SOL    HW210110   2.734   1.523   0.784
 3071SOL     OW10111   5.833   4.616   4.420
 3071SOL    HW110112   5.800   4.563   4.342
 3071SOL    HW210113   5.894   4.558   4.475
 3072SOL     OW10114   2.058   6.389   4.745
 3072SOL    HW110115   1.997   6.317   4.775
 3072SOL    HW210116   2.013   6.446   4.676
 3073SOL     OW10117   0.277   4.952   3.365
 3073SOL    HW110118   0.199   4.947   3.303
 3073SOL    HW210119   0.343   5.019   3.331
 3074SOL     OW10120   3.474   3.174   2.166
 3074SOL    HW110121   3.405   3.163   2.095
 3074SOL    HW210122   3.564   3.149   2.130
 3075SOL     OW10123   3.564   4.673   0.335
 3075SOL    HW110124   3.642   4.633   0.287
 3075SOL    HW210125   3.484   4.614   0.323
 3076SOL     OW10126   1.815   1.354   4.129
 3076SOL    HW110127   1.822   1.409   4.047
 3076SOL    HW210128   1.899   1.301   4.142
 3077SOL     OW10129   6.700   3.394   2.681
 3077SOL    HW110130   6.720   3.491   2.670
 3077SOL    HW210131   6.624   3.369   2.620
 3078SOL     OW10132   6.240   4.339   1.269
 3078SOL    HW110133   6.192   4.370   1.352
 3078SOL    HW210134   6.173   4.305   1.203
 3079SOL     OW10135   0.354   4.056   2.763
 3079SOL    HW110136   0.390   4.138   2.720
 3079SOL    HW210137   0.424   3.985   2.764
 3080SOL     OW10138   3.739   4.594   1.610
 3080SOL    HW110139   3.829   4.571   1.648
 3080SOL    HW210140   3.671   4.592   1.683
 3081SOL     OW10141   1.544   2.817   6.151
 3081SOL    HW110142   1.544   2.719   6.128
 3081SOL    HW210143   1.570   2.870   6.071
 3082SOL     OW10144   5.843   3.944   4.883
 3082SOL    HW110145   5.806   3.936   4.976
 3082SOL    HW210146   5.870   4.039   4.866
 3083SOL     OW10147   4.018   6.059   1.316
 3083SOL    HW110148   3.943   6.120   1.291
 3083SOL    HW210149   4.102   6.090   1.272
 3084SOL     OW10150   0.075   5.416   4.042
 3084SOL    HW110151   0.056   5.349   4.113
 3084SOL    HW210152   0.170   5.408   4.013
 3085SOL     OW10153   6.472   5.669   6.029
 3085SOL    HW110154   6.422   5.583   6.023
 3085SOL    HW210155   6.450   5.726   5.950
 3086SOL     OW10156   6.032   6.200   5.840
 3086SOL    HW110157   6.113   6.233   5.889
 3086SOL    HW210158   5.954   6.196   5.902
 3087SOL     OW10159   3.077   0.105   1.518
 3087SOL    HW110160   3.064   0.007   1.528
 3087SOL    HW210161   3.175   0.126   1.516
 3088SOL     OW10162   2.380   3.224   5.389
 3088SOL    HW110163   2.449   3.260   5.453
 3088SOL    HW210164   2.419   3.149   5.336
 3089SOL     OW10165   3.939   0.003   0.415
 3089SOL    HW110166   3.984   0.013   0.504
 3089SOL    HW210167   3.842   7.009   0.428
 3090SOL     OW10168   1.646   2.602   2.604
 3090SOL    HW110169   1.564   2.659   2.608
 3090SOL    HW210170   1.626   2.513   2.646
 3091SOL     OW10171   1.433   2.549   6.170
 3091SOL    HW110172   1.469   2.531   6.261
 3091SOL    HW210173   1.372   2.475   6.142
 3092SOL     OW10174   5.075   1.990   3.064
 3092SOL    HW110175   5.030   1.991   3.153
 3092SOL    HW210176   5.044   1.911   3.011
 3093SOL     OW10177   6.211   5.487   6.663
 3093SOL    HW110178   6.282   5.417   6.675
 3093SOL    HW210179   6.202   5.539   6.748
 3094SOL     OW10180   2.630   0.841   5.599
 3094SOL    HW110181   2.629   0.886   5.510
 3094SOL    HW210182   2.546   0.787   5.610
 3095SOL     OW10183   2.070   3.886   6.322
 3095SOL    HW110184   2.121   3.801   6.313
 3095SOL    HW210185   2.017   3.884   6.407
 3096SOL     OW10186   2.110   3.329   3.686
 3096SOL    HW110187   2.187   3.267   3.704
 3096SOL    HW210188   2.024   3.278   3.695
 3097SOL     OW10189   5.532   2.693   6.280
 3097SOL    HW110190   5.622   2.687   6.324
 3097SOL    HW210191   5.518   2.786   6.247
 3098SOL     OW10192   1.854   3.861   2.146
 3098SOL    HW110193   1.912   3.887   2.223
 3098SOL    HW210194   1.885   3.907   2.063
 3099SOL     OW10195   0.118   0.175   5.805
 3099SOL    HW110196   0.192   0.238   5.827
 3099SOL    HW210197   0.148   0.112   5.733
 3100SOL     OW10198   6.546   3.872   2.666
 3100SOL    HW110199   6.527   3.801   2.734
 3100SOL    HW210200   6.644   3.893   2.666
 3101SOL     OW10201   5.441   0.760   3.932
 3101SOL    HW110202   5.536   0.764   3.901
 3101SOL    HW210203   5.417   0.666   3.954
 3102SOL     OW10204   6.066   3.876   3.137
 3102SOL    HW110205   6.076   3.905   3.041
 3102SOL    HW210206   5.995   3.806   3.144
 3103SOL     OW10207   1.298   1.174   2.676
 3103SOL    HW110208   1.238   1.236   2.727
 3103SOL    HW210209   1.261   1.160   2.584
 3104SOL     OW10210   5.758   1.579   6.294
 3104SOL    HW110211   5.835   1.560   6.355
 3104SOL    HW210212   5.788   1.577   6.199
 3105SOL     OW10213   5.874   4.162   0.534
 3105SOL    HW110214   5.940   4.112   0.589
 3105SOL    HW210215   5.920   4.200   0.453
 3106SOL     OW10216   5.295   2.099   5.660
 3106SOL    HW110217   5.354   2.021   5.680
 3106SOL    HW210218   5.206   2.086   5.704
 3107SOL     OW10219   4.117   2.230   4.766
 3107SOL    HW110220   4.135   2.140   4.807
 3107SOL    HW210221   4.120   2.300   4.837
 3108SOL     OW10222   1.950   4.195   3.972
 3108SOL    HW110223   1.927   4.173   3.878
 3108SOL    HW210224   2.049   4.207   3.981
 3109SOL     OW10225   0.064   5.190   3.644
 3109SOL    HW110226   0.002   5.202   3.722
 3109SOL    HW210227   0.077   5.277   3.597
 3110SOL     OW10228   1.307   5.904   4.131
 3110SOL    HW110229   1.367   5.823   4.132
 3110SOL    HW210230   1.245   5.900   4.209
 3111SOL     OW10231   6.714   3.715   3.986
 3111SOL    HW110232   6.704   3.786   4.057
 3111SOL    HW210233   6.624   3.674   3.969
 3112SOL     OW10234   4.260   0.592   1.221
 3112SOL    HW110235   4.322   0.563   1.293
 3112SOL    HW210236   4.271   0.691   1.205
 3113SOL     OW10237   1.248   6.876   4.363
 3113SOL    HW110238   1.163   6.838   4.327
 3113SOL    HW210239   1.316   6.881   4.290
 3114SOL     OW10240   4.957   5.543   5.644
 3114SOL    HW110241   4.916   5.625   5.685
 3114SOL    HW210242   5.055   5.542   5.663
 3115SOL     OW10243   4.754   5.844   5.147
 3115SOL    HW110244   4.678   5.892   5.190
 3115SOL    HW210245   4.837   5.899   5.154
 3116SOL     OW10246   1.057   2.397   6.545
 3116SOL    HW110247   1.077   2.494   6.526
 3116SOL    HW210248   1.126   2.362   6.609
 3117SOL     OW10249   4.341   0.328   1.807
 3117SOL    HW110250   4.319   0.230   1.813
 3117SOL    HW210251   4.441   0.339   1.802
 3118SOL     OW10252   0.827   2.304   3.225
 3118SOL    HW110253   0.760   2.343   3.287
 3118SOL    HW210254   0.790   2.221   3.184
 3119SOL     OW10255   4.539   6.540   3.778
 3119SOL    HW110256   4.534   6.444   3.805
 3119SOL    HW210257   4.499   6.598   3.850
 3120SOL     OW10258   3.754   6.366   6.305
 3120SOL    HW110259   3.674   6.385   6.363
 3120SOL    HW210260   3.836   6.364   6.361
 3121SOL     OW10261   3.633   1.757   3.001
 3121SOL    HW110262   3.696   1.682   3.022
 3121SOL    HW210263   3.541   1.732   3.029
 3122SOL     OW10264   5.751   3.703   6.182
 3122SOL    HW110265   5.683   3.635   6.153
 3122SOL    HW210266   5.721   3.747   6.266
 3123SOL     OW10267   1.999   2.961   2.419
 3123SOL    HW110268   2.043   3.005   2.340
 3123SOL    HW210269   2.059   2.890   2.455
 3124SOL     OW10270   4.896   6.707   5.888
 3124SOL    HW110271   4.897   6.671   5.795
 3124SOL    HW210272   4.844   6.645   5.948
 3125SOL     OW10273   1.754   1.846   5.188
 3125SOL    HW110274   1.846   1.876   5.216
 3125SOL    HW210275   1.758   1.750   5.159
 3126SOL     OW10276   4.933   4.275   5.591
 3126SOL    HW110277   4.924   4.203   5.523
 3126SOL    HW210278   4.853   4.275   5.651
 3127SOL     OW10279   6.114   1.941   5.918
 3127SOL    HW110280   6.060   1.950   6.002
 3127SOL    HW210281   6.123   1.844   5.894
 3128SOL     OW10282   4.254   1.338   1.176
 3128SOL    HW110283   4.212   1.292   1.255
 3128SOL    HW210284   4.262   1.436   1.195
 3129SOL     OW10285   4.417   4.799   0.173
 3129SOL    HW110286   4.385   4.893   0.168
 3129SOL    HW210287   4.360   4.748   0.237
 3130SOL     OW10288   6.785   6.052   2.444
 3130SOL    HW110289   6.730   6.130   2.414
 3130SOL    HW210290   6.861   6.039   2.380
 3131SOL     OW10291   0.071   2.531   3.209
 3131SOL    HW110292   0.091   2.628   3.224
 3131SOL    HW210293   7.001   2.512   3.239
 3132SOL     OW10294   4.507   3.842   6.301
 3132SOL    HW110295   4.506   3.746   6.272
 3132SOL    HW210296   4.461   3.851   6.389
 3133SOL     OW10297   6.106   6.264   3.860
 3133SOL    HW110298   6.194   6.296   3.824
 3133SOL    HW210299   6.122   6.204   3.938
 3134SOL     OW10300   4.614   5.230   2.799
 3134SOL    HW110301   4.575   5.315   2.765
 3134SOL    HW210302   4.555   5.154   2.775
 3135SOL     OW10303   3.677   0.731   6.298
 3135SOL    HW110304   3.726   0.810   6.333
 3135SOL    HW210305   3.743   0.660   6.271
 3136SOL     OW10306   6.364   6.687   1.975
 3136SOL    HW110307   6.269   6.713   1.991
 3136SOL    HW210308   6.423   6.736   2.039
 3137SOL     OW10309   5.286   4.318   6.686
 3137SOL    HW110310   5.383   4.303   6.669
 3137SOL    HW210311   5.250   4.246   6.744
 3138SOL     OW10312   6.746   6.492   4.628
 3138SOL    HW110313   6.846   6.492   4.620
 3138SOL    HW210314   6.708   6.566   4.574
 3139SOL     OW10315   1.232   4.895   1.802
 3139SOL    HW110316   1.305   4.899   1.869
 3139SOL    HW210317   1.168   4.971   1.817
 3140SOL     OW10318   5.095   5.815   0.061
 3140SOL    HW110319   5.087   5.749   0.135
 3140SOL    HW210320   5.032   5.790   7.010
 3141SOL     OW10321   6.026   2.251   0.288
 3141SOL    HW110322   6.049   2.346   0.266
 3141SOL    HW210323   5.989   2.246   0.381
 3142SOL     OW10324   4.737   0.551   3.898
 3142SOL    HW110325   4.837   0.550   3.900
 3142SOL    HW210326   4.701   0.498   3.975
 3143SOL     OW10327   6.245   1.742   0.774
 3143SOL    HW110328   6.259   1.800   0.854
 3143SOL    HW210329   6.310   1.665   0.776
 3144SOL     OW10330   3.846   4.955   6.315
 3144SOL    HW110331   3.935   4.951   6.359
 3144SOL    HW210332   3.816   5.051   6.310
 3145SOL     OW10333   0.760   5.978   5.717
 3145SOL    HW110334   0.749   6.066   5.671
 3145SOL    HW210335   0.712   5.980   5.804
 3146SOL     OW10336   6.624   1.713   4.149
 3146SOL    HW110337   6.535   1.742   4.184
 3146SOL    HW210338   6.657   1.634   4.200
 3147SOL     OW10339   4.530   6.961   0.836
 3147SOL    HW110340   4.612   7.018   0.844
 3147SOL    HW210341   4.472   6.995   0.762
 3148SOL     OW10342   5.811   5.079   0.227
 3148SOL    HW110343   5.859   4.993   0.209
 3148SOL    HW210344   5.863   5.155   0.187
 3149SOL     OW10345   4.146   3.068   7.000
 3149SOL    HW110346   4.125   3.163   0.001
 3149SOL    HW210347   4.128   3.009   0.055
 3150SOL     OW10348   0.115   0.188   5.083
 3150SOL    HW110349   0.095   0.165   5.178
 3150SOL    HW210350   0.129   0.286   5.074
 3151SOL     OW10351   0.042   1.282   6.130
 3151SOL    HW110352   7.017   1.277   6.042
 3151SOL    HW210353   6.998   1.281   6.204
 3152SOL     OW10354   2.827   1.964   5.746
 3152SOL    HW110355   2.863   1.874   5.771
 3152SOL    HW210356   2.875   1.997   5.664
 3153SOL     OW10357   6.333   5.785   1.865
 3153SOL    HW110358   6.270   5.712   1.895
 3153SOL    HW210359   6.419   5.744   1.834
 3154SOL     OW10360   3.400   2.349   0.802
 3154SOL    HW110361   3.390   2.267   0.859
 3154SOL    HW210362   3.394   2.324   0.706
 3155SOL     OW10363   0.383   5.835   6.863
 3155SOL    HW110364   0.290   5.798   6.855
 3155SOL    HW210365   0.449   5.762   6.847
 3156SOL     OW10366   3.155   3.831   0.932
 3156SOL    HW110367   3.238   3.880   0.906
 3156SOL    HW210368   3.091   3.830   0.856
 3157SOL     OW10369   1.430   1.302   3.857
 3157SOL    HW110370   1.429   1.379   3.793
 3157SOL    HW210371   1.398   1.219   3.810
 3158SOL     OW10372   2.614   0.368   6.118
 3158SOL    HW110373   2.672   0.339   6.195
 3158SOL    HW210374   2.629   0.465   6.099
 3159SOL     OW10375   4.451   6.327   1.404
 3159SOL    HW110376   4.482   6.382   1.327
 3159SOL    HW210377   4.353   6.340   1.418
 3160SOL     OW10378   2.601   0.957   5.338
 3160SOL    HW110379   2.633   0.914   5.254
 3160SOL    HW210380   2.507   0.989   5.325
 3161SOL     OW10381   1.770   2.541   1.630
 3161SOL    HW110382   1.778   2.483   1.711
 3161SOL    HW210383   1.765   2.637   1.658
 3162SOL     OW10384   1.150   5.667   1.917
 3162SOL    HW110385   1.239   5.681   1.874
 3162SOL    HW210386   1.093   5.748   1.903
 3163SOL     OW10387   5.156   4.486   1.390
 3163SOL    HW110388   5.149   4.573   1.341
 3163SOL    HW210389   5.107   4.493   1.477
 3164SOL     OW10390   2.352   0.451   3.940
 3164SOL    HW110391   2.366   0.509   3.860
 3164SOL    HW210392   2.409   0.370   3.933
 3165SOL     OW10393   0.184   5.644   6.876
 3165SOL    HW110394   0.225   5.560   6.911
 3165SOL    HW210395   0.109   5.620   6.814
 3166SOL     OW10396   3.722   1.671   4.869
 3166SOL    HW110397   3.819   1.683   4.850
 3166SOL    HW210398   3.709   1.591   4.929
 3167SOL     OW10399   6.705   3.265   1.981
 3167SOL    HW110400   6.695   3.255   1.882
 3167SOL    HW210401   6.798   3.241   2.008
 3168SOL     OW10402   5.258   1.540   0.934
 3168SOL    HW110403   5.196   1.608   0.975
 3168SOL    HW210404   5.352   1.560   0.961
 3169SOL     OW10405   0.798   2.674   1.877
 3169SOL    HW110406   0.749   2.632   1.953
 3169SOL    HW210407   0.895   2.652   1.883
 3170SOL     OW10408   2.215   4.298   3.983
 3170SOL    HW110409   2.275   4.320   4.060
 3170SOL    HW210410   2.204   4.379   3.926
 3171SOL     OW10411   5.320   1.414   5.036
 3171SOL    HW110412   5.300   1.410   5.134
 3171SOL    HW210413   5.337   1.509   5.009
 3172SOL     OW10414   6.118   3.971   1.474
 3172SOL    HW110415   6.123   3.949   1.572
 3172SOL    HW210416   6.030   4.014   1.454
 3173SOL     OW10417   4.845   4.073   0.162
 3173SOL    HW110418   4.838   4.159   0.112
 3173SOL    HW210419   4.755   4.030   0.167
 3174SOL     OW10420   2.773   2.915   6.924
 3174SOL    HW110421   2.858   2.908   6.976
 3174SOL    HW210422   2.763   3.008   6.888
 3175SOL     OW10423   6.218   5.779   5.418
 3175SOL    HW110424   6.247   5.725   5.339
 3175SOL    HW210425   6.292   5.784   5.485
 3176SOL     OW10426   0.111   4.863   3.820
 3176SOL    HW110427   0.176   4.921   3.771
 3176SOL    HW210428   0.158   4.782   3.854
 3177SOL     OW10429   5.268   2.449   1.910
 3177SOL    HW110430   5.242   2.373   1.970
 3177SOL    HW210431   5.202   2.457   1.835
 3178SOL     OW10432   1.297   0.710   2.816
 3178SOL    HW110433   1.355   0.792   2.817
 3178SOL    HW210434   1.284   0.677   2.909
 3179SOL     OW10435   0.902   3.862   2.557
 3179SOL    HW110436   0.999   3.857   2.579
 3179SOL    HW210437   0.875   3.781   2.505
 3180SOL     OW10438   5.962   0.175   6.842
 3180SOL    HW110439   6.050   0.129   6.827
 3180SOL    HW210440   5.922   0.199   6.754
 3181SOL     OW10441   0.378   6.463   4.885
 3181SOL    HW110442   0.461   6.498   4.930
 3181SOL    HW210443   0.389   6.473   4.786
 3182SOL     OW10444   1.516   0.094   1.222
 3182SOL    HW110445   1.417   0.088   1.230
 3182SOL    HW210446   1.547   0.043   1.142
 3183SOL     OW10447   4.239   4.039   0.156
 3183SOL    HW110448   4.240   3.961   0.093
 3183SOL    HW210449   4.316   4.034   0.218
 3184SOL     OW10450   6.463   0.973   4.409
 3184SOL    HW110451   6.397   1.039   4.442
 3184SOL    HW210452   6.417   0.886   4.388
 3185SOL     OW10453   1.709   0.107   6.092
 3185SOL    HW110454   1.681   0.012   6.076
 3185SOL    HW210455   1.720   0.153   6.004
 3186SOL     OW10456   0.593   1.915   5.586
 3186SOL    HW110457   0.542   1.939   5.669
 3186SOL    HW210458   0.556   1.831   5.547
 3187SOL     OW10459   5.190   0.218   3.232
 3187SOL    HW110460   5.138   0.301   3.209
 3187SOL    HW210461   5.218   0.222   3.328
 3188SOL     OW10462   1.562   5.991   1.276
 3188SOL    HW110463   1.466   5.964   1.283
 3188SOL    HW210464   1.573   6.083   1.314
 3189SOL     OW10465   2.791   1.630   5.894
 3189SOL    HW110466   2.829   1.629   5.802
 3189SOL    HW210467   2.699   1.671   5.892
 3190SOL     OW10468   5.964   6.241   5.016
 3190SOL    HW110469   5.894   6.219   4.948
 3190SOL    HW210470   5.995   6.157   5.061
 3191SOL     OW10471   4.146   5.112   1.028
 3191SOL    HW110472   4.067   5.093   0.970
 3191SOL    HW210473   4.142   5.207   1.059
 3192SOL     OW10474   5.788   0.314   3.129
 3192SOL    HW110475   5.694   0.328   3.099
 3192SOL    HW210476   5.810   0.378   3.202
 3193SOL     OW10477   3.506   5.545   4.645
 3193SOL    HW110478   3.413   5.581   4.640
 3193SOL    HW210479   3.567   5.613   4.685
 3194SOL     OW10480   2.506   6.559   5.243
 3194SOL    HW110481   2.457   6.636   5.202
 3194SOL    HW210482   2.443   6.505   5.299
 3195SOL     OW10483   0.435   5.531   1.001
 3195SOL    HW110484   0.494   5.561   1.076
 3195SOL    HW210485   0.342   5.518   1.035
 3196SOL     OW10486   6.089   0.106   2.548
 3196SOL    HW110487   6.163   0.073   2.606
 3196SOL    HW210488   6.076   0.204   2.564
 3197SOL     OW10489   2.931   0.822   0.121
 3197SOL    HW110490   2.971   0.758   0.186
 3197SOL    HW210491   3.005   0.869   0.072
 3198SOL     OW10492   5.358   4.210   4.015
 3198SOL    HW110493   5.331   4.114   4.001
 3198SOL    HW210494   5.402   4.219   4.104
 3199SOL     OW10495   4.973   3.570   3.700
 3199SOL    HW110496   4.894   3.612   3.656
 3199SOL    HW210497   5.040   3.544   3.631
 3200SOL     OW10498   6.239   3.378   4.825
 3200SOL    HW110499   6.320   3.326   4.796
 3200SOL    HW210500   6.249   3.404   4.921
 3201SOL     OW10501   6.454   3.354   2.555
 3201SOL    HW110502   6.427   3.418   2.626
 3201SOL    HW210503   6.415   3.383   2.467
 3202SOL     OW10504   2.976   2.840   6.199
 3202SOL    HW110505   2.959   2.765   6.135
 3202SOL    HW210506   3.031   2.911   6.154
 3203SOL     OW10507   3.304   6.482   1.750
 3203SOL    HW110508   3.394   6.472   1.792
 3203SOL    HW210509   3.287   6.406   1.688
 3204SOL     OW10510   5.067   0.589   3.720
 3204SOL    HW110511   5.025   0.675   3.691
 3204SOL    HW210512   5.033   0.514   3.662
 3205SOL     OW10513   4.698   3.127   0.200
 3205SOL    HW110514   4.726   3.183   0.279
 3205SOL    HW210515   4.779   3.101   0.148
 3206SOL     OW10516   3.099   4.802   0.637
 3206SOL    HW110517   3.003   4.811   0.661
 3206SOL    HW210518   3.109   4.742   0.558
 3207SOL     OW10519   1.976   6.489   3.507
 3207SOL    HW110520   1.960   6.501   3.605
 3207SOL    HW210521   1.977   6.578   3.462
 3208SOL     OW10522   0.122   3.873   6.848
 3208SOL    HW110523   0.210   3.921   6.839
 3208SOL    HW210524   0.137   3.782   6.887
 3209SOL     OW10525   4.921   0.240   5.101
 3209SOL    HW110526   4.993   0.306   5.079
 3209SOL    HW210527   4.927   0.215   5.197
 3210SOL     OW10528   5.163   5.231   2.351
 3210SOL    HW110529   5.150   5.241   2.449
 3210SOL    HW210530   5.235   5.164   2.333
 3211SOL     OW10531   2.355   6.638   6.831
 3211SOL    HW110532   2.322   6.725   6.792
 3211SOL    HW210533   2.289   6.605   6.899
 3212SOL     OW10534   3.588   6.718   4.440
 3212SOL    HW110535   3.536   6.664   4.507
 3212SOL    HW210536   3.626   6.799   4.486
 3213SOL     OW10537   1.976   0.412   5.871
 3213SOL    HW110538   2.065   0.428   5.915
 3213SOL    HW210539   1.925   0.498   5.866
 3214SOL     OW10540   3.074   0.420   2.877
 3214SOL    HW110541   3.165   0.438   2.915
 3214SOL    HW210542   3.059   0.479   2.798
 3215SOL     OW10543   2.156   3.023   1.964
 3215SOL    HW110544   2.153   3.082   2.045
 3215SOL    HW210545   2.184   3.076   1.885
 3216SOL     OW10546   5.991   4.488   0.554
 3216SOL    HW110547   5.966   4.578   0.590
 3216SOL    HW210548   6.004   4.494   0.455
 3217SOL     OW10549   6.461   6.125   3.168
 3217SOL    HW110550   6.421   6.082   3.248
 3217SOL    HW210551   6.388   6.155   3.106
 3218SOL     OW10552   5.801   1.221   3.441
 3218SOL    HW110553   5.876   1.192   3.381
 3218SOL    HW210554   5.788   1.153   3.513
 3219SOL     OW10555   5.129   1.885   4.224
 3219SOL    HW110556   5.140   1.888   4.125
 3219SOL    HW210557   5.085   1.968   4.256
 3220SOL     OW10558   0.220   3.598   5.313
 3220SOL    HW110559   0.134   3.552   5.291
 3220SOL    HW210560   0.200   3.686   5.355
 3221SOL     OW10561   4.088   1.297   2.345
 3221SOL    HW110562   4.108   1.268   2.251
 3221SOL    HW210563   4.052   1.391   2.343
 3222SOL     OW10564   2.954   1.138   3.754
 3222SOL    HW110565   2.922   1.096   3.839
 3222SOL    HW210566   2.877   1.148   3.691
 3223SOL     OW10567   1.527   5.504   0.553
 3223SOL    HW110568   1.560   5.510   0.647
 3223SOL    HW210569   1.602   5.478   0.493
 3224SOL     OW10570   4.511   2.394   3.964
 3224SOL    HW110571   4.523   2.421   3.868
 3224SOL    HW210572   4.414   2.379   3.982
 3225SOL     OW10573   4.456   1.216   4.696
 3225SOL    HW110574   4.538   1.181   4.651
 3225SOL    HW210575   4.375   1.194   4.641
 3226SOL     OW10576   5.862   1.024   0.725
 3226SOL    HW110577   5.867   0.991   0.631
 3226SOL    HW210578   5.872   0.947   0.788
 3227SOL     OW10579   5.781   4.149   5.460
 3227SOL    HW110580   5.875   4.116   5.447
 3227SOL    HW210581   5.717   4.073   5.447
 3228SOL     OW10582   2.267   4.407   0.484
 3228SOL    HW110583   2.292   4.397   0.581
 3228SOL    HW210584   2.338   4.365   0.427
 3229SOL     OW10585   1.322   1.132   1.078
 3229SOL    HW110586   1.231   1.169   1.100
 3229SOL    HW210587   1.360   1.183   1.001
 3230SOL     OW10588   3.402   6.501   5.108
 3230SOL    HW110589   3.432   6.588   5.069
 3230SOL    HW210590   3.325   6.517   5.170
 3231SOL     OW10591   2.591   2.454   2.493
 3231SOL    HW110592   2.594   2.468   2.592
 3231SOL    HW210593   2.684   2.437   2.459
 3232SOL     OW10594   2.888   4.831   3.674
 3232SOL    HW110595   2.854   4.744   3.709
 3232SOL    HW210596   2.832   4.906   3.710
 3233SOL     OW10597   2.795   0.284   5.895
 3233SOL    HW110598   2.717   0.275   5.956
 3233SOL    HW210599   2.808   0.380   5.871
 3234SOL     OW10600   3.483   3.596   0.841
 3234SOL    HW110601   3.434   3.581   0.926
 3234SOL    HW210602   3.551   3.669   0.854
 3235SOL     OW10603   0.129   1.605   2.421
 3235SOL    HW110604   0.201   1.542   2.391
 3235SOL    HW210605   0.170   1.682   2.469
 3236SOL     OW10606   5.683   0.090   0.527
 3236SOL    HW110607   5.605   0.062   0.584
 3236SOL    HW210608   5.660   0.174   0.478
 3237SOL     OW10609   6.015   1.211   5.587
 3237SOL    HW110610   6.099   1.164   5.559
 3237SOL    HW210611   6.028   1.249   5.679
 3238SOL     OW10612   6.911   5.235   0.868
 3238SOL    HW110613   6.894   5.308   0.802
 3238SOL    HW210614   6.959   5.160   0.823
 3239SOL     OW10615   6.278   0.613   5.179
 3239SOL    HW110616   6.306   0.527   5.136
 3239SOL    HW210617   6.309   0.614   5.274
 3240SOL     OW10618   1.112   1.832   1.769
 3240SOL    HW110619   1.012   1.826   1.769
 3240SOL    HW210620   1.149   1.759   1.711
 3241SOL     OW10621   0.220   2.981   5.848
 3241SOL    HW110622   0.199   2.999   5.944
 3241SOL    HW210623   0.268   2.894   5.840
 3242SOL     OW10624   0.184   4.793   5.756
 3242SOL    HW110625   0.187   4.810   5.854
 3242SOL    HW210626   0.171   4.879   5.707
 3243SOL     OW10627   6.069   5.639   4.465
 3243SOL    HW110628   5.998   5.650   4.396
 3243SOL    HW210629   6.072   5.720   4.523
 3244SOL     OW10630   4.660   0.263   6.407
 3244SOL    HW110631   4.759   0.281   6.406
 3244SOL    HW210632   4.642   0.186   6.469
 3245SOL     OW10633   2.492   5.994   4.036
 3245SOL    HW110634   2.514   6.066   3.971
 3245SOL    HW210635   2.494   5.905   3.989
 3246SOL     OW10636   6.615   5.456   3.087
 3246SOL    HW110637   6.560   5.476   3.006
 3246SOL    HW210638   6.568   5.490   3.168
 3247SOL     OW10639   1.989   4.313   4.384
 3247SOL    HW110640   1.993   4.386   4.316
 3247SOL    HW210641   1.977   4.352   4.475
 3248SOL     OW10642   6.275   2.587   3.615
 3248SOL    HW110643   6.315   2.503   3.652
 3248SOL    HW210644   6.346   2.657   3.607
 3249SOL     OW10645   3.939   3.923   4.336
 3249SOL    HW110646   3.925   3.909   4.434
 3249SOL    HW210647   3.860   3.970   4.297
 3250SOL     OW10648   4.553   6.085   3.685
 3250SOL    HW110649   4.513   6.004   3.643
 3250SOL    HW210650   4.574   6.153   3.614
 3251SOL     OW10651   2.374   1.953   2.413
 3251SOL    HW110652   2.351   1.947   2.316
 3251SOL    HW210653   2.374   2.048   2.442
 3252SOL     OW10654   1.733   1.748   2.753
 3252SOL    HW110655   1.714   1.780   2.846
 3252SOL    HW210656   1.785   1.663   2.757
 3253SOL     OW10657   6.668   4.040   0.927
 3253SOL    HW110658   6.613   4.123   0.927
 3253SOL    HW210659   6.725   4.038   0.845
 3254SOL     OW10660   5.946   6.638   0.479
 3254SOL    HW110661   5.975   6.734   0.471
 3254SOL    HW210662   5.991   6.585   0.408
 3255SOL     OW10663   3.847   4.913   2.837
 3255SOL    HW110664   3.841   4.892   2.935
 3255SOL    HW210665   3.761   4.955   2.807
 3256SOL     OW10666   5.547   2.773   1.705
 3256SOL    HW110667   5.581   2.780   1.611
 3256SOL    HW210668   5.566   2.681   1.740
 3257SOL     OW10669   2.407   0.861   2.732
 3257SOL    HW110670   2.346   0.875   2.809
 3257SOL    HW210671   2.484   0.803   2.760
 3258SOL     OW10672   0.659   5.297   3.944
 3258SOL    HW110673   0.647   5.268   4.039
 3258SOL    HW210674   0.613   5.385   3.929
 3259SOL     OW10675   6.036   5.308   3.695
 3259SOL    HW110676   6.079   5.398   3.699
 3259SOL    HW210677   6.013   5.278   3.787
 3260SOL     OW10678   1.605   4.518   3.631
 3260SOL    HW110679   1.641   4.607   3.659
 3260SOL    HW210680   1.675   4.448   3.644
 3261SOL     OW10681   6.531   6.535   3.790
 3261SOL    HW110682   6.471   6.600   3.837
 3261SOL    HW210683   6.568   6.579   3.708
 3262SOL     OW10684   2.840   1.962   3.041
 3262SOL    HW110685   2.770   2.011   2.989
 3262SOL    HW210686   2.930   2.001   3.021
 3263SOL     OW10687   5.615   0.048   1.968
 3263SOL    HW110688   5.581   0.139   1.945
 3263SOL    HW210689   5.623   7.017   1.884
 3264SOL     OW10690   1.291   4.840   6.336
 3264SOL    HW110691   1.220   4.884   6.280
 3264SOL    HW210692   1.381   4.860   6.297
 3265SOL     OW10693   0.073   6.113   5.973
 3265SOL    HW110694   0.068   6.142   5.877
 3265SOL    HW210695   0.146   6.163   6.019
 3266SOL     OW10696   3.585   4.573   6.260
 3266SOL    HW110697   3.498   4.617   6.238
 3266SOL    HW210698   3.628   4.620   6.336
 3267SOL     OW10699   3.103   0.271   1.168
 3267SOL    HW110700   3.179   0.327   1.133
 3267SOL    HW210701   3.134   0.177   1.180
 3268SOL     OW10702   5.408   4.149   2.131
 3268SOL    HW110703   5.383   4.123   2.224
 3268SOL    HW210704   5.369   4.084   2.067
 3269SOL     OW10705   2.264   5.163   0.989
 3269SOL    HW110706   2.326   5.123   1.057
 3269SOL    HW210707   2.178   5.189   1.032
 3270SOL     OW10708   1.801   3.216   6.233
 3270SOL    HW110709   1.899   3.240   6.233
 3270SOL    HW210710   1.791   3.119   6.215
 3271SOL     OW10711   0.861   3.668   1.218
 3271SOL    HW110712   0.776   3.649   1.266
 3271SOL    HW210713   0.929   3.702   1.284
 3272SOL     OW10714   3.748   0.261   0.965
 3272SOL    HW110715   3.842   0.259   1.000
 3272SOL    HW210716   3.750   0.243   0.866
 3273SOL     OW10717   4.153   3.579   6.538
 3273SOL    HW110718   4.203   3.527   6.607
 3273SOL    HW210719   4.192   3.561   6.447
 3274SOL     OW10720   4.264   0.387   2.062
 3274SOL    HW110721   4.278   0.372   1.964
 3274SOL    HW210722   4.171   0.422   2.077
 3275SOL     OW10723   5.560   0.590   2.021
 3275SOL    HW110724   5.475   0.609   2.071
 3275SOL    HW210725   5.572   0.659   1.949
 3276SOL     OW10726   5.759   5.357   0.377
 3276SOL    HW110727   5.728   5.265   0.351
 3276SOL    HW210728   5.766   5.414   0.294
 3277SOL     OW10729   3.301   1.499   2.532
 3277SOL    HW110730   3.360   1.549   2.468
 3277SOL    HW210731   3.357   1.458   2.604
 3278SOL     OW10732   5.125   1.408   6.616
 3278SOL    HW110733   5.207   1.354   6.636
 3278SOL    HW210734   5.141   1.466   6.537
 3279SOL     OW10735   4.119   0.390   2.485
 3279SOL    HW110736   4.164   0.307   2.518
 3279SOL    HW210737   4.074   0.437   2.561
 3280SOL     OW10738   6.435   2.834   4.311
 3280SOL    HW110739   6.514   2.894   4.315
 3280SOL    HW210740   6.351   2.888   4.307
 3281SOL     OW10741   5.899   2.861   1.673
 3281SOL    HW110742   5.971   2.929   1.659
 3281SOL    HW210743   5.810   2.902   1.652
 3282SOL     OW10744   6.502   4.508   4.959
 3282SOL    HW110745   6.504   4.598   5.003
 3282SOL    HW210746   6.407   4.479   4.947
 3283SOL     OW10747   3.199   1.386   0.510
 3283SOL    HW110748   3.193   1.483   0.534
 3283SOL    HW210749   3.219   1.333   0.592
 3284SOL     OW10750   1.926   0.823   5.241
 3284SOL    HW110751   2.004   0.778   5.285
 3284SOL    HW210752   1.907   0.910   5.286
 3285SOL     OW10753   3.923   2.186   3.738
 3285SOL    HW110754   3.886   2.155   3.650
 3285SOL    HW210755   3.851   2.184   3.807
 3286SOL     OW10756   1.134   3.700   3.109
 3286SOL    HW110757   1.201   3.714   3.182
 3286SOL    HW210758   1.107   3.788   3.071
 3287SOL     OW10759   2.787   1.285   0.219
 3287SOL    HW110760   2.693   1.318   0.227
 3287SOL    HW210761   2.829   1.281   0.309
 3288SOL     OW10762   3.183   5.225   1.935
 3288SOL    HW110763   3.093   5.185   1.919
 3288SOL    HW210764   3.230   5.173   2.007
 3289SOL     OW10765   4.643   0.435   7.012
 3289SOL    HW110766   4.560   0.451   6.958
 3289SOL    HW210767   4.722   0.427   6.950
 3290SOL     OW10768   0.689   5.220   0.192
 3290SOL    HW110769   0.637   5.141   0.158
 3290SOL    HW210770   0.637   5.304   0.174
 3291SOL     OW10771   4.885   6.367   5.732
 3291SOL    HW110772   4.974   6.340   5.696
 3291SOL    HW210773   4.862   6.459   5.700
 3292SOL     OW10774   0.181   3.275   0.588
 3292SOL    HW110775   0.191   3.223   0.503
 3292SOL    HW210776   0.198   3.371   0.571
 3293SOL     OW10777   6.729   4.321   2.592
 3293SOL    HW110778   6.808   4.339   2.651
 3293SOL    HW210779   6.721   4.394   2.524
 3294SOL     OW10780   3.965   2.771   5.349
 3294SOL    HW110781   3.966   2.793   5.446
 3294SOL    HW210782   4.034   2.700   5.330
 3295SOL     OW10783   1.331   3.109   3.531
 3295SOL    HW110784   1.319   3.010   3.544
 3295SOL    HW210785   1.418   3.126   3.485
 3296SOL     OW10786   2.377   0.712   0.012
 3296SOL    HW110787   2.287   0.688   0.048
 3296SOL    HW210788   2.400   0.652   6.959
 3297SOL     OW10789   3.231   0.555   5.693
 3297SOL    HW110790   3.234   0.481   5.625
 3297SOL    HW210791   3.324   0.589   5.709
 3298SOL     OW10792   3.615   4.198   5.961
 3298SOL    HW110793   3.646   4.103   5.956
 3298SOL    HW210794   3.537   4.204   6.024
 3299SOL     OW10795   2.603   0.104   4.405
 3299SOL    HW110796   2.525   0.154   4.366
 3299SOL    HW210797   2.571   0.044   4.478
 3300SOL     OW10798   1.674   1.132   3.566
 3300SOL    HW110799   1.665   1.121   3.665
 3300SOL    HW210800   1.674   1.043   3.522
 3301SOL     OW10801   1.199   1.147   2.183
 3301SOL    HW110802   1.277   1.207   2.201
 3301SOL    HW210803   1.207   1.065   2.240
 3302SOL     OW10804   1.432   4.480   5.124
 3302SOL    HW110805   1.512   4.446   5.173
 3302SOL    HW210806   1.452   4.483   5.026
 3303SOL     OW10807   4.142   3.646   0.404
 3303SOL    HW110808   4.130   3.742   0.379
 3303SOL    HW210809   4.054   3.599   0.401
 3304SOL     OW10810   2.372   3.455   0.934
 3304SOL    HW110811   2.378   3.509   1.018
 3304SOL    HW210812   2.298   3.491   0.877
 3305SOL     OW10813   3.045   2.893   6.998
 3305SOL    HW110814   3.066   2.988   6.977
 3305SOL    HW210815   3.129   2.839   7.000
 3306SOL     OW10816   2.649   0.495   1.123
 3306SOL    HW110817   2.682   0.566   1.184
 3306SOL    HW210818   2.552   0.477   1.141
 3307SOL     OW10819   2.341   5.663   4.769
 3307SOL    HW110820   2.285   5.605   4.709
 3307SOL    HW210821   2.416   5.702   4.717
 3308SOL     OW10822   4.783   5.435   0.988
 3308SOL    HW110823   4.768   5.498   1.065
 3308SOL    HW210824   4.747   5.345   1.011
 3309SOL     OW10825   5.835   3.691   4.077
 3309SOL    HW110826   5.895   3.756   4.122
 3309SOL    HW210827   5.739   3.714   4.097
 3310SOL     OW10828   6.651   4.411   6.446
 3310SOL    HW110829   6.733   4.432   6.500
 3310SOL    HW210830   6.625   4.316   6.462
 3311SOL     OW10831   2.179   2.469   6.933
 3311SOL    HW110832   2.227   2.478   6.846
 3311SOL    HW210833   2.245   2.475   7.008
 3312SOL     OW10834   4.798   3.681   0.393
 3312SOL    HW110835   4.864   3.639   0.456
 3312SOL    HW210836   4.727   3.614   0.370
 3313SOL     OW10837   0.733   6.922   4.165
 3313SOL    HW110838   0.679   6.950   4.086
 3313SOL    HW210839   0.826   6.899   4.136
 3314SOL     OW10840   3.219   6.415   3.558
 3314SOL    HW110841   3.280   6.461   3.623
 3314SOL    HW210842   3.273   6.368   3.489
 3315SOL     OW10843   0.731   6.437   4.186
 3315SOL    HW110844   0.796   6.512   4.173
 3315SOL    HW210845   0.640   6.465   4.156
 3316SOL     OW10846   3.314   1.862   0.061
 3316SOL    HW110847   3.350   1.795   7.019
 3316SOL    HW210848   3.374   1.942   0.064
 3317SOL     OW10849   5.814   2.390   1.279
 3317SOL    HW110850   5.848   2.318   1.340
 3317SOL    HW210851   5.741   2.441   1.325
 3318SOL     OW10852   4.034   2.848   0.765
 3318SOL    HW110853   4.022   2.884   0.857
 3318SOL    HW210854   3.956   2.790   0.741
 3319SOL     OW10855   6.796   6.569   3.908
 3319SOL    HW110856   6.763   6.654   3.865
 3319SOL    HW210857   6.720   6.505   3.918
 3320SOL     OW10858   6.357   0.661   2.156
 3320SOL    HW110859   6.357   0.582   2.094
 3320SOL    HW210860   6.392   0.741   2.109
 3321SOL     OW10861   4.921   1.915   6.745
 3321SOL    HW110862   5.012   1.926   6.706
 3321SOL    HW210863   4.894   2.000   6.790
 3322SOL     OW10864   5.851   3.525   1.315
 3322SOL    HW110865   5.861   3.516   1.215
 3322SOL    HW210866   5.925   3.583   1.350
 3323SOL     OW10867   1.392   0.942   2.116
 3323SOL    HW110868   1.312   0.991   2.080
 3323SOL    HW210869   1.462   0.935   2.045
 3324SOL     OW10870   6.359   5.385   5.767
 3324SOL    HW110871   6.297   5.310   5.746
 3324SOL    HW210872   6.338   5.464   5.709
 3325SOL     OW10873   3.196   5.348   5.940
 3325SOL    HW110874   3.202   5.314   5.846
 3325SOL    HW210875   3.119   5.304   5.987
 3326SOL     OW10876   3.595   1.997   1.955
 3326SOL    HW110877   3.589   1.985   1.856
 3326SOL    HW210878   3.649   2.079   1.975
 3327SOL     OW10879   1.649   6.463   5.793
 3327SOL    HW110880   1.670   6.435   5.699
 3327SOL    HW210881   1.642   6.382   5.851
 3328SOL     OW10882   4.793   3.097   5.434
 3328SOL    HW110883   4.819   3.192   5.412
 3328SOL    HW210884   4.793   3.043   5.350
 3329SOL     OW10885   6.520   6.602   5.880
 3329SOL    HW110886   6.560   6.667   5.816
 3329SOL    HW210887   6.577   6.520   5.885
 3330SOL     OW10888   6.738   2.281   2.538
 3330SOL    HW110889   6.780   2.244   2.621
 3330SOL    HW210890   6.703   2.206   2.482
 3331SOL     OW10891   1.657   3.020   0.460
 3331SOL    HW110892   1.733   3.008   0.396
 3331SOL    HW210893   1.600   3.096   0.431
 3332SOL     OW10894   0.428   3.982   1.937
 3332SOL    HW110895   0.328   3.983   1.935
 3332SOL    HW210896   0.460   3.887   1.935
 3333SOL     OW10897   3.309   5.813   5.399
 3333SOL    HW110898   3.352   5.741   5.345
 3333SOL    HW210899   3.215   5.786   5.421
 3334SOL     OW10900   1.376   2.919   1.311
 3334SOL    HW110901   1.444   2.879   1.249
 3334SOL    HW210902   1.412   3.003   1.351
 3335SOL     OW10903   5.422   4.189   4.303
 3335SOL    HW110904   5.411   4.107   4.360
 3335SOL    HW210905   5.442   4.268   4.362
 3336SOL     OW10906   3.623   6.468   5.825
 3336SOL    HW110907   3.572   6.551   5.848
 3336SOL    HW210908   3.606   6.444   5.729
 3337SOL     OW10909   3.740   1.725   0.475
 3337SOL    HW110910   3.711   1.717   0.380
 3337SOL    HW210911   3.724   1.639   0.523
 3338SOL     OW10912   6.726   5.317   6.886
 3338SOL    HW110913   6.693   5.391   6.945
 3338SOL    HW210914   6.720   5.345   6.791
 3339SOL     OW10915   0.756   4.852   6.379
 3339SOL    HW110916   0.785   4.940   6.418
 3339SOL    HW210917   0.788   4.845   6.285
 3340SOL     OW10918   4.081   0.465   1.616
 3340SOL    HW110919   4.084   0.514   1.529
 3340SOL    HW210920   4.136   0.513   1.684
 3341SOL     OW10921   0.795   0.519   0.365
 3341SOL    HW110922   0.829   0.434   0.326
 3341SOL    HW210923   0.699   0.508   0.391
 3342SOL     OW10924   2.337   0.081   5.254
 3342SOL    HW110925   2.328   0.146   5.179
 3342SOL    HW210926   2.289   7.019   5.230
 3343SOL     OW10927   6.968   2.345   1.368
 3343SOL    HW110928   6.882   2.387   1.339
 3343SOL    HW210929   7.019   2.316   1.287
 3344SOL     OW10930   1.325   2.967   6.199
 3344SOL    HW110931   1.408   2.912   6.193
 3344SOL    HW210932   1.250   2.919   6.153
 3345SOL     OW10933   2.727   3.221   5.954
 3345SOL    HW110934   2.741   3.205   5.856
 3345SOL    HW210935   2.739   3.135   6.004
 3346SOL     OW10936   1.995   5.818   2.326
 3346SOL    HW110937   2.008   5.818   2.425
 3346SOL    HW210938   2.076   5.857   2.282
 3347SOL     OW10939   6.107   3.774   3.880
 3347SOL    HW110940   6.050   3.807   3.805
 3347SOL    HW210941   6.050   3.755   3.960
 3348SOL     OW10942   3.220   4.003   3.213
 3348SOL    HW110943   3.291   3.954   3.162
 3348SOL    HW210944   3.262   4.080   3.262
 3349SOL     OW10945   4.930   2.588   0.358
 3349SOL    HW110946   4.981   2.669   0.330
 3349SOL    HW210947   4.847   2.580   0.303
 3350SOL     OW10948   2.398   2.819   1.087
 3350SOL    HW110949   2.468   2.749   1.092
 3350SOL    HW210950   2.413   2.887   1.159
 3351SOL     OW10951   6.019   2.748   0.559
 3351SOL    HW110952   5.924   2.743   0.529
 3351SOL    HW210953   6.022   2.758   0.658
 3352SOL     OW10954   0.221   3.627   0.181
 3352SOL    HW110955   0.185   3.591   0.267
 3352SOL    HW210956   0.310   3.584   0.162
 3353SOL     OW10957   1.279   6.542   6.282
 3353SOL    HW110958   1.238   6.452   6.271
 3353SOL    HW210959   1.211   6.606   6.319
 3354SOL     OW10960   1.144   0.377   1.941
 3354SOL    HW110961   1.144   0.474   1.916
 3354SOL    HW210962   1.053   0.340   1.928
 3355SOL     OW10963   6.018   0.959   2.564
 3355SOL    HW110964   5.924   0.979   2.592
 3355SOL    HW210965   6.043   0.868   2.596
 3356SOL     OW10966   1.502   3.914   6.901
 3356SOL    HW110967   1.504   3.991   6.838
 3356SOL    HW210968   1.446   3.937   6.980
 3357SOL     OW10969   2.344   5.605   2.275
 3357SOL    HW110970   2.438   5.606   2.240
 3357SOL    HW210971   2.312   5.511   2.283
 3358SOL     OW10972   6.702   3.991   3.481
 3358SOL    HW110973   6.653   4.013   3.565
 3358SOL    HW210974   6.653   4.030   3.403
 3359SOL     OW10975   2.032   1.592   1.606
 3359SOL    HW110976   2.079   1.506   1.626
 3359SOL    HW210977   1.967   1.613   1.678
 3360SOL     OW10978   2.792   0.900   5.987
 3360SOL    HW110979   2.882   0.940   6.005
 3360SOL    HW210980   2.721   0.964   6.016
 3361SOL     OW10981   2.711   1.288   3.091
 3361SOL    HW110982   2.740   1.286   2.995
 3361SOL    HW210983   2.778   1.240   3.147
 3362SOL     OW10984   3.091   1.722   4.942
 3362SOL    HW110985   3.089   1.813   4.983
 3362SOL    HW210986   2.999   1.699   4.908
 3363SOL     OW10987   6.729   0.632   0.007
 3363SOL    HW110988   6.788   0.659   6.954
 3363SOL    HW210989   6.759   0.678   0.091
 3364SOL     OW10990   1.821   5.323   5.191
 3364SOL    HW110991   1.862   5.236   5.221
 3364SOL    HW210992   1.750   5.349   5.257
 3365SOL     OW10993   6.245   2.554   5.376
 3365SOL    HW110994   6.335   2.581   5.407
 3365SOL    HW210995   6.251   2.517   5.283
 3366SOL     OW10996   5.383   0.900   0.152
 3366SOL    HW110997   5.323   0.978   0.170
 3366SOL    HW210998   5.378   0.836   0.228
 3367SOL     OW10999   2.063   0.062   2.793
 3367SOL    HW111000   2.161   0.041   2.791
 3367SOL    HW211001   2.022   0.039   2.705
 3368SOL     OW11002   6.607   1.353   4.615
 3368SOL    HW111003   6.533   1.287   4.603
 3368SOL    HW211004   6.595   1.401   4.702
 3369SOL     OW11005   4.107   5.699   6.477
 3369SOL    HW111006   4.027   5.730   6.529
 3369SOL    HW211007   4.097   5.726   6.381
 3370SOL     OW11008   6.023   0.112   5.003
 3370SOL    HW111009   6.010   0.056   5.085
 3370SOL    HW211010   6.119   0.107   4.974
 3371SOL     OW11011   6.948   4.922   1.422
 3371SOL    HW111012   6.945   5.006   1.476
 3371SOL    HW211013   0.003   4.867   1.451
 3372SOL     OW11014   1.332   2.543   2.845
 3372SOL    HW111015   1.334   2.641   2.826
 3372SOL    HW211016   1.308   2.493   2.762
 3373SOL     OW11017   0.820   2.759   6.492
 3373SOL    HW111018   0.737   2.814   6.503
 3373SOL    HW211019   0.810   2.700   6.412
 3374SOL     OW11020   3.602   6.283   5.108
 3374SOL    HW111021   3.635   6.241   5.024
 3374SOL    HW211022   3.512   6.325   5.092
 3375SOL     OW11023   3.559   3.917   4.702
 3375SOL    HW111024   3.474   3.875   4.733
 3375SOL    HW211025   3.541   4.007   4.664
 3376SOL     OW11026   3.445   3.209   1.766
 3376SOL    HW111027   3.419   3.209   1.862
 3376SOL    HW211028   3.375   3.163   1.712
 3377SOL     OW11029   3.078   5.681   5.444
 3377SOL    HW111030   3.065   5.590   5.404
 3377SOL    HW211031   2.994   5.734   5.435
 3378SOL     OW11032   6.968   1.139   0.555
 3378SOL    HW111033   6.906   1.135   0.477
 3378SOL    HW211034   6.998   1.234   0.569
 3379SOL     OW11035   5.969   5.269   5.475
 3379SOL    HW111036   6.026   5.341   5.515
 3379SOL    HW211037   5.913   5.308   5.402
 3380SOL     OW11038   0.566   3.781   5.718
 3380SOL    HW111039   0.636   3.849   5.739
 3380SOL    HW211040   0.600   3.719   5.647
 3381SOL     OW11041   3.274   2.594   1.609
 3381SOL    HW111042   3.213   2.629   1.680
 3381SOL    HW211043   3.359   2.563   1.651
 3382SOL     OW11044   0.482   6.418   0.504
 3382SOL    HW111045   0.576   6.392   0.485
 3382SOL    HW211046   0.469   6.515   0.483
 3383SOL     OW11047   0.713   4.064   1.325
 3383SOL    HW111048   0.647   4.139   1.332
 3383SOL    HW211049   0.705   4.005   1.405
 3384SOL     OW11050   3.213   3.344   3.661
 3384SOL    HW111051   3.245   3.414   3.597
 3384SOL    HW211052   3.141   3.382   3.719
 3385SOL     OW11053   0.098   3.871   4.239
 3385SOL    HW111054   0.158   3.837   4.166
 3385SOL    HW211055   0.065   3.794   4.293
 3386SOL     OW11056   5.838   4.295   4.379
 3386SOL    HW111057   5.773   4.255   4.314
 3386SOL    HW211058   5.928   4.303   4.334
 3387SOL     OW11059   3.458   1.862   2.502
 3387SOL    HW111060   3.472   1.904   2.591
 3387SOL    HW211061   3.446   1.933   2.433
 3388SOL     OW11062   5.578   2.193   1.306
 3388SOL    HW111063   5.633   2.229   1.231
 3388SOL    HW211064   5.483   2.222   1.294
 3389SOL     OW11065   4.237   5.680   2.720
 3389SOL    HW111066   4.277   5.754   2.666
 3389SOL    HW211067   4.140   5.670   2.698
 3390SOL     OW11068   4.605   1.310   5.428
 3390SOL    HW111069   4.662   1.364   5.366
 3390SOL    HW211070   4.601   1.215   5.395
 3391SOL     OW11071   3.729   2.163   3.931
 3391SOL    HW111072   3.690   2.160   4.023
 3391SOL    HW211073   3.660   2.133   3.865
 3392SOL     OW11074   5.273   6.587   3.769
 3392SOL    HW111075   5.370   6.563   3.776
 3392SOL    HW211076   5.241   6.568   3.677
 3393SOL     OW11077   0.102   6.874   6.950
 3393SOL    HW111078   0.018   6.842   6.993
 3393SOL    HW211079   0.151   6.934   7.012
 3394SOL     OW11080   5.487   0.942   2.736
 3394SOL    HW111081   5.390   0.923   2.748
 3394SOL    HW211082   5.513   0.924   2.641
 3395SOL     OW11083   1.567   3.700   4.978
 3395SOL    HW111084   1.513   3.689   5.062
 3395SOL    HW211085   1.627   3.620   4.967
 3396SOL     OW11086   6.477   3.523   4.102
 3396SOL    HW111087   6.385   3.560   4.116
 3396SOL    HW211088   6.483   3.432   4.144
 3397SOL     OW11089   4.079   5.713   6.215
 3397SOL    HW111090   4.150   5.700   6.145
 3397SOL    HW211091   4.029   5.798   6.197
 3398SOL     OW11092   0.347   1.093   3.306
 3398SOL    HW111093   0.250   1.067   3.313
 3398SOL    HW211094   0.353   1.191   3.288
 3399SOL     OW11095   4.112   5.917   4.248
 3399SOL    HW111096   4.083   5.825   4.221
 3399SOL    HW211097   4.208   5.930   4.223
 3400SOL     OW11098   5.091   2.445   0.518
 3400SOL    HW111099   5.027   2.504   0.469
 3400SOL    HW211100   5.144   2.391   0.453
 3401SOL     OW11101   6.897   4.193   6.390
 3401SOL    HW111102   6.963   4.232   6.326
 3401SOL    HW211103   6.881   4.258   6.465
 3402SOL     OW11104   4.642   4.682   2.281
 3402SOL    HW111105   4.670   4.719   2.370
 3402SOL    HW211106   4.656   4.583   2.280
 3403SOL     OW11107   3.657   1.368   5.796
 3403SOL    HW111108   3.668   1.288   5.854
 3403SOL    HW211109   3.564   1.370   5.758
 3404SOL     OW11110   4.717   6.222   1.802
 3404SOL    HW111111   4.737   6.137   1.852
 3404SOL    HW211112   4.795   6.284   1.810
 3405SOL     OW11113   6.400   4.683   6.966
 3405SOL    HW111114   6.439   4.769   6.933
 3405SOL    HW211115   6.409   4.613   6.896
 3406SOL     OW11116   1.376   3.963   1.392
 3406SOL    HW111117   1.372   4.010   1.304
 3406SOL    HW211118   1.435   4.015   1.455
 3407SOL     OW11119   1.303   5.373   2.905
 3407SOL    HW111120   1.247   5.445   2.946
 3407SOL    HW211121   1.301   5.291   2.963
 3408SOL     OW11122   5.140   3.555   3.193
 3408SOL    HW111123   5.225   3.572   3.142
 3408SOL    HW211124   5.097   3.471   3.159
 3409SOL     OW11125   2.654   0.906   6.356
 3409SOL    HW111126   2.693   0.814   6.360
 3409SOL    HW211127   2.593   0.913   6.277
 3410SOL     OW11128   6.924   2.337   0.231
 3410SOL    HW111129   6.948   2.279   0.153
 3410SOL    HW211130   6.859   2.407   0.202
 3411SOL     OW11131   4.626   1.998   2.438
 3411SOL    HW111132   4.583   1.919   2.393
 3411SOL    HW211133   4.596   2.082   2.393
 3412SOL     OW11134   4.636   5.405   7.008
 3412SOL    HW111135   4.670   5.339   6.940
 3412SOL    HW211136   4.536   5.400   7.013
 3413SOL     OW11137   5.367   1.533   2.409
 3413SOL    HW111138   5.269   1.520   2.393
 3413SOL    HW211139   5.417   1.518   2.324
 3414SOL     OW11140   4.059   0.689   5.413
 3414SOL    HW111141   4.074   0.788   5.410
 3414SOL    HW211142   4.140   0.644   5.449
 3415SOL     OW11143   1.156   5.437   4.360
 3415SOL    HW111144   1.085   5.367   4.368
 3415SOL    HW211145   1.225   5.424   4.432
 3416SOL     OW11146   2.129   4.448   5.757
 3416SOL    HW111147   2.172   4.370   5.803
 3416SOL    HW211148   2.108   4.423   5.663
 3417SOL     OW11149   5.091   1.062   1.371
 3417SOL    HW111150   5.063   1.046   1.277
 3417SOL    HW211151   5.013   1.051   1.433
 3418SOL     OW11152   3.257   2.897   6.065
 3418SOL    HW111153   3.242   2.891   5.966
 3418SOL    HW211154   3.275   2.992   6.090
 3419SOL     OW11155   5.193   3.429   6.575
 3419SOL    HW111156   5.170   3.406   6.670
 3419SOL    HW211157   5.244   3.354   6.534
 3420SOL     OW11158   3.931   1.458   4.482
 3420SOL    HW111159   3.896   1.541   4.526
 3420SOL    HW211160   3.887   1.448   4.393
 3421SOL     OW11161   0.425   6.375   2.592
 3421SOL    HW111162   0.422   6.343   2.687
 3421SOL    HW211163   0.387   6.305   2.532
 3422SOL     OW11164   3.197   2.123   2.666
 3422SOL    HW111165   3.290   2.088   2.680
 3422SOL    HW211166   3.174   2.118   2.569
 3423SOL     OW11167   3.343   0.856   1.557
 3423SOL    HW111168   3.386   0.804   1.631
 3423SOL    HW211169   3.331   0.797   1.477
 3424SOL     OW11170   4.489   1.340   1.650
 3424SOL    HW111171   4.573   1.341   1.704
 3424SOL    HW211172   4.413   1.308   1.706
 3425SOL     OW11173   4.036   4.100   1.775
 3425SOL    HW111174   4.071   4.027   1.716
 3425SOL    HW211175   4.111   4.138   1.829
 3426SOL     OW11176   4.684   4.029   0.798
 3426SOL    HW111177   4.779   4.022   0.829
 3426SOL    HW211178   4.673   3.978   0.713
 3427SOL     OW11179   0.791   1.746   0.722
 3427SOL    HW111180   0.836   1.774   0.807
 3427SOL    HW211181   0.694   1.729   0.741
 3428SOL     OW11182   4.268   4.918   3.213
 3428SOL    HW111183   4.318   4.954   3.292
 3428SOL    HW211184   4.331   4.904   3.137
 3429SOL     OW11185   0.487   2.996   0.683
 3429SOL    HW111186   0.536   3.072   0.642
 3429SOL    HW211187   0.389   3.010   0.672
 3430SOL     OW11188   1.235   5.235   6.315
 3430SOL    HW111189   1.246   5.333   6.331
 3430SOL    HW211190   1.178   5.196   6.387
 3431SOL     OW11191   1.811   6.096   6.650
 3431SOL    HW111192   1.879   6.168   6.661
 3431SOL    HW211193   1.854   6.007   6.662
 3432SOL     OW11194   3.704   1.660   6.474
 3432SOL    HW111195   3.606   1.678   6.488
 3432SOL    HW211196   3.757   1.739   6.503
 3433SOL     OW11197   5.105   0.970   4.371
 3433SOL    HW111198   5.071   0.945   4.461
 3433SOL    HW211199   5.173   0.903   4.340
 3434SOL     OW11200   4.440   1.700   3.251
 3434SOL    HW111201   4.432   1.762   3.173
 3434SOL    HW211202   4.415   1.748   3.335
 3435SOL     OW11203   0.664   1.473   0.502
 3435SOL    HW111204   0.658   1.553   0.441
 3435SOL    HW211205   0.755   1.433   0.496
 3436SOL     OW11206   4.464   6.929   2.493
 3436SOL    HW111207   4.511   6.869   2.557
 3436SOL    HW211208   4.445   7.017   2.537
 3437SOL     OW11209   4.276   0.696   6.771
 3437SOL    HW111210   4.342   0.771   6.783
 3437SOL    HW211211   4.299   0.622   6.833
 3438SOL     OW11212   0.886   5.633   6.289
 3438SOL    HW111213   0.965   5.692   6.308
 3438SOL    HW211214   0.871   5.628   6.191
 3439SOL     OW11215   2.679   0.489   4.266
 3439SOL    HW111216   2.610   0.558   4.285
 3439SOL    HW211217   2.703   0.441   4.350
 3440SOL     OW11218   3.176   1.692   0.230
 3440SOL    HW111219   3.237   1.749   0.174
 3440SOL    HW211220   3.084   1.730   0.228
 3441SOL     OW11221   5.093   0.547   4.130
 3441SOL    HW111222   5.068   0.486   4.205
 3441SOL    HW211223   5.083   0.498   4.043
 3442SOL     OW11224   1.104   5.026   2.877
 3442SOL    HW111225   1.153   5.086   2.941
 3442SOL    HW211226   1.046   5.081   2.817
 3443SOL     OW11227   5.882   6.670   4.406
 3443SOL    HW111228   5.859   6.617   4.488
 3443SOL    HW211229   5.944   6.618   4.348
 3444SOL     OW11230   3.989   5.386   0.206
 3444SOL    HW111231   4.060   5.345   0.263
 3444SOL    HW211232   4.010   5.482   0.191
 3445SOL     OW11233   5.789   5.116   4.654
 3445SOL    HW111234   5.734   5.118   4.738
 3445SOL    HW211235   5.859   5.045   4.662
 3446SOL     OW11236   2.745   6.557   2.113
 3446SOL    HW111237   2.741   6.575   2.211
 3446SOL    HW211238   2.735   6.644   2.063
 3447SOL     OW11239   6.169   4.746   5.453
 3447SOL    HW111240   6.214   4.833   5.476
 3447SOL    HW211241   6.083   4.765   5.406
 3448SOL     OW11242   3.786   3.412   0.757
 3448SOL    HW111243   3.718   3.383   0.824
 3448SOL    HW211244   3.869   3.356   0.768
 3449SOL     OW11245   0.059   6.289   2.698
 3449SOL    HW111246   7.007   6.354   2.689
 3449SOL    HW211247   0.119   6.319   2.773
 3450SOL     OW11248   0.850   1.810   1.746
 3450SOL    HW111249   0.790   1.814   1.666
 3450SOL    HW211250   0.795   1.812   1.829
 3451SOL     OW11251   1.513   4.641   4.407
 3451SOL    HW111252   1.520   4.554   4.457
 3451SOL    HW211253   1.509   4.623   4.309
 3452SOL     OW11254   6.778   1.811   0.765
 3452SOL    HW111255   6.847   1.855   0.708
 3452SOL    HW211256   6.690   1.854   0.750
 3453SOL     OW11257   5.588   6.117   5.449
 3453SOL    HW111258   5.615   6.096   5.542
 3453SOL    HW211259   5.629   6.204   5.421
 3454SOL     OW11260   0.622   1.143   0.674
 3454SOL    HW111261   0.692   1.143   0.603
 3454SOL    HW211262   0.531   1.143   0.632
 3455SOL     OW11263   1.871   3.164   3.642
 3455SOL    HW111264   1.881   3.082   3.585
 3455SOL    HW211265   1.776   3.194   3.640
 3456SOL     OW11266   7.008   0.146   0.480
 3456SOL    HW111267   0.021   0.070   0.534
 3456SOL    HW211268   0.018   0.140   0.386
 3457SOL     OW11269   2.238   6.463   3.957
 3457SOL    HW111270   2.299   6.384   3.968
 3457SOL    HW211271   2.287   6.546   3.980
 3458SOL     OW11272   5.345   5.117   0.415
 3458SOL    HW111273   5.381   5.058   0.487
 3458SOL    HW211274   5.420   5.149   0.356
 3459SOL     OW11275   6.257   7.014   3.377
 3459SOL    HW111276   6.276   0.050   3.299
 3459SOL    HW211277   6.163   6.981   3.371
 3460SOL     OW11278   4.449   2.482   6.978
 3460SOL    HW111279   4.458   2.470   6.879
 3460SOL    HW211280   4.396   2.564   6.998
 3461SOL     OW11281   2.470   6.001   2.993
 3461SOL    HW111282   2.416   6.085   3.008
 3461SOL    HW211283   2.417   5.937   2.937
 3462SOL     OW11284   5.171   2.942   2.813
 3462SOL    HW111285   5.142   2.912   2.722
 3462SOL    HW211286   5.216   3.031   2.805
 3463SOL     OW11287   1.397   3.299   1.025
 3463SOL    HW111288   1.469   3.230   1.022
 3463SOL    HW211289   1.409   3.363   0.949
 3464SOL     OW11290   5.333   1.547   5.993
 3464SOL    HW111291   5.427   1.520   6.014
 3464SOL    HW211292   5.319   1.546   5.894
 3465SOL     OW11293   1.793   4.981   1.531
 3465SOL    HW111294   1.876   4.926   1.539
 3465SOL    HW211295   1.804   5.066   1.583
 3466SOL     OW11296   6.327   3.885   4.306
 3466SOL    HW111297   6.279   3.970   4.329
 3466SOL    HW211298   6.410   3.906   4.256
 3467SOL     OW11299   3.612   2.941   0.740
 3467SOL    HW111300   3.632   2.846   0.764
 3467SOL    HW211301   3.525   2.945   0.691
 3468SOL     OW11302   3.848   1.392   1.194
 3468SOL    HW111303   3.891   1.309   1.230
 3468SOL    HW211304   3.915   1.467   1.195
 3469SOL     OW11305   3.820   5.576   4.983
 3469SOL    HW111306   3.726   5.554   5.010
 3469SOL    HW211307   3.884   5.520   5.036
 3470SOL     OW11308   1.239   2.284   2.305
 3470SOL    HW111309   1.155   2.332   2.280
 3470SOL    HW211310   1.217   2.212   2.371
 3471SOL     OW11311   4.932   3.134   4.828
 3471SOL    HW111312   4.939   3.227   4.866
 3471SOL    HW211313   4.928   3.139   4.728
 3472SOL     OW11314   4.802   1.512   2.555
 3472SOL    HW111315   4.750   1.543   2.475
 3472SOL    HW211316   4.888   1.563   2.561
 3473SOL     OW11317   6.194   4.920   1.899
 3473SOL    HW111318   6.140   4.838   1.916
 3473SOL    HW211319   6.226   4.920   1.804
 3474SOL     OW11320   4.744   4.492   3.830
 3474SOL    HW111321   4.842   4.507   3.823
 3474SOL    HW211322   4.702   4.567   3.882
 3475SOL     OW11323   0.489   3.921   4.473
 3475SOL    HW111324   0.401   3.969   4.462
 3475SOL    HW211325   0.528   3.945   4.562
 3476SOL     OW11326   1.678   1.853   3.167
 3476SOL    HW111327   1.750   1.855   3.237
 3476SOL    HW211328   1.644   1.946   3.153
 3477SOL     OW11329   0.623   3.893   1.551
 3477SOL    HW111330   0.542   3.945   1.576
 3477SOL    HW211331   0.680   3.878   1.631
 3478SOL     OW11332   2.309   0.352   0.772
 3478SOL    HW111333   2.275   0.306   0.855
 3478SOL    HW211334   2.248   0.332   0.696
 3479SOL     OW11335   0.910   4.399   5.461
 3479SOL    HW111336   0.975   4.354   5.400
 3479SOL    HW211337   0.820   4.357   5.449
 3480SOL     OW11338   1.356   4.475   6.453
 3480SOL    HW111339   1.269   4.506   6.416
 3480SOL    HW211340   1.380   4.387   6.412
 3481SOL     OW11341   6.183   0.184   4.532
 3481SOL    HW111342   6.268   0.177   4.480
 3481SOL    HW211343   6.179   0.111   4.600
 3482SOL     OW11344   6.155   3.570   6.818
 3482SOL    HW111345   6.138   3.515   6.900
 3482SOL    HW211346   6.142   3.667   6.840
 3483SOL     OW11347   5.303   2.487   5.451
 3483SOL    HW111348   5.204   2.475   5.457
 3483SOL    HW211349   5.327   2.580   5.480
 3484SOL     OW11350   1.255   3.237   4.705
 3484SOL    HW111351   1.338   3.181   4.708
 3484SOL    HW211352   1.278   3.332   4.726
 3485SOL     OW11353   0.257   3.050   6.873
 3485SOL    HW111354   0.292   2.958   6.854
 3485SOL    HW211355   0.242   3.061   6.971
 3486SOL     OW11356   1.655   6.532   5.137
 3486SOL    HW111357   1.707   6.595   5.194
 3486SOL    HW211358   1.706   6.511   5.054
 3487SOL     OW11359   4.430   1.772   6.944
 3487SOL    HW111360   4.474   1.855   6.909
 3487SOL    HW211361   4.500   1.702   6.961
 3488SOL     OW11362   5.552   6.577   5.023
 3488SOL    HW111363   5.481   6.585   4.953
 3488SOL    HW211364   5.509   6.553   5.110
 3489SOL     OW11365   3.606   5.899   0.792
 3489SOL    HW111366   3.654   5.892   0.705
 3489SOL    HW211367   3.625   5.988   0.834
 3490SOL     OW11368   3.720   6.545   1.014
 3490SOL    HW111369   3.632   6.540   0.968
 3490SOL    HW211370   3.706   6.566   1.111
 3491SOL     OW11371   4.371   4.754   5.826
 3491SOL    HW111372   4.360   4.656   5.811
 3491SOL    HW211373   4.427   4.794   5.753
 3492SOL     OW11374   5.954   4.320   3.364
 3492SOL    HW111375   6.027   4.387   3.376
 3492SOL    HW211376   5.994   4.229   3.358
 3493SOL     OW11377   6.900   3.198   5.787
 3493SOL    HW111378   6.898   3.178   5.689
 3493SOL    HW211379   6.995   3.205   5.817
 3494SOL     OW11380   3.944   1.723   2.060
 3494SOL    HW111381   3.966   1.698   2.155
 3494SOL    HW211382   3.976   1.815   2.041
 3495SOL     OW11383   1.602   3.766   3.578
 3495SOL    HW111384   1.518   3.763   3.632
 3495SOL    HW211385   1.613   3.681   3.527
 3496SOL     OW11386   6.559   5.054   1.314
 3496SOL    HW111387   6.515   4.988   1.254
 3496SOL    HW211388   6.490   5.109   1.362
 3497SOL     OW11389   3.568   0.430   1.804
 3497SOL    HW111390   3.648   0.442   1.745
 3497SOL    HW211391   3.598   0.411   1.897
 3498SOL     OW11392   2.415   2.545   1.347
 3498SOL    HW111393   2.425   2.447   1.358
 3498SOL    HW211394   2.386   2.586   1.433
 3499SOL     OW11395   5.880   6.469   4.619
 3499SOL    HW111396   5.924   6.380   4.632
 3499SOL    HW211397   5.841   6.499   4.706
 3500SOL     OW11398   2.679   2.347   3.639
 3500SOL    HW111399   2.732   2.361   3.556
 3500SOL    HW211400   2.662   2.435   3.683
 3501SOL     OW11401   1.581   6.877   5.960
 3501SOL    HW111402   1.621   6.852   5.871
 3501SOL    HW211403   1.603   6.806   6.027
 3502SOL     OW11404   4.987   2.210   2.305
 3502SOL    HW111405   4.964   2.114   2.317
 3502SOL    HW211406   5.012   2.251   2.393
 3503SOL     OW11407   0.449   6.048   6.380
 3503SOL    HW111408   0.436   5.952   6.406
 3503SOL    HW211409   0.502   6.095   6.450
 3504SOL     OW11410   1.887   0.719   0.006
 3504SOL    HW111411   1.918   0.740   6.936
 3504SOL    HW211412   1.885   0.803   0.060
 3505SOL     OW11413   4.737   3.292   5.671
 3505SOL    HW111414   4.708   3.353   5.744
 3505SOL    HW211415   4.712   3.332   5.582
 3506SOL     OW11416   4.428   4.826   5.154
 3506SOL    HW111417   4.355   4.871   5.205
 3506SOL    HW211418   4.390   4.749   5.103
 3507SOL     OW11419   3.525   1.034   0.737
 3507SOL    HW111420   3.582   0.957   0.766
 3507SOL    HW211421   3.488   1.015   0.645
 3508SOL     OW11422   3.384   1.388   5.733
 3508SOL    HW111423   3.330   1.380   5.649
 3508SOL    HW211424   3.353   1.468   5.785
 3509SOL     OW11425   4.417   5.474   6.737
 3509SOL    HW111426   4.443   5.380   6.715
 3509SOL    HW211427   4.321   5.476   6.765
 3510SOL     OW11428   2.291   1.855   1.435
 3510SOL    HW111429   2.364   1.859   1.366
 3510SOL    HW211430   2.207   1.823   1.392
 3511SOL     OW11431   2.750   4.394   1.663
 3511SOL    HW111432   2.806   4.315   1.637
 3511SOL    HW211433   2.801   4.452   1.727
 3512SOL     OW11434   7.011   5.244   5.818
 3512SOL    HW111435   0.088   5.236   5.816
 3512SOL    HW211436   6.971   5.153   5.825
 3513SOL     OW11437   5.840   2.110   0.897
 3513SOL    HW111438   5.758   2.097   0.842
 3513SOL    HW211439   5.883   2.196   0.871
 3514SOL     OW11440   3.025   1.754   1.781
 3514SOL    HW111441   2.998   1.659   1.793
 3514SOL    HW211442   2.955   1.814   1.819
 3515SOL     OW11443   0.733   4.762   4.759
 3515SOL    HW111444   0.704   4.690   4.696
 3515SOL    HW211445   0.813   4.809   4.721
 3516SOL     OW11446   4.719   0.450   1.288
 3516SOL    HW111447   4.798   0.503   1.317
 3516SOL    HW211448   4.669   0.501   1.218
 3517SOL     OW11449   4.823   0.971   1.790
 3517SOL    HW111450   4.828   0.924   1.702
 3517SOL    HW211451   4.903   0.949   1.845
 3518SOL     OW11452   5.500   0.919   4.973
 3518SOL    HW111453   5.525   0.953   4.882
 3518SOL    HW211454   5.538   0.979   5.043
 3519SOL     OW11455   3.230   1.019   1.086
 3519SOL    HW111456   3.140   1.063   1.076
 3519SOL    HW211457   3.300   1.076   1.042
 3520SOL     OW11458   2.616   5.904   4.258
 3520SOL    HW111459   2.549   5.931   4.189
 3520SOL    HW211460   2.672   5.829   4.223
 3521SOL     OW11461   2.558   2.971   6.589
 3521SOL    HW111462   2.589   3.063   6.568
 3521SOL    HW211463   2.632   2.920   6.634
 3522SOL     OW11464   0.847   6.412   6.549
 3522SOL    HW111465   0.920   6.413   6.618
 3522SOL    HW211466   0.881   6.453   6.464
 3523SOL     OW11467   3.396   5.984   6.924
 3523SOL    HW111468   3.381   6.082   6.912
 3523SOL    HW211469   3.431   5.945   6.839
 3524SOL     OW11470   4.739   1.005   3.842
 3524SOL    HW111471   4.750   0.946   3.922
 3524SOL    HW211472   4.685   0.957   3.772
 3525SOL     OW11473   0.073   3.263   3.303
 3525SOL    HW111474   0.098   3.179   3.351
 3525SOL    HW211475   7.017   3.304   3.348
 3526SOL     OW11476   0.562   6.610   1.902
 3526SOL    HW111477   0.463   6.625   1.891
 3526SOL    HW211478   0.577   6.549   1.980
 3527SOL     OW11479   6.664   2.940   6.781
 3527SOL    HW111480   6.683   2.939   6.879
 3527SOL    HW211481   6.749   2.946   6.730
 3528SOL     OW11482   2.062   5.319   4.395
 3528SOL    HW111483   2.007   5.367   4.327
 3528SOL    HW211484   2.110   5.243   4.351
 3529SOL     OW11485   4.337   4.830   0.677
 3529SOL    HW111486   4.285   4.840   0.593
 3529SOL    HW211487   4.310   4.746   0.723
 3530SOL     OW11488   6.670   6.951   0.912
 3530SOL    HW111489   6.719   6.916   0.992
 3530SOL    HW211490   6.628   6.876   0.862
 3531SOL     OW11491   4.367   2.269   0.345
 3531SOL    HW111492   4.465   2.290   0.354
 3531SOL    HW211493   4.332   2.240   0.434
 3532SOL     OW11494   2.079   0.801   1.643
 3532SOL    HW111495   1.987   0.830   1.668
 3532SOL    HW211496   2.117   0.865   1.576
 3533SOL     OW11497   0.934   1.898   3.472
 3533SOL    HW111498   0.958   1.857   3.384
 3533SOL    HW211499   0.965   1.993   3.474
 3534SOL     OW11500   0.541   0.925   1.048
 3534SOL    HW111501   0.500   1.012   1.076
 3534SOL    HW211502   0.641   0.931   1.054
 3535SOL     OW11503   3.252   6.178   3.804
 3535SOL    HW111504   3.218   6.150   3.894
 3535SOL    HW211505   3.176   6.182   3.739
 3536SOL     OW11506   3.807   1.542   3.056
 3536SOL    HW111507   3.895   1.515   3.016
 3536SOL    HW211508   3.792   1.492   3.141
 3537SOL     OW11509   1.474   7.011   3.614
 3537SOL    HW111510   1.468   6.997   3.515
 3537SOL    HW211511   1.560   6.974   3.648
 3538SOL     OW11512   2.804   5.375   2.039
 3538SOL    HW111513   2.736   5.400   1.970
 3538SOL    HW211514   2.868   5.309   2.001
 3539SOL     OW11515   3.382   3.741   4.304
 3539SOL    HW111516   3.464   3.740   4.360
 3539SOL    HW211517   3.349   3.647   4.292
 3540SOL     OW11518   1.490   2.148   3.616
 3540SOL    HW111519   1.546   2.071   3.647
 3540SOL    HW211520   1.415   2.163   3.681
 3541SOL     OW11521   4.166   3.562   4.539
 3541SOL    HW111522   4.169   3.590   4.635
 3541SOL    HW211523   4.193   3.466   4.531
 3542SOL     OW11524   6.699   5.322   1.026
 3542SOL    HW111525   6.658   5.248   1.080
 3542SOL    HW211526   6.750   5.283   0.949
 3543SOL     OW11527   5.245   2.609   4.621
 3543SOL    HW111528   5.190   2.692   4.615
 3543SOL    HW211529   5.261   2.573   4.529
 3544SOL     OW11530   2.525   6.425   0.136
 3544SOL    HW111531   2.549   6.395   0.228
 3544SOL    HW211532   2.439   6.384   0.108
 3545SOL     OW11533   3.320   4.969   0.586
 3545SOL    HW111534   3.349   4.938   0.495
 3545SOL    HW211535   3.227   4.939   0.604
 3546SOL     OW11536   0.361   4.675   2.171
 3546SOL    HW111537   0.320   4.630   2.250
 3546SOL    HW211538   0.289   4.724   2.120
 3547SOL     OW11539   5.371   4.810   4.570
 3547SOL    HW111540   5.335   4.857   4.650
 3547SOL    HW211541   5.471   4.808   4.575
 3548SOL     OW11542   4.973   3.494   6.021
 3548SOL    HW111543   4.879   3.462   6.012
 3548SOL    HW211544   4.984   3.579   5.969
 3549SOL     OW11545   4.900   3.462   2.415
 3549SOL    HW111546   4.898   3.461   2.315
 3549SOL    HW211547   4.921   3.370   2.449
 3550SOL     OW11548   4.768   1.432   3.363
 3550SOL    HW111549   4.681   1.434   3.314
 3550SOL    HW211550   4.765   1.496   3.439
 3551SOL     OW11551   1.956   6.560   2.514
 3551SOL    HW111552   1.875   6.564   2.455
 3551SOL    HW211553   1.937   6.500   2.592
 3552SOL     OW11554   6.886   4.343   2.898
 3552SOL    HW111555   6.825   4.419   2.875
 3552SOL    HW211556   6.834   4.271   2.942
 3553SOL     OW11557   5.792   1.784   3.134
 3553SOL    HW111558   5.735   1.854   3.090
 3553SOL    HW211559   5.879   1.778   3.085
 3554SOL     OW11560   4.469   5.661   6.976
 3554SOL    HW111561   4.495   5.587   6.914
 3554SOL    HW211562   4.444   5.623   0.042
 3555SOL     OW11563   0.949   2.413   3.631
 3555SOL    HW111564   0.953   2.361   3.717
 3555SOL    HW211565   0.892   2.364   3.565
 3556SOL     OW11566   4.116   1.523   6.606
 3556SOL    HW111567   4.162   1.563   6.685
 3556SOL    HW211568   4.076   1.595   6.550
 3557SOL     OW11569   0.870   0.512   4.413
 3557SOL    HW111570   0.849   0.608   4.429
 3557SOL    HW211571   0.969   0.502   4.398
 3558SOL     OW11572   0.202   6.707   1.580
 3558SOL    HW111573   0.132   6.768   1.617
 3558SOL    HW211574   0.248   6.659   1.654
 3559SOL     OW11575   1.191   0.444   5.976
 3559SOL    HW111576   1.272   0.502   5.980
 3559SOL    HW211577   1.180   0.395   6.062
 3560SOL     OW11578   6.634   6.731   1.679
 3560SOL    HW111579   6.538   6.751   1.700
 3560SOL    HW211580   6.645   6.634   1.659
 3561SOL     OW11581   5.282   4.625   3.720
 3561SOL    HW111582   5.214   4.672   3.663
 3561SOL    HW211583   5.343   4.693   3.761
 3562SOL     OW11584   4.111   2.091   2.862
 3562SOL    HW111585   4.131   2.142   2.945
 3562SOL    HW211586   4.170   2.011   2.857
 3563SOL     OW11587   4.549   6.494   1.572
 3563SOL    HW111588   4.544   6.458   1.666
 3563SOL    HW211589   4.526   6.422   1.508
 3564SOL     OW11590   6.700   4.153   2.981
 3564SOL    HW111591   6.658   4.069   2.946
 3564SOL    HW211592   6.630   4.221   3.000
 3565SOL     OW11593   1.654   1.041   5.248
 3565SOL    HW111594   1.580   0.979   5.220
 3565SOL    HW211595   1.671   1.030   5.346
 3566SOL     OW11596   1.087   4.231   5.724
 3566SOL    HW111597   1.010   4.295   5.728
 3566SOL    HW211598   1.059   4.144   5.766
 3567SOL     OW11599   0.098   2.263   1.585
 3567SOL    HW111600   0.046   2.276   1.501
 3567SOL    HW211601   0.145   2.349   1.609
 3568SOL     OW11602   4.636   4.266   3.184
 3568SOL    HW111603   4.594   4.177   3.166
 3568SOL    HW211604   4.581   4.339   3.144
 3569SOL     OW11605   4.042   3.546   3.557
 3569SOL    HW111606   4.077   3.638   3.577
 3569SOL    HW211607   4.033   3.495   3.642
 3570SOL     OW11608   0.358   2.126   5.259
 3570SOL    HW111609   0.305   2.207   5.286
 3570SOL    HW211610   0.329   2.048   5.314
 3571SOL     OW11611   2.827   6.988   4.345
 3571SOL    HW111612   2.891   7.018   4.275
 3571SOL    HW211613   2.753   0.032   4.354
 3572SOL     OW11614   5.101   3.894   2.314
 3572SOL    HW111615   5.057   3.839   2.243
 3572SOL    HW211616   5.065   3.869   2.404
 3573SOL     OW11617   6.871   4.680   4.104
 3573SOL    HW111618   6.956   4.727   4.126
 3573SOL    HW211619   6.886   4.616   4.029
 3574SOL     OW11620   2.068   1.745   5.841
 3574SOL    HW111621   2.105   1.673   5.783
 3574SOL    HW211622   2.115   1.744   5.930
 3575SOL     OW11623   5.198   0.373   6.349
 3575SOL    HW111624   5.209   0.345   6.254
 3575SOL    HW211625   5.168   0.469   6.353
 3576SOL     OW11626   1.150   2.860   0.433
 3576SOL    HW111627   1.114   2.948   0.463
 3576SOL    HW211628   1.076   2.806   0.392
 3577SOL     OW11629   1.679   3.264   4.684
 3577SOL    HW111630   1.598   3.232   4.634
 3577SOL    HW211631   1.761   3.245   4.631
 3578SOL     OW11632   3.910   2.809   0.404
 3578SOL    HW111633   3.856   2.893   0.407
 3578SOL    HW211634   3.988   2.821   0.342
 3579SOL     OW11635   1.325   3.713   1.476
 3579SOL    HW111636   1.341   3.808   1.450
 3579SOL    HW211637   1.409   3.661   1.461
 3580SOL     OW11638   0.120   3.991   1.864
 3580SOL    HW111639   0.078   3.934   1.935
 3580SOL    HW211640   0.051   4.054   1.828
 3581SOL     OW11641   1.716   0.505   2.566
 3581SOL    HW111642   1.649   0.436   2.539
 3581SOL    HW211643   1.674   0.596   2.565
 3582SOL     OW11644   4.305   6.021   0.120
 3582SOL    HW111645   4.244   5.958   0.072
 3582SOL    HW211646   4.322   6.101   0.061
 3583SOL     OW11647   1.744   5.670   1.266
 3583SOL    HW111648   1.788   5.760   1.274
 3583SOL    HW211649   1.658   5.671   1.317
 3584SOL     OW11650   5.989   4.683   5.030
 3584SOL    HW111651   6.017   4.767   4.984
 3584SOL    HW211652   6.069   4.637   5.069
 3585SOL     OW11653   3.845   2.133   3.475
 3585SOL    HW111654   3.758   2.176   3.453
 3585SOL    HW211655   3.833   2.034   3.479
 3586SOL     OW11656   6.407   2.494   5.758
 3586SOL    HW111657   6.501   2.527   5.772
 3586SOL    HW211658   6.356   2.560   5.704
 3587SOL     OW11659   2.748   0.626   6.093
 3587SOL    HW111660   2.768   0.718   6.061
 3587SOL    HW211661   2.834   0.579   6.114
 3588SOL     OW11662   5.642   4.272   4.165
 3588SOL    HW111663   5.615   4.367   4.150
 3588SOL    HW211664   5.580   4.230   4.231
 3589SOL     OW11665   0.805   0.913   6.282
 3589SOL    HW111666   0.772   0.959   6.200
 3589SOL    HW211667   0.733   0.854   6.319
 3590SOL     OW11668   5.944   5.030   5.025
 3590SOL    HW111669   6.014   4.970   4.985
 3590SOL    HW211670   5.929   5.108   4.965
 3591SOL     OW11671   4.880   1.884   0.697
 3591SOL    HW111672   4.874   1.880   0.797
 3591SOL    HW211673   4.856   1.795   0.659
 3592SOL     OW11674   1.515   6.225   1.113
 3592SOL    HW111675   1.552   6.140   1.075
 3592SOL    HW211676   1.545   6.235   1.208
 3593SOL     OW11677   4.347   3.034   5.739
 3593SOL    HW111678   4.368   3.126   5.709
 3593SOL    HW211679   4.406   3.010   5.816
 3594SOL     OW11680   4.551   4.529   5.155
 3594SOL    HW111681   4.562   4.566   5.247
 3594SOL    HW211682   4.463   4.481   5.148
 3595SOL     OW11683   4.741   6.673   4.956
 3595SOL    HW111684   4.722   6.771   4.957
 3595SOL    HW211685   4.704   6.631   5.039
 3596SOL     OW11686   3.693   1.990   2.335
 3596SOL    HW111687   3.696   1.908   2.277
 3596SOL    HW211688   3.604   2.035   2.323
 3597SOL     OW11689   3.912   4.434   5.429
 3597SOL    HW111690   3.987   4.500   5.427
 3597SOL    HW211691   3.924   4.371   5.506
 3598SOL     OW11692   6.898   5.598   5.023
 3598SOL    HW111693   6.827   5.666   5.004
 3598SOL    HW211694   6.942   5.572   4.938
 3599SOL     OW11695   2.553   1.005   4.947
 3599SOL    HW111696   2.477   0.960   4.901
 3599SOL    HW211697   2.610   0.936   4.992
 3600SOL     OW11698   2.831   4.165   0.372
 3600SOL    HW111699   2.756   4.127   0.319
 3600SOL    HW211700   2.902   4.199   0.311
 3601SOL     OW11701   3.762   0.702   5.441
 3601SOL    HW111702   3.847   0.651   5.429
 3601SOL    HW211703   3.784   0.798   5.461
 3602SOL     OW11704   1.495   2.395   1.227
 3602SOL    HW111705   1.484   2.366   1.131
 3602SOL    HW211706   1.410   2.376   1.277
 3603SOL     OW11707   1.939   0.136   6.239
 3603SOL    HW111708   1.861   0.122   6.178
 3603SOL    HW211709   1.905   0.163   6.329
 3604SOL     OW11710   6.474   0.773   3.552
 3604SOL    HW111711   6.467   0.754   3.650
 3604SOL    HW211712   6.466   0.871   3.536
 3605SOL     OW11713   1.553   0.155   5.052
 3605SOL    HW111714   1.545   0.140   4.953
 3605SOL    HW211715   1.648   0.143   5.080
 3606SOL     OW11716   2.441   6.901   2.994
 3606SOL    HW111717   2.540   6.920   2.993
 3606SOL    HW211718   2.419   6.844   3.073
 3607SOL     OW11719   6.163   1.384   3.493
 3607SOL    HW111720   6.191   1.477   3.465
 3607SOL    HW211721   6.092   1.351   3.431
 3608SOL     OW11722   3.926   2.096   5.692
 3608SOL    HW111723   3.891   2.035   5.764
 3608SOL    HW211724   3.915   2.051   5.603
 3609SOL     OW11725   3.251   7.013   5.338
 3609SOL    HW111726   3.283   0.065   5.280
 3609SOL    HW211727   3.163   0.014   5.379
 3610SOL     OW11728   1.789   0.451   5.477
 3610SOL    HW111729   1.874   0.420   5.436
 3610SOL    HW211730   1.738   0.506   5.411
 3611SOL     OW11731   5.380   3.910   3.476
 3611SOL    HW111732   5.288   3.942   3.498
 3611SOL    HW211733   5.430   3.891   3.560
 3612SOL     OW11734   4.829   1.543   0.375
 3612SOL    HW111735   4.836   1.445   0.390
 3612SOL    HW211736   4.920   1.582   0.364
 3613SOL     OW11737   3.777   0.342   2.647
 3613SOL    HW111738   3.785   0.260   2.704
 3613SOL    HW211739   3.855   0.402   2.665
 3614SOL     OW11740   4.018   5.664   0.169
 3614SOL    HW111741   4.110   5.664   0.209
 3614SOL    HW211742   3.956   5.717   0.227
 3615SOL     OW11743   5.465   2.803   5.167
 3615SOL    HW111744   5.524   2.723   5.155
 3615SOL    HW211745   5.504   2.881   5.118
 3616SOL     OW11746   1.289   1.833   0.861
 3616SOL    HW111747   1.289   1.890   0.943
 3616SOL    HW211748   1.296   1.892   0.780
 3617SOL     OW11749   4.317   5.188   4.866
 3617SOL    HW111750   4.247   5.240   4.914
 3617SOL    HW211751   4.350   5.114   4.925
 3618SOL     OW11752   0.710   5.255   4.449
 3618SOL    HW111753   0.662   5.310   4.517
 3618SOL    HW211754   0.808   5.259   4.466
 3619SOL     OW11755   6.486   1.765   2.590
 3619SOL    HW111756   6.513   1.672   2.612
 3619SOL    HW211757   6.558   1.829   2.617
 3620SOL     OW11758   4.828   6.147   5.537
 3620SOL    HW111759   4.910   6.183   5.493
 3620SOL    HW211760   4.848   6.127   5.633
 3621SOL     OW11761   3.354   2.905   3.848
 3621SOL    HW111762   3.315   2.946   3.766
 3621SOL    HW211763   3.452   2.892   3.836
 3622SOL     OW11764   2.520   5.722   6.112
 3622SOL    HW111765   2.426   5.750   6.133
 3622SOL    HW211766   2.582   5.760   6.181
 3623SOL     OW11767   1.740   6.199   5.887
 3623SOL    HW111768   1.741   6.100   5.899
 3623SOL    HW211769   1.833   6.232   5.871
 3624SOL     OW11770   2.706   1.493   2.807
 3624SOL    HW111771   2.699   1.522   2.903
 3624SOL    HW211772   2.615   1.470   2.772
 3625SOL     OW11773   5.976   2.692   1.466
 3625SOL    HW111774   5.942   2.755   1.536
 3625SOL    HW211775   5.898   2.641   1.428
 3626SOL     OW11776   0.906   2.934   6.041
 3626SOL    HW111777   0.883   3.002   6.111
 3626SOL    HW211778   0.873   2.844   6.069
 3627SOL     OW11779   3.126   1.147   2.648
 3627SOL    HW111780   3.097   1.170   2.741
 3627SOL    HW211781   3.148   1.230   2.598
 3628SOL     OW11782   6.608   1.196   1.226
 3628SOL    HW111783   6.525   1.179   1.280
 3628SOL    HW211784   6.585   1.256   1.149
 3629SOL     OW11785   1.671   1.036   4.602
 3629SOL    HW111786   1.641   0.945   4.632
 3629SOL    HW211787   1.618   1.106   4.649
 3630SOL     OW11788   6.488   2.098   2.437
 3630SOL    HW111789   6.509   2.131   2.345
 3630SOL    HW211790   6.443   2.009   2.431
 3631SOL     OW11791   2.090   5.568   2.631
 3631SOL    HW111792   2.039   5.504   2.573
 3631SOL    HW211793   2.033   5.648   2.650
 3632SOL     OW11794   5.000   3.204   2.406
 3632SOL    HW111795   5.096   3.225   2.425
 3632SOL    HW211796   4.990   3.172   2.312
 3633SOL     OW11797   4.384   4.997   6.345
 3633SOL    HW111798   4.459   5.055   6.379
 3633SOL    HW211799   4.401   4.902   6.371
 3634SOL     OW11800   3.294   5.368   6.420
 3634SOL    HW111801   3.252   5.414   6.499
 3634SOL    HW211802   3.286   5.427   6.340
 3635SOL     OW11803   1.696   0.031   2.909
 3635SOL    HW111804   1.682   0.078   2.822
 3635SOL    HW211805   1.780   0.063   2.952
 3636SOL     OW11806   6.882   5.894   4.686
 3636SOL    HW111807   6.826   5.949   4.623
 3636SOL    HW211808   6.845   5.801   4.691
 3637SOL     OW11809   5.503   2.512   6.598
 3637SOL    HW111810   5.595   2.535   6.567
 3637SOL    HW211811   5.440   2.512   6.521
 3638SOL     OW11812   0.807   2.835   3.498
 3638SOL    HW111813   0.842   2.923   3.467
 3638SOL    HW211814   0.880   2.786   3.546
 3639SOL     OW11815   3.949   3.264   4.282
 3639SOL    HW111816   4.019   3.331   4.257
 3639SOL    HW211817   3.950   3.189   4.216
 3640SOL     OW11818   5.009   1.275   2.524
 3640SOL    HW111819   4.920   1.318   2.508
 3640SOL    HW211820   5.047   1.309   2.610
 3641SOL     OW11821   0.291   3.435   1.681
 3641SOL    HW111822   0.235   3.517   1.670
 3641SOL    HW211823   0.380   3.450   1.637
 3642SOL     OW11824   4.753   4.473   6.344
 3642SOL    HW111825   4.678   4.513   6.396
 3642SOL    HW211826   4.840   4.493   6.390
 3643SOL     OW11827   4.276   5.849   4.734
 3643SOL    HW111828   4.217   5.873   4.657
 3643SOL    HW211829   4.243   5.894   4.817
 3644SOL     OW11830   3.006   1.151   2.345
 3644SOL    HW111831   2.979   1.194   2.259
 3644SOL    HW211832   3.054   1.217   2.402
 3645SOL     OW11833   2.150   4.182   3.358
 3645SOL    HW111834   2.097   4.261   3.328
 3645SOL    HW211835   2.212   4.154   3.284
 3646SOL     OW11836   2.243   5.207   5.213
 3646SOL    HW111837   2.171   5.270   5.184
 3646SOL    HW211838   2.211   5.151   5.289
 3647SOL     OW11839   3.389   0.110   0.834
 3647SOL    HW111840   3.364   0.019   0.802
 3647SOL    HW211841   3.402   0.170   0.755
 3648SOL     OW11842   5.356   4.888   3.123
 3648SOL    HW111843   5.384   4.826   3.050
 3648SOL    HW211844   5.412   4.971   3.119
 3649SOL     OW11845   5.264   2.300   0.333
 3649SOL    HW111846   5.250   2.224   0.269
 3649SOL    HW211847   5.328   2.365   0.293
 3650SOL     OW11848   5.445   6.721   6.801
 3650SOL    HW111849   5.457   6.631   6.759
 3650SOL    HW211850   5.518   6.737   6.868
 3651SOL     OW11851   1.226   1.870   6.275
 3651SOL    HW111852   1.170   1.890   6.356
 3651SOL    HW211853   1.200   1.782   6.237
 3652SOL     OW11854   5.544   2.069   2.394
 3652SOL    HW111855   5.619   2.132   2.411
 3652SOL    HW211856   5.472   2.116   2.342
 3653SOL     OW11857   2.334   1.328   0.673
 3653SOL    HW111858   2.272   1.365   0.743
 3653SOL    HW211859   2.301   1.237   0.645
 3654SOL     OW11860   4.210   6.392   1.464
 3654SOL    HW111861   4.157   6.473   1.489
 3654SOL    HW211862   4.148   6.315   1.450
 3655SOL     OW11863   1.476   0.507   4.261
 3655SOL    HW111864   1.416   0.543   4.189
 3655SOL    HW211865   1.485   0.576   4.334
 3656SOL     OW11866   0.093   0.428   0.931
 3656SOL    HW111867   0.183   0.461   0.960
 3656SOL    HW211868   0.098   0.329   0.914
 3657SOL     OW11869   6.201   4.969   6.303
 3657SOL    HW111870   6.154   4.881   6.297
 3657SOL    HW211871   6.299   4.952   6.315
 3658SOL     OW11872   1.650   4.646   5.568
 3658SOL    HW111873   1.695   4.556   5.573
 3658SOL    HW211874   1.634   4.680   5.661
 3659SOL     OW11875   0.413   2.128   0.028
 3659SOL    HW111876   0.417   2.036   7.014
 3659SOL    HW211877   0.362   2.127   0.114
 3660SOL     OW11878   4.180   4.797   4.934
 3660SOL    HW111879   4.216   4.712   4.972
 3660SOL    HW211880   4.129   4.847   5.005
 3661SOL     OW11881   1.095   1.394   5.139
 3661SOL    HW111882   1.045   1.464   5.189
 3661SOL    HW211883   1.094   1.414   5.041
 3662SOL     OW11884   3.943   2.352   5.769
 3662SOL    HW111885   3.878   2.417   5.730
 3662SOL    HW211886   3.930   2.262   5.728
 3663SOL     OW11887   1.732   2.258   5.744
 3663SOL    HW111888   1.729   2.344   5.693
 3663SOL    HW211889   1.710   2.182   5.683
 3664SOL     OW11890   2.463   1.589   0.732
 3664SOL    HW111891   2.536   1.578   0.800
 3664SOL    HW211892   2.424   1.500   0.711
 3665SOL     OW11893   6.997   6.619   4.682
 3665SOL    HW111894   0.031   6.657   4.609
 3665SOL    HW211895   6.988   6.685   4.755
 3666SOL     OW11896   2.025   3.728   5.051
 3666SOL    HW111897   2.073   3.807   5.013
 3666SOL    HW211898   2.080   3.687   5.123
 3667SOL     OW11899   2.060   6.621   1.506
 3667SOL    HW111900   2.075   6.627   1.605
 3667SOL    HW211901   2.140   6.579   1.463
 3668SOL     OW11902   5.003   1.461   0.613
 3668SOL    HW111903   5.064   1.445   0.691
 3668SOL    HW211904   4.956   1.376   0.590
 3669SOL     OW11905   6.683   0.576   1.894
 3669SOL    HW111906   6.762   0.638   1.892
 3669SOL    HW211907   6.604   0.622   1.853
 3670SOL     OW11908   1.961   0.001   2.561
 3670SOL    HW111909   2.021   6.967   2.505
 3670SOL    HW211910   1.948   0.090   2.517
 3671SOL     OW11911   0.777   0.390   5.639
 3671SOL    HW111912   0.834   0.314   5.608
 3671SOL    HW211913   0.765   0.456   5.565
 3672SOL     OW11914   3.502   0.744   3.720
 3672SOL    HW111915   3.409   0.721   3.694
 3672SOL    HW211916   3.509   0.843   3.737
 3673SOL     OW11917   3.203   1.310   1.560
 3673SOL    HW111918   3.208   1.263   1.472
 3673SOL    HW211919   3.245   1.400   1.552
 3674SOL     OW11920   7.014   4.733   6.172
 3674SOL    HW111921   6.942   4.763   6.235
 3674SOL    HW211922   0.059   4.679   6.222
 3675SOL     OW11923   6.591   0.701   5.014
 3675SOL    HW111924   6.596   0.606   5.046
 3675SOL    HW211925   6.628   0.762   5.084
 3676SOL     OW11926   2.217   1.002   5.556
 3676SOL    HW111927   2.205   1.010   5.655
 3676SOL    HW211928   2.297   1.054   5.528
 3677SOL     OW11929   1.163   0.753   5.011
 3677SOL    HW111930   1.159   0.851   5.029
 3677SOL    HW211931   1.245   0.732   4.957
 3678SOL     OW11932   2.686   0.511   3.561
 3678SOL    HW111933   2.707   0.582   3.493
 3678SOL    HW211934   2.768   0.490   3.614
 3679SOL     OW11935   3.003   0.983   1.894
 3679SOL    HW111936   3.057   0.946   1.970
 3679SOL    HW211937   3.062   1.033   1.832
 3680SOL     OW11938   4.193   1.673   3.914
 3680SOL    HW111939   4.289   1.693   3.932
 3680SOL    HW211940   4.143   1.665   4.000
 3681SOL     OW11941   1.090   5.567   3.704
 3681SOL    HW111942   1.002   5.563   3.752
 3681SOL    HW211943   1.113   5.663   3.685
 3682SOL     OW11944   5.264   1.354   1.825
 3682SOL    HW111945   5.321   1.417   1.877
 3682SOL    HW211946   5.315   1.271   1.805
 3683SOL     OW11947   6.552   1.967   1.157
 3683SOL    HW111948   6.578   2.000   1.248
 3683SOL    HW211949   6.633   1.962   1.099
 3684SOL     OW11950   2.923   5.987   5.306
 3684SOL    HW111951   2.914   5.909   5.244
 3684SOL    HW211952   2.983   6.056   5.264
 3685SOL     OW11953   2.005   0.357   3.097
 3685SOL    HW111954   1.956   0.433   3.055
 3685SOL    HW211955   2.020   0.377   3.194
 3686SOL     OW11956   0.938   4.775   0.451
 3686SOL    HW111957   1.006   4.794   0.380
 3686SOL    HW211958   0.970   4.811   0.539
 3687SOL     OW11959   0.095   4.632   4.807
 3687SOL    HW111960   0.063   4.711   4.860
 3687SOL    HW211961   0.047   4.550   4.837
 3688SOL     OW11962   6.910   3.005   1.802
 3688SOL    HW111963   6.965   3.082   1.768
 3688SOL    HW211964   6.820   3.008   1.760
 3689SOL     OW11965   1.986   1.723   4.907
 3689SOL    HW111966   1.950   1.815   4.889
 3689SOL    HW211967   1.922   1.655   4.872
 3690SOL     OW11968   0.147   5.378   2.097
 3690SOL    HW111969   0.050   5.354   2.108
 3690SOL    HW211970   0.192   5.310   2.039
 3691SOL     OW11971   2.058   2.109   0.371
 3691SOL    HW111972   2.133   2.101   0.306
 3691SOL    HW211973   2.094   2.139   0.460
 3692SOL     OW11974   0.814   3.080   5.644
 3692SOL    HW111975   0.913   3.084   5.627
 3692SOL    HW211976   0.770   3.157   5.599
 3693SOL     OW11977   0.417   1.676   2.707
 3693SOL    HW111978   0.327   1.643   2.735
 3693SOL    HW211979   0.477   1.681   2.786
 3694SOL     OW11980   0.084   6.481   2.081
 3694SOL    HW111981   0.182   6.476   2.101
 3694SOL    HW211982   0.035   6.412   2.134
 3695SOL     OW11983   6.158   3.459   3.942
 3695SOL    HW111984   6.177   3.533   4.006
 3695SOL    HW211985   6.063   3.466   3.910
 3696SOL     OW11986   4.537   0.211   4.008
 3696SOL    HW111987   4.468   0.277   3.977
 3696SOL    HW211988   4.553   0.143   3.937
 3697SOL     OW11989   6.101   4.798   3.243
 3697SOL    HW111990   6.150   4.721   3.202
 3697SOL    HW211991   6.091   4.782   3.341
 3698SOL     OW11992   1.138   0.332   4.375
 3698SOL    HW111993   1.122   0.244   4.419
 3698SOL    HW211994   1.175   0.397   4.442
 3699SOL     OW11995   2.905   1.907   3.338
 3699SOL    HW111996   2.949   1.819   3.321
 3699SOL    HW211997   2.879   1.948   3.250
 3700SOL     OW11998   0.660   4.992   4.485
 3700SOL    HW111999   0.751   4.962   4.514
 3700SOL    HW212000   0.657   5.092   4.484
 3701SOL     OW12001   6.349   0.425   1.993
 3701SOL    HW112002   6.285   0.428   1.916
 3701SOL    HW212003   6.428   0.370   1.968
 3702SOL     OW12004   6.632   4.593   3.781
 3702SOL    HW112005   6.549   4.643   3.756
 3702SOL    HW212006   6.623   4.558   3.874
 3703SOL     OW12007   0.698   2.474   3.475
 3703SOL    HW112008   0.700   2.563   3.519
 3703SOL    HW212009   0.651   2.408   3.535
 3704SOL     OW12010   6.514   6.587   0.993
 3704SOL    HW112011   6.501   6.646   1.072
 3704SOL    HW212012   6.545   6.497   1.022
 3705SOL     OW12013   6.554   3.956   3.726
 3705SOL    HW112014   6.482   3.966   3.795
 3705SOL    HW212015   6.643   3.975   3.768
 3706SOL     OW12016   0.837   6.002   6.602
 3706SOL    HW112017   0.797   5.913   6.580
 3706SOL    HW212018   0.766   6.072   6.603
 3707SOL     OW12019   0.050   4.333   3.289
 3707SOL    HW112020   0.066   4.350   3.386
 3707SOL    HW212021   0.138   4.328   3.241
 3708SOL     OW12022   1.580   5.817   0.554
 3708SOL    HW112023   1.614   5.823   0.460
 3708SOL    HW212024   1.629   5.744   0.602
 3709SOL     OW12025   0.719   1.750   1.526
 3709SOL    HW112026   0.647   1.703   1.576
 3709SOL    HW212027   0.774   1.684   1.476
 3710SOL     OW12028   2.190   3.970   5.649
 3710SOL    HW112029   2.102   3.953   5.605
 3710SOL    HW212030   2.236   4.046   5.605
 3711SOL     OW12031   1.704   4.988   5.115
 3711SOL    HW112032   1.623   4.982   5.174
 3711SOL    HW212033   1.702   4.915   5.047
 3712SOL     OW12034   2.782   4.706   3.967
 3712SOL    HW112035   2.872   4.746   3.984
 3712SOL    HW212036   2.745   4.669   4.052
 3713SOL     OW12037   6.130   0.270   5.758
 3713SOL    HW112038   6.170   0.240   5.671
 3713SOL    HW212039   6.036   0.300   5.744
 3714SOL     OW12040   0.366   5.172   0.660
 3714SOL    HW112041   0.393   5.168   0.564
 3714SOL    HW212042   0.298   5.101   0.678
 3715SOL     OW12043   6.231   4.518   2.692
 3715SOL    HW112044   6.275   4.444   2.642
 3715SOL    HW212045   6.140   4.488   2.723
 3716SOL     OW12046   5.423   5.595   5.357
 3716SOL    HW112047   5.395   5.681   5.400
 3716SOL    HW212048   5.519   5.578   5.378
 3717SOL     OW12049   4.542   0.141   1.219
 3717SOL    HW112050   4.465   0.167   1.277
 3717SOL    HW212051   4.627   0.148   1.270
 3718SOL     OW12052   5.464   6.622   6.525
 3718SOL    HW112053   5.537   6.593   6.587
 3718SOL    HW212054   5.386   6.560   6.535
 3719SOL     OW12055   2.621   4.425   0.204
 3719SOL    HW112056   2.586   4.490   0.137
 3719SOL    HW212057   2.608   4.461   0.297
 3720SOL     OW12058   0.360   2.194   0.750
 3720SOL    HW112059   0.373   2.123   0.819
 3720SOL    HW212060   0.392   2.282   0.787
 3721SOL     OW12061   6.346   7.010   5.895
 3721SOL    HW112062   6.296   6.951   5.831
 3721SOL    HW212063   6.285   0.016   5.968
 3722SOL     OW12064   5.502   6.405   1.298
 3722SOL    HW112065   5.454   6.475   1.351
 3722SOL    HW212066   5.582   6.374   1.348
 3723SOL     OW12067   4.689   4.099   6.005
 3723SOL    HW112068   4.675   4.001   5.997
 3723SOL    HW212069   4.702   4.123   6.102
 3724SOL     OW12070   6.221   4.517   5.089
 3724SOL    HW112071   6.195   4.423   5.069
 3724SOL    HW212072   6.245   4.525   5.186
 3725SOL     OW12073   0.275   6.118   0.650
 3725SOL    HW112074   0.215   6.085   0.723
 3725SOL    HW212075   0.367   6.132   0.685
 3726SOL     OW12076   6.173   3.475   5.089
 3726SOL    HW112077   6.080   3.439   5.091
 3726SOL    HW212078   6.175   3.566   5.131
 3727SOL     OW12079   6.658   1.881   4.435
 3727SOL    HW112080   6.705   1.796   4.411
 3727SOL    HW212081   6.625   1.875   4.529
 3728SOL     OW12082   1.813   4.695   0.446
 3728SOL    HW112083   1.800   4.793   0.435
 3728SOL    HW212084   1.903   4.678   0.487
 3729SOL     OW12085   6.925   0.206   6.232
 3729SOL    HW112086   6.965   0.294   6.258
 3729SOL    HW212087   6.907   0.152   6.314
 3730SOL     OW12088   5.337   4.581   4.903
 3730SOL    HW112089   5.388   4.553   4.984
 3730SOL    HW212090   5.248   4.535   4.902
 3731SOL     OW12091   6.660   1.648   1.683
 3731SOL    HW112092   6.615   1.708   1.749
 3731SOL    HW212093   6.731   1.698   1.635
 3732SOL     OW12094   3.767   2.511   0.349
 3732SOL    HW112095   3.836   2.521   0.420
 3732SOL    HW212096   3.799   2.555   0.265
 3733SOL     OW12097   1.728   1.434   3.243
 3733SOL    HW112098   1.630   1.435   3.263
 3733SOL    HW212099   1.745   1.485   3.159
 3734SOL     OW12100   3.705   0.754   1.561
 3734SOL    HW112101   3.797   0.786   1.540
 3734SOL    HW212102   3.647   0.763   1.480
 3735SOL     OW12103   4.373   1.153   2.659
 3735SOL    HW112104   4.293   1.211   2.642
 3735SOL    HW212105   4.343   1.060   2.681
 3736SOL     OW12106   0.907   1.657   0.216
 3736SOL    HW112107   0.979   1.676   0.283
 3736SOL    HW212108   0.825   1.709   0.241
 3737SOL     OW12109   5.240   1.840   3.943
 3737SOL    HW112110   5.232   1.827   3.844
 3737SOL    HW212111   5.273   1.756   3.985
 3738SOL     OW12112   0.390   0.756   0.538
 3738SOL    HW112113   0.339   0.796   0.462
 3738SOL    HW212114   0.329   0.741   0.615
 3739SOL     OW12115   3.220   4.619   6.905
 3739SOL    HW112116   3.142   4.681   6.896
 3739SOL    HW212117   3.201   4.552   6.977
 3740SOL     OW12118   6.046   6.444   6.880
 3740SOL    HW112119   6.129   6.438   6.826
 3740SOL    HW212120   6.052   6.521   6.944
 3741SOL     OW12121   6.727   4.427   6.807
 3741SOL    HW112122   6.823   4.399   6.812
 3741SOL    HW212123   6.721   4.523   6.781
 3742SOL     OW12124   4.995   5.107   1.785
 3742SOL    HW112125   4.922   5.102   1.853
 3742SOL    HW212126   5.025   5.015   1.762
 3743SOL     OW12127   2.539   3.825   1.012
 3743SOL    HW112128   2.578   3.779   1.092
 3743SOL    HW212129   2.508   3.916   1.039
 3744SOL     OW12130   6.801   5.982   2.813
 3744SOL    HW112131   6.815   6.002   2.910
 3744SOL    HW212132   6.747   6.054   2.771
 3745SOL     OW12133   5.860   1.515   2.480
 3745SOL    HW112134   5.815   1.598   2.513
 3745SOL    HW212135   5.880   1.456   2.558
 3746SOL     OW12136   4.930   6.978   5.258
 3746SOL    HW112137   4.946   6.974   5.356
 3746SOL    HW212138   5.017   6.992   5.211
 3747SOL     OW12139   2.068   5.608   5.552
 3747SOL    HW112140   2.138   5.537   5.547
 3747SOL    HW212141   2.072   5.652   5.642
 3748SOL     OW12142   5.003   2.182   3.294
 3748SOL    HW112143   5.074   2.118   3.324
 3748SOL    HW212144   5.047   2.265   3.259
 3749SOL     OW12145   5.871   6.356   1.725
 3749SOL    HW112146   5.778   6.359   1.690
 3749SOL    HW212147   5.935   6.386   1.654
 3750SOL     OW12148   5.942   4.152   1.750
 3750SOL    HW112149   5.911   4.217   1.820
 3750SOL    HW212150   5.992   4.078   1.794
 3751SOL     OW12151   1.798   5.007   0.702
 3751SOL    HW112152   1.839   4.941   0.765
 3751SOL    HW212153   1.702   4.983   0.686
 3752SOL     OW12154   1.280   6.837   6.189
 3752SOL    HW112155   1.347   6.772   6.152
 3752SOL    HW212156   1.297   6.928   6.150
 3753SOL     OW12157   0.917   1.172   6.043
 3753SOL    HW112158   0.865   1.228   5.978
 3753SOL    HW212159   0.962   1.098   5.994
 3754SOL     OW12160   6.675   6.284   1.874
 3754SOL    HW112161   6.666   6.213   1.944
 3754SOL    HW212162   6.595   6.344   1.878
 3755SOL     OW12163   4.762   2.448   2.984
 3755SOL    HW112164   4.799   2.403   2.903
 3755SOL    HW212165   4.680   2.499   2.959
 3756SOL     OW12166   3.268   0.174   0.433
 3756SOL    HW112167   3.341   0.205   0.493
 3756SOL    HW212168   3.180   0.207   0.466
 3757SOL     OW12169   3.104   4.242   5.823
 3757SOL    HW112170   3.130   4.187   5.744
 3757SOL    HW212171   3.146   4.333   5.816
 3758SOL     OW12172   6.878   0.787   1.814
 3758SOL    HW112173   6.915   0.836   1.893
 3758SOL    HW212174   6.913   0.829   1.730
 3759SOL     OW12175   4.735   4.432   0.601
 3759SOL    HW112176   4.668   4.372   0.645
 3759SOL    HW212177   4.777   4.384   0.524
 3760SOL     OW12178   1.799   1.645   6.006
 3760SOL    HW112179   1.753   1.730   6.032
 3760SOL    HW212180   1.889   1.641   6.049
 3761SOL     OW12181   6.597   6.049   4.326
 3761SOL    HW112182   6.619   6.143   4.351
 3761SOL    HW212183   6.502   6.045   4.294
 3762SOL     OW12184   0.231   3.572   0.687
 3762SOL    HW112185   0.226   3.662   0.732
 3762SOL    HW212186   0.240   3.501   0.756
 3763SOL     OW12187   6.948   2.907   4.754
 3763SOL    HW112188   6.932   2.996   4.798
 3763SOL    HW212189   6.866   2.851   4.764
 3764SOL     OW12190   1.907   0.213   3.740
 3764SOL    HW112191   1.991   0.261   3.765
 3764SOL    HW212192   1.879   0.241   3.648
 3765SOL     OW12193   6.290   1.179   3.635
 3765SOL    HW112194   6.342   1.128   3.566
 3765SOL    HW212195   6.241   1.254   3.591
 3766SOL     OW12196   2.475   1.318   4.821
 3766SOL    HW112197   2.427   1.274   4.897
 3766SOL    HW212198   2.523   1.249   4.767
 3767SOL     OW12199   0.058   4.626   0.935
 3767SOL    HW112200   0.066   4.722   0.960
 3767SOL    HW212201   0.106   4.570   1.002
 3768SOL     OW12202   4.698   6.753   1.195
 3768SOL    HW112203   4.735   6.681   1.136
 3768SOL    HW212204   4.708   6.727   1.291
 3769SOL     OW12205   3.958   6.648   4.666
 3769SOL    HW112206   4.017   6.622   4.742
 3769SOL    HW212207   4.009   6.638   4.580
 3770SOL     OW12208   1.689   2.736   0.265
 3770SOL    HW112209   1.622   2.731   0.339
 3770SOL    HW212210   1.642   2.750   0.178
 3771SOL     OW12211   4.589   1.514   5.797
 3771SOL    HW112212   4.671   1.514   5.740
 3771SOL    HW212213   4.559   1.609   5.812
 3772SOL     OW12214   5.173   0.872   2.715
 3772SOL    HW112215   5.157   0.956   2.662
 3772SOL    HW212216   5.090   0.848   2.764
 3773SOL     OW12217   6.441   2.536   0.914
 3773SOL    HW112218   6.400   2.592   0.986
 3773SOL    HW212219   6.452   2.591   0.831
 3774SOL     OW12220   1.232   1.639   1.583
 3774SOL    HW112221   1.268   1.671   1.495
 3774SOL    HW212222   1.308   1.608   1.641
 3775SOL     OW12223   5.265   2.439   3.304
 3775SOL    HW112224   5.196   2.418   3.373
 3775SOL    HW212225   5.309   2.353   3.274
 3776SOL     OW12226   3.118   2.080   6.349
 3776SOL    HW112227   3.057   2.152   6.315
 3776SOL    HW212228   3.067   2.019   6.409
 3777SOL     OW12229   1.158   4.134   3.273
 3777SOL    HW112230   1.238   4.157   3.218
 3777SOL    HW212231   1.113   4.218   3.304
 3778SOL     OW12232   2.158   0.719   1.888
 3778SOL    HW112233   2.071   0.680   1.918
 3778SOL    HW212234   2.148   0.755   1.795
 3779SOL     OW12235   1.531   5.161   6.648
 3779SOL    HW112236   1.543   5.187   6.552
 3779SOL    HW212237   1.568   5.069   6.662
 3780SOL     OW12238   1.798   6.894   4.286
 3780SOL    HW112239   1.742   6.968   4.325
 3780SOL    HW212240   1.741   6.836   4.228
 3781SOL     OW12241   2.820   5.217   4.813
 3781SOL    HW112242   2.877   5.227   4.732
 3781SOL    HW212243   2.874   5.239   4.894
 3782SOL     OW12244   2.561   1.418   2.247
 3782SOL    HW112245   2.489   1.377   2.191
 3782SOL    HW212246   2.639   1.355   2.253
 3783SOL     OW12247   5.291   4.918   4.837
 3783SOL    HW112248   5.221   4.849   4.822
 3783SOL    HW212249   5.364   4.880   4.894
 3784SOL     OW12250   4.847   2.437   4.517
 3784SOL    HW112251   4.748   2.426   4.503
 3784SOL    HW212252   4.888   2.474   4.434
 3785SOL     OW12253   0.689   0.363   2.084
 3785SOL    HW112254   0.592   0.389   2.093
 3785SOL    HW212255   0.724   0.335   2.173
 3786SOL     OW12256   2.652   6.285   1.321
 3786SOL    HW112257   2.739   6.238   1.334
 3786SOL    HW212258   2.631   6.339   1.403
 3787SOL     OW12259   4.914   0.776   3.557
 3787SOL    HW112260   4.824   0.768   3.601
 3787SOL    HW212261   4.912   0.852   3.491
 3788SOL     OW12262   6.594   3.427   2.154
 3788SOL    HW112263   6.665   3.492   2.179
 3788SOL    HW212264   6.624   3.372   2.077
 3789SOL     OW12265   1.834   5.087   2.000
 3789SOL    HW112266   1.914   5.130   1.959
 3789SOL    HW212267   1.800   5.145   2.075
 3790SOL     OW12268   1.618   3.611   2.547
 3790SOL    HW112269   1.676   3.693   2.551
 3790SOL    HW212270   1.611   3.580   2.452
 3791SOL     OW12271   6.812   0.720   2.771
 3791SOL    HW112272   6.834   0.667   2.852
 3791SOL    HW212273   6.778   0.811   2.798
 3792SOL     OW12274   1.203   5.769   6.404
 3792SOL    HW112275   1.222   5.862   6.436
 3792SOL    HW212276   1.177   5.712   6.482
 3793SOL     OW12277   0.331   5.726   2.641
 3793SOL    HW112278   0.342   5.632   2.607
 3793SOL    HW212279   0.302   5.785   2.565
 3794SOL     OW12280   4.264   0.138   3.798
 3794SOL    HW112281   4.189   0.154   3.863
 3794SOL    HW212282   4.310   0.053   3.822
 3795SOL     OW12283   5.666   0.378   0.870
 3795SOL    HW112284   5.749   0.407   0.918
 3795SOL    HW212285   5.663   0.278   0.866
 3796SOL     OW12286   6.910   2.606   1.126
 3796SOL    HW112287   6.896   2.642   1.218
 3796SOL    HW212288   7.007   2.587   1.112
 3797SOL     OW12289   0.382   5.406   2.803
 3797SOL    HW112290   0.473   5.383   2.767
 3797SOL    HW212291   0.316   5.403   2.728
 3798SOL     OW12292   1.429   4.404   6.986
 3798SOL    HW112293   1.387   4.451   0.040
 3798SOL    HW212294   1.406   4.307   6.990
 3799SOL     OW12295   1.388   0.662   5.507
 3799SOL    HW112296   1.418   0.678   5.413
 3799SOL    HW212297   1.304   0.608   5.506
 3800SOL     OW12298   4.946   2.404   4.802
 3800SOL    HW112299   4.961   2.414   4.704
 3800SOL    HW212300   4.965   2.491   4.847
 3801SOL     OW12301   6.730   0.276   5.884
 3801SOL    HW112302   6.663   0.230   5.825
 3801SOL    HW212303   6.793   0.208   5.921
 3802SOL     OW12304   1.655   2.396   5.250
 3802SOL    HW112305   1.726   2.424   5.185
 3802SOL    HW212306   1.635   2.471   5.312
 3803SOL     OW12307   4.119   1.479   1.500
 3803SOL    HW112308   4.055   1.428   1.559
 3803SOL    HW212309   4.186   1.416   1.461
 3804SOL     OW12310   5.098   3.705   4.936
 3804SOL    HW112311   5.098   3.800   4.904
 3804SOL    HW212312   5.004   3.676   4.954
 3805SOL     OW12313   1.829   3.729   1.403
 3805SOL    HW112314   1.829   3.635   1.437
 3805SOL    HW212315   1.913   3.775   1.434
 3806SOL     OW12316   3.446   0.873   6.914
 3806SOL    HW112317   3.517   0.814   6.951
 3806SOL    HW212318   3.363   0.820   6.897
 3807SOL     OW12319   1.626   6.811   2.964
 3807SOL    HW112320   1.649   6.907   2.947
 3807SOL    HW212321   1.552   6.783   2.903
 3808SOL     OW12322   3.965   1.026   0.422
 3808SOL    HW112323   3.888   1.047   0.483
 3808SOL    HW212324   3.936   0.958   0.355
 3809SOL     OW12325   4.452   0.995   0.267
 3809SOL    HW112326   4.461   0.962   0.361
 3809SOL    HW212327   4.508   1.077   0.254
 3810SOL     OW12328   1.808   3.854   6.864
 3810SOL    HW112329   1.759   3.832   6.949
 3810SOL    HW212330   1.810   3.953   6.852
 3811SOL     OW12331   6.815   0.612   6.205
 3811SOL    HW112332   6.785   0.672   6.280
 3811SOL    HW212333   6.895   0.560   6.234
 3812SOL     OW12334   4.291   0.541   5.689
 3812SOL    HW112335   4.328   0.567   5.778
 3812SOL    HW212336   4.357   0.564   5.617
 3813SOL     OW12337   3.677   4.934   2.114
 3813SOL    HW112338   3.727   4.916   2.198
 3813SOL    HW212339   3.678   4.852   2.056
 3814SOL     OW12340   2.068   0.470   1.628
 3814SOL    HW112341   2.168   0.473   1.633
 3814SOL    HW212342   2.032   0.562   1.643
 3815SOL     OW12343   5.602   2.308   2.046
 3815SOL    HW112344   5.528   2.256   2.090
 3815SOL    HW212345   5.685   2.252   2.043
 3816SOL     OW12346   0.210   6.347   0.481
 3816SOL    HW112347   0.208   6.258   0.526
 3816SOL    HW212348   0.303   6.384   0.482
 3817SOL     OW12349   5.387   1.988   5.391
 3817SOL    HW112350   5.428   1.963   5.479
 3817SOL    HW212351   5.288   1.976   5.395
 3818SOL     OW12352   3.447   5.591   3.031
 3818SOL    HW112353   3.421   5.576   2.936
 3818SOL    HW212354   3.377   5.646   3.077
 3819SOL     OW12355   5.422   3.621   6.548
 3819SOL    HW112356   5.455   3.654   6.459
 3819SOL    HW212357   5.323   3.632   6.553
 3820SOL     OW12358   4.237   6.203   3.219
 3820SOL    HW112359   4.146   6.162   3.211
 3820SOL    HW212360   4.303   6.132   3.243
 3821SOL     OW12361   0.045   4.489   1.333
 3821SOL    HW112362   0.084   4.462   1.245
 3821SOL    HW212363   7.003   4.563   1.318
 3822SOL     OW12364   0.747   3.875   1.116
 3822SOL    HW112365   0.792   3.802   1.167
 3822SOL    HW212366   0.710   3.942   1.180
 3823SOL     OW12367   2.609   3.714   5.505
 3823SOL    HW112368   2.676   3.679   5.440
 3823SOL    HW212369   2.528   3.746   5.456
 3824SOL     OW12370   0.465   2.255   6.119
 3824SOL    HW112371   0.374   2.215   6.107
 3824SOL    HW212372   0.497   2.238   6.212
 3825SOL     OW12373   0.489   6.470   5.887
 3825SOL    HW112374   0.567   6.509   5.837
 3825SOL    HW212375   0.420   6.541   5.903
 3826SOL     OW12376   6.479   2.107   1.748
 3826SOL    HW112377   6.444   2.125   1.841
 3826SOL    HW212378   6.472   2.009   1.729
 3827SOL     OW12379   5.227   1.848   2.260
 3827SOL    HW112380   5.152   1.845   2.194
 3827SOL    HW212381   5.311   1.815   2.217
 3828SOL     OW12382   3.602   1.236   1.674
 3828SOL    HW112383   3.646   1.261   1.760
 3828SOL    HW212384   3.612   1.312   1.609
 3829SOL     OW12385   0.806   4.943   3.333
 3829SOL    HW112386   0.726   4.910   3.382
 3829SOL    HW212387   0.812   5.043   3.342
 3830SOL     OW12388   2.347   0.447   5.322
 3830SOL    HW112389   2.363   0.533   5.274
 3830SOL    HW212390   2.321   0.465   5.417
 3831SOL     OW12391   4.713   1.617   2.299
 3831SOL    HW112392   4.633   1.562   2.275
 3831SOL    HW212393   4.767   1.634   2.217
 3832SOL     OW12394   6.087   7.006   2.281
 3832SOL    HW112395   6.107   0.019   2.372
 3832SOL    HW212396   6.151   0.022   2.215
 3833SOL     OW12397   1.687   6.623   2.466
 3833SOL    HW112398   1.591   6.637   2.441
 3833SOL    HW212399   1.720   6.702   2.518
 3834SOL     OW12400   3.122   3.055   0.592
 3834SOL    HW112401   3.064   3.110   0.652
 3834SOL    HW212402   3.107   2.958   0.610
 3835SOL     OW12403   2.968   4.847   3.172
 3835SOL    HW112404   3.055   4.839   3.220
 3835SOL    HW212405   2.893   4.855   3.238
 3836SOL     OW12406   1.122   3.103   5.848
 3836SOL    HW112407   1.069   3.049   5.913
 3836SOL    HW212408   1.190   3.045   5.803
 3837SOL     OW12409   2.971   4.335   6.456
 3837SOL    HW112410   2.965   4.385   6.370
 3837SOL    HW212411   3.061   4.349   6.497
 3838SOL     OW12412   6.602   3.620   4.483
 3838SOL    HW112413   6.637   3.700   4.433
 3838SOL    HW212414   6.509   3.639   4.515
 3839SOL     OW12415   0.658   6.272   6.903
 3839SOL    HW112416   0.637   6.291   6.999
 3839SOL    HW212417   0.574   6.248   6.855
 3840SOL     OW12418   2.795   2.254   3.163
 3840SOL    HW112419   2.886   2.214   3.174
 3840SOL    HW212420   2.786   2.292   3.071
 3841SOL     OW12421   1.043   3.028   3.633
 3841SOL    HW112422   0.972   3.052   3.567
 3841SOL    HW212423   1.032   3.083   3.716
 3842SOL     OW12424   1.105   4.868   6.697
 3842SOL    HW112425   1.203   4.880   6.683
 3842SOL    HW212426   1.088   4.777   6.737
 3843SOL     OW12427   7.012   4.527   6.995
 3843SOL    HW112428   0.025   4.493   6.908
 3843SOL    HW212429   7.005   4.451   0.037
 3844SOL     OW12430   2.826   4.422   5.776
 3844SOL    HW112431   2.903   4.485   5.789
 3844SOL    HW212432   2.817   4.364   5.857
 3845SOL     OW12433   3.283   3.039   4.595
 3845SOL    HW112434   3.305   2.981   4.516
 3845SOL    HW212435   3.261   3.131   4.563
 3846SOL     OW12436   7.014   4.611   5.199
 3846SOL    HW112437   6.951   4.617   5.122
 3846SOL    HW212438   0.063   4.679   5.187
 3847SOL     OW12439   1.149   6.884   0.819
 3847SOL    HW112440   1.117   6.811   0.880
 3847SOL    HW212441   1.205   6.948   0.872
 3848SOL     OW12442   3.118   6.195   1.896
 3848SOL    HW112443   3.144   6.251   1.817
 3848SOL    HW212444   3.032   6.149   1.877
 3849SOL     OW12445   2.712   1.403   5.466
 3849SOL    HW112446   2.623   1.408   5.420
 3849SOL    HW212447   2.737   1.307   5.478
 3850SOL     OW12448   1.370   3.445   1.277
 3850SOL    HW112449   1.381   3.383   1.199
 3850SOL    HW212450   1.338   3.534   1.244
 3851SOL     OW12451   2.753   2.737   0.870
 3851SOL    HW112452   2.763   2.657   0.929
 3851SOL    HW212453   2.684   2.799   0.908
 3852SOL     OW12454   4.735   0.995   5.225
 3852SOL    HW112455   4.665   1.041   5.171
 3852SOL    HW212456   4.754   0.905   5.185
 3853SOL     OW12457   0.319   3.776   2.173
 3853SOL    HW112458   0.250   3.706   2.155
 3853SOL    HW212459   0.274   3.860   2.203
 3854SOL     OW12460   1.423   3.552   4.078
 3854SOL    HW112461   1.500   3.611   4.099
 3854SOL    HW212462   1.437   3.508   3.989
 3855SOL     OW12463   6.978   1.617   5.047
 3855SOL    HW112464   7.001   1.712   5.025
 3855SOL    HW212465   0.028   1.557   5.013
 3856SOL     OW12466   0.991   6.069   6.307
 3856SOL    HW112467   0.939   5.998   6.260
 3856SOL    HW212468   0.940   6.102   6.386
 3857SOL     OW12469   0.215   0.330   6.653
 3857SOL    HW112470   0.228   0.243   6.606
 3857SOL    HW212471   0.133   0.326   6.710
 3858SOL     OW12472   3.821   4.742   6.799
 3858SOL    HW112473   3.739   4.777   6.753
 3858SOL    HW212474   3.901   4.761   6.743
 3859SOL     OW12475   6.524   2.733   2.304
 3859SOL    HW112476   6.600   2.762   2.245
 3859SOL    HW212477   6.548   2.750   2.400
 3860SOL     OW12478   2.367   5.869   4.972
 3860SOL    HW112479   2.315   5.953   4.985
 3860SOL    HW212480   2.325   5.813   4.901
 3861SOL     OW12481   2.902   4.377   6.889
 3861SOL    HW112482   2.910   4.477   6.890
 3861SOL    HW212483   2.858   4.348   6.804
 3862SOL     OW12484   1.017   5.861   5.773
 3862SOL    HW112485   1.084   5.935   5.770
 3862SOL    HW212486   0.937   5.886   5.719
 3863SOL     OW12487   2.460   2.745   0.173
 3863SOL    HW112488   2.441   2.808   0.098
 3863SOL    HW212489   2.503   2.795   0.248
 3864SOL     OW12490   3.582   2.177   1.223
 3864SOL    HW112491   3.618   2.123   1.299
 3864SOL    HW212492   3.648   2.177   1.148
 3865SOL     OW12493   3.734   1.017   2.289
 3865SOL    HW112494   3.652   1.067   2.318
 3865SOL    HW212495   3.727   0.996   2.192
 3866SOL     OW12496   4.206   6.382   0.187
 3866SOL    HW112497   4.131   6.347   0.132
 3866SOL    HW212498   4.184   6.475   0.218
 3867SOL     OW12499   1.801   4.933   2.991
 3867SOL    HW112500   1.805   5.008   2.925
 3867SOL    HW212501   1.873   4.944   3.059
 3868SOL     OW12502   1.667   5.258   3.195
 3868SOL    HW112503   1.737   5.261   3.124
 3868SOL    HW212504   1.618   5.170   3.190
 3869SOL     OW12505   0.952   1.586   3.847
 3869SOL    HW112506   0.981   1.558   3.938
 3869SOL    HW212507   0.991   1.524   3.779
 3870SOL     OW12508   3.879   3.827   0.164
 3870SOL    HW112509   3.955   3.853   0.224
 3870SOL    HW212510   3.798   3.806   0.220
 3871SOL     OW12511   3.294   0.683   4.190
 3871SOL    HW112512   3.204   0.648   4.215
 3871SOL    HW212513   3.359   0.607   4.182
 3872SOL     OW12514   4.574   4.252   0.714
 3872SOL    HW112515   4.617   4.168   0.748
 3872SOL    HW212516   4.481   4.259   0.751
 3873SOL     OW12517   6.632   4.748   1.966
 3873SOL    HW112518   6.718   4.771   1.919
 3873SOL    HW212519   6.626   4.649   1.977
 3874SOL     OW12520   5.389   6.309   5.715
 3874SOL    HW112521   5.402   6.222   5.762
 3874SOL    HW212522   5.477   6.340   5.678
 3875SOL     OW12523   3.092   3.249   0.361
 3875SOL    HW112524   3.114   3.177   0.428
 3875SOL    HW212525   3.117   3.338   0.399
 3876SOL     OW12526   5.564   3.823   2.552
 3876SOL    HW112527   5.516   3.903   2.588
 3876SOL    HW212528   5.556   3.821   2.452
 3877SOL     OW12529   4.428   2.016   1.835
 3877SOL    HW112530   4.418   2.027   1.934
 3877SOL    HW212531   4.478   2.093   1.797
 3878SOL     OW12532   5.026   5.817   4.519
 3878SOL    HW112533   5.027   5.793   4.616
 3878SOL    HW212534   5.006   5.914   4.509
 3879SOL     OW12535   2.311   5.835   0.717
 3879SOL    HW112536   2.316   5.935   0.715
 3879SOL    HW212537   2.331   5.799   0.625
 3880SOL     OW12538   6.189   0.973   4.606
 3880SOL    HW112539   6.179   0.906   4.532
 3880SOL    HW212540   6.098   0.994   4.644
 3881SOL     OW12541   0.098   5.859   5.651
 3881SOL    HW112542   0.184   5.814   5.627
 3881SOL    HW212543   0.021   5.802   5.620
 3882SOL     OW12544   0.128   6.102   0.083
 3882SOL    HW112545   0.072   6.080   0.003
 3882SOL    HW212546   0.221   6.121   0.054
 3883SOL     OW12547   4.072   2.177   0.351
 3883SOL    HW112548   4.050   2.233   0.271
 3883SOL    HW212549   4.087   2.237   0.430
 3884SOL     OW12550   3.050   5.770   5.952
 3884SOL    HW112551   3.111   5.800   5.879
 3884SOL    HW212552   3.060   5.671   5.966
 3885SOL     OW12553   7.008   0.910   3.879
 3885SOL    HW112554   0.006   0.997   3.923
 3885SOL    HW212555   0.038   0.837   3.922
 3886SOL     OW12556   6.719   6.093   4.619
 3886SOL    HW112557   6.633   6.118   4.575
 3886SOL    HW212558   6.734   6.151   4.699
 3887SOL     OW12559   6.848   2.992   5.157
 3887SOL    HW112560   6.757   2.959   5.182
 3887SOL    HW212561   6.917   2.938   5.205
 3888SOL     OW12562   5.420   1.323   3.111
 3888SOL    HW112563   5.403   1.227   3.087
 3888SOL    HW212564   5.500   1.356   3.060
 3889SOL     OW12565   6.589   5.915   0.091
 3889SOL    HW112566   6.632   5.857   0.160
 3889SOL    HW212567   6.575   5.863   0.006
 3890SOL     OW12568   6.087   3.418   3.149
 3890SOL    HW112569   6.037   3.331   3.149
 3890SOL    HW212570   6.152   3.419   3.073
 3891SOL     OW12571   4.069   4.335   5.701
 3891SOL    HW112572   3.993   4.399   5.703
 3891SOL    HW212573   4.077   4.289   5.790
 3892SOL     OW12574   5.328   5.626   3.991
 3892SOL    HW112575   5.352   5.533   3.964
 3892SOL    HW212576   5.362   5.644   4.083
 3893SOL     OW12577   2.291   5.983   4.474
 3893SOL    HW112578   2.210   6.014   4.424
 3893SOL    HW212579   2.271   5.985   4.572
 3894SOL     OW12580   5.622   5.634   6.141
 3894SOL    HW112581   5.703   5.574   6.145
 3894SOL    HW212582   5.647   5.720   6.097
 3895SOL     OW12583   1.487   1.680   5.686
 3895SOL    HW112584   1.524   1.590   5.709
 3895SOL    HW212585   1.536   1.718   5.608
 3896SOL     OW12586   6.546   2.886   0.450
 3896SOL    HW112587   6.627   2.852   0.402
 3896SOL    HW212588   6.488   2.809   0.477
 3897SOL     OW12589   2.818   0.089   3.518
 3897SOL    HW112590   2.840   0.146   3.439
 3897SOL    HW212591   2.898   0.082   3.578
 3898SOL     OW12592   3.073   3.809   3.357
 3898SOL    HW112593   3.047   3.860   3.439
 3898SOL    HW212594   3.131   3.866   3.299
 3899SOL     OW12595   4.912   1.912   6.309
 3899SOL    HW112596   4.976   1.846   6.349
 3899SOL    HW212597   4.846   1.940   6.378
 3900SOL     OW12598   1.162   2.749   3.878
 3900SOL    HW112599   1.162   2.829   3.938
 3900SOL    HW212600   1.246   2.697   3.892
 3901SOL     OW12601   3.798   6.145   4.679
 3901SOL    HW112602   3.793   6.242   4.704
 3901SOL    HW212603   3.848   6.136   4.593
 3902SOL     OW12604   2.981   5.094   3.017
 3902SOL    HW112605   2.990   5.021   3.084
 3902SOL    HW212606   2.956   5.179   3.064
 3903SOL     OW12607   2.980   3.587   6.674
 3903SOL    HW112608   2.941   3.677   6.692
 3903SOL    HW212609   2.993   3.575   6.575
 3904SOL     OW12610   2.867   5.936   0.971
 3904SOL    HW112611   2.918   5.945   1.057
 3904SOL    HW212612   2.856   6.026   0.929
 3905SOL     OW12613   4.124   6.833   5.486
 3905SOL    HW112614   4.200   6.875   5.436
 3905SOL    HW212615   4.159   6.762   5.547
 3906SOL     OW12616   6.463   5.652   4.252
 3906SOL    HW112617   6.554   5.624   4.223
 3906SOL    HW212618   6.469   5.695   4.343
 3907SOL     OW12619   0.966   1.682   4.823
 3907SOL    HW112620   0.936   1.649   4.913
 3907SOL    HW212621   0.988   1.603   4.765
 3908SOL     OW12622   2.293   1.817   4.714
 3908SOL    HW112623   2.309   1.758   4.793
 3908SOL    HW212624   2.381   1.851   4.680
 3909SOL     OW12625   6.373   3.460   2.309
 3909SOL    HW112626   6.448   3.448   2.244
 3909SOL    HW212627   6.370   3.556   2.339
 3910SOL     OW12628   2.291   2.344   0.326
 3910SOL    HW112629   2.357   2.350   0.401
 3910SOL    HW212630   2.308   2.261   0.273
 3911SOL     OW12631   6.121   1.127   1.735
 3911SOL    HW112632   6.030   1.099   1.764
 3911SOL    HW212633   6.158   1.059   1.672
 3912SOL     OW12634   4.950   4.520   0.325
 3912SOL    HW112635   4.948   4.603   0.269
 3912SOL    HW212636   4.984   4.542   0.416
 3913SOL     OW12637   4.080   4.512   1.329
 3913SOL    HW112638   4.136   4.431   1.310
 3913SOL    HW212639   3.985   4.484   1.344
 3914SOL     OW12640   0.409   1.211   0.320
 3914SOL    HW112641   0.389   1.223   0.417
 3914SOL    HW212642   0.429   1.115   0.301
 3915SOL     OW12643   5.197   0.329   4.773
 3915SOL    HW112644   5.146   0.304   4.690
 3915SOL    HW212645   5.281   0.274   4.777
 3916SOL     OW12646   1.952   2.624   1.899
 3916SOL    HW112647   1.990   2.579   1.980
 3916SOL    HW212648   1.929   2.719   1.922
 3917SOL     OW12649   4.053   5.652   2.417
 3917SOL    HW112650   3.997   5.730   2.387
 3917SOL    HW212651   4.124   5.634   2.349
 3918SOL     OW12652   4.056   0.070   0.695
 3918SOL    HW112653   4.155   0.059   0.681
 3918SOL    HW212654   4.039   0.147   0.756
 3919SOL     OW12655   4.913   4.776   3.309
 3919SOL    HW112656   4.827   4.727   3.323
 3919SOL    HW212657   4.989   4.722   3.347
 3920SOL     OW12658   4.484   1.152   6.110
 3920SOL    HW112659   4.403   1.097   6.088
 3920SOL    HW212660   4.567   1.100   6.086
 3921SOL     OW12661   0.755   3.232   5.985
 3921SOL    HW112662   0.823   3.191   5.925
 3921SOL    HW212663   0.663   3.208   5.954
 3922SOL     OW12664   5.468   2.181   3.836
 3922SOL    HW112665   5.411   2.112   3.880
 3922SOL    HW212666   5.532   2.219   3.903
 3923SOL     OW12667   5.736   1.121   1.170
 3923SOL    HW112668   5.692   1.077   1.092
 3923SOL    HW212669   5.835   1.108   1.165
 3924SOL     OW12670   5.509   5.276   3.725
 3924SOL    HW112671   5.514   5.327   3.639
 3924SOL    HW212672   5.437   5.207   3.720
 3925SOL     OW12673   3.628   4.238   1.743
 3925SOL    HW112674   3.567   4.313   1.716
 3925SOL    HW212675   3.708   4.236   1.683
 3926SOL     OW12676   1.255   5.733   5.393
 3926SOL    HW112677   1.294   5.812   5.441
 3926SOL    HW212678   1.325   5.663   5.381
 3927SOL     OW12679   6.260   6.355   5.096
 3927SOL    HW112680   6.241   6.334   5.192
 3927SOL    HW212681   6.173   6.361   5.046
 3928SOL     OW12682   4.476   5.441   2.581
 3928SOL    HW112683   4.444   5.445   2.675
 3928SOL    HW212684   4.401   5.414   2.521
 3929SOL     OW12685   2.268   0.880   4.961
 3929SOL    HW112686   2.168   0.879   4.957
 3929SOL    HW212687   2.298   0.881   5.057
 3930SOL     OW12688   2.006   5.650   4.242
 3930SOL    HW112689   2.037   5.593   4.166
 3930SOL    HW212690   2.081   5.662   4.307
 3931SOL     OW12691   0.327   2.471   0.439
 3931SOL    HW112692   0.385   2.409   0.386
 3931SOL    HW212693   0.236   2.431   0.450
 3932SOL     OW12694   1.985   4.422   2.305
 3932SOL    HW112695   1.986   4.322   2.308
 3932SOL    HW212696   1.933   4.453   2.226
 3933SOL     OW12697   1.214   6.763   1.108
 3933SOL    HW112698   1.225   6.738   1.204
 3933SOL    HW212699   1.143   6.706   1.067
 3934SOL     OW12700   1.881   6.898   1.919
 3934SOL    HW112701   1.832   6.848   1.990
 3934SOL    HW212702   1.816   6.931   1.850
 3935SOL     OW12703   0.335   1.147   4.988
 3935SOL    HW112704   0.395   1.098   5.050
 3935SOL    HW212705   0.257   1.090   4.964
 3936SOL     OW12706   6.398   4.800   4.052
 3936SOL    HW112707   6.386   4.850   4.137
 3936SOL    HW212708   6.458   4.721   4.066
 3937SOL     OW12709   1.342   6.293   0.345
 3937SOL    HW112710   1.398   6.245   0.277
 3937SOL    HW212711   1.370   6.265   0.437
 3938SOL     OW12712   0.566   4.908   6.735
 3938SOL    HW112713   0.566   5.003   6.703
 3938SOL    HW212714   0.656   4.867   6.717
 3939SOL     OW12715   2.233   6.323   4.295
 3939SOL    HW112716   2.233   6.289   4.201
 3939SOL    HW212717   2.184   6.258   4.353
 3940SOL     OW12718   2.732   5.913   6.788
 3940SOL    HW112719   2.785   5.960   6.858
 3940SOL    HW212720   2.793   5.859   6.730
 3941SOL     OW12721   5.526   5.701   2.481
 3941SOL    HW112722   5.536   5.772   2.411
 3941SOL    HW212723   5.475   5.623   2.444
 3942SOL     OW12724   0.576   6.357   0.128
 3942SOL    HW112725   0.509   6.431   0.127
 3942SOL    HW212726   0.632   6.364   0.211
 3943SOL     OW12727   0.400   5.092   0.368
 3943SOL    HW112728   0.495   5.086   0.336
 3943SOL    HW212729   0.348   5.151   0.306
 3944SOL     OW12730   5.107   3.058   0.627
 3944SOL    HW112731   5.061   3.076   0.540
 3944SOL    HW212732   5.118   2.960   0.639
 3945SOL     OW12733   6.995   0.843   2.424
 3945SOL    HW112734   6.993   0.927   2.478
 3945SOL    HW212735   6.937   0.854   2.343
 3946SOL     OW12736   5.232   1.538   1.271
 3946SOL    HW112737   5.152   1.521   1.213
 3946SOL    HW212738   5.294   1.600   1.222
 3947SOL     OW12739   5.241   0.540   1.287
 3947SOL    HW112740   5.207   0.464   1.232
 3947SOL    HW212741   5.203   0.625   1.253
 3948SOL     OW12742   1.600   1.733   4.515
 3948SOL    HW112743   1.641   1.646   4.486
 3948SOL    HW212744   1.672   1.802   4.525
 3949SOL     OW12745   6.155   0.046   2.919
 3949SOL    HW112746   6.168   0.010   3.011
 3949SOL    HW212747   6.187   0.140   2.915
 3950SOL     OW12748   2.625   4.838   1.649
 3950SOL    HW112749   2.536   4.794   1.658
 3950SOL    HW212750   2.696   4.768   1.647
 3951SOL     OW12751   6.496   2.787   3.563
 3951SOL    HW112752   6.566   2.858   3.571
 3951SOL    HW212753   6.468   2.778   3.468
 3952SOL     OW12754   5.970   5.319   6.890
 3952SOL    HW112755   5.996   5.227   6.862
 3952SOL    HW212756   5.983   5.329   6.989
 3953SOL     OW12757   3.497   2.850   5.119
 3953SOL    HW112758   3.481   2.789   5.197
 3953SOL    HW212759   3.410   2.887   5.087
 3954SOL     OW12760   0.896   4.611   5.691
 3954SOL    HW112761   0.929   4.560   5.612
 3954SOL    HW212762   0.851   4.549   5.755
 3955SOL     OW12763   5.629   3.534   6.982
 3955SOL    HW112764   5.555   3.503   6.923
 3955SOL    HW212765   5.600   3.529   0.054
 3956SOL     OW12766   6.586   2.657   5.092
 3956SOL    HW112767   6.584   2.740   5.149
 3956SOL    HW212768   6.673   2.652   5.045
 3957SOL     OW12769   1.858   2.796   1.678
 3957SOL    HW112770   1.948   2.768   1.645
 3957SOL    HW212771   1.868   2.838   1.768
 3958SOL     OW12772   5.623   5.824   1.347
 3958SOL    HW112773   5.569   5.871   1.416
 3958SOL    HW212774   5.581   5.736   1.326
 3959SOL     OW12775   3.337   4.747   0.756
 3959SOL    HW112776   3.240   4.747   0.730
 3959SOL    HW212777   3.385   4.820   0.708
 3960SOL     OW12778   5.839   3.214   0.878
 3960SOL    HW112779   5.761   3.276   0.866
 3960SOL    HW212780   5.922   3.268   0.893
 3961SOL     OW12781   6.784   1.334   0.793
 3961SOL    HW112782   6.704   1.280   0.771
 3961SOL    HW212783   6.855   1.275   0.831
 3962SOL     OW12784   0.225   6.486   6.493
 3962SOL    HW112785   0.134   6.523   6.470
 3962SOL    HW212786   0.290   6.511   6.421
 3963SOL     OW12787   5.273   3.176   4.781
 3963SOL    HW112788   5.230   3.122   4.853
 3963SOL    HW212789   5.239   3.147   4.691
 3964SOL     OW12790   6.096   4.565   6.718
 3964SOL    HW112791   6.055   4.656   6.715
 3964SOL    HW212792   6.132   4.542   6.627
 3965SOL     OW12793   2.658   4.525   1.414
 3965SOL    HW112794   2.647   4.507   1.512
 3965SOL    HW212795   2.689   4.441   1.369
 3966SOL     OW12796   0.125   3.338   5.806
 3966SOL    HW112797   0.064   3.405   5.764
 3966SOL    HW212798   0.218   3.352   5.772
 3967SOL     OW12799   2.034   0.450   0.543
 3967SOL    HW112800   2.043   0.516   0.617
 3967SOL    HW212801   1.952   0.469   0.490
 3968SOL     OW12802   4.816   3.072   0.715
 3968SOL    HW112803   4.789   3.028   0.801
 3968SOL    HW212804   4.911   3.103   0.722
 3969SOL     OW12805   6.301   6.149   1.281
 3969SOL    HW112806   6.269   6.150   1.187
 3969SOL    HW212807   6.375   6.215   1.292
 3970SOL     OW12808   5.671   4.034   4.039
 3970SOL    HW112809   5.681   4.122   4.085
 3970SOL    HW212810   5.700   4.041   3.944
 3971SOL     OW12811   0.248   6.030   4.086
 3971SOL    HW112812   0.161   6.003   4.044
 3971SOL    HW212813   0.315   5.956   4.075
 3972SOL     OW12814   0.826   0.959   6.635
 3972SOL    HW112815   0.806   0.861   6.627
 3972SOL    HW212816   0.900   0.984   6.573
 3973SOL     OW12817   3.920   3.088   1.977
 3973SOL    HW112818   3.914   3.184   2.005
 3973SOL    HW212819   3.952   3.083   1.882
 3974SOL     OW12820   5.054   1.184   6.880
 3974SOL    HW112821   5.054   1.093   6.921
 3974SOL    HW212822   5.147   1.211   6.857
 3975SOL     OW12823   6.744   6.134   3.707
 3975SOL    HW112824   6.773   6.074   3.632
 3975SOL    HW212825   6.825   6.168   3.755
 3976SOL     OW12826   0.481   3.131   5.593
 3976SOL    HW112827   0.532   3.149   5.509
 3976SOL    HW212828   0.425   3.049   5.580
 3977SOL     OW12829   2.147   4.777   5.593
 3977SOL    HW112830   2.215   4.722   5.641
 3977SOL    HW212831   2.063   4.781   5.647
 3978SOL     OW12832   4.474   2.961   5.967
 3978SOL    HW112833   4.507   3.039   6.021
 3978SOL    HW212834   4.397   2.919   6.014
 3979SOL     OW12835   0.337   5.580   2.987
 3979SOL    HW112836   0.350   5.504   2.924
 3979SOL    HW212837   0.291   5.655   2.941
 3980SOL     OW12838   5.010   4.528   3.834
 3980SOL    HW112839   5.088   4.479   3.872
 3980SOL    HW212840   5.038   4.621   3.807
 3981SOL     OW12841   6.949   0.900   6.560
 3981SOL    HW112842   6.866   0.859   6.522
 3981SOL    HW212843   0.006   0.864   6.514
 3982SOL     OW12844   2.249   3.010   4.397
 3982SOL    HW112845   2.197   3.061   4.329
 3982SOL    HW212846   2.223   3.041   4.489
 3983SOL     OW12847   2.428   0.782   3.367
 3983SOL    HW112848   2.370   0.701   3.358
 3983SOL    HW212849   2.398   0.852   3.302
 3984SOL     OW12850   1.188   5.799   2.358
 3984SOL    HW112851   1.248   5.847   2.294
 3984SOL    HW212852   1.146   5.865   2.420
 3985SOL     OW12853   1.722   2.595   1.321
 3985SOL    HW112854   1.763   2.583   1.411
 3985SOL    HW212855   1.662   2.517   1.302
 3986SOL     OW12856   0.707   1.595   3.205
 3986SOL    HW112857   0.610   1.593   3.183
 3986SOL    HW212858   0.722   1.551   3.294
 3987SOL     OW12859   1.437   4.339   5.392
 3987SOL    HW112860   1.428   4.405   5.466
 3987SOL    HW212861   1.526   4.349   5.348
 3988SOL     OW12862   5.187   6.366   2.264
 3988SOL    HW112863   5.212   6.358   2.168
 3988SOL    HW212864   5.109   6.306   2.283
 3989SOL     OW12865   4.388   0.655   5.931
 3989SOL    HW112866   4.474   0.676   5.977
 3989SOL    HW212867   4.311   0.683   5.989
 3990SOL     OW12868   6.400   0.203   4.019
 3990SOL    HW112869   6.495   0.175   4.006
 3990SOL    HW212870   6.342   0.158   3.951
 3991SOL     OW12871   6.218   2.269   4.009
 3991SOL    HW112872   6.280   2.229   4.077
 3991SOL    HW212873   6.170   2.196   3.961
 3992SOL     OW12874   5.939   3.317   5.913
 3992SOL    HW112875   5.871   3.363   5.856
 3992SOL    HW212876   5.894   3.247   5.968
 3993SOL     OW12877   1.420   1.071   4.245
 3993SOL    HW112878   1.435   1.143   4.177
 3993SOL    HW212879   1.379   1.110   4.328
 3994SOL     OW12880   2.945   2.222   3.752
 3994SOL    HW112881   2.939   2.266   3.842
 3994SOL    HW212882   2.862   2.243   3.700
 3995SOL     OW12883   1.500   3.158   1.846
 3995SOL    HW112884   1.494   3.200   1.755
 3995SOL    HW212885   1.521   3.229   1.914
 3996SOL     OW12886   0.293   6.293   5.090
 3996SOL    HW112887   0.257   6.203   5.068
 3996SOL    HW212888   0.321   6.339   5.006
 3997SOL     OW12889   5.914   3.374   5.094
 3997SOL    HW112890   5.944   3.361   5.000
 3997SOL    HW212891   5.897   3.285   5.136
 3998SOL     OW12892   4.093   2.227   3.315
 3998SOL    HW112893   4.058   2.168   3.243
 3998SOL    HW212894   4.025   2.235   3.388
 3999SOL     OW12895   4.922   3.610   0.958
 3999SOL    HW112896   4.990   3.679   0.937
 3999SOL    HW212897   4.834   3.654   0.977
 4000SOL     OW12898   2.385   4.918   2.716
 4000SOL    HW112899   2.309   4.896   2.655
 4000SOL    HW212900   2.466   4.939   2.662
 4001SOL     OW12901   0.758   5.941   4.612
 4001SOL    HW112902   0.718   5.933   4.520
 4001SOL    HW212903   0.691   5.984   4.673
 4002SOL     OW12904   3.947   3.928   5.029
 4002SOL    HW112905   3.868   3.988   5.015
 4002SOL    HW212906   3.973   3.886   4.942
 4003SOL     OW12907   2.753   1.377   4.418
 4003SOL    HW112908   2.685   1.356   4.488
 4003SOL    HW212909   2.710   1.376   4.328
 4004SOL     OW12910   1.805   3.853   4.912
 4004SOL    HW112911   1.883   3.838   4.974
 4004SOL    HW212912   1.733   3.786   4.932
 4005SOL     OW12913   5.556   2.876   1.225
 4005SOL    HW112914   5.613   2.900   1.146
 4005SOL    HW212915   5.514   2.786   1.209
 4006SOL     OW12916   0.260   5.821   2.073
 4006SOL    HW112917   0.288   5.730   2.042
 4006SOL    HW212918   0.194   5.812   2.147
 4007SOL     OW12919   0.560   1.558   1.288
 4007SOL    HW112920   0.503   1.558   1.370
 4007SOL    HW212921   0.514   1.608   1.215
 4008SOL     OW12922   4.046   1.036   1.466
 4008SOL    HW112923   4.016   0.941   1.463
 4008SOL    HW212924   3.983   1.089   1.524
 4009SOL     OW12925   3.580   2.531   1.440
 4009SOL    HW112926   3.630   2.614   1.412
 4009SOL    HW212927   3.590   2.518   1.539
 4010SOL     OW12928   1.451   4.879   1.085
 4010SOL    HW112929   1.497   4.934   1.155
 4010SOL    HW212930   1.425   4.938   1.008
 4011SOL     OW12931   5.664   6.843   6.501
 4011SOL    HW112932   5.617   6.759   6.475
 4011SOL    HW212933   5.661   6.908   6.425
 4012SOL     OW12934   5.239   5.255   1.363
 4012SOL    HW112935   5.222   5.277   1.267
 4012SOL    HW212936   5.209   5.162   1.382
 4013SOL     OW12937   6.937   1.773   6.815
 4013SOL    HW112938   6.839   1.785   6.832
 4013SOL    HW212939   6.981   1.863   6.816
 4014SOL     OW12940   3.125   6.324   2.475
 4014SOL    HW112941   3.037   6.372   2.475
 4014SOL    HW212942   3.158   6.315   2.381
 4015SOL     OW12943   3.783   6.427   4.742
 4015SOL    HW112944   3.848   6.488   4.697
 4015SOL    HW212945   3.810   6.414   4.837
 4016SOL     OW12946   4.699   5.140   4.307
 4016SOL    HW112947   4.642   5.191   4.371
 4016SOL    HW212948   4.743   5.064   4.355
 4017SOL     OW12949   1.969   6.358   5.821
 4017SOL    HW112950   2.042   6.369   5.755
 4017SOL    HW212951   1.986   6.416   5.901
 4018SOL     OW12952   5.079   5.128   0.447
 4018SOL    HW112953   5.177   5.113   0.432
 4018SOL    HW212954   5.034   5.040   0.461
 4019SOL     OW12955   0.450   2.219   3.378
 4019SOL    HW112956   0.387   2.289   3.410
 4019SOL    HW212957   0.544   2.253   3.385
 4020SOL     OW12958   0.008   5.915   4.020
 4020SOL    HW112959   0.044   5.824   3.999
 4020SOL    HW212960   6.939   5.906   4.060
 4021SOL     OW12961   5.054   5.384   5.955
 4021SOL    HW112962   5.039   5.305   5.896
 4021SOL    HW212963   5.148   5.415   5.946
 4022SOL     OW12964   3.571   6.944   1.633
 4022SOL    HW112965   3.478   6.924   1.664
 4022SOL    HW212966   3.626   6.974   1.711
 4023SOL     OW12967   0.804   1.843   4.524
 4023SOL    HW112968   0.867   1.889   4.462
 4023SOL    HW212969   0.710   1.857   4.493
 4024SOL     OW12970   0.725   6.867   6.187
 4024SOL    HW112971   0.737   6.963   6.211
 4024SOL    HW212972   0.814   6.821   6.190
 4025SOL     OW12973   0.728   3.812   4.755
 4025SOL    HW112974   0.683   3.900   4.743
 4025SOL    HW212975   0.672   3.740   4.713
 4026SOL     OW12976   0.723   6.708   4.451
 4026SOL    HW112977   0.747   6.633   4.513
 4026SOL    HW212978   0.625   6.725   4.455
 4027SOL     OW12979   2.706   5.385   5.410
 4027SOL    HW112980   2.620   5.343   5.379
 4027SOL    HW212981   2.782   5.324   5.390
 4028SOL     OW12982   4.890   1.462   4.740
 4028SOL    HW112983   4.791   1.459   4.757
 4028SOL    HW212984   4.939   1.440   4.824
 4029SOL     OW12985   1.761   6.592   0.602
 4029SOL    HW112986   1.687   6.525   0.609
 4029SOL    HW212987   1.729   6.679   0.639
 4030SOL     OW12988   0.855   1.200   1.805
 4030SOL    HW112989   0.864   1.299   1.802
 4030SOL    HW212990   0.768   1.176   1.847
 4031SOL     OW12991   5.851   5.677   0.755
 4031SOL    HW112992   5.766   5.707   0.712
 4031SOL    HW212993   5.845   5.690   0.854
 4032SOL     OW12994   4.766   2.016   2.120
 4032SOL    HW112995   4.678   2.003   2.167
 4032SOL    HW212996   4.804   2.105   2.146
 4033SOL     OW12997   1.595   3.649   2.822
 4033SOL    HW112998   1.653   3.590   2.879
 4033SOL    HW212999   1.594   3.614   2.729
 4034SOL     OW13000   2.296   2.321   4.647
 4034SOL    HW113001   2.232   2.364   4.711
 4034SOL    HW213002   2.247   2.294   4.564
 4035SOL     OW13003   3.819   2.422   1.647
 4035SOL    HW113004   3.755   2.396   1.719
 4035SOL    HW213005   3.816   2.521   1.635
 4036SOL     OW13006   3.963   6.212   3.483
 4036SOL    HW113007   3.930   6.204   3.389
 4036SOL    HW213008   3.931   6.134   3.536
 4037SOL     OW13009   1.895   1.203   6.151
 4037SOL    HW113010   1.850   1.276   6.202
 4037SOL    HW213011   1.960   1.243   6.087
 4038SOL     OW13012   3.979   4.841   5.745
 4038SOL    HW113013   4.013   4.926   5.785
 4038SOL    HW213014   3.885   4.855   5.713
 4039SOL     OW13015   6.230   4.654   1.587
 4039SOL    HW113016   6.287   4.683   1.664
 4039SOL    HW213017   6.200   4.560   1.601
 4040SOL     OW13018   2.416   6.976   4.964
 4040SOL    HW113019   2.495   7.014   5.012
 4040SOL    HW213020   2.386   0.017   4.894
 4041SOL     OW13021   1.442   6.261   1.684
 4041SOL    HW113022   1.430   6.173   1.636
 4041SOL    HW213023   1.500   6.247   1.764
 4042SOL     OW13024   0.452   1.648   4.026
 4042SOL    HW113025   0.427   1.553   4.045
 4042SOL    HW213026   0.510   1.683   4.100
 4043SOL     OW13027   3.944   2.239   6.032
 4043SOL    HW113028   3.850   2.256   6.062
 4043SOL    HW213029   3.954   2.270   5.937
 4044SOL     OW13030   4.498   4.528   3.161
 4044SOL    HW113031   4.453   4.601   3.110
 4044SOL    HW213032   4.468   4.531   3.256
 4045SOL     OW13033   4.464   1.252   5.101
 4045SOL    HW113034   4.496   1.164   5.067
 4045SOL    HW213035   4.413   1.300   5.029
 4046SOL     OW13036   4.945   1.192   3.920
 4046SOL    HW113037   4.880   1.258   3.956
 4046SOL    HW213038   4.897   1.119   3.872
 4047SOL     OW13039   3.138   2.564   6.205
 4047SOL    HW113040   3.057   2.527   6.251
 4047SOL    HW213041   3.142   2.663   6.217
 4048SOL     OW13042   4.825   2.370   3.665
 4048SOL    HW113043   4.776   2.420   3.594
 4048SOL    HW213044   4.912   2.338   3.629
 4049SOL     OW13045   4.168   3.945   1.625
 4049SOL    HW113046   4.175   3.912   1.531
 4049SOL    HW213047   4.205   3.876   1.687
 4050SOL     OW13048   6.790   4.787   3.373
 4050SOL    HW113049   6.786   4.730   3.455
 4050SOL    HW213050   6.836   4.873   3.396
 4051SOL     OW13051   6.243   1.244   4.340
 4051SOL    HW113052   6.159   1.189   4.345
 4051SOL    HW213053   6.221   1.338   4.317
 4052SOL     OW13054   4.701   1.685   4.242
 4052SOL    HW113055   4.784   1.658   4.291
 4052SOL    HW213056   4.692   1.785   4.245
 4053SOL     OW13057   0.382   4.570   3.470
 4053SOL    HW113058   0.474   4.603   3.492
 4053SOL    HW213059   0.376   4.549   3.372
 4054SOL     OW13060   4.906   4.082   1.254
 4054SOL    HW113061   4.990   4.134   1.244
 4054SOL    HW213062   4.841   4.133   1.310
 4055SOL     OW13063   0.142   4.585   0.239
 4055SOL    HW113064   0.209   4.547   0.175
 4055SOL    HW213065   0.057   4.602   0.190
 4056SOL     OW13066   4.609   4.103   6.999
 4056SOL    HW113067   4.535   4.036   6.997
 4056SOL    HW213068   4.654   4.105   6.909
 4057SOL     OW13069   0.172   4.377   5.966
 4057SOL    HW113070   0.129   4.324   6.039
 4057SOL    HW213071   0.235   4.444   6.006
 4058SOL     OW13072   3.874   1.205   4.222
 4058SOL    HW113073   3.820   1.274   4.174
 4058SOL    HW213074   3.829   1.180   4.308
 4059SOL     OW13075   1.193   1.678   3.983
 4059SOL    HW113076   1.180   1.592   4.032
 4059SOL    HW213077   1.216   1.660   3.888
 4060SOL     OW13078   6.977   6.549   4.406
 4060SOL    HW113079   6.923   6.516   4.328
 4060SOL    HW213080   0.001   6.472   4.449
 4061SOL     OW13081   1.448   4.224   2.017
 4061SOL    HW113082   1.466   4.128   1.996
 4061SOL    HW213083   1.474   4.243   2.112
 4062SOL     OW13084   2.583   4.468   0.473
 4062SOL    HW113085   2.566   4.537   0.543
 4062SOL    HW213086   2.589   4.378   0.516
 4063SOL     OW13087   3.671   0.817   0.811
 4063SOL    HW113088   3.730   0.754   0.761
 4063SOL    HW213089   3.613   0.766   0.874
 4064SOL     OW13090   2.484   0.531   4.972
 4064SOL    HW113091   2.508   0.434   4.974
 4064SOL    HW213092   2.558   0.583   4.929
 4065SOL     OW13093   2.481   1.550   1.323
 4065SOL    HW113094   2.391   1.574   1.285
 4065SOL    HW213095   2.542   1.629   1.318
 4066SOL     OW13096   0.404   3.340   4.347
 4066SOL    HW113097   0.361   3.255   4.376
 4066SOL    HW213098   0.486   3.319   4.294
 4067SOL     OW13099   6.327   4.525   0.727
 4067SOL    HW113100   6.390   4.464   0.678
 4067SOL    HW213101   6.239   4.479   0.740
 4068SOL     OW13102   1.841   2.855   5.710
 4068SOL    HW113103   1.897   2.788   5.661
 4068SOL    HW213104   1.868   2.948   5.682
 4069SOL     OW13105   4.169   7.009   5.788
 4069SOL    HW113106   4.075   6.976   5.791
 4069SOL    HW213107   4.225   6.949   5.731
 4070SOL     OW13108   1.684   3.624   4.208
 4070SOL    HW113109   1.715   3.705   4.157
 4070SOL    HW213110   1.723   3.626   4.300
 4071SOL     OW13111   1.730   0.458   4.943
 4071SOL    HW113112   1.676   0.541   4.956
 4071SOL    HW213113   1.720   0.426   4.848
 4072SOL     OW13114   2.874   6.847   2.819
 4072SOL    HW113115   2.790   6.795   2.805
 4072SOL    HW213116   2.919   6.862   2.731
 4073SOL     OW13117   4.174   5.267   6.524
 4073SOL    HW113118   4.095   5.274   6.584
 4073SOL    HW213119   4.202   5.359   6.496
 4074SOL     OW13120   1.581   5.958   2.339
 4074SOL    HW113121   1.586   5.862   2.366
 4074SOL    HW213122   1.524   5.967   2.257
 4075SOL     OW13123   6.077   0.798   0.077
 4075SOL    HW113124   6.038   0.788   0.169
 4075SOL    HW213125   6.036   0.877   0.032
 4076SOL     OW13126   1.740   5.934   3.888
 4076SOL    HW113127   1.696   5.845   3.874
 4076SOL    HW213128   1.832   5.932   3.849
 4077SOL     OW13129   2.506   1.963   1.255
 4077SOL    HW113130   2.444   2.031   1.215
 4077SOL    HW213131   2.560   2.007   1.328
 4078SOL     OW13132   4.377   5.371   2.045
 4078SOL    HW113133   4.423   5.340   2.128
 4078SOL    HW213134   4.422   5.454   2.011
 4079SOL     OW13135   0.413   1.924   4.238
 4079SOL    HW113136   0.338   1.909   4.173
 4079SOL    HW213137   0.486   1.975   4.194
 4080SOL     OW13138   5.981   2.046   4.301
 4080SOL    HW113139   6.020   2.138   4.298
 4080SOL    HW213140   5.882   2.052   4.310
 4081SOL     OW13141   6.877   3.606   2.701
 4081SOL    HW113142   6.829   3.621   2.787
 4081SOL    HW213143   6.932   3.686   2.679
 4082SOL     OW13144   0.413   3.460   0.110
 4082SOL    HW113145   0.347   3.390   0.084
 4082SOL    HW213146   0.477   3.423   0.176
 4083SOL     OW13147   6.716   3.372   5.273
 4083SOL    HW113148   6.729   3.276   5.250
 4083SOL    HW213149   6.640   3.380   5.338
 4084SOL     OW13150   5.477   1.009   4.513
 4084SOL    HW113151   5.513   1.064   4.437
 4084SOL    HW213152   5.471   0.914   4.484
 4085SOL     OW13153   3.329   5.331   6.830
 4085SOL    HW113154   3.347   5.375   6.742
 4085SOL    HW213155   3.415   5.304   6.872
 4086SOL     OW13156   0.793   2.785   1.455
 4086SOL    HW113157   0.876   2.753   1.500
 4086SOL    HW213158   0.809   2.876   1.417
 4087SOL     OW13159   2.228   1.330   3.153
 4087SOL    HW113160   2.267   1.326   3.061
 4087SOL    HW213161   2.264   1.412   3.200
 4088SOL     OW13162   0.040   2.223   6.955
 4088SOL    HW113163   0.094   2.225   6.871
 4088SOL    HW213164   6.966   2.238   6.933
 4089SOL     OW13165   0.425   1.267   5.867
 4089SOL    HW113166   0.389   1.288   5.776
 4089SOL    HW213167   0.485   1.187   5.861
 4090SOL     OW13168   3.576   5.374   6.502
 4090SOL    HW113169   3.497   5.399   6.446
 4090SOL    HW213170   3.647   5.335   6.444
 4091SOL     OW13171   4.559   6.650   1.861
 4091SOL    HW113172   4.513   6.694   1.784
 4091SOL    HW213173   4.658   6.657   1.850
 4092SOL     OW13174   1.243   1.552   4.273
 4092SOL    HW113175   1.314   1.620   4.259
 4092SOL    HW213176   1.167   1.593   4.323
 4093SOL     OW13177   5.194   6.890   4.347
 4093SOL    HW113178   5.174   6.806   4.297
 4093SOL    HW213179   5.113   6.918   4.399
 4094SOL     OW13180   3.280   3.456   6.282
 4094SOL    HW113181   3.347   3.471   6.356
 4094SOL    HW213182   3.321   3.481   6.195
 4095SOL     OW13183   1.647   3.566   5.856
 4095SOL    HW113184   1.721   3.502   5.877
 4095SOL    HW213185   1.678   3.660   5.872
 4096SOL     OW13186   4.462   4.982   1.759
 4096SOL    HW113187   4.502   5.028   1.680
 4096SOL    HW213188   4.394   4.916   1.728
 4097SOL     OW13189   3.442   4.169   3.300
 4097SOL    HW113190   3.465   4.188   3.395
 4097SOL    HW213191   3.510   4.212   3.240
 4098SOL     OW13192   1.184   3.289   2.030
 4098SOL    HW113193   1.211   3.373   1.983
 4098SOL    HW213194   1.199   3.211   1.969
 4099SOL     OW13195   2.702   6.313   1.837
 4099SOL    HW113196   2.629   6.274   1.894
 4099SOL    HW213197   2.661   6.357   1.757
 4100SOL     OW13198   3.613   0.062   2.973
 4100SOL    HW113199   3.601   6.999   2.923
 4100SOL    HW213200   3.543   0.127   2.944
 4101SOL     OW13201   4.442   1.721   6.506
 4101SOL    HW113202   4.404   1.631   6.525
 4101SOL    HW213203   4.516   1.712   6.440
 4102SOL     OW13204   4.290   1.514   6.242
 4102SOL    HW113205   4.364   1.497   6.177
 4102SOL    HW213206   4.319   1.485   6.333
 4103SOL     OW13207   6.971   0.534   1.790
 4103SOL    HW113208   6.949   0.631   1.802
 4103SOL    HW213209   0.019   0.524   1.721
 4104SOL     OW13210   2.565   4.558   2.426
 4104SOL    HW113211   2.482   4.505   2.409
 4104SOL    HW213212   2.627   4.548   2.348
 4105SOL     OW13213   6.036   5.486   0.299
 4105SOL    HW113214   6.030   5.551   0.375
 4105SOL    HW213215   5.967   5.508   0.230
 4106SOL     OW13216   6.935   3.944   4.493
 4106SOL    HW113217   6.901   3.965   4.585
 4106SOL    HW213218   6.995   3.864   4.497
 4107SOL     OW13219   0.315   0.723   0.960
 4107SOL    HW113220   0.392   0.787   0.969
 4107SOL    HW213221   0.258   0.750   0.882
 4108SOL     OW13222   6.011   2.304   4.993
 4108SOL    HW113223   6.011   2.204   4.989
 4108SOL    HW213224   5.999   2.341   4.901
 4109SOL     OW13225   2.541   6.514   3.669
 4109SOL    HW113226   2.584   6.471   3.748
 4109SOL    HW213227   2.449   6.543   3.692
 4110SOL     OW13228   4.825   3.311   5.271
 4110SOL    HW113229   4.779   3.393   5.236
 4110SOL    HW213230   4.922   3.332   5.289
 4111SOL     OW13231   4.119   2.671   6.249
 4111SOL    HW113232   4.069   2.587   6.227
 4111SOL    HW213233   4.101   2.697   6.344
 4112SOL     OW13234   4.329   0.357   6.065
 4112SOL    HW113235   4.312   0.316   5.975
 4112SOL    HW213236   4.349   0.454   6.055
 4113SOL     OW13237   3.896   5.215   4.721
 4113SOL    HW113238   3.976   5.182   4.670
 4113SOL    HW213239   3.882   5.158   4.802
 4114SOL     OW13240   3.971   1.829   3.019
 4114SOL    HW113241   3.921   1.861   2.938
 4114SOL    HW213242   3.937   1.740   3.046
 4115SOL     OW13243   4.796   4.096   2.911
 4115SOL    HW113244   4.718   4.156   2.893
 4115SOL    HW213245   4.825   4.053   2.826
 4116SOL     OW13246   3.108   0.878   2.287
 4116SOL    HW113247   3.176   0.885   2.360
 4116SOL    HW213248   3.074   0.969   2.264
 4117SOL     OW13249   0.962   5.989   1.375
 4117SOL    HW113250   0.945   5.927   1.452
 4117SOL    HW213251   0.938   5.942   1.289
 4118SOL     OW13252   1.497   0.055   6.886
 4118SOL    HW113253   1.428   0.127   6.876
 4118SOL    HW213254   1.457   7.001   6.936
 4119SOL     OW13255   5.285   1.713   3.346
 4119SOL    HW113256   5.317   1.620   3.367
 4119SOL    HW213257   5.358   1.779   3.365
 4120SOL     OW13258   5.448   1.224   2.433
 4120SOL    HW113259   5.392   1.256   2.510
 4120SOL    HW213260   5.494   1.302   2.391
 4121SOL     OW13261   6.066   2.319   4.336
 4121SOL    HW113262   6.161   2.342   4.353
 4121SOL    HW213263   6.008   2.397   4.360
 4122SOL     OW13264   2.204   5.213   6.936
 4122SOL    HW113265   2.198   5.237   0.010
 4122SOL    HW213266   2.129   5.256   6.887
 4123SOL     OW13267   4.046   3.595   5.393
 4123SOL    HW113268   4.101   3.664   5.441
 4123SOL    HW213269   4.085   3.578   5.303
 4124SOL     OW13270   4.251   6.086   3.514
 4124SOL    HW113271   4.166   6.134   3.492
 4124SOL    HW213272   4.240   6.034   3.598
 4125SOL     OW13273   4.579   1.233   1.950
 4125SOL    HW113274   4.585   1.279   2.038
 4125SOL    HW213275   4.665   1.242   1.901
 4126SOL     OW13276   1.657   4.028   4.697
 4126SOL    HW113277   1.716   4.005   4.775
 4126SOL    HW213278   1.565   3.990   4.714
 4127SOL     OW13279   5.524   4.425   4.416
 4127SOL    HW113280   5.543   4.448   4.512
 4127SOL    HW213281   5.599   4.458   4.359
 4128SOL     OW13282   0.043   1.755   1.774
 4128SOL    HW113283   0.088   1.785   1.690
 4128SOL    HW213284   0.046   1.829   1.841
 4129SOL     OW13285   6.907   3.014   6.646
 4129SOL    HW113286   6.977   3.066   6.694
 4129SOL    HW213287   6.862   3.072   6.579
 4130SOL     OW13288   6.375   2.133   1.456
 4130SOL    HW113289   6.338   2.220   1.423
 4130SOL    HW213290   6.447   2.150   1.523
 4131SOL     OW13291   6.691   3.341   2.978
 4131SOL    HW113292   6.755   3.417   2.995
 4131SOL    HW213293   6.669   3.338   2.880
 4132SOL     OW13294   4.874   1.662   4.557
 4132SOL    HW113295   4.787   1.700   4.589
 4132SOL    HW213296   4.914   1.605   4.628
 4133SOL     OW13297   2.592   2.593   1.123
 4133SOL    HW113298   2.552   2.563   1.209
 4133SOL    HW213299   2.670   2.534   1.099
 4134SOL     OW13300   1.901   0.930   0.159
 4134SOL    HW113301   1.983   0.910   0.213
 4134SOL    HW213302   1.918   1.009   0.100
 4135SOL     OW13303   1.849   0.452   0.963
 4135SOL    HW113304   1.907   0.374   0.938
 4135SOL    HW213305   1.753   0.423   0.965
 4136SOL     OW13306   0.961   1.874   3.759
 4136SOL    HW113307   0.981   1.882   3.662
 4136SOL    HW213308   0.951   1.777   3.784
 4137SOL     OW13309   4.022   3.144   5.417
 4137SOL    HW113310   4.022   3.209   5.493
 4137SOL    HW213311   4.116   3.123   5.391
 4138SOL     OW13312   4.895   5.618   1.563
 4138SOL    HW113313   4.825   5.561   1.521
 4138SOL    HW213314   4.974   5.626   1.502
 4139SOL     OW13315   3.206   1.696   0.508
 4139SOL    HW113316   3.109   1.714   0.523
 4139SOL    HW213317   3.222   1.682   0.410
 4140SOL     OW13318   4.624   1.772   5.127
 4140SOL    HW113319   4.674   1.815   5.052
 4140SOL    HW213320   4.529   1.804   5.128
 4141SOL     OW13321   5.509   6.076   1.201
 4141SOL    HW113322   5.549   6.082   1.293
 4141SOL    HW213323   5.577   6.104   1.134
 4142SOL     OW13324   6.185   3.354   1.392
 4142SOL    HW113325   6.138   3.273   1.428
 4142SOL    HW213326   6.185   3.425   1.462
 4143SOL     OW13327   0.632   3.160   1.661
 4143SOL    HW113328   0.612   3.148   1.563
 4143SOL    HW213329   0.724   3.125   1.680
 4144SOL     OW13330   3.700   1.023   2.032
 4144SOL    HW113331   3.696   1.122   2.023
 4144SOL    HW213332   3.654   0.980   1.954
 4145SOL     OW13333   3.104   6.998   3.139
 4145SOL    HW113334   3.085   0.002   3.045
 4145SOL    HW213335   3.132   0.055   3.192
 4146SOL     OW13336   4.527   4.571   0.424
 4146SOL    HW113337   4.517   4.598   0.520
 4146SOL    HW213338   4.600   4.503   0.416
 4147SOL     OW13339   2.528   1.694   5.884
 4147SOL    HW113340   2.522   1.757   5.806
 4147SOL    HW213341   2.472   1.613   5.866
 4148SOL     OW13342   0.040   0.034   2.310
 4148SOL    HW113343   0.021   0.111   2.370
 4148SOL    HW213344   0.075   6.980   2.364
 4149SOL     OW13345   4.757   4.234   2.231
 4149SOL    HW113346   4.675   4.240   2.173
 4149SOL    HW213347   4.734   4.261   2.324
 4150SOL     OW13348   4.106   0.197   5.233
 4150SOL    HW113349   4.029   0.214   5.295
 4150SOL    HW213350   4.176   0.268   5.247
 4151SOL     OW13351   0.322   5.450   0.456
 4151SOL    HW113352   0.316   5.515   0.381
 4151SOL    HW213353   0.412   5.456   0.499
 4152SOL     OW13354   3.225   3.918   1.191
 4152SOL    HW113355   3.233   3.845   1.259
 4152SOL    HW213356   3.226   3.879   1.100
 4153SOL     OW13357   6.122   5.826   5.878
 4153SOL    HW113358   6.104   5.924   5.888
 4153SOL    HW213359   6.065   5.775   5.942
 4154SOL     OW13360   4.642   2.708   4.799
 4154SOL    HW113361   4.701   2.773   4.848
 4154SOL    HW213362   4.578   2.667   4.863
 4155SOL     OW13363   1.540   2.782   0.518
 4155SOL    HW113364   1.472   2.814   0.583
 4155SOL    HW213365   1.604   2.857   0.497
 4156SOL     OW13366   6.017   0.526   5.222
 4156SOL    HW113367   5.936   0.573   5.256
 4156SOL    HW213368   6.098   0.583   5.235
 4157SOL     OW13369   3.541   1.250   3.197
 4157SOL    HW113370   3.497   1.187   3.133
 4157SOL    HW213371   3.487   1.334   3.203
 4158SOL     OW13372   1.271   0.380   3.546
 4158SOL    HW113373   1.313   0.290   3.558
 4158SOL    HW213374   1.240   0.414   3.634
 4159SOL     OW13375   0.218   4.482   5.392
 4159SOL    HW113376   0.245   4.533   5.474
 4159SOL    HW213377   0.122   4.500   5.371
 4160SOL     OW13378   0.162   0.787   0.724
 4160SOL    HW113379   0.155   0.860   0.656
 4160SOL    HW213380   0.075   0.738   0.730
 4161SOL     OW13381   6.093   2.139   1.240
 4161SOL    HW113382   6.140   2.214   1.193
 4161SOL    HW213383   6.071   2.067   1.175
 4162SOL     OW13384   0.957   6.930   5.471
 4162SOL    HW113385   1.051   6.953   5.445
 4162SOL    HW213386   0.959   6.862   5.544
 4163SOL     OW13387   6.669   1.506   5.377
 4163SOL    HW113388   6.640   1.489   5.471
 4163SOL    HW213389   6.719   1.593   5.372
 4164SOL     OW13390   3.025   6.734   5.753
 4164SOL    HW113391   2.941   6.687   5.727
 4164SOL    HW213392   3.104   6.681   5.720
 4165SOL     OW13393   2.139   6.202   1.739
 4165SOL    HW113394   2.202   6.206   1.816
 4165SOL    HW213395   2.111   6.107   1.723
 4166SOL     OW13396   5.978   2.254   2.300
 4166SOL    HW113397   5.978   2.156   2.317
 4166SOL    HW213398   5.995   2.271   2.203
 4167SOL     OW13399   1.893   2.676   1.087
 4167SOL    HW113400   1.830   2.627   1.147
 4167SOL    HW213401   1.987   2.661   1.117
 4168SOL     OW13402   2.378   5.650   0.988
 4168SOL    HW113403   2.357   5.561   0.947
 4168SOL    HW213404   2.294   5.694   1.018
 4169SOL     OW13405   6.391   3.608   6.677
 4169SOL    HW113406   6.433   3.530   6.628
 4169SOL    HW213407   6.304   3.579   6.716
 4170SOL     OW13408   3.321   0.890   5.581
 4170SOL    HW113409   3.303   0.959   5.651
 4170SOL    HW213410   3.253   0.817   5.588
 4171SOL     OW13411   6.121   3.544   1.577
 4171SOL    HW113412   6.155   3.465   1.628
 4171SOL    HW213413   6.065   3.601   1.637
 4172SOL     OW13414   2.905   0.856   1.130
 4172SOL    HW113415   2.922   0.778   1.070
 4172SOL    HW213416   2.954   0.842   1.216
 4173SOL     OW13417   4.336   3.581   5.577
 4173SOL    HW113418   4.424   3.618   5.606
 4173SOL    HW213419   4.265   3.606   5.642
 4174SOL     OW13420   5.260   0.640   2.883
 4174SOL    HW113421   5.188   0.575   2.908
 4174SOL    HW213422   5.222   0.709   2.821
 4175SOL     OW13423   2.261   1.470   2.512
 4175SOL    HW113424   2.214   1.479   2.424
 4175SOL    HW213425   2.359   1.466   2.498
 4176SOL     OW13426   5.983   4.426   2.776
 4176SOL    HW113427   5.948   4.516   2.800
 4176SOL    HW213428   5.921   4.356   2.811
 4177SOL     OW13429   6.854   5.523   3.235
 4177SOL    HW113430   6.789   5.502   3.308
 4177SOL    HW213431   6.827   5.474   3.152
 4178SOL     OW13432   4.393   2.374   5.406
 4178SOL    HW113433   4.463   2.445   5.414
 4178SOL    HW213434   4.329   2.382   5.483
 4179SOL     OW13435   6.530   2.158   0.372
 4179SOL    HW113436   6.492   2.248   0.348
 4179SOL    HW213437   6.564   2.161   0.466
 4180SOL     OW13438   5.204   3.941   1.665
 4180SOL    HW113439   5.231   3.863   1.720
 4180SOL    HW213440   5.104   3.947   1.663
 4181SOL     OW13441   6.303   1.236   0.840
 4181SOL    HW113442   6.357   1.210   0.760
 4181SOL    HW213443   6.300   1.160   0.904
 4182SOL     OW13444   6.038   0.785   3.530
 4182SOL    HW113445   6.088   0.700   3.512
 4182SOL    HW213446   6.055   0.850   3.457
 4183SOL     OW13447   1.201   0.921   1.829
 4183SOL    HW113448   1.267   0.895   1.758
 4183SOL    HW213449   1.183   1.019   1.823
 4184SOL     OW13450   4.497   4.667   6.213
 4184SOL    HW113451   4.537   4.737   6.273
 4184SOL    HW213452   4.431   4.612   6.264
 4185SOL     OW13453   0.560   0.612   3.835
 4185SOL    HW113454   0.517   0.524   3.854
 4185SOL    HW213455   0.648   0.598   3.791
 4186SOL     OW13456   3.432   4.123   1.887
 4186SOL    HW113457   3.501   4.192   1.864
 4186SOL    HW213458   3.438   4.102   1.985
 4187SOL     OW13459   4.311   5.114   6.117
 4187SOL    HW113460   4.357   5.068   6.193
 4187SOL    HW213461   4.293   5.209   6.142
 4188SOL     OW13462   4.836   5.893   3.343
 4188SOL    HW113463   4.918   5.951   3.343
 4188SOL    HW213464   4.862   5.798   3.360
 4189SOL     OW13465   1.603   3.330   3.050
 4189SOL    HW113466   1.696   3.364   3.063
 4189SOL    HW213467   1.603   3.231   3.058
 4190SOL     OW13468   2.361   6.813   1.613
 4190SOL    HW113469   2.275   6.768   1.585
 4190SOL    HW213470   2.423   6.745   1.652
 4191SOL     OW13471   0.295   2.436   3.833
 4191SOL    HW113472   0.343   2.497   3.896
 4191SOL    HW213473   0.322   2.342   3.851
 4192SOL     OW13474   6.010   6.479   4.022
 4192SOL    HW113475   5.944   6.543   3.983
 4192SOL    HW213476   6.030   6.407   3.955
 4193SOL     OW13477   1.569   6.618   4.238
 4193SOL    HW113478   1.482   6.571   4.220
 4193SOL    HW213479   1.630   6.606   4.160
 4194SOL     OW13480   5.432   6.901   3.159
 4194SOL    HW113481   5.357   6.835   3.160
 4194SOL    HW213482   5.422   6.965   3.234
 4195SOL     OW13483   4.709   0.362   3.710
 4195SOL    HW113484   4.659   0.403   3.633
 4195SOL    HW213485   4.707   0.425   3.788
 4196SOL     OW13486   4.718   2.251   3.193
 4196SOL    HW113487   4.797   2.207   3.234
 4196SOL    HW213488   4.749   2.327   3.135
 4197SOL     OW13489   5.165   4.070   4.580
 4197SOL    HW113490   5.105   3.992   4.560
 4197SOL    HW213491   5.256   4.052   4.542
 4198SOL     OW13492   6.341   3.299   6.038
 4198SOL    HW113493   6.308   3.223   6.093
 4198SOL    HW213494   6.427   3.334   6.077
 4199SOL     OW13495   2.781   3.912   6.335
 4199SOL    HW113496   2.874   3.950   6.333
 4199SOL    HW213497   2.768   3.853   6.256
 4200SOL     OW13498   3.119   0.382   0.136
 4200SOL    HW113499   3.194   0.448   0.142
 4200SOL    HW213500   3.148   0.296   0.177
 4201SOL     OW13501   6.531   0.141   4.757
 4201SOL    HW113502   6.594   0.153   4.834
 4201SOL    HW213503   6.440   0.170   4.784
 4202SOL     OW13504   5.568   3.105   5.127
 4202SOL    HW113505   5.611   3.178   5.180
 4202SOL    HW213506   5.624   3.084   5.048
 4203SOL     OW13507   3.964   5.466   4.763
 4203SOL    HW113508   3.923   5.375   4.757
 4203SOL    HW213509   3.916   5.520   4.832
 4204SOL     OW13510   2.089   3.877   0.239
 4204SOL    HW113511   2.181   3.916   0.248
 4204SOL    HW213512   2.021   3.951   0.243
 4205SOL     OW13513   2.291   5.710   3.404
 4205SOL    HW113514   2.219   5.682   3.468
 4205SOL    HW213515   2.357   5.768   3.452
 4206SOL     OW13516   4.856   6.404   3.960
 4206SOL    HW113517   4.803   6.330   3.920
 4206SOL    HW213518   4.953   6.390   3.940
 4207SOL     OW13519   1.477   6.177   0.144
 4207SOL    HW113520   1.451   6.121   0.065
 4207SOL    HW213521   1.484   6.273   0.115
 4208SOL     OW13522   0.273   2.250   1.896
 4208SOL    HW113523   0.357   2.262   1.843
 4208SOL    HW213524   0.234   2.339   1.918
 4209SOL     OW13525   3.016   0.087   5.433
 4209SOL    HW113526   3.031   0.084   5.532
 4209SOL    HW213527   2.919   0.107   5.416
 4210SOL     OW13528   3.380   2.976   0.591
 4210SOL    HW113529   3.287   3.010   0.578
 4210SOL    HW213530   3.411   2.930   0.508
 4211SOL     OW13531   5.527   3.309   4.393
 4211SOL    HW113532   5.512   3.211   4.399
 4211SOL    HW213533   5.553   3.345   4.483
 4212SOL     OW13534   6.167   6.834   2.099
 4212SOL    HW113535   6.116   6.856   2.183
 4212SOL    HW213536   6.196   6.919   2.055
 4213SOL     OW13537   0.798   6.767   1.083
 4213SOL    HW113538   0.703   6.749   1.060
 4213SOL    HW213539   0.802   6.830   1.160
 4214SOL     OW13540   2.634   5.646   3.480
 4214SOL    HW113541   2.580   5.704   3.542
 4214SOL    HW213542   2.701   5.702   3.432
 4215SOL     OW13543   1.537   5.805   0.029
 4215SOL    HW113544   1.496   5.891   7.023
 4215SOL    HW213545   1.633   5.802   0.001
 4216SOL     OW13546   2.715   2.756   5.395
 4216SOL    HW113547   2.800   2.804   5.375
 4216SOL    HW213548   2.645   2.822   5.420
 4217SOL     OW13549   6.694   1.066   4.257
 4217SOL    HW113550   6.625   1.015   4.308
 4217SOL    HW213551   6.766   1.097   4.319
 4218SOL     OW13552   3.215   5.591   2.448
 4218SOL    HW113553   3.262   5.522   2.502
 4218SOL    HW213554   3.277   5.626   2.378
 4219SOL     OW13555   5.175   0.151   2.841
 4219SOL    HW113556   5.181   0.234   2.786
 4219SOL    HW213557   5.258   0.142   2.897
 4220SOL     OW13558   0.018   4.455   2.697
 4220SOL    HW113559   7.021   4.552   2.705
 4220SOL    HW213560   6.982   4.404   2.761
 4221SOL     OW13561   5.252   6.449   5.930
 4221SOL    HW113562   5.158   6.420   5.948
 4221SOL    HW213563   5.303   6.372   5.891
 4222SOL     OW13564   2.704   2.649   0.036
 4222SOL    HW113565   2.679   2.743   0.012
 4222SOL    HW213566   2.771   2.651   0.110
 4223SOL     OW13567   3.789   3.921   3.174
 4223SOL    HW113568   3.766   3.824   3.175
 4223SOL    HW213569   3.780   3.958   3.267
 4224SOL     OW13570   3.703   2.237   5.541
 4224SOL    HW113571   3.691   2.316   5.602
 4224SOL    HW213572   3.748   2.266   5.457
 4225SOL     OW13573   5.133   0.130   4.563
 4225SOL    HW113574   5.055   0.089   4.514
 4225SOL    HW213575   5.188   0.184   4.500
 4226SOL     OW13576   2.346   1.901   2.138
 4226SOL    HW113577   2.271   1.862   2.085
 4226SOL    HW213578   2.368   1.992   2.104
 4227SOL     OW13579   5.392   4.083   0.021
 4227SOL    HW113580   5.415   4.037   0.107
 4227SOL    HW213581   5.295   4.069   0.001
 4228SOL     OW13582   4.317   5.412   2.821
 4228SOL    HW113583   4.265   5.496   2.807
 4228SOL    HW213584   4.267   5.335   2.782
 4229SOL     OW13585   3.868   5.008   4.893
 4229SOL    HW113586   3.937   4.968   4.954
 4229SOL    HW213587   3.779   5.007   4.938
 4230SOL     OW13588   2.493   0.964   6.149
 4230SOL    HW113589   2.539   1.052   6.140
 4230SOL    HW213590   2.395   0.979   6.166
 4231SOL     OW13591   3.966   6.439   6.486
 4231SOL    HW113592   3.940   6.512   6.549
 4231SOL    HW213593   4.032   6.378   6.530
 4232SOL     OW13594   1.331   4.162   1.189
 4232SOL    HW113595   1.393   4.234   1.156
 4232SOL    HW213596   1.277   4.127   1.112
 4233SOL     OW13597   5.446   5.603   1.342
 4233SOL    HW113598   5.415   5.525   1.396
 4233SOL    HW213599   5.378   5.676   1.346
 4234SOL     OW13600   3.718   3.539   5.871
 4234SOL    HW113601   3.668   3.572   5.951
 4234SOL    HW213602   3.695   3.595   5.791
 4235SOL     OW13603   0.299   4.128   4.793
 4235SOL    HW113604   0.371   4.162   4.854
 4235SOL    HW213605   0.307   4.028   4.786
 4236SOL     OW13606   0.992   3.817   4.654
 4236SOL    HW113607   0.906   3.815   4.704
 4236SOL    HW213608   0.974   3.847   4.560
 4237SOL     OW13609   5.728   3.608   5.570
 4237SOL    HW113610   5.799   3.664   5.526
 4237SOL    HW213611   5.754   3.512   5.565
 4238SOL     OW13612   4.812   4.708   5.040
 4238SOL    HW113613   4.759   4.723   5.124
 4238SOL    HW213614   4.909   4.722   5.058
 4239SOL     OW13615   5.237   5.520   5.634
 4239SOL    HW113616   5.252   5.605   5.583
 4239SOL    HW213617   5.269   5.443   5.579
 4240SOL     OW13618   2.681   4.831   6.051
 4240SOL    HW113619   2.696   4.926   6.023
 4240SOL    HW213620   2.672   4.827   6.151
 4241SOL     OW13621   3.301   2.098   1.228
 4241SOL    HW113622   3.396   2.087   1.257
 4241SOL    HW213623   3.245   2.028   1.272
 4242SOL     OW13624   2.404   0.585   1.906
 4242SOL    HW113625   2.472   0.638   1.956
 4242SOL    HW213626   2.327   0.644   1.883
 4243SOL     OW13627   1.630   2.282   2.158
 4243SOL    HW113628   1.535   2.314   2.157
 4243SOL    HW213629   1.691   2.360   2.148
 4244SOL     OW13630   2.843   6.907   0.931
 4244SOL    HW113631   2.765   6.869   0.880
 4244SOL    HW213632   2.928   6.868   0.896
 4245SOL     OW13633   0.302   1.423   1.016
 4245SOL    HW113634   0.381   1.481   1.037
 4245SOL    HW213635   0.252   1.463   0.939
 4246SOL     OW13636   4.277   2.062   3.828
 4246SOL    HW113637   4.268   1.981   3.770
 4246SOL    HW213638   4.253   2.144   3.776
 4247SOL     OW13639   2.660   5.375   6.593
 4247SOL    HW113640   2.701   5.363   6.683
 4247SOL    HW213641   2.632   5.470   6.581
 4248SOL     OW13642   2.756   0.170   2.814
 4248SOL    HW113643   2.807   0.186   2.730
 4248SOL    HW213644   2.759   0.251   2.872
 4249SOL     OW13645   5.784   0.932   5.228
 4249SOL    HW113646   5.849   0.938   5.151
 4249SOL    HW213647   5.697   0.972   5.200
 4250SOL     OW13648   0.843   5.670   4.511
 4250SOL    HW113649   0.837   5.751   4.569
 4250SOL    HW213650   0.776   5.602   4.541
 4251SOL     OW13651   4.764   1.896   4.823
 4251SOL    HW113652   4.717   1.827   4.768
 4251SOL    HW213653   4.757   1.985   4.778
 4252SOL     OW13654   0.826   0.083   6.246
 4252SOL    HW113655   0.825   0.139   6.163
 4252SOL    HW213656   0.843   0.141   6.326
 4253SOL     OW13657   4.288   6.814   2.826
 4253SOL    HW113658   4.231   6.781   2.902
 4253SOL    HW213659   4.246   6.789   2.739
 4254SOL     OW13660   1.231   1.302   5.383
 4254SOL    HW113661   1.182   1.345   5.459
 4254SOL    HW213662   1.198   1.340   5.297
 4255SOL     OW13663   1.352   3.211   4.225
 4255SOL    HW113664   1.342   3.190   4.128
 4255SOL    HW213665   1.401   3.137   4.271
 4256SOL     OW13666   6.102   6.393   0.926
 4256SOL    HW113667   6.099   6.392   0.826
 4256SOL    HW213668   6.139   6.306   0.959
 4257SOL     OW13669   0.283   1.032   2.030
 4257SOL    HW113670   0.329   1.118   2.057
 4257SOL    HW213671   0.335   0.955   2.065
 4258SOL     OW13672   2.739   5.769   1.182
 4258SOL    HW113673   2.744   5.684   1.234
 4258SOL    HW213674   2.808   5.833   1.215
 4259SOL     OW13675   0.731   6.390   0.390
 4259SOL    HW113676   0.766   6.482   0.375
 4259SOL    HW213677   0.807   6.326   0.399
 4260SOL     OW13678   0.556   0.380   5.298
 4260SOL    HW113679   0.513   0.415   5.215
 4260SOL    HW213680   0.516   0.292   5.323
 4261SOL     OW13681   2.273   6.568   3.638
 4261SOL    HW113682   2.215   6.488   3.652
 4261SOL    HW213683   2.224   6.637   3.585
 4262SOL     OW13684   1.457   3.893   4.834
 4262SOL    HW113685   1.415   3.850   4.753
 4262SOL    HW213686   1.486   3.821   4.898
 4263SOL     OW13687   3.513   0.462   2.595
 4263SOL    HW113688   3.612   0.443   2.589
 4263SOL    HW213689   3.495   0.556   2.566
 4264SOL     OW13690   4.393   1.938   6.648
 4264SOL    HW113691   4.410   1.857   6.591
 4264SOL    HW213692   4.322   1.994   6.606
 4265SOL     OW13693   3.115   6.666   0.007
 4265SOL    HW113694   3.157   6.682   6.942
 4265SOL    HW213695   3.040   6.600   7.021
 4266SOL     OW13696   1.285   4.534   2.208
 4266SOL    HW113697   1.322   4.609   2.263
 4266SOL    HW213698   1.281   4.451   2.263
 4267SOL     OW13699   2.036   3.556   3.880
 4267SOL    HW113700   2.030   3.654   3.860
 4267SOL    HW213701   2.088   3.511   3.807
 4268SOL     OW13702   1.555   3.984   6.048
 4268SOL    HW113703   1.508   4.062   6.090
 4268SOL    HW213704   1.495   3.943   5.979
 4269SOL     OW13705   2.125   1.512   4.249
 4269SOL    HW113706   2.080   1.432   4.289
 4269SOL    HW213707   2.060   1.588   4.245
 4270SOL     OW13708   4.249   4.302   1.265
 4270SOL    HW113709   4.224   4.248   1.184
 4270SOL    HW213710   4.304   4.247   1.327
 4271SOL     OW13711   6.689   0.359   0.554
 4271SOL    HW113712   6.628   0.427   0.593
 4271SOL    HW213713   6.770   0.404   0.516
 4272SOL     OW13714   6.101   1.450   5.467
 4272SOL    HW113715   6.053   1.374   5.510
 4272SOL    HW213716   6.138   1.421   5.379
 4273SOL     OW13717   3.697   5.310   3.547
 4273SOL    HW113718   3.715   5.269   3.458
 4273SOL    HW213719   3.702   5.240   3.618
 4274SOL     OW13720   7.006   0.507   1.400
 4274SOL    HW113721   6.918   0.501   1.446
 4274SOL    HW213722   6.998   0.564   1.319
 4275SOL     OW13723   6.092   1.470   4.388
 4275SOL    HW113724   6.061   1.562   4.411
 4275SOL    HW213725   6.155   1.437   4.458
 4276SOL     OW13726   1.460   0.919   2.747
 4276SOL    HW113727   1.412   0.990   2.693
 4276SOL    HW213728   1.527   0.962   2.807
 4277SOL     OW13729   6.115   5.537   2.712
 4277SOL    HW113730   6.153   5.627   2.730
 4277SOL    HW213731   6.134   5.476   2.788
 4278SOL     OW13732   0.457   0.167   1.361
 4278SOL    HW113733   0.397   0.246   1.361
 4278SOL    HW213734   0.404   0.084   1.376
 4279SOL     OW13735   0.906   3.406   3.019
 4279SOL    HW113736   0.950   3.397   2.930
 4279SOL    HW213737   0.935   3.492   3.061
 4280SOL     OW13738   3.238   6.230   6.562
 4280SOL    HW113739   3.165   6.203   6.625
 4280SOL    HW213740   3.320   6.177   6.582
 4281SOL     OW13741   0.057   6.591   2.534
 4281SOL    HW113742   6.981   6.589   2.517
 4281SOL    HW213743   0.074   6.610   2.630
 4282SOL     OW13744   5.049   4.680   1.931
 4282SOL    HW113745   5.144   4.655   1.946
 4282SOL    HW213746   5.045   4.769   1.884
 4283SOL     OW13747   5.971   1.446   4.971
 4283SOL    HW113748   5.944   1.427   4.877
 4283SOL    HW213749   5.969   1.361   5.024
 4284SOL     OW13750   4.996   6.061   0.163
 4284SOL    HW113751   4.907   6.084   0.123
 4284SOL    HW213752   5.021   5.968   0.137
 4285SOL     OW13753   2.796   1.359   6.254
 4285SOL    HW113754   2.808   1.394   6.347
 4285SOL    HW213755   2.853   1.412   6.191
 4286SOL     OW13756   5.598   6.265   0.070
 4286SOL    HW113757   5.553   6.190   0.119
 4286SOL    HW213758   5.695   6.266   0.092
 4287SOL     OW13759   4.590   0.486   0.960
 4287SOL    HW113760   4.548   0.405   0.918
 4287SOL    HW213761   4.595   0.559   0.893
 4288SOL     OW13762   0.386   6.771   2.186
 4288SOL    HW113763   0.423   6.679   2.180
 4288SOL    HW213764   0.295   6.768   2.228
 4289SOL     OW13765   0.272   4.173   5.790
 4289SOL    HW113766   0.224   4.206   5.709
 4289SOL    HW213767   0.267   4.242   5.862
 4290SOL     OW13768   7.017   0.962   2.858
 4290SOL    HW113769   0.015   0.972   2.761
 4290SOL    HW213770   6.921   0.984   2.874
 4291SOL     OW13771   4.566   4.899   6.068
 4291SOL    HW113772   4.633   4.903   5.994
 4291SOL    HW213773   4.561   4.805   6.103
 4292SOL     OW13774   6.337   0.115   0.486
 4292SOL    HW113775   6.338   0.015   0.489
 4292SOL    HW213776   6.431   0.150   0.492
 4293SOL     OW13777   3.903   2.811   5.907
 4293SOL    HW113778   3.889   2.801   5.808
 4293SOL    HW213779   3.969   2.885   5.924
 4294SOL     OW13780   3.399   2.170   0.171
 4294SOL    HW113781   3.331   2.140   0.237
 4294SOL    HW213782   3.474   2.216   0.219
 4295SOL     OW13783   3.916   6.489   2.723
 4295SOL    HW113784   4.009   6.454   2.736
 4295SOL    HW213785   3.866   6.427   2.662
 4296SOL     OW13786   2.353   5.495   1.828
 4296SOL    HW113787   2.397   5.581   1.854
 4296SOL    HW213788   2.328   5.444   1.910
 4297SOL     OW13789   4.890   4.670   6.859
 4297SOL    HW113790   4.813   4.677   6.923
 4297SOL    HW213791   4.961   4.735   6.884
 4298SOL     OW13792   2.454   6.217   0.362
 4298SOL    HW113793   2.398   6.136   0.342
 4298SOL    HW213794   2.397   6.299   0.353
 4299SOL     OW13795   0.172   3.636   6.434
 4299SOL    HW113796   0.250   3.689   6.468
 4299SOL    HW213797   0.189   3.610   6.339
 4300SOL     OW13798   3.628   0.885   1.780
 4300SOL    HW113799   3.530   0.878   1.795
 4300SOL    HW213800   3.654   0.831   1.700
 4301SOL     OW13801   1.953   6.148   4.586
 4301SOL    HW113802   2.021   6.089   4.630
 4301SOL    HW213803   1.863   6.131   4.627
 4302SOL     OW13804   4.163   4.946   0.193
 4302SOL    HW113805   4.195   4.912   0.281
 4302SOL    HW213806   4.126   4.871   0.139
 4303SOL     OW13807   4.426   5.036   3.421
 4303SOL    HW113808   4.395   5.130   3.429
 4303SOL    HW213809   4.502   5.020   3.484
 4304SOL     OW13810   3.277   4.203   1.671
 4304SOL    HW113811   3.324   4.291   1.666
 4304SOL    HW213812   3.327   4.143   1.734
 4305SOL     OW13813   0.966   6.774   5.691
 4305SOL    HW113814   1.009   6.822   5.768
 4305SOL    HW213815   0.937   6.683   5.721
 4306SOL     OW13816   6.178   3.752   5.150
 4306SOL    HW113817   6.213   3.817   5.217
 4306SOL    HW213818   6.240   3.749   5.071
 4307SOL     OW13819   6.829   1.608   4.601
 4307SOL    HW113820   6.902   1.670   4.627
 4307SOL    HW213821   6.742   1.640   4.639
 4308SOL     OW13822   4.538   5.685   6.001
 4308SOL    HW113823   4.532   5.625   5.922
 4308SOL    HW213824   4.577   5.773   5.974
 4309SOL     OW13825   3.111   1.976   0.866
 4309SOL    HW113826   3.104   2.032   0.783
 4309SOL    HW213827   3.104   1.879   0.842
 4310SOL     OW13828   6.615   1.484   4.365
 4310SOL    HW113829   6.655   1.446   4.449
 4310SOL    HW213830   6.567   1.411   4.316
 4311SOL     OW13831   1.122   6.770   1.402
 4311SOL    HW113832   1.106   6.788   1.499
 4311SOL    HW213833   1.060   6.698   1.371
 4312SOL     OW13834   0.392   3.151   2.644
 4312SOL    HW113835   0.356   3.165   2.737
 4312SOL    HW213836   0.343   3.209   2.580
 4313SOL     OW13837   1.003   3.184   0.803
 4313SOL    HW113838   0.987   3.281   0.819
 4313SOL    HW213839   1.045   3.144   0.885
 4314SOL     OW13840   2.064   1.362   5.986
 4314SOL    HW113841   2.048   1.458   6.007
 4314SOL    HW213842   2.027   1.340   5.896
 4315SOL     OW13843   2.738   2.255   5.396
 4315SOL    HW113844   2.765   2.248   5.300
 4315SOL    HW213845   2.799   2.199   5.452
 4316SOL     OW13846   4.536   4.651   1.230
 4316SOL    HW113847   4.520   4.578   1.163
 4316SOL    HW213848   4.574   4.612   1.313
 4317SOL     OW13849   5.393   0.484   3.998
 4317SOL    HW113850   5.485   0.455   4.022
 4317SOL    HW213851   5.332   0.404   3.999
 4318SOL     OW13852   1.726   6.142   4.040
 4318SOL    HW113853   1.734   6.057   3.987
 4318SOL    HW213854   1.629   6.164   4.053
 4319SOL     OW13855   2.379   4.708   1.569
 4319SOL    HW113856   2.335   4.782   1.518
 4319SOL    HW213857   2.377   4.624   1.515
 4320SOL     OW13858   3.809   1.488   2.033
 4320SOL    HW113859   3.824   1.586   2.024
 4320SOL    HW213860   3.897   1.440   2.031
 4321SOL     OW13861   6.507   5.792   2.995
 4321SOL    HW113862   6.467   5.751   3.078
 4321SOL    HW213863   6.447   5.865   2.962
 4322SOL     OW13864   2.973   1.909   4.695
 4322SOL    HW113865   2.926   1.991   4.664
 4322SOL    HW213866   2.915   1.860   4.761
 4323SOL     OW13867   5.398   4.186   1.658
 4323SOL    HW113868   5.335   4.108   1.660
 4323SOL    HW213869   5.492   4.153   1.670
 4324SOL     OW13870   6.454   4.046   5.454
 4324SOL    HW113871   6.432   3.966   5.398
 4324SOL    HW213872   6.404   4.041   5.540
 4325SOL     OW13873   1.690   0.860   1.101
 4325SOL    HW113874   1.762   0.921   1.068
 4325SOL    HW213875   1.713   0.827   1.192
 4326SOL     OW13876   4.845   2.640   2.619
 4326SOL    HW113877   4.915   2.657   2.549
 4326SOL    HW213878   4.853   2.545   2.651
 4327SOL     OW13879   2.910   6.617   4.013
 4327SOL    HW113880   2.921   6.610   3.914
 4327SOL    HW213881   2.888   6.526   4.051
 4328SOL     OW13882   5.933   0.367   2.279
 4328SOL    HW113883   5.888   0.291   2.233
 4328SOL    HW213884   5.864   0.430   2.314
 4329SOL     OW13885   5.995   4.260   0.287
 4329SOL    HW113886   5.967   4.352   0.259
 4329SOL    HW213887   6.062   4.225   0.221
 4330SOL     OW13888   2.834   5.773   5.160
 4330SOL    HW113889   2.915   5.773   5.101
 4330SOL    HW213890   2.752   5.767   5.104
 4331SOL     OW13891   6.126   1.542   2.891
 4331SOL    HW113892   6.109   1.539   2.989
 4331SOL    HW213893   6.128   1.449   2.854
 4332SOL     OW13894   6.945   5.548   1.348
 4332SOL    HW113895   6.887   5.623   1.381
 4332SOL    HW213896   6.920   5.527   1.254
 4333SOL     OW13897   3.684   3.012   6.023
 4333SOL    HW113898   3.735   2.979   5.943
 4333SOL    HW213899   3.689   2.945   6.096
 4334SOL     OW13900   0.267   2.377   3.523
 4334SOL    HW113901   0.294   2.404   3.615
 4334SOL    HW213902   0.169   2.355   3.522
 4335SOL     OW13903   1.917   3.510   1.570
 4335SOL    HW113904   1.888   3.424   1.611
 4335SOL    HW213905   2.016   3.521   1.583
 4336SOL     OW13906   2.117   4.988   5.369
 4336SOL    HW113907   2.190   4.929   5.333
 4336SOL    HW213908   2.085   4.952   5.457
 4337SOL     OW13909   0.039   4.507   4.287
 4337SOL    HW113910   6.996   4.464   4.349
 4337SOL    HW213911   0.129   4.465   4.299
 4338SOL     OW13912   3.601   2.909   5.503
 4338SOL    HW113913   3.551   2.835   5.458
 4338SOL    HW213914   3.648   2.964   5.435
 4339SOL     OW13915   3.757   3.979   5.412
 4339SOL    HW113916   3.802   3.893   5.437
 4339SOL    HW213917   3.822   4.037   5.363
 4340SOL     OW13918   6.972   4.255   0.016
 4340SOL    HW113919   0.003   4.189   0.068
 4340SOL    HW213920   6.875   4.245   0.041
 4341SOL     OW13921   6.130   6.416   1.592
 4341SOL    HW113922   6.211   6.424   1.534
 4341SOL    HW213923   6.123   6.498   1.649
 4342SOL     OW13924   4.909   3.410   2.118
 4342SOL    HW113925   4.910   3.424   2.019
 4342SOL    HW213926   4.903   3.313   2.139
 4343SOL     OW13927   4.751   6.875   6.353
 4343SOL    HW113928   4.829   6.830   6.309
 4343SOL    HW213929   4.682   6.897   6.284
 4344SOL     OW13930   1.141   3.755   1.703
 4344SOL    HW113931   1.141   3.855   1.703
 4344SOL    HW213932   1.211   3.722   1.640
 4345SOL     OW13933   4.062   3.265   2.642
 4345SOL    HW113934   4.073   3.365   2.636
 4345SOL    HW213935   4.066   3.226   2.550
 4346SOL     OW13936   0.765   3.639   2.436
 4346SOL    HW113937   0.773   3.576   2.358
 4346SOL    HW213938   0.713   3.595   2.509
 4347SOL     OW13939   5.992   6.013   1.535
 4347SOL    HW113940   5.997   6.112   1.525
 4347SOL    HW213941   6.018   5.970   1.448
 4348SOL     OW13942   6.388   4.274   6.215
 4348SOL    HW113943   6.476   4.247   6.256
 4348SOL    HW213944   6.314   4.232   6.266
 4349SOL     OW13945   0.688   3.549   4.032
 4349SOL    HW113946   0.732   3.607   3.963
 4349SOL    HW213947   0.757   3.507   4.090
 4350SOL     OW13948   5.338   0.104   3.695
 4350SOL    HW113949   5.419   0.048   3.713
 4350SOL    HW213950   5.335   0.179   3.761
 4351SOL     OW13951   0.342   6.293   1.012
 4351SOL    HW113952   0.392   6.258   0.933
 4351SOL    HW213953   0.380   6.254   1.095
 4352SOL     OW13954   3.607   4.114   0.950
 4352SOL    HW113955   3.598   4.134   1.047
 4352SOL    HW213956   3.658   4.188   0.906
 4353SOL     OW13957   2.307   4.008   0.347
 4353SOL    HW113958   2.329   3.933   0.410
 4353SOL    HW213959   2.391   4.057   0.323
 4354SOL     OW13960   5.361   5.268   1.970
 4354SOL    HW113961   5.341   5.178   1.932
 4354SOL    HW213962   5.460   5.280   1.978
 4355SOL     OW13963   1.675   4.784   3.757
 4355SOL    HW113964   1.731   4.853   3.802
 4355SOL    HW213965   1.659   4.810   3.662
 4356SOL     OW13966   5.801   1.461   5.680
 4356SOL    HW113967   5.718   1.516   5.674
 4356SOL    HW213968   5.818   1.416   5.592
 4357SOL     OW13969   5.108   5.858   2.858
 4357SOL    HW113970   5.135   5.891   2.949
 4357SOL    HW213971   5.009   5.859   2.850
 4358SOL     OW13972   2.598   0.655   1.522
 4358SOL    HW113973   2.506   0.676   1.556
 4358SOL    HW213974   2.619   0.559   1.539
 4359SOL     OW13975   2.533   2.950   1.615
 4359SOL    HW113976   2.531   2.957   1.515
 4359SOL    HW213977   2.495   2.862   1.643
 4360SOL     OW13978   2.836   6.005   4.035
 4360SOL    HW113979   2.809   6.021   3.940
 4360SOL    HW213980   2.765   5.952   4.081
 4361SOL     OW13981   1.880   1.145   6.615
 4361SOL    HW113982   1.968   1.157   6.569
 4361SOL    HW213983   1.890   1.079   6.689
 4362SOL     OW13984   0.044   6.017   2.690
 4362SOL    HW113985   6.976   5.995   2.725
 4362SOL    HW213986   0.055   6.116   2.685
 4363SOL     OW13987   3.878   0.106   2.360
 4363SOL    HW113988   3.861   0.168   2.437
 4363SOL    HW213989   3.887   0.013   2.394
 4364SOL     OW13990   2.941   3.760   2.850
 4364SOL    HW113991   2.875   3.806   2.791
 4364SOL    HW213992   2.994   3.829   2.900
 4365SOL     OW13993   2.748   1.280   1.074
 4365SOL    HW113994   2.758   1.364   1.020
 4365SOL    HW213995   2.822   1.217   1.051
 4366SOL     OW13996   4.978   5.542   4.793
 4366SOL    HW113997   5.060   5.565   4.741
 4366SOL    HW213998   4.905   5.607   4.771
 4367SOL     OW13999   1.675   6.996   1.751
 4367SOL    HW114000   1.712   7.006   1.659
 4367SOL    HW214001   1.642   0.062   1.783
 4368SOL     OW14002   4.927   4.926   4.700
 4368SOL    HW114003   4.991   4.852   4.723
 4368SOL    HW214004   4.839   4.909   4.745
 4369SOL     OW14005   6.568   4.065   4.228
 4369SOL    HW114006   6.529   4.107   4.146
 4369SOL    HW214007   6.665   4.088   4.234
 4370SOL     OW14008   5.013   4.697   0.900
 4370SOL    HW114009   5.066   4.747   0.831
 4370SOL    HW214010   4.930   4.659   0.857
 4371SOL     OW14011   3.736   1.017   3.319
 4371SOL    HW114012   3.723   1.065   3.232
 4371SOL    HW214013   3.689   0.929   3.316
 4372SOL     OW14014   1.842   4.632   5.314
 4372SOL    HW114015   1.937   4.631   5.346
 4372SOL    HW214016   1.784   4.673   5.385
 4373SOL     OW14017   4.564   0.463   0.236
 4373SOL    HW114018   4.590   0.453   0.140
 4373SOL    HW214019   4.519   0.380   0.268
 4374SOL     OW14020   2.237   6.039   0.484
 4374SOL    HW114021   2.288   6.068   0.565
 4374SOL    HW214022   2.150   6.087   0.480
 4375SOL     OW14023   5.015   0.709   6.076
 4375SOL    HW114024   4.968   0.797   6.074
 4375SOL    HW214025   4.948   0.635   6.081
 4376SOL     OW14026   3.297   4.937   6.883
 4376SOL    HW114027   3.353   4.887   6.949
 4376SOL    HW214028   3.210   4.890   6.870
 4377SOL     OW14029   5.527   6.536   0.088
 4377SOL    HW114030   5.584   6.586   0.023
 4377SOL    HW214031   5.544   6.438   0.079
 4378SOL     OW14032   3.384   4.569   1.413
 4378SOL    HW114033   3.308   4.585   1.349
 4378SOL    HW214034   3.396   4.651   1.470
 4379SOL     OW14035   6.532   6.219   0.575
 4379SOL    HW114036   6.478   6.273   0.511
 4379SOL    HW214037   6.621   6.263   0.590
 4380SOL     OW14038   1.719   6.043   4.793
 4380SOL    HW114039   1.716   5.999   4.883
 4380SOL    HW214040   1.638   6.019   4.741
 4381SOL     OW14041   3.650   6.196   4.014
 4381SOL    HW114042   3.624   6.162   3.923
 4381SOL    HW214043   3.595   6.150   4.083
 4382SOL     OW14044   5.535   4.213   3.709
 4382SOL    HW114045   5.454   4.270   3.722
 4382SOL    HW214046   5.568   4.222   3.615
 4383SOL     OW14047   1.258   0.243   6.929
 4383SOL    HW114048   1.220   0.151   6.929
 4383SOL    HW214049   1.211   0.298   6.860
 4384SOL     OW14050   3.738   6.945   2.124
 4384SOL    HW114051   3.702   0.011   2.152
 4384SOL    HW214052   3.769   6.895   2.204
 4385SOL     OW14053   6.111   2.680   4.378
 4385SOL    HW114054   6.066   2.596   4.406
 4385SOL    HW214055   6.175   2.661   4.304
 4386SOL     OW14056   1.755   5.559   6.929
 4386SOL    HW114057   1.748   5.522   6.837
 4386SOL    HW214058   1.781   5.656   6.924
 4387SOL     OW14059   5.970   2.459   1.025
 4387SOL    HW114060   5.937   2.408   1.105
 4387SOL    HW214061   5.979   2.555   1.049
 4388SOL     OW14062   4.003   1.206   5.811
 4388SOL    HW114063   3.995   1.279   5.744
 4388SOL    HW214064   4.001   1.245   5.903
 4389SOL     OW14065   0.734   2.314   2.712
 4389SOL    HW114066   0.690   2.226   2.727
 4389SOL    HW214067   0.698   2.380   2.778
 4390SOL     OW14068   4.572   3.975   1.049
 4390SOL    HW114069   4.584   4.063   1.096
 4390SOL    HW214070   4.604   3.983   0.955
 4391SOL     OW14071   0.522   5.379   0.755
 4391SOL    HW114072   0.483   5.290   0.735
 4391SOL    HW214073   0.485   5.413   0.841
 4392SOL     OW14074   5.012   5.096   5.007
 4392SOL    HW114075   4.957   5.037   5.066
 4392SOL    HW214076   4.957   5.127   4.930
 4393SOL     OW14077   4.647   6.515   3.014
 4393SOL    HW114078   4.578   6.577   2.978
 4393SOL    HW214079   4.619   6.420   2.996
 4394SOL     OW14080   4.733   0.721   2.616
 4394SOL    HW114081   4.691   0.802   2.657
 4394SOL    HW214082   4.673   0.642   2.629
 4395SOL     OW14083   4.321   2.855   0.907
 4395SOL    HW114084   4.299   2.888   0.816
 4395SOL    HW214085   4.269   2.772   0.926
 4396SOL     OW14086   1.932   1.235   2.553
 4396SOL    HW114087   2.009   1.228   2.490
 4396SOL    HW214088   1.852   1.269   2.504
 4397SOL     OW14089   4.108   1.205   0.033
 4397SOL    HW114090   4.198   1.250   0.030
 4397SOL    HW214091   4.079   1.183   6.963
 4398SOL     OW14092   0.949   4.863   4.588
 4398SOL    HW114093   0.978   4.787   4.531
 4398SOL    HW214094   1.018   4.879   4.659
 4399SOL     OW14095   2.690   0.385   1.550
 4399SOL    HW114096   2.653   0.317   1.487
 4399SOL    HW214097   2.786   0.366   1.568
 4400SOL     OW14098   3.341   4.866   2.758
 4400SOL    HW114099   3.301   4.866   2.849
 4400SOL    HW214100   3.269   4.852   2.689
 4401SOL     OW14101   5.100   6.578   4.548
 4401SOL    HW114102   5.170   6.595   4.478
 4401SOL    HW214103   5.123   6.495   4.598
 4402SOL     OW14104   0.213   6.345   1.820
 4402SOL    HW114105   0.124   6.371   1.783
 4402SOL    HW214106   0.208   6.250   1.853
 4403SOL     OW14107   6.372   1.706   3.169
 4403SOL    HW114108   6.301   1.724   3.101
 4403SOL    HW214109   6.455   1.673   3.123
 4404SOL     OW14110   1.715   3.870   2.455
 4404SOL    HW114111   1.659   3.942   2.497
 4404SOL    HW214112   1.671   3.839   2.370
 4405SOL     OW14113   2.467   3.604   6.435
 4405SOL    HW114114   2.451   3.703   6.428
 4405SOL    HW214115   2.532   3.576   6.364
 4406SOL     OW14116   5.701   2.630   2.081
 4406SOL    HW114117   5.745   2.567   2.144
 4406SOL    HW214118   5.639   2.580   2.021
 4407SOL     OW14119   1.073   0.840   0.479
 4407SOL    HW114120   1.095   0.886   0.564
 4407SOL    HW214121   1.157   0.807   0.436
 4408SOL     OW14122   4.078   6.109   1.594
 4408SOL    HW114123   4.032   6.102   1.506
 4408SOL    HW214124   4.024   6.167   1.656
 4409SOL     OW14125   3.597   2.019   3.016
 4409SOL    HW114126   3.642   1.930   3.023
 4409SOL    HW214127   3.503   2.006   2.985
 4410SOL     OW14128   2.045   5.740   0.586
 4410SOL    HW114129   2.129   5.691   0.563
 4410SOL    HW214130   2.062   5.801   0.664
 4411SOL     OW14131   3.350   3.095   2.444
 4411SOL    HW114132   3.376   3.122   2.352
 4411SOL    HW214133   3.414   3.027   2.479
 4412SOL     OW14134   3.439   1.312   6.095
 4412SOL    HW114135   3.377   1.247   6.050
 4412SOL    HW214136   3.529   1.269   6.106
 4413SOL     OW14137   3.699   5.618   3.906
 4413SOL    HW114138   3.714   5.561   3.987
 4413SOL    HW214139   3.656   5.564   3.834
 4414SOL     OW14140   3.507   4.993   1.784
 4414SOL    HW114141   3.539   4.908   1.825
 4414SOL    HW214142   3.582   5.059   1.779
 4415SOL     OW14143   4.121   1.298   1.828
 4415SOL    HW114144   4.048   1.275   1.764
 4415SOL    HW214145   4.146   1.394   1.818
 4416SOL     OW14146   2.914   2.199   4.624
 4416SOL    HW114147   3.005   2.225   4.654
 4416SOL    HW214148   2.849   2.209   4.700
 4417SOL     OW14149   5.674   6.975   1.288
 4417SOL    HW114150   5.771   6.957   1.304
 4417SOL    HW214151   5.655   0.048   1.303
 4418SOL     OW14152   4.463   0.277   3.148
 4418SOL    HW114153   4.502   0.369   3.139
 4418SOL    HW214154   4.410   0.272   3.233
 4419SOL     OW14155   6.312   5.437   6.044
 4419SOL    HW114156   6.281   5.347   6.075
 4419SOL    HW214157   6.299   5.444   5.945
 4420SOL     OW14158   5.231   0.988   0.937
 4420SOL    HW114159   5.279   1.060   0.987
 4420SOL    HW214160   5.282   0.962   0.856
 4421SOL     OW14161   0.095   1.478   3.338
 4421SOL    HW114162   0.149   1.560   3.319
 4421SOL    HW214163   7.023   1.504   3.352
 4422SOL     OW14164   1.709   4.119   5.652
 4422SOL    HW114165   1.703   4.147   5.748
 4422SOL    HW214166   1.624   4.074   5.625
 4423SOL     OW14167   6.775   1.594   5.742
 4423SOL    HW114168   6.846   1.596   5.812
 4423SOL    HW214169   6.696   1.542   5.775
 4424SOL     OW14170   1.295   5.348   3.513
 4424SOL    HW114171   1.280   5.278   3.444
 4424SOL    HW214172   1.297   5.306   3.604
 4425SOL     OW14173   4.941   4.015   1.696
 4425SOL    HW114174   4.969   4.078   1.767
 4425SOL    HW214175   4.846   4.034   1.670
 4426SOL     OW14176   0.164   6.846   6.663
 4426SOL    HW114177   0.086   6.790   6.633
 4426SOL    HW214178   0.148   6.878   6.756
 4427SOL     OW14179   0.858   5.825   3.483
 4427SOL    HW114180   0.898   5.913   3.508
 4427SOL    HW214181   0.815   5.832   3.393
 4428SOL     OW14182   1.380   0.020   2.978
 4428SOL    HW114183   1.378   0.064   2.888
 4428SOL    HW214184   1.442   6.965   2.975
 4429SOL     OW14185   2.727   0.213   2.284
 4429SOL    HW114186   2.669   0.235   2.362
 4429SOL    HW214187   2.808   0.271   2.285
 4430SOL     OW14188   2.074   0.372   1.941
 4430SOL    HW114189   2.073   0.283   1.896
 4430SOL    HW214190   2.031   0.440   1.882
 4431SOL     OW14191   1.978   2.203   2.543
 4431SOL    HW114192   1.947   2.234   2.633
 4431SOL    HW214193   1.949   2.108   2.529
 4432SOL     OW14194   3.590   4.147   4.569
 4432SOL    HW114195   3.497   4.136   4.533
 4432SOL    HW214196   3.656   4.115   4.501
 4433SOL     OW14197   6.683   6.975   1.549
 4433SOL    HW114198   6.607   0.011   1.576
 4433SOL    HW214199   6.669   6.883   1.588
 4434SOL     OW14200   5.509   1.867   5.608
 4434SOL    HW114201   5.519   1.779   5.655
 4434SOL    HW214202   5.589   1.924   5.627
 4435SOL     OW14203   3.653   3.043   1.976
 4435SOL    HW114204   3.639   2.975   1.905
 4435SOL    HW214205   3.751   3.061   1.986
 4436SOL     OW14206   5.958   0.294   0.354
 4436SOL    HW114207   5.972   0.271   0.257
 4436SOL    HW214208   5.870   0.340   0.365
 4437SOL     OW14209   3.516   6.931   5.990
 4437SOL    HW114210   3.493   6.954   5.896
 4437SOL    HW214211   3.591   6.990   6.021
 4438SOL     OW14212   3.660   2.508   6.891
 4438SOL    HW114213   3.658   2.541   6.797
 4438SOL    HW214214   3.651   2.408   6.891
 4439SOL     OW14215   1.471   4.322   2.911
 4439SOL    HW114216   1.431   4.260   2.844
 4439SOL    HW214217   1.545   4.374   2.869
 4440SOL     OW14218   6.136   0.926   0.615
 4440SOL    HW114219   6.117   0.893   0.523
 4440SOL    HW214220   6.146   0.849   0.678
 4441SOL     OW14221   6.876   0.351   3.896
 4441SOL    HW114222   6.843   0.264   3.932
 4441SOL    HW214223   6.852   0.425   3.959
 4442SOL     OW14224   1.874   5.484   2.485
 4442SOL    HW114225   1.878   5.507   2.388
 4442SOL    HW214226   1.778   5.475   2.513
 4443SOL     OW14227   2.153   1.333   0.860
 4443SOL    HW114228   2.162   1.354   0.957
 4443SOL    HW214229   2.130   1.237   0.849
 4444SOL     OW14230   4.872   1.640   3.145
 4444SOL    HW114231   4.901   1.544   3.144
 4444SOL    HW214232   4.923   1.689   3.215
 4445SOL     OW14233   0.716   2.046   6.152
 4445SOL    HW114234   0.675   2.125   6.106
 4445SOL    HW214235   0.771   2.079   6.229
 4446SOL     OW14236   6.652   4.848   4.448
 4446SOL    HW114237   6.615   4.877   4.536
 4446SOL    HW214238   6.665   4.749   4.449
 4447SOL     OW14239   4.819   3.917   5.126
 4447SOL    HW114240   4.835   3.826   5.088
 4447SOL    HW214241   4.805   3.909   5.225
 4448SOL     OW14242   2.519   3.478   6.907
 4448SOL    HW114243   2.614   3.483   6.878
 4448SOL    HW214244   2.459   3.472   6.827
 4449SOL     OW14245   6.834   1.155   5.388
 4449SOL    HW114246   6.857   1.217   5.313
 4449SOL    HW214247   6.757   1.097   5.362
 4450SOL     OW14248   3.784   3.485   3.243
 4450SOL    HW114249   3.884   3.485   3.243
 4450SOL    HW214250   3.751   3.544   3.316
 4451SOL     OW14251   0.613   4.835   1.085
 4451SOL    HW114252   0.662   4.897   1.025
 4451SOL    HW214253   0.620   4.742   1.049
 4452SOL     OW14254   0.455   3.665   6.783
 4452SOL    HW114255   0.368   3.663   6.833
 4452SOL    HW214256   0.524   3.613   6.833
 4453SOL     OW14257   5.833   0.524   1.576
 4453SOL    HW114258   5.803   0.509   1.670
 4453SOL    HW214259   5.896   0.601   1.572
 4454SOL     OW14260   5.831   3.304   1.464
 4454SOL    HW114261   5.831   3.364   1.384
 4454SOL    HW214262   5.742   3.309   1.510
 4455SOL     OW14263   4.584   2.605   2.897
 4455SOL    HW114264   4.581   2.578   2.801
 4455SOL    HW214265   4.610   2.701   2.905
 4456SOL     OW14266   0.552   5.940   2.578
 4456SOL    HW114267   0.467   5.994   2.577
 4456SOL    HW214268   0.530   5.846   2.605
 4457SOL     OW14269   4.389   2.350   6.385
 4457SOL    HW114270   4.390   2.421   6.456
 4457SOL    HW214271   4.468   2.363   6.325
 4458SOL     OW14272   4.624   1.626   1.185
 4458SOL    HW114273   4.578   1.594   1.267
 4458SOL    HW214274   4.601   1.567   1.108
 4459SOL     OW14275   5.684   5.843   5.942
 4459SOL    HW114276   5.713   5.903   6.017
 4459SOL    HW214277   5.692   5.891   5.855
 4460SOL     OW14278   1.559   1.423   0.394
 4460SOL    HW114279   1.500   1.364   0.449
 4460SOL    HW214280   1.655   1.405   0.416
 4461SOL     OW14281   1.838   0.813   2.954
 4461SOL    HW114282   1.752   0.855   2.922
 4461SOL    HW214283   1.909   0.827   2.886
 4462SOL     OW14284   6.801   3.652   0.545
 4462SOL    HW114285   6.843   3.648   0.636
 4462SOL    HW214286   6.713   3.604   0.547
 4463SOL     OW14287   0.536   4.641   6.828
 4463SOL    HW114288   0.606   4.641   6.900
 4463SOL    HW214289   0.559   4.710   6.759
 4464SOL     OW14290   0.052   2.916   0.010
 4464SOL    HW114291   0.018   2.860   0.086
 4464SOL    HW214292   0.100   2.996   0.046
 4465SOL     OW14293   6.225   5.281   1.198
 4465SOL    HW114294   6.255   5.373   1.223
 4465SOL    HW214295   6.268   5.214   1.259
 4466SOL     OW14296   6.734   2.788   3.852
 4466SOL    HW114297   6.657   2.824   3.904
 4466SOL    HW214298   6.758   2.697   3.884
 4467SOL     OW14299   1.061   0.587   4.775
 4467SOL    HW114300   1.075   0.488   4.775
 4467SOL    HW214301   1.089   0.624   4.864
 4468SOL     OW14302   1.368   1.356   0.858
 4468SOL    HW114303   1.383   1.449   0.892
 4468SOL    HW214304   1.455   1.318   0.826
 4469SOL     OW14305   5.182   7.005   0.458
 4469SOL    HW114306   5.084   7.021   0.442
 4469SOL    HW214307   5.202   6.909   0.440
 4470SOL     OW14308   4.711   4.862   1.410
 4470SOL    HW114309   4.704   4.764   1.430
 4470SOL    HW214310   4.768   4.875   1.329
 4471SOL     OW14311   5.689   2.521   1.674
 4471SOL    HW114312   5.624   2.478   1.737
 4471SOL    HW214313   5.782   2.499   1.704
 4472SOL     OW14314   2.484   5.307   1.379
 4472SOL    HW114315   2.486   5.384   1.315
 4472SOL    HW214316   2.410   5.321   1.445
 4473SOL     OW14317   6.011   0.265   0.925
 4473SOL    HW114318   6.063   0.269   0.840
 4473SOL    HW214319   6.013   0.354   0.970
 4474SOL     OW14320   6.346   0.865   4.835
 4474SOL    HW114321   6.282   0.891   4.763
 4474SOL    HW214322   6.420   0.810   4.796
 4475SOL     OW14323   1.514   3.487   0.320
 4475SOL    HW114324   1.606   3.487   0.360
 4475SOL    HW214325   1.517   3.536   0.232
 4476SOL     OW14326   3.813   5.979   2.630
 4476SOL    HW114327   3.785   6.040   2.705
 4476SOL    HW214328   3.811   5.884   2.661
 4477SOL     OW14329   1.984   1.996   0.802
 4477SOL    HW114330   2.027   1.926   0.859
 4477SOL    HW214331   1.884   1.989   0.809
 4478SOL     OW14332   1.192   4.639   0.826
 4478SOL    HW114333   1.178   4.626   0.924
 4478SOL    HW214334   1.289   4.626   0.804
 4479SOL     OW14335   1.660   6.712   6.155
 4479SOL    HW114336   1.651   6.629   6.101
 4479SOL    HW214337   1.751   6.715   6.196
 4480SOL     OW14338   6.777   3.728   3.374
 4480SOL    HW114339   6.870   3.759   3.353
 4480SOL    HW214340   6.724   3.804   3.409
 4481SOL     OW14341   0.965   1.091   4.452
 4481SOL    HW114342   0.951   1.153   4.375
 4481SOL    HW214343   1.044   1.121   4.506
 4482SOL     OW14344   0.661   3.881   2.981
 4482SOL    HW114345   0.599   3.918   3.051
 4482SOL    HW214346   0.607   3.846   2.904
 4483SOL     OW14347   5.845   3.903   0.993
 4483SOL    HW114348   5.927   3.958   0.976
 4483SOL    HW214349   5.773   3.930   0.929
 4484SOL     OW14350   3.258   3.763   6.912
 4484SOL    HW114351   3.166   3.800   6.926
 4484SOL    HW214352   3.276   3.692   6.980
 4485SOL     OW14353   4.327   7.006   6.044
 4485SOL    HW114354   4.313   0.078   6.073
 4485SOL    HW214355   4.277   6.989   5.959
 4486SOL     OW14356   6.037   3.278   4.197
 4486SOL    HW114357   6.017   3.365   4.151
 4486SOL    HW214358   6.134   3.255   4.186
 4487SOL     OW14359   3.045   3.221   6.131
 4487SOL    HW114360   3.033   3.171   6.046
 4487SOL    HW214361   3.080   3.313   6.111
 4488SOL     OW14362   6.788   2.226   6.847
 4488SOL    HW114363   6.758   2.155   6.911
 4488SOL    HW214364   6.738   2.217   6.761
 4489SOL     OW14365   0.681   0.874   2.957
 4489SOL    HW114366   0.756   0.870   2.891
 4489SOL    HW214367   0.704   0.819   3.037
 4490SOL     OW14368   6.599   2.091   4.272
 4490SOL    HW114369   6.612   2.008   4.328
 4490SOL    HW214370   6.680   2.106   4.216
 4491SOL     OW14371   1.780   4.103   1.964
 4491SOL    HW114372   1.774   4.201   1.942
 4491SOL    HW214373   1.698   4.075   2.012
 4492SOL     OW14374   5.359   3.784   5.842
 4492SOL    HW114375   5.357   3.702   5.785
 4492SOL    HW214376   5.312   3.767   5.928
 4493SOL     OW14377   6.154   4.346   2.993
 4493SOL    HW114378   6.133   4.403   3.073
 4493SOL    HW214379   6.088   4.366   2.920
 4494SOL     OW14380   5.117   2.210   2.050
 4494SOL    HW114381   5.059   2.216   2.131
 4494SOL    HW214382   5.060   2.219   1.968
 4495SOL     OW14383   5.650   5.316   1.557
 4495SOL    HW114384   5.658   5.416   1.559
 4495SOL    HW214385   5.574   5.287   1.615
 4496SOL     OW14386   6.129   3.476   6.044
 4496SOL    HW114387   6.208   3.417   6.062
 4496SOL    HW214388   6.059   3.423   5.995
 4497SOL     OW14389   6.824   6.204   1.283
 4497SOL    HW114390   6.783   6.241   1.366
 4497SOL    HW214391   6.849   6.280   1.222
 4498SOL     OW14392   1.261   3.928   6.207
 4498SOL    HW114393   1.189   3.960   6.269
 4498SOL    HW214394   1.232   3.842   6.166
 4499SOL     OW14395   5.724   4.038   0.770
 4499SOL    HW114396   5.701   3.968   0.702
 4499SOL    HW214397   5.776   4.112   0.725
 4500SOL     OW14398   3.711   4.034   2.123
 4500SOL    HW114399   3.776   3.985   2.179
 4500SOL    HW214400   3.745   4.039   2.029
 4501SOL     OW14401   1.484   5.450   4.777
 4501SOL    HW114402   1.432   5.403   4.848
 4501SOL    HW214403   1.575   5.472   4.813
 4502SOL     OW14404   5.430   2.444   0.529
 4502SOL    HW114405   5.422   2.440   0.628
 4502SOL    HW214406   5.385   2.364   0.489
 4503SOL     OW14407   0.627   3.032   2.669
 4503SOL    HW114408   0.686   3.110   2.689
 4503SOL    HW214409   0.535   3.065   2.645
 4504SOL     OW14410   4.332   2.279   4.236
 4504SOL    HW114411   4.273   2.286   4.155
 4504SOL    HW214412   4.276   2.257   4.316
 4505SOL     OW14413   2.647   5.280   0.360
 4505SOL    HW114414   2.710   5.353   0.335
 4505SOL    HW214415   2.698   5.194   0.370
 4506SOL     OW14416   3.492   6.996   5.652
 4506SOL    HW114417   3.402   0.009   5.677
 4506SOL    HW214418   3.550   0.048   5.620
 4507SOL     OW14419   6.392   3.702   2.466
 4507SOL    HW114420   6.303   3.748   2.466
 4507SOL    HW214421   6.459   3.759   2.513
 4508SOL     OW14422   2.103   4.142   0.522
 4508SOL    HW114423   2.169   4.094   0.464
 4508SOL    HW214424   2.152   4.190   0.595
 4509SOL     OW14425   0.875   2.656   3.314
 4509SOL    HW114426   0.838   2.587   3.376
 4509SOL    HW214427   0.828   2.743   3.329
 4510SOL     OW14428   2.718   6.409   6.594
 4510SOL    HW114429   2.669   6.420   6.680
 4510SOL    HW214430   2.671   6.461   6.522
 4511SOL     OW14431   0.495   2.327   0.269
 4511SOL    HW114432   0.536   2.417   0.253
 4511SOL    HW214433   0.465   2.288   0.182
 4512SOL     OW14434   2.530   4.181   0.281
 4512SOL    HW114435   2.522   4.119   0.204
 4512SOL    HW214436   2.542   4.274   0.248
 4513SOL     OW14437   6.665   1.870   2.840
 4513SOL    HW114438   6.593   1.937   2.857
 4513SOL    HW214439   6.734   1.877   2.911
 4514SOL     OW14440   2.480   0.291   4.814
 4514SOL    HW114441   2.493   0.339   4.727
 4514SOL    HW214442   2.384   0.298   4.842
 4515SOL     OW14443   6.974   5.155   0.371
 4515SOL    HW114444   6.884   5.196   0.355
 4515SOL    HW214445   7.007   5.116   0.285
 4516SOL     OW14446   0.585   6.980   3.938
 4516SOL    HW114447   0.495   7.014   3.910
 4516SOL    HW214448   0.586   6.880   3.931
 4517SOL     OW14449   2.499   0.928   6.571
 4517SOL    HW114450   2.575   0.920   6.636
 4517SOL    HW214451   2.534   0.914   6.478
 4518SOL     OW14452   1.513   0.491   3.468
 4518SOL    HW114453   1.545   0.433   3.393
 4518SOL    HW214454   1.423   0.458   3.499
 4519SOL     OW14455   6.939   2.082   4.670
 4519SOL    HW114456   0.014   2.081   4.652
 4519SOL    HW214457   6.894   2.014   4.613
 4520SOL     OW14458   7.003   3.389   2.653
 4520SOL    HW114459   6.969   3.483   2.654
 4520SOL    HW214460   6.952   3.334   2.719
 4521SOL     OW14461   5.323   1.778   6.319
 4521SOL    HW114462   5.390   1.706   6.303
 4521SOL    HW214463   5.369   1.865   6.337
 4522SOL     OW14464   5.345   6.868   3.483
 4522SOL    HW114465   5.348   6.776   3.443
 4522SOL    HW214466   5.267   6.917   3.445
 4523SOL     OW14467   4.810   1.914   5.829
 4523SOL    HW114468   4.766   1.946   5.913
 4523SOL    HW214469   4.745   1.919   5.754
 4524SOL     OW14470   5.837   0.748   5.699
 4524SOL    HW114471   5.906   0.720   5.766
 4524SOL    HW214472   5.869   0.830   5.651
 4525SOL     OW14473   6.762   1.523   3.891
 4525SOL    HW114474   6.787   1.468   3.971
 4525SOL    HW214475   6.675   1.489   3.854
 4526SOL     OW14476   2.850   1.778   1.483
 4526SOL    HW114477   2.895   1.842   1.546
 4526SOL    HW214478   2.915   1.710   1.452
 4527SOL     OW14479   4.426   6.257   3.847
 4527SOL    HW114480   4.471   6.178   3.805
 4527SOL    HW214481   4.329   6.238   3.859
 4528SOL     OW14482   4.584   0.247   6.152
 4528SOL    HW114483   4.597   0.237   6.250
 4528SOL    HW214484   4.503   0.304   6.135
 4529SOL     OW14485   3.286   0.256   4.039
 4529SOL    HW114486   3.305   0.162   4.010
 4529SOL    HW214487   3.372   0.306   4.051
 4530SOL     OW14488   6.265   2.533   4.174
 4530SOL    HW114489   6.314   2.473   4.237
 4530SOL    HW214490   6.229   2.480   4.097
 4531SOL     OW14491   0.268   3.741   4.021
 4531SOL    HW114492   0.262   3.657   4.076
 4531SOL    HW214493   0.328   3.807   4.067
 4532SOL     OW14494   0.581   2.593   0.502
 4532SOL    HW114495   0.488   2.557   0.492
 4532SOL    HW214496   0.581   2.666   0.571
 4533SOL     OW14497   3.469   6.541   2.015
 4533SOL    HW114498   3.457   6.641   2.008
 4533SOL    HW214499   3.481   6.516   2.111
 4534SOL     OW14500   6.531   4.007   6.053
 4534SOL    HW114501   6.574   3.919   6.034
 4534SOL    HW214502   6.591   4.062   6.112
 4535SOL     OW14503   5.239   2.203   2.633
 4535SOL    HW114504   5.328   2.159   2.646
 4535SOL    HW214505   5.181   2.183   2.712
 4536SOL     OW14506   0.039   0.173   3.714
 4536SOL    HW114507   0.018   0.188   3.811
 4536SOL    HW214508   0.084   0.254   3.677
 4537SOL     OW14509   4.561   2.947   5.515
 4537SOL    HW114510   4.651   2.986   5.493
 4537SOL    HW214511   4.560   2.919   5.611
 4538SOL     OW14512   3.519   2.269   1.608
 4538SOL    HW114513   3.465   2.346   1.575
 4538SOL    HW214514   3.571   2.298   1.689
 4539SOL     OW14515   2.356   2.988   1.335
 4539SOL    HW114516   2.280   2.991   1.400
 4539SOL    HW214517   2.401   3.077   1.332
 4540SOL     OW14518   3.496   2.927   4.750
 4540SOL    HW114519   3.456   2.912   4.840
 4540SOL    HW214520   3.429   2.970   4.690
 4541SOL     OW14521   6.016   1.506   1.777
 4541SOL    HW114522   6.101   1.552   1.751
 4541SOL    HW214523   6.037   1.431   1.840
 4542SOL     OW14524   5.129   6.558   3.537
 4542SOL    HW114525   5.188   6.570   3.457
 4542SOL    HW214526   5.066   6.635   3.544
 4543SOL     OW14527   5.545   2.656   2.592
 4543SOL    HW114528   5.457   2.699   2.614
 4543SOL    HW214529   5.585   2.700   2.512
 4544SOL     OW14530   5.725   4.832   6.564
 4544SOL    HW114531   5.814   4.843   6.607
 4544SOL    HW214532   5.654   4.826   6.635
 4545SOL     OW14533   3.704   3.833   6.666
 4545SOL    HW114534   3.784   3.774   6.679
 4545SOL    HW214535   3.641   3.790   6.602
 4546SOL     OW14536   0.589   6.066   0.507
 4546SOL    HW114537   0.611   5.969   0.493
 4546SOL    HW214538   0.554   6.105   0.421
 4547SOL     OW14539   4.541   1.314   2.803
 4547SOL    HW114540   4.491   1.243   2.752
 4547SOL    HW214541   4.637   1.289   2.809
 4548SOL     OW14542   0.935   3.228   4.270
 4548SOL    HW114543   0.938   3.327   4.252
 4548SOL    HW214544   1.000   3.206   4.342
 4549SOL     OW14545   5.662   1.375   2.353
 4549SOL    HW114546   5.719   1.427   2.417
 4549SOL    HW214547   5.719   1.316   2.297
 4550SOL     OW14548   2.255   5.151   4.728
 4550SOL    HW114549   2.295   5.091   4.798
 4550SOL    HW214550   2.209   5.096   4.659
 4551SOL     OW14551   6.489   3.876   0.764
 4551SOL    HW114552   6.455   3.963   0.800
 4551SOL    HW214553   6.559   3.840   0.825
 4552SOL     OW14554   6.955   3.147   4.925
 4552SOL    HW114555   6.919   3.093   5.002
 4552SOL    HW214556   0.029   3.166   4.940
 4553SOL     OW14557   5.498   4.829   6.743
 4553SOL    HW114558   5.469   4.733   6.736
 4553SOL    HW214559   5.455   4.871   6.823
 4554SOL     OW14560   6.371   6.318   3.762
 4554SOL    HW114561   6.407   6.285   3.675
 4554SOL    HW214562   6.422   6.399   3.790
 4555SOL     OW14563   3.988   3.226   0.463
 4555SOL    HW114564   3.927   3.203   0.538
 4555SOL    HW214565   4.071   3.170   0.470
 4556SOL     OW14566   4.323   0.391   5.279
 4556SOL    HW114567   4.306   0.490   5.287
 4556SOL    HW214568   4.371   0.373   5.193
 4557SOL     OW14569   5.435   1.358   4.359
 4557SOL    HW114570   5.470   1.270   4.329
 4557SOL    HW214571   5.358   1.386   4.302
 4558SOL     OW14572   0.281   3.003   6.432
 4558SOL    HW114573   0.225   2.938   6.484
 4558SOL    HW214574   0.373   2.965   6.421
 4559SOL     OW14575   1.561   6.274   1.392
 4559SOL    HW114576   1.515   6.332   1.458
 4559SOL    HW214577   1.614   6.330   1.329
 4560SOL     OW14578   5.560   2.972   2.520
 4560SOL    HW114579   5.555   2.896   2.456
 4560SOL    HW214580   5.630   2.954   2.589
 4561SOL     OW14581   3.380   6.301   6.317
 4561SOL    HW114582   3.338   6.367   6.254
 4561SOL    HW214583   3.319   6.286   6.395
 4562SOL     OW14584   2.679   4.182   6.005
 4562SOL    HW114585   2.676   4.139   5.915
 4562SOL    HW214586   2.593   4.166   6.053
 4563SOL     OW14587   5.917   2.862   0.072
 4563SOL    HW114588   6.011   2.882   0.044
 4563SOL    HW214589   5.909   2.872   0.171
 4564SOL     OW14590   6.970   5.096   0.037
 4564SOL    HW114591   6.883   5.073   0.081
 4564SOL    HW214592   0.005   5.014   0.034
 4565SOL     OW14593   3.199   1.209   3.857
 4565SOL    HW114594   3.193   1.158   3.943
 4565SOL    HW214595   3.114   1.198   3.806
 4566SOL     OW14596   1.888   0.859   0.818
 4566SOL    HW114597   1.881   0.919   0.898
 4566SOL    HW214598   1.815   0.880   0.754
 4567SOL     OW14599   5.517   1.837   0.495
 4567SOL    HW114600   5.443   1.895   0.461
 4567SOL    HW214601   5.488   1.791   0.579
 4568SOL     OW14602   4.719   4.723   3.999
 4568SOL    HW114603   4.750   4.818   4.000
 4568SOL    HW214604   4.621   4.720   4.018
 4569SOL     OW14605   1.288   2.037   4.015
 4569SOL    HW114606   1.189   2.046   4.002
 4569SOL    HW214607   1.307   1.959   4.074
 4570SOL     OW14608   5.558   5.800   4.970
 4570SOL    HW114609   5.633   5.834   4.913
 4570SOL    HW214610   5.471   5.828   4.930
 4571SOL     OW14611   3.920   3.070   4.088
 4571SOL    HW114612   3.839   3.016   4.114
 4571SOL    HW214613   3.931   3.068   3.989
 4572SOL     OW14614   2.733   5.440   1.113
 4572SOL    HW114615   2.688   5.352   1.102
 4572SOL    HW214616   2.686   5.493   1.183
 4573SOL     OW14617   4.947   0.316   1.490
 4573SOL    HW114618   4.961   0.409   1.456
 4573SOL    HW214619   4.903   0.261   1.419
 4574SOL     OW14620   0.377   4.520   1.882
 4574SOL    HW114621   0.385   4.510   1.981
 4574SOL    HW214622   0.342   4.435   1.842
 4575SOL     OW14623   0.022   5.935   1.764
 4575SOL    HW114624   0.103   5.963   1.815
 4575SOL    HW214625   6.982   5.889   1.826
 4576SOL     OW14626   3.272   6.399   4.219
 4576SOL    HW114627   3.359   6.351   4.221
 4576SOL    HW214628   3.245   6.416   4.124
 4577SOL     OW14629   2.038   3.815   3.815
 4577SOL    HW114630   2.119   3.874   3.810
 4577SOL    HW214631   1.956   3.872   3.816
 4578SOL     OW14632   6.338   6.015   3.398
 4578SOL    HW114633   6.339   5.924   3.440
 4578SOL    HW214634   6.243   6.038   3.374
 4579SOL     OW14635   4.734   1.603   3.579
 4579SOL    HW114636   4.654   1.663   3.582
 4579SOL    HW214637   4.716   1.521   3.632
 4580SOL     OW14638   0.319   5.371   6.931
 4580SOL    HW114639   0.295   5.340   7.023
 4580SOL    HW214640   0.303   5.297   6.865
 4581SOL     OW14641   3.432   6.033   4.739
 4581SOL    HW114642   3.482   5.958   4.696
 4581SOL    HW214643   3.334   6.019   4.727
 4582SOL     OW14644   4.886   6.565   3.294
 4582SOL    HW114645   4.910   6.531   3.385
 4582SOL    HW214646   4.787   6.575   3.288
 4583SOL     OW14647   3.260   0.305   5.558
 4583SOL    HW114648   3.264   0.224   5.616
 4583SOL    HW214649   3.318   0.292   5.478
 4584SOL     OW14650   6.843   5.251   5.320
 4584SOL    HW114651   6.856   5.283   5.414
 4584SOL    HW214652   6.926   5.268   5.267
 4585SOL     OW14653   3.194   6.317   2.208
 4585SOL    HW114654   3.169   6.390   2.145
 4585SOL    HW214655   3.132   6.239   2.195
 4586SOL     OW14656   2.184   6.315   1.480
 4586SOL    HW114657   2.245   6.394   1.476
 4586SOL    HW214658   2.187   6.275   1.572
 4587SOL     OW14659   2.631   4.956   0.408
 4587SOL    HW114660   2.721   4.991   0.434
 4587SOL    HW214661   2.565   4.977   0.481
 4588SOL     OW14662   3.545   4.287   5.175
 4588SOL    HW114663   3.482   4.323   5.244
 4588SOL    HW214664   3.637   4.325   5.191
 4589SOL     OW14665   1.879   2.079   3.781
 4589SOL    HW114666   1.953   2.043   3.839
 4589SOL    HW214667   1.918   2.139   3.711
 4590SOL     OW14668   3.753   6.365   2.953
 4590SOL    HW114669   3.793   6.385   3.043
 4590SOL    HW214670   3.799   6.421   2.884
 4591SOL     OW14671   5.040   5.897   4.782
 4591SOL    HW114672   5.053   5.965   4.710
 4591SOL    HW214673   5.013   5.943   4.867
 4592SOL     OW14674   3.466   1.628   6.011
 4592SOL    HW114675   3.552   1.594   5.972
 4592SOL    HW214676   3.426   1.558   6.069
 4593SOL     OW14677   4.503   6.395   1.819
 4593SOL    HW114678   4.579   6.331   1.826
 4593SOL    HW214679   4.535   6.488   1.841
 4594SOL     OW14680   4.198   2.344   2.754
 4594SOL    HW114681   4.152   2.389   2.678
 4594SOL    HW214682   4.154   2.256   2.772
 4595SOL     OW14683   4.430   3.322   5.706
 4595SOL    HW114684   4.370   3.322   5.785
 4595SOL    HW214685   4.430   3.413   5.664
 4596SOL     OW14686   5.063   0.454   2.653
 4596SOL    HW114687   5.103   0.501   2.575
 4596SOL    HW214688   4.996   0.387   2.622
 4597SOL     OW14689   6.608   3.691   5.736
 4597SOL    HW114690   6.685   3.639   5.774
 4597SOL    HW214691   6.539   3.705   5.807
 4598SOL     OW14692   2.507   3.917   6.658
 4598SOL    HW114693   2.509   3.875   6.567
 4598SOL    HW214694   2.436   3.874   6.713
 4599SOL     OW14695   3.455   5.380   0.584
 4599SOL    HW114696   3.364   5.358   0.549
 4599SOL    HW214697   3.512   5.298   0.582
 4600SOL     OW14698   2.690   3.782   0.784
 4600SOL    HW114699   2.665   3.687   0.768
 4600SOL    HW214700   2.645   3.815   0.867
 4601SOL     OW14701   2.112   5.183   3.636
 4601SOL    HW114702   2.029   5.237   3.617
 4601SOL    HW214703   2.095   5.123   3.714
 4602SOL     OW14704   1.534   6.815   1.402
 4602SOL    HW114705   1.582   6.768   1.476
 4602SOL    HW214706   1.585   6.803   1.316
 4603SOL     OW14707   2.995   1.246   2.086
 4603SOL    HW114708   2.947   1.183   2.025
 4603SOL    HW214709   3.094   1.228   2.083
 4604SOL     OW14710   1.430   6.973   3.371
 4604SOL    HW114711   1.502   7.016   3.317
 4604SOL    HW214712   1.361   6.934   3.309
 4605SOL     OW14713   5.127   6.357   5.639
 4605SOL    HW114714   5.208   6.323   5.688
 4605SOL    HW214715   5.143   6.453   5.613
 4606SOL     OW14716   6.568   6.579   4.248
 4606SOL    HW114717   6.577   6.616   4.340
 4606SOL    HW214718   6.487   6.618   4.204
 4607SOL     OW14719   3.053   3.258   0.913
 4607SOL    HW114720   3.065   3.159   0.921
 4607SOL    HW214721   3.057   3.300   1.004
 4608SOL     OW14722   1.167   3.355   5.871
 4608SOL    HW114723   1.260   3.369   5.836
 4608SOL    HW214724   1.135   3.264   5.845
 4609SOL     OW14725   3.007   0.169   0.521
 4609SOL    HW114726   2.919   0.178   0.568
 4609SOL    HW214727   3.017   0.074   0.490
 4610SOL     OW14728   6.834   3.629   0.164
 4610SOL    HW114729   6.841   3.727   0.178
 4610SOL    HW214730   6.831   3.609   0.066
 4611SOL     OW14731   1.886   5.058   6.457
 4611SOL    HW114732   1.810   4.997   6.481
 4611SOL    HW214733   1.941   5.076   6.539
 4612SOL     OW14734   1.748   0.509   6.444
 4612SOL    HW114735   1.845   0.517   6.419
 4612SOL    HW214736   1.723   0.585   6.503
 4613SOL     OW14737   3.938   5.104   1.444
 4613SOL    HW114738   3.964   5.012   1.474
 4613SOL    HW214739   3.873   5.098   1.368
 4614SOL     OW14740   2.117   4.875   6.829
 4614SOL    HW114741   2.183   4.843   6.761
 4614SOL    HW214742   2.164   4.894   6.915
 4615SOL     OW14743   6.076   3.139   6.455
 4615SOL    HW114744   6.114   3.214   6.509
 4615SOL    HW214745   5.996   3.100   6.502
 4616SOL     OW14746   5.477   1.092   6.940
 4616SOL    HW114747   5.549   1.023   6.939
 4616SOL    HW214748   5.412   1.070   7.013
 4617SOL     OW14749   0.184   4.058   1.448
 4617SOL    HW114750   0.194   4.011   1.361
 4617SOL    HW214751   0.095   4.036   1.488
 4618SOL     OW14752   1.002   3.428   6.366
 4618SOL    HW114753   0.924   3.454   6.310
 4618SOL    HW214754   1.079   3.490   6.346
 4619SOL     OW14755   4.081   0.780   3.807
 4619SOL    HW114756   4.039   0.690   3.821
 4619SOL    HW214757   4.181   0.770   3.805
 4620SOL     OW14758   1.807   6.064   0.208
 4620SOL    HW114759   1.775   6.110   0.291
 4620SOL    HW214760   1.898   6.027   0.224
 4621SOL     OW14761   6.430   0.591   6.377
 4621SOL    HW114762   6.346   0.642   6.393
 4621SOL    HW214763   6.416   0.523   6.305
 4622SOL     OW14764   1.839   4.148   0.591
 4622SOL    HW114765   1.933   4.148   0.558
 4622SOL    HW214766   1.828   4.079   0.662
 4623SOL     OW14767   5.427   3.474   3.637
 4623SOL    HW114768   5.445   3.563   3.678
 4623SOL    HW214769   5.405   3.408   3.709
 4624SOL     OW14770   4.534   6.688   6.100
 4624SOL    HW114771   4.566   6.783   6.101
 4624SOL    HW214772   4.506   6.661   6.192
 4625SOL     OW14773   1.125   4.022   6.448
 4625SOL    HW114774   1.129   3.928   6.481
 4625SOL    HW214775   1.079   4.079   6.517
 4626SOL     OW14776   5.736   4.413   2.227
 4626SOL    HW114777   5.811   4.398   2.163
 4626SOL    HW214778   5.766   4.475   2.300
 4627SOL     OW14779   2.043   6.839   4.675
 4627SOL    HW114780   2.073   6.756   4.723
 4627SOL    HW214781   1.979   6.814   4.602
 4628SOL     OW14782   6.583   2.845   1.873
 4628SOL    HW114783   6.659   2.836   1.938
 4628SOL    HW214784   6.602   2.922   1.812
 4629SOL     OW14785   3.885   5.292   4.426
 4629SOL    HW114786   3.824   5.230   4.377
 4629SOL    HW214787   3.884   5.270   4.524
 4630SOL     OW14788   2.474   6.324   2.667
 4630SOL    HW114789   2.478   6.294   2.571
 4630SOL    HW214790   2.452   6.421   2.671
 4631SOL     OW14791   2.077   1.295   2.800
 4631SOL    HW114792   2.005   1.278   2.733
 4631SOL    HW214793   2.167   1.290   2.754
 4632SOL     OW14794   5.422   6.145   4.077
 4632SOL    HW114795   5.366   6.195   4.143
 4632SOL    HW214796   5.490   6.091   4.127
 4633SOL     OW14797   5.243   2.931   5.896
 4633SOL    HW114798   5.278   3.018   5.928
 4633SOL    HW214799   5.163   2.946   5.838
 4634SOL     OW14800   2.832   4.254   0.112
 4634SOL    HW114801   2.852   4.288   0.020
 4634SOL    HW214802   2.754   4.305   0.149
 4635SOL     OW14803   5.058   3.570   1.620
 4635SOL    HW114804   5.011   3.540   1.703
 4635SOL    HW214805   5.010   3.649   1.581
 4636SOL     OW14806   0.657   5.157   1.825
 4636SOL    HW114807   0.596   5.231   1.797
 4636SOL    HW214808   0.732   5.149   1.760
 4637SOL     OW14809   1.065   0.678   5.613
 4637SOL    HW114810   1.094   0.612   5.544
 4637SOL    HW214811   1.067   0.770   5.574
 4638SOL     OW14812   4.410   5.075   5.791
 4638SOL    HW114813   4.376   5.104   5.701
 4638SOL    HW214814   4.504   5.106   5.802
 4639SOL     OW14815   6.781   1.968   5.225
 4639SOL    HW114816   6.836   2.051   5.230
 4639SOL    HW214817   6.696   1.980   5.275
 4640SOL     OW14818   6.340   5.156   3.055
 4640SOL    HW114819   6.407   5.193   3.118
 4640SOL    HW214820   6.379   5.076   3.008
 4641SOL     OW14821   2.387   3.789   5.385
 4641SOL    HW114822   2.324   3.724   5.342
 4641SOL    HW214823   2.425   3.850   5.316
 4642SOL     OW14824   5.672   5.634   4.097
 4642SOL    HW114825   5.665   5.600   4.191
 4642SOL    HW214826   5.629   5.569   4.035
 4643SOL     OW14827   4.582   3.643   1.303
 4643SOL    HW114828   4.616   3.651   1.209
 4643SOL    HW214829   4.624   3.564   1.347
 4644SOL     OW14830   3.381   4.994   5.563
 4644SOL    HW114831   3.450   4.961   5.629
 4644SOL    HW214832   3.421   4.995   5.471
 4645SOL     OW14833   1.360   6.309   4.696
 4645SOL    HW114834   1.395   6.260   4.616
 4645SOL    HW214835   1.287   6.255   4.739
 4646SOL     OW14836   3.295   0.749   1.061
 4646SOL    HW114837   3.274   0.846   1.072
 4646SOL    HW214838   3.392   0.737   1.041
 4647SOL     OW14839   6.647   0.451   5.093
 4647SOL    HW114840   6.721   0.476   5.155
 4647SOL    HW214841   6.659   0.357   5.062
 4648SOL     OW14842   2.131   6.267   3.509
 4648SOL    HW114843   2.077   6.350   3.501
 4648SOL    HW214844   2.141   6.225   3.419
 4649SOL     OW14845   5.694   6.041   5.736
 4649SOL    HW114846   5.723   6.120   5.790
 4649SOL    HW214847   5.767   6.016   5.672
 4650SOL     OW14848   6.454   4.638   1.425
 4650SOL    HW114849   6.371   4.649   1.481
 4650SOL    HW214850   6.519   4.711   1.447
 4651SOL     OW14851   6.021   2.369   2.053
 4651SOL    HW114852   6.121   2.375   2.042
 4651SOL    HW214853   5.978   2.388   1.965
 4652SOL     OW14854   0.139   6.127   5.720
 4652SOL    HW114855   0.131   6.028   5.708
 4652SOL    HW214856   0.209   6.162   5.659
 4653SOL     OW14857   1.098   4.946   0.156
 4653SOL    HW114858   1.048   5.014   0.209
 4653SOL    HW214859   1.035   4.902   0.091
 4654SOL     OW14860   1.322   1.895   0.310
 4654SOL    HW114861   1.277   1.884   0.221
 4654SOL    HW214862   1.405   1.839   0.312
 4655SOL     OW14863   0.443   4.888   4.112
 4655SOL    HW114864   0.445   4.903   4.013
 4655SOL    HW214865   0.534   4.904   4.150
 4656SOL     OW14866   2.694   0.173   3.164
 4656SOL    HW114867   2.706   0.089   3.111
 4656SOL    HW214868   2.739   0.249   3.118
 4657SOL     OW14869   6.217   0.910   6.119
 4657SOL    HW114870   6.129   0.925   6.073
 4657SOL    HW214871   6.204   0.844   6.193
 4658SOL     OW14872   5.268   0.271   3.502
 4658SOL    HW114873   5.246   0.353   3.555
 4658SOL    HW214874   5.286   0.195   3.565
 4659SOL     OW14875   2.163   3.381   4.748
 4659SOL    HW114876   2.074   3.387   4.794
 4659SOL    HW214877   2.193   3.473   4.723
 4660SOL     OW14878   6.377   1.251   5.347
 4660SOL    HW114879   6.305   1.296   5.294
 4660SOL    HW214880   6.451   1.223   5.286
 4661SOL     OW14881   3.920   3.079   3.813
 4661SOL    HW114882   3.980   3.148   3.772
 4661SOL    HW214883   3.894   3.011   3.744
 4662SOL     OW14884   6.213   6.215   4.290
 4662SOL    HW114885   6.291   6.254   4.240
 4662SOL    HW214886   6.174   6.140   4.237
 4663SOL     OW14887   0.755   2.396   2.406
 4663SOL    HW114888   0.762   2.316   2.346
 4663SOL    HW214889   0.759   2.367   2.501
 4664SOL     OW14890   3.624   4.099   6.965
 4664SOL    HW114891   3.613   4.007   6.928
 4664SOL    HW214892   3.544   4.154   6.941
 4665SOL     OW14893   5.855   0.337   5.758
 4665SOL    HW114894   5.825   0.393   5.835
 4665SOL    HW214895   5.816   0.246   5.765
 4666SOL     OW14896   1.830   1.416   0.473
 4666SOL    HW114897   1.874   1.331   0.501
 4666SOL    HW214898   1.899   1.478   0.435
 4667SOL     OW14899   0.436   6.226   4.042
 4667SOL    HW114900   0.342   6.193   4.055
 4667SOL    HW214901   0.497   6.148   4.027
 4668SOL     OW14902   5.281   0.709   4.892
 4668SOL    HW114903   5.314   0.802   4.874
 4668SOL    HW214904   5.290   0.688   4.989
 4669SOL     OW14905   1.911   1.859   2.241
 4669SOL    HW114906   1.862   1.946   2.241
 4669SOL    HW214907   1.846   1.783   2.244
 4670SOL     OW14908   2.096   1.798   4.426
 4670SOL    HW114909   2.000   1.789   4.397
 4670SOL    HW214910   2.109   1.887   4.469
 4671SOL     OW14911   6.065   1.980   2.834
 4671SOL    HW114912   6.107   2.058   2.880
 4671SOL    HW214913   6.036   2.007   2.742
 4672SOL     OW14914   2.887   2.235   5.158
 4672SOL    HW114915   2.893   2.136   5.170
 4672SOL    HW214916   2.979   2.274   5.159
 4673SOL     OW14917   5.175   0.577   2.372
 4673SOL    HW114918   5.237   0.499   2.364
 4673SOL    HW214919   5.223   0.654   2.413
 4674SOL     OW14920   4.789   6.211   4.991
 4674SOL    HW114921   4.800   6.293   4.934
 4674SOL    HW214922   4.789   6.130   4.933
 4675SOL     OW14923   0.827   4.568   6.948
 4675SOL    HW114924   0.918   4.590   6.984
 4675SOL    HW214925   0.827   4.475   6.911
 4676SOL     OW14926   1.221   4.084   4.097
 4676SOL    HW114927   1.254   4.158   4.039
 4676SOL    HW214928   1.272   4.000   4.077
 4677SOL     OW14929   1.442   3.517   0.871
 4677SOL    HW114930   1.495   3.476   0.796
 4677SOL    HW214931   1.487   3.601   0.901
 4678SOL     OW14932   1.174   2.785   1.399
 4678SOL    HW114933   1.249   2.850   1.391
 4678SOL    HW214934   1.102   2.809   1.334
 4679SOL     OW14935   4.523   0.419   2.574
 4679SOL    HW114936   4.484   0.373   2.654
 4679SOL    HW214937   4.449   0.454   2.516
 4680SOL     OW14938   2.076   0.915   6.593
 4680SOL    HW114939   2.046   0.936   6.499
 4680SOL    HW214940   2.155   0.972   6.616
 4681SOL     OW14941   4.564   5.729   2.530
 4681SOL    HW114942   4.533   5.640   2.563
 4681SOL    HW214943   4.586   5.723   2.433
 4682SOL     OW14944   3.409   3.193   6.015
 4682SOL    HW114945   3.474   3.117   6.011
 4682SOL    HW214946   3.364   3.194   6.105
 4683SOL     OW14947   6.668   4.273   3.897
 4683SOL    HW114948   6.711   4.182   3.894
 4683SOL    HW214949   6.575   4.264   3.934
 4684SOL     OW14950   5.383   0.113   5.446
 4684SOL    HW114951   5.452   0.186   5.445
 4684SOL    HW214952   5.311   0.134   5.380
 4685SOL     OW14953   3.068   4.042   4.604
 4685SOL    HW114954   2.970   4.033   4.620
 4685SOL    HW214955   3.113   4.070   4.689
 4686SOL     OW14956   1.418   6.844   6.982
 4686SOL    HW114957   1.434   6.791   0.043
 4686SOL    HW214958   1.342   6.803   6.931
 4687SOL     OW14959   1.568   0.720   2.557
 4687SOL    HW114960   1.526   0.768   2.635
 4687SOL    HW214961   1.525   0.750   2.472
 4688SOL     OW14962   4.799   2.923   4.941
 4688SOL    HW114963   4.851   3.003   4.911
 4688SOL    HW214964   4.767   2.937   5.035
 4689SOL     OW14965   6.739   0.960   1.193
 4689SOL    HW114966   6.704   1.053   1.188
 4689SOL    HW214967   6.838   0.961   1.180
 4690SOL     OW14968   3.581   2.440   0.997
 4690SOL    HW114969   3.548   2.384   0.920
 4690SOL    HW214970   3.511   2.442   1.069
 4691SOL     OW14971   6.369   3.638   1.938
 4691SOL    HW114972   6.419   3.704   1.994
 4691SOL    HW214973   6.326   3.570   1.998
 4692SOL     OW14974   5.252   2.941   2.371
 4692SOL    HW114975   5.320   2.883   2.326
 4692SOL    HW214976   5.290   3.033   2.384
 4693SOL     OW14977   0.369   0.199   3.581
 4693SOL    HW114978   0.310   0.150   3.518
 4693SOL    HW214979   0.424   0.266   3.530
 4694SOL     OW14980   2.248   6.725   5.870
 4694SOL    HW114981   2.235   6.692   5.964
 4694SOL    HW214982   2.170   6.783   5.844
 4695SOL     OW14983   2.139   4.954   2.209
 4695SOL    HW114984   2.236   4.969   2.225
 4695SOL    HW214985   2.126   4.876   2.148
 4696SOL     OW14986   1.831   6.656   5.864
 4696SOL    HW114987   1.757   6.599   5.827
 4696SOL    HW214988   1.881   6.605   5.934
 4697SOL     OW14989   4.559   5.678   0.629
 4697SOL    HW114990   4.585   5.586   0.656
 4697SOL    HW214991   4.641   5.730   0.604
 4698SOL     OW14992   5.348   1.408   4.621
 4698SOL    HW114993   5.383   1.400   4.527
 4698SOL    HW214994   5.259   1.455   4.619
 4699SOL     OW14995   0.988   1.345   2.571
 4699SOL    HW114996   1.015   1.439   2.593
 4699SOL    HW214997   0.944   1.303   2.650
 4700SOL     OW14998   6.427   2.072   3.247
 4700SOL    HW114999   6.370   2.125   3.309
 4700SOL    HW215000   6.372   2.003   3.201
 4701SOL     OW15001   3.094   2.706   1.779
 4701SOL    HW115002   3.037   2.629   1.806
 4701SOL    HW215003   3.045   2.761   1.711
 4702SOL     OW15004   6.383   4.959   1.111
 4702SOL    HW115005   6.302   5.006   1.077
 4702SOL    HW215006   6.375   4.861   1.091
 4703SOL     OW15007   0.241   4.993   3.638
 4703SOL    HW115008   0.283   4.985   3.548
 4703SOL    HW215009   0.192   5.081   3.644
 4704SOL     OW15010   1.788   4.645   4.489
 4704SOL    HW115011   1.768   4.667   4.584
 4704SOL    HW215012   1.706   4.607   4.446
 4705SOL     OW15013   3.219   2.212   1.767
 4705SOL    HW115014   3.173   2.260   1.693
 4705SOL    HW215015   3.273   2.137   1.729
 4706SOL     OW15016   1.904   2.119   1.122
 4706SOL    HW115017   1.897   2.020   1.129
 4706SOL    HW215018   1.819   2.162   1.155
 4707SOL     OW15019   1.979   5.302   1.905
 4707SOL    HW115020   1.996   5.400   1.908
 4707SOL    HW215021   1.970   5.273   1.809
 4708SOL     OW15022   2.095   3.028   6.208
 4708SOL    HW115023   2.096   2.976   6.293
 4708SOL    HW215024   2.104   3.125   6.229
 4709SOL     OW15025   5.649   3.743   5.054
 4709SOL    HW115026   5.616   3.836   5.071
 4709SOL    HW215027   5.733   3.727   5.104
 4710SOL     OW15028   5.676   5.557   5.441
 4710SOL    HW115029   5.764   5.606   5.443
 4710SOL    HW215030   5.682   5.480   5.378
 4711SOL     OW15031   5.165   4.489   2.971
 4711SOL    HW115032   5.256   4.500   3.012
 4711SOL    HW215033   5.098   4.476   3.044
 4712SOL     OW15034   3.929   4.571   5.746
 4712SOL    HW115035   3.952   4.668   5.753
 4712SOL    HW215036   3.830   4.560   5.752
 4713SOL     OW15037   5.385   4.550   0.955
 4713SOL    HW115038   5.343   4.506   1.034
 4713SOL    HW215039   5.441   4.483   0.906
 4714SOL     OW15040   4.370   1.733   5.848
 4714SOL    HW115041   4.316   1.651   5.829
 4714SOL    HW215042   4.378   1.747   5.946
 4715SOL     OW15043   6.677   1.910   2.283
 4715SOL    HW115044   6.685   2.003   2.250
 4715SOL    HW215045   6.766   1.879   2.317
 4716SOL     OW15046   3.476   4.420   5.523
 4716SOL    HW115047   3.382   4.393   5.505
 4716SOL    HW215048   3.514   4.364   5.597
 4717SOL     OW15049   2.099   4.961   5.899
 4717SOL    HW115050   2.042   4.903   5.840
 4717SOL    HW215051   2.081   5.057   5.879
 4718SOL     OW15052   4.831   3.979   2.339
 4718SOL    HW115053   4.798   3.889   2.309
 4718SOL    HW215054   4.805   4.048   2.272
 4719SOL     OW15055   5.973   4.093   3.808
 4719SOL    HW115056   5.931   4.183   3.818
 4719SOL    HW215057   5.947   4.054   3.720
 4720SOL     OW15058   1.323   2.284   6.615
 4720SOL    HW115059   1.302   2.201   6.667
 4720SOL    HW215060   1.378   2.260   6.535
 4721SOL     OW15061   0.320   2.790   2.536
 4721SOL    HW115062   0.389   2.719   2.551
 4721SOL    HW215063   0.301   2.838   2.621
 4722SOL     OW15064   1.419   5.344   5.951
 4722SOL    HW115065   1.433   5.420   6.015
 4722SOL    HW215066   1.324   5.314   5.955
 4723SOL     OW15067   2.718   5.020   6.498
 4723SOL    HW115068   2.746   5.013   6.594
 4723SOL    HW215069   2.675   5.109   6.482
 4724SOL     OW15070   0.200   6.865   4.104
 4724SOL    HW115071   0.190   6.953   4.152
 4724SOL    HW215072   0.216   6.792   4.171
 4725SOL     OW15073   6.179   4.960   1.348
 4725SOL    HW115074   6.102   4.906   1.315
 4725SOL    HW215075   6.256   4.951   1.285
 4726SOL     OW15076   1.566   2.798   5.745
 4726SOL    HW115077   1.556   2.699   5.747
 4726SOL    HW215078   1.658   2.822   5.717
 4727SOL     OW15079   6.430   5.532   1.518
 4727SOL    HW115080   6.357   5.596   1.496
 4727SOL    HW215081   6.516   5.564   1.477
 4728SOL     OW15082   5.185   0.586   3.413
 4728SOL    HW115083   5.093   0.560   3.442
 4728SOL    HW215084   5.215   0.667   3.462
 4729SOL     OW15085   7.004   1.101   2.588
 4729SOL    HW115086   0.034   1.169   2.539
 4729SOL    HW215087   6.925   1.144   2.632
 4730SOL     OW15088   3.322   0.851   3.465
 4730SOL    HW115089   3.296   0.914   3.538
 4730SOL    HW215090   3.287   0.760   3.486
 4731SOL     OW15091   3.453   6.839   1.982
 4731SOL    HW115092   3.445   6.925   2.032
 4731SOL    HW215093   3.410   6.848   1.892
 4732SOL     OW15094   0.229   5.068   4.794
 4732SOL    HW115095   0.256   5.044   4.887
 4732SOL    HW215096   0.281   5.014   4.729
 4733SOL     OW15097   1.358   4.123   3.087
 4733SOL    HW115098   1.347   4.171   3.000
 4733SOL    HW215099   1.381   4.028   3.070
 4734SOL     OW15100   4.557   4.077   6.514
 4734SOL    HW115101   4.483   4.018   6.545
 4734SOL    HW215102   4.608   4.111   6.593
 4735SOL     OW15103   6.813   0.499   5.328
 4735SOL    HW115104   6.800   0.568   5.399
 4735SOL    HW215105   6.895   0.445   5.348
 4736SOL     OW15106   6.395   0.618   4.422
 4736SOL    HW115107   6.435   0.553   4.487
 4736SOL    HW215108   6.454   0.626   4.342
 4737SOL     OW15109   2.481   5.194   0.159
 4737SOL    HW115110   2.386   5.215   0.181
 4737SOL    HW215111   2.540   5.225   0.235
 4738SOL     OW15112   0.367   5.314   3.641
 4738SOL    HW115113   0.416   5.227   3.640
 4738SOL    HW215114   0.273   5.299   3.611
 4739SOL     OW15115   5.677   3.558   3.257
 4739SOL    HW115116   5.612   3.507   3.314
 4739SOL    HW215117   5.653   3.655   3.258
 4740SOL     OW15118   2.013   6.483   0.936
 4740SOL    HW115119   1.969   6.433   0.862
 4740SOL    HW215120   2.048   6.571   0.902
 4741SOL     OW15121   5.323   4.730   1.510
 4741SOL    HW115122   5.249   4.754   1.447
 4741SOL    HW215123   5.354   4.637   1.492
 4742SOL     OW15124   1.974   5.603   1.911
 4742SOL    HW115125   1.916   5.596   1.992
 4742SOL    HW215126   2.070   5.611   1.939
 4743SOL     OW15127   2.703   3.662   0.382
 4743SOL    HW115128   2.725   3.688   0.287
 4743SOL    HW215129   2.759   3.717   0.444
 4744SOL     OW15130   2.809   1.643   5.621
 4744SOL    HW115131   2.739   1.584   5.582
 4744SOL    HW215132   2.818   1.726   5.566
 4745SOL     OW15133   4.538   5.613   4.405
 4745SOL    HW115134   4.546   5.703   4.449
 4745SOL    HW215135   4.496   5.549   4.470
 4746SOL     OW15136   5.513   1.571   1.011
 4746SOL    HW115137   5.519   1.507   1.088
 4746SOL    HW215138   5.561   1.656   1.034
 4747SOL     OW15139   0.783   2.797   2.214
 4747SOL    HW115140   0.872   2.839   2.231
 4747SOL    HW215141   0.741   2.837   2.133
 4748SOL     OW15142   2.334   6.464   0.354
 4748SOL    HW115143   2.250   6.472   0.409
 4748SOL    HW215144   2.407   6.516   0.398
 4749SOL     OW15145   3.578   1.027   6.692
 4749SOL    HW115146   3.529   0.994   6.773
 4749SOL    HW215147   3.532   0.994   6.609
 4750SOL     OW15148   0.721   1.922   5.164
 4750SOL    HW115149   0.687   2.015   5.157
 4750SOL    HW215150   0.675   1.875   5.240
 4751SOL     OW15151   1.623   4.338   6.826
 4751SOL    HW115152   1.707   4.385   6.854
 4751SOL    HW215153   1.546   4.372   6.881
 4752SOL     OW15154   2.129   5.739   1.063
 4752SOL    HW115155   2.107   5.784   1.149
 4752SOL    HW215156   2.110   5.801   0.987
 4753SOL     OW15157   0.490   0.771   6.171
 4753SOL    HW115158   0.521   0.735   6.260
 4753SOL    HW215159   0.493   0.870   6.172
 4754SOL     OW15160   1.483   1.413   6.240
 4754SOL    HW115161   1.416   1.352   6.283
 4754SOL    HW215162   1.445   1.446   6.153
 4755SOL     OW15163   3.133   6.801   2.910
 4755SOL    HW115164   3.033   6.808   2.912
 4755SOL    HW215165   3.172   6.888   2.879
 4756SOL     OW15166   5.685   2.177   1.568
 4756SOL    HW115167   5.782   2.161   1.549
 4756SOL    HW215168   5.632   2.165   1.485
 4757SOL     OW15169   2.485   2.381   0.521
 4757SOL    HW115170   2.577   2.406   0.492
 4757SOL    HW215171   2.487   2.347   0.615
 4758SOL     OW15172   6.191   4.021   6.397
 4758SOL    HW115173   6.167   4.118   6.389
 4758SOL    HW215174   6.197   3.981   6.306
 4759SOL     OW15175   6.919   4.395   6.584
 4759SOL    HW115176   6.918   4.492   6.608
 4759SOL    HW215177   6.983   4.347   6.644
 4760SOL     OW15178   1.209   2.592   0.242
 4760SOL    HW115179   1.224   2.682   0.200
 4760SOL    HW215180   1.177   2.527   0.173
 4761SOL     OW15181   2.739   6.230   6.290
 4761SOL    HW115182   2.805   6.247   6.363
 4761SOL    HW215183   2.647   6.233   6.327
 4762SOL     OW15184   3.858   0.062   2.701
 4762SOL    HW115185   3.764   0.041   2.671
 4762SOL    HW215186   3.921   7.021   2.657
 4763SOL     OW15187   5.138   5.082   5.416
 4763SOL    HW115188   5.074   5.069   5.491
 4763SOL    HW215189   5.186   5.169   5.427
 4764SOL     OW15190   3.660   3.755   3.802
 4764SOL    HW115191   3.689   3.849   3.820
 4764SOL    HW215192   3.738   3.693   3.814
 4765SOL     OW15193   5.549   5.360   6.596
 4765SOL    HW115194   5.544   5.456   6.624
 4765SOL    HW215195   5.524   5.352   6.500
 4766SOL     OW15196   2.979   1.299   3.254
 4766SOL    HW115197   2.920   1.351   3.316
 4766SOL    HW215198   3.056   1.261   3.304
 4767SOL     OW15199   4.630   0.591   6.717
 4767SOL    HW115200   4.558   0.539   6.672
 4767SOL    HW215201   4.653   0.671   6.662
 4768SOL     OW15202   1.712   0.657   5.309
 4768SOL    HW115203   1.785   0.717   5.275
 4768SOL    HW215204   1.635   0.659   5.245
 4769SOL     OW15205   5.015   0.856   1.933
 4769SOL    HW115206   5.074   0.916   1.986
 4769SOL    HW215207   4.944   0.817   1.992
 4770SOL     OW15208   2.039   0.957   4.212
 4770SOL    HW115209   2.044   0.867   4.169
 4770SOL    HW215210   2.013   0.947   4.308
 4771SOL     OW15211   3.558   4.226   5.697
 4771SOL    HW115212   3.566   4.220   5.796
 4771SOL    HW215213   3.576   4.136   5.657
 4772SOL     OW15214   3.284   2.560   0.040
 4772SOL    HW115215   3.316   2.641   7.014
 4772SOL    HW215216   3.198   2.528   7.022
 4773SOL     OW15217   7.005   4.832   4.924
 4773SOL    HW115218   0.033   4.873   4.999
 4773SOL    HW215219   6.913   4.870   4.922
 4774SOL     OW15220   1.865   4.475   6.967
 4774SOL    HW115221   1.935   4.411   6.934
 4774SOL    HW215222   1.876   4.488   0.043
 4775SOL     OW15223   2.042   2.536   2.203
 4775SOL    HW115224   2.113   2.466   2.188
 4775SOL    HW215225   2.083   2.617   2.243
 4776SOL     OW15226   4.242   5.194   1.829
 4776SOL    HW115227   4.318   5.234   1.777
 4776SOL    HW215228   4.189   5.133   1.770
 4777SOL     OW15229   2.473   4.089   1.541
 4777SOL    HW115230   2.533   4.115   1.617
 4777SOL    HW215231   2.432   4.000   1.559
 4778SOL     OW15232   5.464   3.577   2.502
 4778SOL    HW115233   5.490   3.667   2.537
 4778SOL    HW215234   5.525   3.508   2.540
 4779SOL     OW15235   5.327   1.244   2.694
 4779SOL    HW115236   5.330   1.157   2.743
 4779SOL    HW215237   5.280   1.312   2.750
 4780SOL     OW15238   1.930   1.351   5.742
 4780SOL    HW115239   1.945   1.289   5.665
 4780SOL    HW215240   1.839   1.392   5.734
 4781SOL     OW15241   1.924   5.490   3.027
 4781SOL    HW115242   1.904   5.400   3.067
 4781SOL    HW215243   2.023   5.504   3.025
 4782SOL     OW15244   6.275   6.177   0.044
 4782SOL    HW115245   6.182   6.155   0.017
 4782SOL    HW215246   6.336   6.169   6.988
 4783SOL     OW15247   5.823   3.695   2.274
 4783SOL    HW115248   5.794   3.785   2.243
 4783SOL    HW215249   5.854   3.701   2.369
 4784SOL     OW15250   5.411   4.864   5.069
 4784SOL    HW115251   5.405   4.765   5.072
 4784SOL    HW215252   5.338   4.905   5.124
 4785SOL     OW15253   5.616   6.481   0.873
 4785SOL    HW115254   5.589   6.394   0.831
 4785SOL    HW215255   5.666   6.537   0.806
 4786SOL     OW15256   0.954   3.918   2.190
 4786SOL    HW115257   1.036   3.944   2.139
 4786SOL    HW215258   0.890   3.994   2.190
 4787SOL     OW15259   4.143   2.001   3.138
 4787SOL    HW115260   4.083   1.940   3.086
 4787SOL    HW215261   4.193   1.949   3.207
 4788SOL     OW15262   2.260   0.270   4.483
 4788SOL    HW115263   2.257   0.297   4.580
 4788SOL    HW215264   2.181   0.308   4.435
 4789SOL     OW15265   5.363   6.121   0.256
 4789SOL    HW115266   5.399   6.148   0.345
 4789SOL    HW215267   5.294   6.187   0.226
 4790SOL     OW15268   5.201   0.211   6.689
 4790SOL    HW115269   5.154   0.127   6.663
 4790SOL    HW215270   5.274   0.189   6.754
 4791SOL     OW15271   4.292   2.159   3.479
 4791SOL    HW115272   4.387   2.155   3.449
 4791SOL    HW215273   4.234   2.190   3.403
 4792SOL     OW15274   3.119   3.002   0.961
 4792SOL    HW115275   3.045   2.939   0.982
 4792SOL    HW215276   3.205   2.952   0.956
 4793SOL     OW15277   0.187   0.778   6.961
 4793SOL    HW115278   0.227   0.805   6.874
 4793SOL    HW215279   0.205   0.849   0.006
 4794SOL     OW15280   5.399   1.617   1.955
 4794SOL    HW115281   5.431   1.590   2.046
 4794SOL    HW215282   5.418   1.714   1.940
 4795SOL     OW15283   5.858   2.729   4.240
 4795SOL    HW115284   5.936   2.772   4.196
 4795SOL    HW215285   5.778   2.733   4.180
 4796SOL     OW15286   5.217   3.731   0.328
 4796SOL    HW115287   5.271   3.752   0.410
 4796SOL    HW215288   5.170   3.813   0.297
 4797SOL     OW15289   1.032   5.917   4.743
 4797SOL    HW115290   0.932   5.910   4.733
 4797SOL    HW215291   1.062   5.851   4.812
 4798SOL     OW15292   6.892   4.949   5.883
 4798SOL    HW115293   6.921   4.856   5.907
 4798SOL    HW215294   6.836   4.987   5.957
 4799SOL     OW15295   4.919   1.563   4.021
 4799SOL    HW115296   4.956   1.580   4.112
 4799SOL    HW215297   4.835   1.509   4.028
 4800SOL     OW15298   1.934   3.024   3.892
 4800SOL    HW115299   1.923   3.061   3.800
 4800SOL    HW215300   2.030   3.028   3.919
 4801SOL     OW15301   6.872   2.236   0.601
 4801SOL    HW115302   6.790   2.179   0.606
 4801SOL    HW215303   6.846   2.328   0.572
 4802SOL     OW15304   1.508   0.603   1.858
 4802SOL    HW115305   1.578   0.563   1.798
 4802SOL    HW215306   1.544   0.687   1.899
 4803SOL     OW15307   1.374   0.135   0.822
 4803SOL    HW115308   1.353   0.232   0.829
 4803SOL    HW215309   1.319   0.084   0.889
 4804SOL     OW15310   4.645   5.797   0.316
 4804SOL    HW115311   4.623   5.802   0.219
 4804SOL    HW215312   4.608   5.877   0.363
 4805SOL     OW15313   6.975   6.823   1.668
 4805SOL    HW115314   6.985   6.921   1.683
 4805SOL    HW215315   6.955   6.778   1.755
 4806SOL     OW15316   0.008   2.306   3.948
 4806SOL    HW115317   0.073   2.250   3.897
 4806SOL    HW215318   0.028   2.403   3.932
 4807SOL     OW15319   0.981   0.294   2.616
 4807SOL    HW115320   1.028   0.223   2.563
 4807SOL    HW215321   0.940   0.361   2.555
 4808SOL     OW15322   6.498   2.464   0.351
 4808SOL    HW115323   6.412   2.472   0.401
 4808SOL    HW215324   6.493   2.517   0.267
 4809SOL     OW15325   4.771   0.091   0.817
 4809SOL    HW115326   4.749   0.152   0.741
 4809SOL    HW215327   4.818   0.010   0.783
 4810SOL     OW15328   1.960   6.258   7.016
 4810SOL    HW115329   1.888   6.188   7.019
 4810SOL    HW215330   1.962   6.307   0.080
 4811SOL     OW15331   5.255   3.936   3.963
 4811SOL    HW115332   5.308   3.877   4.024
 4811SOL    HW215333   5.159   3.905   3.963
 4812SOL     OW15334   6.387   5.212   4.177
 4812SOL    HW115335   6.326   5.202   4.099
 4812SOL    HW215336   6.358   5.290   4.233
 4813SOL     OW15337   5.616   3.296   3.044
 4813SOL    HW115338   5.528   3.258   3.014
 4813SOL    HW215339   5.658   3.233   3.109
 4814SOL     OW15340   6.868   2.733   1.392
 4814SOL    HW115341   6.917   2.819   1.379
 4814SOL    HW215342   6.775   2.751   1.421
 4815SOL     OW15343   4.975   0.378   3.571
 4815SOL    HW115344   4.901   0.327   3.615
 4815SOL    HW215345   4.945   0.413   3.483
 4816SOL     OW15346   5.446   4.518   3.378
 4816SOL    HW115347   5.476   4.606   3.416
 4816SOL    HW215348   5.394   4.468   3.448
 4817SOL     OW15349   6.046   1.863   0.007
 4817SOL    HW115350   6.047   1.908   0.097
 4817SOL    HW215351   6.110   1.787   0.007
 4818SOL     OW15352   0.036   5.965   3.709
 4818SOL    HW115353   0.029   6.059   3.674
 4818SOL    HW215354   7.020   5.961   3.801
 4819SOL     OW15355   1.665   3.026   0.775
 4819SOL    HW115356   1.656   3.019   0.676
 4819SOL    HW215357   1.723   2.952   0.809
 4820SOL     OW15358   6.761   3.770   1.921
 4820SOL    HW115359   6.686   3.743   1.981
 4820SOL    HW215360   6.839   3.800   1.975
 4821SOL     OW15361   0.567   5.534   3.858
 4821SOL    HW115362   0.613   5.609   3.904
 4821SOL    HW215363   0.530   5.566   3.771
 4822SOL     OW15364   2.511   4.543   4.137
 4822SOL    HW115365   2.597   4.592   4.154
 4822SOL    HW215366   2.435   4.595   4.174
 4823SOL     OW15367   1.377   2.182   0.790
 4823SOL    HW115368   1.314   2.253   0.759
 4823SOL    HW215369   1.377   2.106   0.724
 4824SOL     OW15370   6.584   2.021   6.991
 4824SOL    HW115371   6.557   2.116   7.009
 4824SOL    HW215372   6.584   1.970   0.054
 4825SOL     OW15373   1.010   6.497   3.763
 4825SOL    HW115374   1.040   6.460   3.675
 4825SOL    HW215375   0.930   6.555   3.749
 4826SOL     OW15376   4.364   6.591   0.729
 4826SOL    HW115377   4.460   6.588   0.757
 4826SOL    HW215378   4.337   6.501   0.694
 4827SOL     OW15379   6.091   1.322   1.410
 4827SOL    HW115380   6.020   1.344   1.476
 4827SOL    HW215381   6.145   1.404   1.390
 4828SOL     OW15382   4.993   0.917   6.582
 4828SOL    HW115383   4.955   0.968   6.659
 4828SOL    HW215384   5.048   0.840   6.617
 4829SOL     OW15385   4.263   5.872   5.206
 4829SOL    HW115386   4.314   5.950   5.170
 4829SOL    HW215387   4.319   5.824   5.274
 4830SOL     OW15388   1.697   6.820   3.487
 4830SOL    HW115389   1.692   6.877   3.405
 4830SOL    HW215390   1.778   6.762   3.482
 4831SOL     OW15391   3.118   5.042   5.392
 4831SOL    HW115392   3.196   5.095   5.425
 4831SOL    HW215393   3.141   4.998   5.306
 4832SOL     OW15394   3.910   3.200   4.545
 4832SOL    HW115395   3.915   3.183   4.446
 4832SOL    HW215396   3.919   3.113   4.594
 4833SOL     OW15397   5.775   2.272   5.121
 4833SOL    HW115398   5.855   2.309   5.074
 4833SOL    HW215399   5.740   2.341   5.184
 4834SOL     OW15400   0.686   5.040   0.889
 4834SOL    HW115401   0.777   5.003   0.909
 4834SOL    HW215402   0.694   5.137   0.865
 4835SOL     OW15403   6.882   3.471   6.102
 4835SOL    HW115404   6.837   3.480   6.191
 4835SOL    HW215405   6.966   3.524   6.102
 4836SOL     OW15406   4.731   0.897   5.911
 4836SOL    HW115407   4.699   0.941   5.828
 4836SOL    HW215408   4.800   0.956   5.955
 4837SOL     OW15409   1.184   3.532   4.922
 4837SOL    HW115410   1.183   3.628   4.894
 4837SOL    HW215411   1.252   3.482   4.868
 4838SOL     OW15412   2.268   4.240   5.875
 4838SOL    HW115413   2.357   4.208   5.905
 4838SOL    HW215414   2.216   4.163   5.837
 4839SOL     OW15415   2.687   1.181   2.144
 4839SOL    HW115416   2.670   1.092   2.186
 4839SOL    HW215417   2.722   1.168   2.051
 4840SOL     OW15418   4.635   2.463   3.470
 4840SOL    HW115419   4.625   2.423   3.379
 4840SOL    HW215420   4.680   2.552   3.462
 4841SOL     OW15421   2.937   5.462   2.954
 4841SOL    HW115422   2.916   5.557   2.976
 4841SOL    HW215423   2.908   5.403   3.030
 4842SOL     OW15424   4.480   5.574   3.226
 4842SOL    HW115425   4.404   5.510   3.217
 4842SOL    HW215426   4.542   5.542   3.298
 4843SOL     OW15427   5.447   2.124   0.586
 4843SOL    HW115428   5.509   2.161   0.518
 4843SOL    HW215429   5.365   2.088   0.541
 4844SOL     OW15430   1.050   5.057   6.494
 4844SOL    HW115431   1.084   5.003   6.416
 4844SOL    HW215432   1.069   5.008   6.579
 4845SOL     OW15433   5.398   3.989   4.982
 4845SOL    HW115434   5.318   3.972   4.924
 4845SOL    HW215435   5.386   3.940   5.069
 4846SOL     OW15436   6.516   4.018   4.548
 4846SOL    HW115437   6.425   4.029   4.506
 4846SOL    HW215438   6.566   3.946   4.500
 4847SOL     OW15439   3.039   6.947   0.396
 4847SOL    HW115440   3.067   6.892   0.317
 4847SOL    HW215441   3.037   6.890   0.478
 4848SOL     OW15442   4.563   1.179   3.970
 4848SOL    HW115443   4.625   1.129   3.909
 4848SOL    HW215444   4.526   1.117   4.038
 4849SOL     OW15445   1.555   5.610   2.203
 4849SOL    HW115446   1.461   5.605   2.168
 4849SOL    HW215447   1.554   5.636   2.299
 4850SOL     OW15448   3.455   6.875   2.258
 4850SOL    HW115449   3.448   6.830   2.170
 4850SOL    HW215450   3.504   6.816   2.322
 4851SOL     OW15451   4.535   4.654   6.679
 4851SOL    HW115452   4.558   4.698   6.766
 4851SOL    HW215453   4.564   4.559   6.682
 4852SOL     OW15454   4.985   3.898   5.599
 4852SOL    HW115455   4.972   3.952   5.516
 4852SOL    HW215456   5.047   3.822   5.579
 4853SOL     OW15457   3.968   0.561   2.654
 4853SOL    HW115458   3.905   0.638   2.662
 4853SOL    HW215459   4.009   0.542   2.744
 4854SOL     OW15460   4.226   6.761   2.552
 4854SOL    HW115461   4.309   6.813   2.530
 4854SOL    HW215462   4.244   6.663   2.541
 4855SOL     OW15463   4.168   4.724   5.544
 4855SOL    HW115464   4.171   4.627   5.568
 4855SOL    HW215465   4.143   4.777   5.626
 4856SOL     OW15466   0.986   2.545   2.322
 4856SOL    HW115467   0.941   2.634   2.314
 4856SOL    HW215468   0.921   2.479   2.360
 4857SOL     OW15469   2.625   2.007   5.925
 4857SOL    HW115470   2.640   1.910   5.944
 4857SOL    HW215471   2.688   2.037   5.853
 4858SOL     OW15472   1.883   4.922   4.487
 4858SOL    HW115473   1.823   4.842   4.483
 4858SOL    HW215474   1.878   4.972   4.400
 4859SOL     OW15475   6.430   5.546   3.284
 4859SOL    HW115476   6.449   5.458   3.327
 4859SOL    HW215477   6.427   5.618   3.353
 4860SOL     OW15478   4.121   5.418   1.001
 4860SOL    HW115479   4.066   5.409   1.084
 4860SOL    HW215480   4.128   5.515   0.977
 4861SOL     OW15481   5.982   4.910   4.666
 4861SOL    HW115482   6.046   4.934   4.593
 4861SOL    HW215483   5.980   4.810   4.677
 4862SOL     OW15484   1.794   5.585   4.416
 4862SOL    HW115485   1.868   5.610   4.353
 4862SOL    HW215486   1.826   5.511   4.477
 4863SOL     OW15487   5.730   1.549   2.033
 4863SOL    HW115488   5.743   1.604   1.950
 4863SOL    HW215489   5.648   1.493   2.023
 4864SOL     OW15490   2.078   2.969   1.453
 4864SOL    HW115491   2.081   2.884   1.507
 4864SOL    HW215492   2.040   2.949   1.363
 4865SOL     OW15493   3.686   6.603   5.156
 4865SOL    HW115494   3.602   6.640   5.116
 4865SOL    HW215495   3.706   6.514   5.116
 4866SOL     OW15496   0.606   4.913   1.640
 4866SOL    HW115497   0.677   4.891   1.573
 4866SOL    HW215498   0.533   4.965   1.596
 4867SOL     OW15499   5.741   4.927   5.778
 4867SOL    HW115500   5.837   4.920   5.805
 4867SOL    HW215501   5.692   4.844   5.804
 4868SOL     OW15502   2.041   5.930   1.711
 4868SOL    HW115503   2.127   5.895   1.746
 4868SOL    HW215504   1.989   5.856   1.668
 4869SOL     OW15505   0.666   1.820   1.967
 4869SOL    HW115506   0.586   1.878   1.986
 4869SOL    HW215507   0.634   1.728   1.944
 4870SOL     OW15508   5.933   1.255   0.895
 4870SOL    HW115509   5.902   1.179   0.837
 4870SOL    HW215510   5.854   1.297   0.940
 4871SOL     OW15511   2.043   2.648   5.649
 4871SOL    HW115512   2.106   2.613   5.580
 4871SOL    HW215513   2.065   2.608   5.738
 4872SOL     OW15514   1.920   2.678   2.669
 4872SOL    HW115515   1.916   2.740   2.748
 4872SOL    HW215516   1.831   2.634   2.657
 4873SOL     OW15517   0.685   6.576   5.756
 4873SOL    HW115518   0.719   6.646   5.819
 4873SOL    HW215519   0.624   6.619   5.689
 4874SOL     OW15520   5.655   1.754   3.838
 4874SOL    HW115521   5.650   1.658   3.864
 4874SOL    HW215522   5.624   1.811   3.914
 4875SOL     OW15523   0.249   3.118   0.367
 4875SOL    HW115524   0.210   3.031   0.396
 4875SOL    HW215525   0.337   3.102   0.321
 4876SOL     OW15526   6.651   1.311   7.009
 4876SOL    HW115527   6.696   1.390   0.028
 4876SOL    HW215528   6.621   1.248   0.058
 4877SOL     OW15529   4.612   1.905   1.172
 4877SOL    HW115530   4.664   1.936   1.252
 4877SOL    HW215531   4.629   1.808   1.157
 4878SOL     OW15532   1.257   2.979   2.134
 4878SOL    HW115533   1.276   3.002   2.038
 4878SOL    HW215534   1.309   2.898   2.160
 4879SOL     OW15535   3.576   6.090   3.510
 4879SOL    HW115536   3.560   6.060   3.604
 4879SOL    HW215537   3.543   6.020   3.447
 4880SOL     OW15538   6.375   1.848   5.948
 4880SOL    HW115539   6.389   1.794   5.865
 4880SOL    HW215540   6.286   1.892   5.945
 4881SOL     OW15541   2.934   6.145   5.818
 4881SOL    HW115542   2.994   6.106   5.748
 4881SOL    HW215543   2.989   6.192   5.887
 4882SOL     OW15544   5.770   5.465   6.413
 4882SOL    HW115545   5.833   5.479   6.489
 4882SOL    HW215546   5.818   5.419   6.338
 4883SOL     OW15547   6.052   5.853   0.101
 4883SOL    HW115548   6.053   5.847   0.001
 4883SOL    HW215549   6.144   5.873   0.134
 4884SOL     OW15550   3.352   6.263   1.407
 4884SOL    HW115551   3.300   6.285   1.490
 4884SOL    HW215552   3.380   6.348   1.362
 4885SOL     OW15553   1.819   0.600   2.135
 4885SOL    HW115554   1.806   0.697   2.153
 4885SOL    HW215555   1.845   0.553   2.219
 4886SOL     OW15556   5.895   0.971   5.488
 4886SOL    HW115557   5.915   1.066   5.514
 4886SOL    HW215558   5.855   0.969   5.396
 4887SOL     OW15559   0.263   1.947   5.433
 4887SOL    HW115560   0.309   1.867   5.471
 4887SOL    HW215561   0.183   1.969   5.489
 4888SOL     OW15562   4.330   6.027   1.025
 4888SOL    HW115563   4.253   5.992   0.971
 4888SOL    HW215564   4.392   6.078   0.966
 4889SOL     OW15565   1.595   3.559   6.325
 4889SOL    HW115566   1.596   3.463   6.353
 4889SOL    HW215567   1.576   3.565   6.227
 4890SOL     OW15568   0.154   0.503   4.404
 4890SOL    HW115569   0.133   0.601   4.407
 4890SOL    HW215570   0.240   0.488   4.356
 4891SOL     OW15571   1.194   5.088   0.701
 4891SOL    HW115572   1.133   5.013   0.679
 4891SOL    HW215573   1.273   5.086   0.640
 4892SOL     OW15574   1.843   5.622   2.143
 4892SOL    HW115575   1.884   5.682   2.212
 4892SOL    HW215576   1.744   5.622   2.154
 4893SOL     OW15577   0.363   4.507   6.414
 4893SOL    HW115578   0.335   4.448   6.489
 4893SOL    HW215579   0.458   4.535   6.428
 4894SOL     OW15580   0.515   6.841   3.329
 4894SOL    HW115581   0.548   6.905   3.398
 4894SOL    HW215582   0.575   6.760   3.326
 4895SOL     OW15583   6.477   4.297   6.761
 4895SOL    HW115584   6.484   4.219   6.698
 4895SOL    HW215585   6.565   4.311   6.807
 4896SOL     OW15586   3.956   0.533   4.302
 4896SOL    HW115587   3.941   0.562   4.397
 4896SOL    HW215588   3.964   0.613   4.243
 4897SOL     OW15589   2.612   5.311   6.945
 4897SOL    HW115590   2.563   5.396   6.925
 4897SOL    HW215591   2.562   5.260   7.015
 4898SOL     OW15592   4.990   2.789   4.319
 4898SOL    HW115593   4.892   2.774   4.333
 4898SOL    HW215594   5.038   2.701   4.322
 4899SOL     OW15595   6.340   3.666   4.482
 4899SOL    HW115596   6.344   3.732   4.407
 4899SOL    HW215597   6.293   3.584   4.452
 4900SOL     OW15598   0.458   6.616   5.586
 4900SOL    HW115599   0.459   6.654   5.494
 4900SOL    HW215600   0.385   6.659   5.639
 4901SOL     OW15601   5.921   6.177   3.473
 4901SOL    HW115602   5.948   6.273   3.480
 4901SOL    HW215603   5.823   6.168   3.491
 4902SOL     OW15604   3.550   5.134   0.618
 4902SOL    HW115605   3.592   5.082   0.692
 4902SOL    HW215606   3.466   5.088   0.590
 4903SOL     OW15607   5.945   5.070   6.245
 4903SOL    HW115608   6.035   5.043   6.279
 4903SOL    HW215609   5.893   4.989   6.219
 4904SOL     OW15610   2.940   0.907   3.498
 4904SOL    HW115611   2.846   0.916   3.531
 4904SOL    HW215612   3.004   0.931   3.571
 4905SOL     OW15613   5.953   3.768   2.662
 4905SOL    HW115614   5.867   3.719   2.648
 4905SOL    HW215615   6.004   3.724   2.736
 4906SOL     OW15616   4.627   0.324   1.863
 4906SOL    HW115617   4.603   0.227   1.869
 4906SOL    HW215618   4.703   0.335   1.799
 4907SOL     OW15619   2.918   2.820   1.596
 4907SOL    HW115620   2.854   2.824   1.519
 4907SOL    HW215621   2.880   2.761   1.668
 4908SOL     OW15622   5.162   5.178   6.525
 4908SOL    HW115623   5.237   5.196   6.588
 4908SOL    HW215624   5.101   5.258   6.523
 4909SOL     OW15625   5.666   6.462   5.618
 4909SOL    HW115626   5.623   6.501   5.699
 4909SOL    HW215627   5.717   6.380   5.644
 4910SOL     OW15628   5.110   6.642   5.483
 4910SOL    HW115629   5.094   6.623   5.386
 4910SOL    HW215630   5.200   6.684   5.494
 4911SOL     OW15631   0.293   4.323   6.607
 4911SOL    HW115632   0.273   4.245   6.548
 4911SOL    HW215633   0.386   4.314   6.644
 4912SOL     OW15634   1.981   2.947   1.198
 4912SOL    HW115635   2.008   2.999   1.118
 4912SOL    HW215636   1.927   2.868   1.170
 4913SOL     OW15637   2.916   3.171   2.005
 4913SOL    HW115638   2.869   3.103   2.061
 4913SOL    HW215639   2.994   3.208   2.056
 4914SOL     OW15640   1.376   0.092   2.735
 4914SOL    HW115641   1.438   0.044   2.673
 4914SOL    HW215642   1.383   0.191   2.719
 4915SOL     OW15643   3.751   6.431   4.027
 4915SOL    HW115644   3.706   6.347   3.996
 4915SOL    HW215645   3.848   6.428   4.001
 4916SOL     OW15646   1.310   1.480   1.964
 4916SOL    HW115647   1.212   1.478   1.984
 4916SOL    HW215648   1.362   1.486   2.049
 4917SOL     OW15649   1.134   4.627   6.429
 4917SOL    HW115650   1.200   4.692   6.390
 4917SOL    HW215651   1.133   4.637   6.528
 4918SOL     OW15652   2.440   6.597   4.084
 4918SOL    HW115653   2.436   6.571   4.181
 4918SOL    HW215654   2.501   6.675   4.073
 4919SOL     OW15655   1.868   2.844   0.849
 4919SOL    HW115656   1.931   2.817   0.777
 4919SOL    HW215657   1.878   2.783   0.928
 4920SOL     OW15658   3.629   1.954   6.622
 4920SOL    HW115659   3.591   1.959   6.530
 4920SOL    HW215660   3.560   1.917   6.685
 4921SOL     OW15661   6.831   4.798   2.504
 4921SOL    HW115662   6.904   4.865   2.521
 4921SOL    HW215663   6.742   4.840   2.522
 4922SOL     OW15664   0.577   3.056   6.285
 4922SOL    HW115665   0.514   3.127   6.320
 4922SOL    HW215666   0.667   3.096   6.271
 4923SOL     OW15667   3.311   2.144   6.532
 4923SOL    HW115668   3.290   2.242   6.539
 4923SOL    HW215669   3.266   2.107   6.450
 4924SOL     OW15670   0.166   2.798   4.278
 4924SOL    HW115671   0.109   2.872   4.314
 4924SOL    HW215672   0.216   2.831   4.198
 4925SOL     OW15673   4.548   5.038   5.066
 4925SOL    HW115674   4.494   4.955   5.084
 4925SOL    HW215675   4.624   5.042   5.131
 4926SOL     OW15676   4.315   3.399   0.436
 4926SOL    HW115677   4.265   3.472   0.388
 4926SOL    HW215678   4.267   3.377   0.521
 4927SOL     OW15679   2.988   3.829   1.799
 4927SOL    HW115680   2.989   3.898   1.872
 4927SOL    HW215681   3.013   3.740   1.838
 4928SOL     OW15682   0.004   1.579   0.006
 4928SOL    HW115683   6.977   1.657   6.992
 4928SOL    HW215684   0.061   1.539   6.958
 4929SOL     OW15685   0.588   4.064   4.692
 4929SOL    HW115686   0.591   4.100   4.786
 4929SOL    HW215687   0.648   4.118   4.634
 4930SOL     OW15688   0.261   3.653   6.953
 4930SOL    HW115689   0.240   3.561   6.921
 4930SOL    HW215690   0.227   3.664   0.024
 4931SOL     OW15691   5.322   6.898   0.973
 4931SOL    HW115692   5.359   6.988   0.997
 4931SOL    HW215693   5.353   6.873   0.881
 4932SOL     OW15694   3.658   1.592   0.843
 4932SOL    HW115695   3.561   1.599   0.819
 4932SOL    HW215696   3.667   1.572   0.940
 4933SOL     OW15697   2.992   0.208   4.901
 4933SOL    HW115698   2.901   0.170   4.882
 4933SOL    HW215699   3.061   0.153   4.854
 4934SOL     OW15700   1.993   5.966   5.036
 4934SOL    HW115701   2.043   5.900   5.093
 4934SOL    HW215702   1.902   5.930   5.017
 4935SOL     OW15703   2.008   2.462   0.503
 4935SOL    HW115704   2.003   2.545   0.447
 4935SOL    HW215705   2.064   2.394   0.456
 4936SOL     OW15706   6.623   4.183   1.578
 4936SOL    HW115707   6.649   4.129   1.658
 4936SOL    HW215708   6.631   4.128   1.495
 4937SOL     OW15709   0.685   3.527   5.260
 4937SOL    HW115710   0.785   3.519   5.261
 4937SOL    HW215711   0.656   3.573   5.176
 4938SOL     OW15712   3.760   4.321   0.854
 4938SOL    HW115713   3.814   4.372   0.922
 4938SOL    HW215714   3.754   4.375   0.770
 4939SOL     OW15715   0.659   1.313   1.269
 4939SOL    HW115716   0.622   1.406   1.267
 4939SOL    HW215717   0.759   1.317   1.277
 4940SOL     OW15718   1.779   1.567   5.238
 4940SOL    HW115719   1.767   1.470   5.259
 4940SOL    HW215720   1.811   1.615   5.320
 4941SOL     OW15721   3.861   1.944   5.938
 4941SOL    HW115722   3.944   1.970   5.986
 4941SOL    HW215723   3.781   1.969   5.992
 4942SOL     OW15724   0.549   1.051   2.301
 4942SOL    HW115725   0.587   0.973   2.250
 4942SOL    HW215726   0.454   1.032   2.324
 4943SOL     OW15727   5.040   2.487   6.285
 4943SOL    HW115728   5.023   2.442   6.197
 4943SOL    HW215729   5.049   2.585   6.270
 4944SOL     OW15730   0.858   5.130   0.589
 4944SOL    HW115731   0.804   5.183   0.654
 4944SOL    HW215732   0.867   5.036   0.621
 4945SOL     OW15733   2.364   6.931   6.335
 4945SOL    HW115734   2.289   6.867   6.353
 4945SOL    HW215735   2.327   7.021   6.313
 4946SOL     OW15736   2.955   5.605   6.975
 4946SOL    HW115737   3.014   5.527   6.997
 4946SOL    HW215738   2.955   5.669   0.028
 4947SOL     OW15739   1.098   0.124   1.243
 4947SOL    HW115740   1.165   0.064   1.287
 4947SOL    HW215741   1.083   0.205   1.300
 4948SOL     OW15742   1.597   3.078   2.245
 4948SOL    HW115743   1.586   3.021   2.164
 4948SOL    HW215744   1.532   3.154   2.242
 4949SOL     OW15745   6.462   4.932   6.358
 4949SOL    HW115746   6.527   5.008   6.365
 4949SOL    HW215747   6.506   4.847   6.387
 4950SOL     OW15748   4.121   4.225   5.948
 4950SOL    HW115749   4.059   4.207   6.024
 4950SOL    HW215750   4.213   4.241   5.983
 4951SOL     OW15751   4.986   5.294   3.409
 4951SOL    HW115752   4.998   5.376   3.354
 4951SOL    HW215753   4.907   5.243   3.375
 4952SOL     OW15754   0.635   0.977   6.875
 4952SOL    HW115755   0.709   0.947   6.814
 4952SOL    HW215756   0.660   0.954   6.970
 4953SOL     OW15757   1.546   1.317   5.913
 4953SOL    HW115758   1.448   1.305   5.930
 4953SOL    HW215759   1.597   1.244   5.958
 4954SOL     OW15760   3.378   3.531   5.358
 4954SOL    HW115761   3.409   3.522   5.264
 4954SOL    HW215762   3.308   3.464   5.378
 4955SOL     OW15763   3.873   6.380   0.124
 4955SOL    HW115764   3.896   6.295   0.170
 4955SOL    HW215765   3.889   6.457   0.187
 4956SOL     OW15766   2.544   0.456   4.593
 4956SOL    HW115767   2.578   0.536   4.643
 4956SOL    HW215768   2.621   0.402   4.559
 4957SOL     OW15769   5.940   5.451   6.647
 4957SOL    HW115770   5.917   5.380   6.714
 4957SOL    HW215771   6.036   5.478   6.658
 4958SOL     OW15772   3.505   5.143   0.182
 4958SOL    HW115773   3.501   5.106   0.089
 4958SOL    HW215774   3.600   5.166   0.204
 4959SOL     OW15775   0.693   1.819   3.522
 4959SOL    HW115776   0.628   1.861   3.458
 4959SOL    HW215777   0.781   1.865   3.514
 4960SOL     OW15778   4.999   4.393   4.343
 4960SOL    HW115779   5.002   4.321   4.273
 4960SOL    HW215780   5.002   4.482   4.298
 4961SOL     OW15781   3.600   2.898   2.223
 4961SOL    HW115782   3.576   2.806   2.191
 4961SOL    HW215783   3.628   2.954   2.145
 4962SOL     OW15784   1.722   2.433   0.689
 4962SOL    HW115785   1.802   2.467   0.640
 4962SOL    HW215786   1.751   2.380   0.769
 4963SOL     OW15787   0.776   3.730   6.877
 4963SOL    HW115788   0.706   3.801   6.888
 4963SOL    HW215789   0.749   3.648   6.928
 4964SOL     OW15790   1.271   5.188   4.186
 4964SOL    HW115791   1.337   5.263   4.190
 4964SOL    HW215792   1.243   5.163   4.279
 4965SOL     OW15793   2.224   0.618   3.364
 4965SOL    HW115794   2.208   0.553   3.437
 4965SOL    HW215795   2.153   0.610   3.295
 4966SOL     OW15796   4.476   6.776   5.187
 4966SOL    HW115797   4.471   6.729   5.276
 4966SOL    HW215798   4.440   6.869   5.197
 4967SOL     OW15799   4.397   4.576   3.411
 4967SOL    HW115800   4.449   4.537   3.487
 4967SOL    HW215801   4.321   4.629   3.446
 4968SOL     OW15802   6.480   3.148   3.635
 4968SOL    HW115803   6.385   3.130   3.661
 4968SOL    HW215804   6.482   3.193   3.546
 4969SOL     OW15805   0.904   5.906   4.030
 4969SOL    HW115806   0.992   5.908   3.983
 4969SOL    HW215807   0.918   5.890   4.128
 4970SOL     OW15808   2.220   1.372   1.151
 4970SOL    HW115809   2.306   1.338   1.114
 4970SOL    HW215810   2.172   1.297   1.197
 4971SOL     OW15811   0.662   5.962   2.122
 4971SOL    HW115812   0.578   6.006   2.089
 4971SOL    HW215813   0.637   5.889   2.185
 4972SOL     OW15814   0.514   3.730   0.304
 4972SOL    HW115815   0.431   3.716   0.250
 4972SOL    HW215816   0.592   3.746   0.242
 4973SOL     OW15817   5.108   2.441   6.750
 4973SOL    HW115818   5.178   2.388   6.702
 4973SOL    HW215819   5.100   2.408   6.845
 4974SOL     OW15820   3.252   0.133   5.761
 4974SOL    HW115821   3.205   0.204   5.813
 4974SOL    HW215822   3.187   0.059   5.740
 4975SOL     OW15823   5.644   4.420   1.374
 4975SOL    HW115824   5.664   4.501   1.319
 4975SOL    HW215825   5.553   4.428   1.414
 4976SOL     OW15826   1.104   0.483   3.762
 4976SOL    HW115827   1.137   0.451   3.850
 4976SOL    HW215828   1.004   0.479   3.760
 4977SOL     OW15829   0.955   3.419   4.977
 4977SOL    HW115830   0.952   3.342   4.913
 4977SOL    HW215831   1.040   3.470   4.963
 4978SOL     OW15832   6.206   5.446   4.614
 4978SOL    HW115833   6.170   5.528   4.570
 4978SOL    HW215834   6.260   5.473   4.694
 4979SOL     OW15835   4.057   6.624   6.324
 4979SOL    HW115836   4.021   6.547   6.377
 4979SOL    HW215837   4.060   6.599   6.227
 4980SOL     OW15838   5.694   2.709   3.964
 4980SOL    HW115839   5.776   2.657   3.941
 4980SOL    HW215840   5.625   2.696   3.892
 4981SOL     OW15841   3.360   6.274   3.371
 4981SOL    HW115842   3.452   6.256   3.405
 4981SOL    HW215843   3.364   6.301   3.275
 4982SOL     OW15844   4.241   1.986   4.803
 4982SOL    HW115845   4.201   1.900   4.770
 4982SOL    HW215846   4.322   2.008   4.748
 4983SOL     OW15847   5.832   3.418   2.947
 4983SOL    HW115848   5.871   3.479   3.015
 4983SOL    HW215849   5.741   3.389   2.976
 4984SOL     OW15850   4.974   3.646   5.216
 4984SOL    HW115851   4.921   3.614   5.137
 4984SOL    HW215852   4.911   3.670   5.290
 4985SOL     OW15853   5.309   0.341   2.343
 4985SOL    HW115854   5.307   0.261   2.403
 4985SOL    HW215855   5.396   0.342   2.293
 4986SOL     OW15856   1.602   5.560   1.030
 4986SOL    HW115857   1.518   5.517   1.063
 4986SOL    HW215858   1.669   5.564   1.103
 4987SOL     OW15859   2.199   3.986   2.042
 4987SOL    HW115860   2.255   4.061   2.005
 4987SOL    HW215861   2.249   3.940   2.115
 4988SOL     OW15862   6.347   5.481   3.846
 4988SOL    HW115863   6.431   5.430   3.829
 4988SOL    HW215864   6.361   5.577   3.820
 4989SOL     OW15865   0.154   6.953   3.666
 4989SOL    HW115866   0.164   6.922   3.571
 4989SOL    HW215867   0.088   0.005   3.669
 4990SOL     OW15868   5.105   1.750   5.624
 4990SOL    HW115869   5.127   1.842   5.657
 4990SOL    HW215870   5.084   1.755   5.526
 4991SOL     OW15871   2.513   5.746   5.628
 4991SOL    HW115872   2.528   5.665   5.572
 4991SOL    HW215873   2.532   5.828   5.575
 4992SOL     OW15874   2.618   3.063   5.578
 4992SOL    HW115875   2.524   3.056   5.611
 4992SOL    HW215876   2.671   3.122   5.640
 4993SOL     OW15877   2.257   5.236   3.996
 4993SOL    HW115878   2.232   5.160   3.936
 4993SOL    HW215879   2.310   5.201   4.073
 4994SOL     OW15880   2.973   4.829   5.793
 4994SOL    HW115881   2.895   4.842   5.731
 4994SOL    HW215882   2.954   4.750   5.852
 4995SOL     OW15883   0.442   1.498   5.423
 4995SOL    HW115884   0.465   1.402   5.439
 4995SOL    HW215885   0.370   1.504   5.354
 4996SOL     OW15886   6.809   0.706   4.704
 4996SOL    HW115887   6.712   0.698   4.726
 4996SOL    HW215888   6.820   0.768   4.626
 4997SOL     OW15889   4.073   1.304   0.622
 4997SOL    HW115890   4.015   1.232   0.659
 4997SOL    HW215891   4.157   1.311   0.677
 4998SOL     OW15892   0.841   3.703   3.102
 4998SOL    HW115893   0.937   3.729   3.106
 4998SOL    HW215894   0.786   3.781   3.072
 4999SOL     OW15895   0.091   3.009   3.448
 4999SOL    HW115896   0.020   2.945   3.417
 4999SOL    HW215897   0.085   3.021   3.547
 5000SOL     OW15898   3.117   6.377   2.878
 5000SOL    HW115899   3.036   6.330   2.843
 5000SOL    HW215900   3.112   6.474   2.856
 5001SOL     OW15901   0.137   5.807   3.486
 5001SOL    HW115902   0.102   5.874   3.551
 5001SOL    HW215903   0.103   5.827   3.395
 5002SOL     OW15904   0.817   4.747   3.759
 5002SOL    HW115905   0.880   4.696   3.817
 5002SOL    HW215906   0.846   4.842   3.753
 5003SOL     OW15907   3.252   1.142   1.333
 5003SOL    HW115908   3.318   1.089   1.386
 5003SOL    HW215909   3.227   1.091   1.250
 5004SOL     OW15910   4.617   6.371   0.398
 5004SOL    HW115911   4.648   6.276   0.401
 5004SOL    HW215912   4.688   6.430   0.435
 5005SOL     OW15913   4.028   2.933   1.011
 5005SOL    HW115914   4.119   2.973   1.022
 5005SOL    HW215915   3.959   3.006   1.014
 5006SOL     OW15916   5.045   0.458   2.921
 5006SOL    HW115917   5.042   0.379   2.983
 5006SOL    HW215918   5.025   0.427   2.827
 5007SOL     OW15919   6.332   5.094   2.328
 5007SOL    HW115920   6.425   5.131   2.325
 5007SOL    HW215921   6.283   5.133   2.405
 5008SOL     OW15922   4.918   6.755   3.520
 5008SOL    HW115923   4.877   6.841   3.490
 5008SOL    HW215924   4.873   6.723   3.603
 5009SOL     OW15925   0.649   1.730   6.681
 5009SOL    HW115926   0.632   1.815   6.730
 5009SOL    HW215927   0.699   1.750   6.596
 5010SOL     OW15928   5.009   4.351   0.860
 5010SOL    HW115929   4.920   4.369   0.817
 5010SOL    HW215930   5.048   4.437   0.893
 5011SOL     OW15931   1.693   2.378   6.211
 5011SOL    HW115932   1.631   2.399   6.287
 5011SOL    HW215933   1.756   2.454   6.197
 5012SOL     OW15934   6.345   2.291   6.210
 5012SOL    HW115935   6.364   2.283   6.308
 5012SOL    HW215936   6.396   2.220   6.161
 5013SOL     OW15937   5.975   6.497   4.991
 5013SOL    HW115938   5.922   6.527   4.912
 5013SOL    HW215939   5.969   6.397   5.000
 5014SOL     OW15940   6.360   4.122   0.810
 5014SOL    HW115941   6.340   4.173   0.726
 5014SOL    HW215942   6.397   4.185   0.878
 5015SOL     OW15943   6.458   5.192   4.547
 5015SOL    HW115944   6.524   5.246   4.494
 5015SOL    HW215945   6.502   5.107   4.577
 5016SOL     OW15946   1.391   2.549   6.615
 5016SOL    HW115947   1.339   2.616   6.669
 5016SOL    HW215948   1.353   2.458   6.628
 5017SOL     OW15949   1.178   2.617   2.114
 5017SOL    HW115950   1.262   2.643   2.163
 5017SOL    HW215951   1.104   2.607   2.180
 5018SOL     OW15952   0.875   1.004   0.344
 5018SOL    HW115953   0.794   0.955   0.376
 5018SOL    HW215954   0.957   0.951   0.368
 5019SOL     OW15955   1.617   4.153   3.842
 5019SOL    HW115956   1.535   4.120   3.797
 5019SOL    HW215957   1.593   4.193   3.930
 5020SOL     OW15958   1.759   7.020   3.806
 5020SOL    HW115959   1.807   0.083   3.791
 5020SOL    HW215960   1.824   6.944   3.803
 5021SOL     OW15961   2.336   0.503   1.643
 5021SOL    HW115962   2.388   0.505   1.729
 5021SOL    HW215963   2.335   0.594   1.603
 5022SOL     OW15964   0.028   2.813   0.848
 5022SOL    HW115965   6.964   2.783   0.810
 5022SOL    HW215966   0.044   2.768   0.936
 5023SOL     OW15967   0.505   2.571   2.605
 5023SOL    HW115968   0.535   2.599   2.696
 5023SOL    HW215969   0.574   2.596   2.538
 5024SOL     OW15970   4.714   4.413   6.660
 5024SOL    HW115971   4.805   4.418   6.619
 5024SOL    HW215972   4.722   4.410   6.760
 5025SOL     OW15973   5.052   1.867   4.626
 5025SOL    HW115974   5.019   1.861   4.720
 5025SOL    HW215975   4.992   1.814   4.566
 5026SOL     OW15976   5.001   6.020   5.019
 5026SOL    HW115977   5.069   6.088   4.991
 5026SOL    HW215978   5.004   6.009   5.118
 5027SOL     OW15979   5.098   6.759   0.787
 5027SOL    HW115980   5.083   6.736   0.883
 5027SOL    HW215981   5.016   6.803   0.750
 5028SOL     OW15982   6.554   1.478   2.569
 5028SOL    HW115983   6.498   1.473   2.487
 5028SOL    HW215984   6.510   1.425   2.642
 5029SOL     OW15985   5.376   2.765   2.220
 5029SOL    HW115986   5.370   2.815   2.133
 5029SOL    HW215987   5.416   2.675   2.203
 5030SOL     OW15988   0.346   3.055   0.928
 5030SOL    HW115989   0.316   3.020   0.839
 5030SOL    HW215990   0.266   3.083   0.981
 5031SOL     OW15991   6.520   0.159   5.766
 5031SOL    HW115992   6.445   0.108   5.809
 5031SOL    HW215993   6.594   0.096   5.742
 5032SOL     OW15994   2.677   4.251   6.357
 5032SOL    HW115995   2.772   4.227   6.334
 5032SOL    HW215996   2.618   4.236   6.278
 5033SOL     OW15997   1.794   6.460   4.921
 5033SOL    HW115998   1.724   6.470   4.851
 5033SOL    HW215999   1.834   6.369   4.915
 5034SOL     OW16000   3.976   5.586   3.604
 5034SOL    HW116001   4.033   5.577   3.523
 5034SOL    HW216002   3.882   5.605   3.577
 5035SOL     OW16003   2.012   3.353   3.339
 5035SOL    HW116004   2.036   3.380   3.246
 5035SOL    HW216005   2.070   3.277   3.369
 5036SOL     OW16006   1.386   3.496   4.753
 5036SOL    HW116007   1.479   3.530   4.741
 5036SOL    HW216008   1.330   3.523   4.676
 5037SOL     OW16009   5.284   4.770   1.046
 5037SOL    HW116010   5.193   4.754   1.008
 5037SOL    HW216011   5.341   4.690   1.030
 5038SOL     OW16012   3.186   3.795   4.501
 5038SOL    HW116013   3.245   3.808   4.421
 5038SOL    HW216014   3.144   3.882   4.526
 5039SOL     OW16015   0.765   3.724   0.176
 5039SOL    HW116016   0.821   3.710   0.258
 5039SOL    HW216017   0.796   3.662   0.104
 5040SOL     OW16018   0.631   1.683   5.331
 5040SOL    HW116019   0.558   1.630   5.374
 5040SOL    HW216020   0.720   1.641   5.352
 5041SOL     OW16021   6.917   2.089   1.656
 5041SOL    HW116022   6.998   2.142   1.634
 5041SOL    HW216023   6.836   2.147   1.649
 5042SOL     OW16024   1.119   1.921   5.857
 5042SOL    HW116025   1.116   1.979   5.776
 5042SOL    HW216026   1.045   1.854   5.854
 5043SOL     OW16027   2.764   6.686   1.829
 5043SOL    HW116028   2.850   6.636   1.819
 5043SOL    HW216029   2.766   6.740   1.914
 5044SOL     OW16030   0.329   5.869   0.488
 5044SOL    HW116031   0.347   5.965   0.466
 5044SOL    HW216032   0.379   5.844   0.570
 5045SOL     OW16033   5.655   2.775   1.467
 5045SOL    HW116034   5.629   2.838   1.394
 5045SOL    HW216035   5.663   2.683   1.431
 5046SOL     OW16036   3.879   2.984   2.230
 5046SOL    HW116037   3.829   2.897   2.236
 5046SOL    HW216038   3.888   3.010   2.134
 5047SOL     OW16039   1.716   4.201   3.576
 5047SOL    HW116040   1.678   4.170   3.663
 5047SOL    HW216041   1.734   4.122   3.518
 5048SOL     OW16042   2.535   0.426   5.746
 5048SOL    HW116043   2.526   0.503   5.810
 5048SOL    HW216044   2.539   0.341   5.797
 5049SOL     OW16045   3.894   1.743   6.727
 5049SOL    HW116046   3.918   1.670   6.791
 5049SOL    HW216047   3.957   1.741   6.649
 5050SOL     OW16048   1.520   0.619   0.717
 5050SOL    HW116049   1.456   0.634   0.793
 5050SOL    HW216050   1.563   0.705   0.692
 5051SOL     OW16051   4.463   4.550   0.766
 5051SOL    HW116052   4.426   4.459   0.750
 5051SOL    HW216053   4.405   4.598   0.833
 5052SOL     OW16054   2.013   3.413   4.396
 5052SOL    HW116055   2.075   3.438   4.471
 5052SOL    HW216056   2.043   3.459   4.312
 5053SOL     OW16057   6.393   0.415   0.892
 5053SOL    HW116058   6.376   0.444   0.986
 5053SOL    HW216059   6.398   0.315   0.889
 5054SOL     OW16060   4.464   5.524   3.507
 5054SOL    HW116061   4.431   5.507   3.600
 5054SOL    HW216062   4.564   5.519   3.506
 5055SOL     OW16063   0.191   4.201   5.516
 5055SOL    HW116064   0.191   4.296   5.483
 5055SOL    HW216065   0.114   4.152   5.475
 5056SOL     OW16066   6.598   4.542   3.117
 5056SOL    HW116067   6.549   4.469   3.069
 5056SOL    HW216068   6.688   4.509   3.145
 5057SOL     OW16069   0.186   6.154   2.278
 5057SOL    HW116070   0.168   6.227   2.344
 5057SOL    HW216071   0.117   6.082   2.288
 5058SOL     OW16072   2.582   5.885   5.860
 5058SOL    HW116073   2.572   5.830   5.777
 5058SOL    HW216074   2.574   5.825   5.940
 5059SOL     OW16075   6.815   0.401   1.592
 5059SOL    HW116076   6.842   0.317   1.638
 5059SOL    HW216077   6.809   0.475   1.659
 5060SOL     OW16078   0.331   2.520   6.412
 5060SOL    HW116079   0.320   2.420   6.411
 5060SOL    HW216080   0.241   2.563   6.404
 5061SOL     OW16081   5.723   3.233   0.624
 5061SOL    HW116082   5.768   3.200   0.707
 5061SOL    HW216083   5.636   3.187   0.612
 5062SOL     OW16084   6.364   0.215   0.121
 5062SOL    HW116085   6.446   0.177   0.164
 5062SOL    HW216086   6.309   0.262   0.190
 5063SOL     OW16087   1.181   6.594   2.612
 5063SOL    HW116088   1.268   6.544   2.604
 5063SOL    HW216089   1.147   6.587   2.705
 5064SOL     OW16090   5.128   3.992   6.941
 5064SOL    HW116091   5.181   3.932   6.881
 5064SOL    HW216092   5.074   4.056   6.886
 5065SOL     OW16093   2.972   6.496   6.127
 5065SOL    HW116094   2.925   6.500   6.039
 5065SOL    HW216095   2.912   6.454   6.195
 5066SOL     OW16096   4.725   4.831   0.328
 5066SOL    HW116097   4.631   4.852   0.355
 5066SOL    HW216098   4.736   4.732   0.322
 5067SOL     OW16099   5.336   1.260   6.731
 5067SOL    HW116100   5.362   1.208   6.813
 5067SOL    HW216101   5.364   1.210   6.649
 5068SOL     OW16102   3.698   4.944   0.827
 5068SOL    HW116103   3.714   4.858   0.779
 5068SOL    HW216104   3.666   4.925   0.920
 5069SOL     OW16105   6.783   5.212   3.038
 5069SOL    HW116106   6.735   5.299   3.045
 5069SOL    HW216107   6.737   5.153   2.972
 5070SOL     OW16108   5.086   2.301   3.625
 5070SOL    HW116109   5.142   2.304   3.708
 5070SOL    HW216110   5.087   2.208   3.587
 5071SOL     OW16111   5.394   0.984   1.278
 5071SOL    HW116112   5.395   1.038   1.194
 5071SOL    HW216113   5.301   0.980   1.315
 5072SOL     OW16114   0.602   3.704   1.337
 5072SOL    HW116115   0.509   3.681   1.309
 5072SOL    HW216116   0.599   3.766   1.415
 5073SOL     OW16117   3.577   2.020   3.314
 5073SOL    HW116118   3.579   2.027   3.214
 5073SOL    HW216119   3.666   1.992   3.348
 5074SOL     OW16120   4.289   4.247   5.327
 5074SOL    HW116121   4.189   4.248   5.337
 5074SOL    HW216122   4.314   4.294   5.243
 5075SOL     OW16123   0.192   0.283   4.035
 5075SOL    HW116124   0.105   0.286   3.985
 5075SOL    HW216125   0.191   0.204   4.097
 5076SOL     OW16126   4.943   0.738   1.184
 5076SOL    HW116127   4.846   0.720   1.168
 5076SOL    HW216128   4.965   0.831   1.155
 5077SOL     OW16129   6.511   2.541   2.940
 5077SOL    HW116130   6.528   2.612   3.009
 5077SOL    HW216131   6.563   2.562   2.857
 5078SOL     OW16132   0.285   1.063   4.588
 5078SOL    HW116133   0.349   0.997   4.549
 5078SOL    HW216134   0.335   1.136   4.635
 5079SOL     OW16135   4.743   4.900   4.884
 5079SOL    HW116136   4.662   4.942   4.925
 5079SOL    HW216137   4.777   4.827   4.944
 5080SOL     OW16138   5.928   0.921   6.439
 5080SOL    HW116139   5.947   1.018   6.448
 5080SOL    HW216140   6.009   0.874   6.405
 5081SOL     OW16141   3.180   2.978   3.273
 5081SOL    HW116142   3.224   3.045   3.333
 5081SOL    HW216143   3.232   2.892   3.276
 5082SOL     OW16144   0.902   1.481   5.565
 5082SOL    HW116145   0.814   1.515   5.597
 5082SOL    HW216146   0.946   1.429   5.639
 5083SOL     OW16147   0.808   3.884   1.746
 5083SOL    HW116148   0.855   3.820   1.807
 5083SOL    HW216149   0.875   3.928   1.685
 5084SOL     OW16150   1.270   5.558   2.132
 5084SOL    HW116151   1.231   5.606   2.211
 5084SOL    HW216152   1.226   5.591   2.049
 5085SOL     OW16153   6.343   3.929   0.127
 5085SOL    HW116154   6.361   3.950   0.031
 5085SOL    HW216155   6.416   3.872   0.163
 5086SOL     OW16156   6.295   5.491   4.939
 5086SOL    HW116157   6.355   5.422   4.901
 5086SOL    HW216158   6.330   5.582   4.917
 5087SOL     OW16159   5.278   5.341   5.416
 5087SOL    HW116160   5.313   5.427   5.380
 5087SOL    HW216161   5.320   5.265   5.368
 5088SOL     OW16162   6.210   1.002   6.823
 5088SOL    HW116163   6.200   1.067   6.748
 5088SOL    HW216164   6.140   0.930   6.814
 5089SOL     OW16165   5.463   2.497   4.056
 5089SOL    HW116166   5.559   2.514   4.035
 5089SOL    HW216167   5.457   2.435   4.134
 5090SOL     OW16168   1.401   5.162   0.265
 5090SOL    HW116169   1.347   5.241   0.235
 5090SOL    HW216170   1.394   5.089   0.197
 5091SOL     OW16171   0.790   6.144   3.562
 5091SOL    HW116172   0.762   6.239   3.576
 5091SOL    HW216173   0.889   6.136   3.571
 5092SOL     OW16174   3.381   2.847   1.509
 5092SOL    HW116175   3.350   2.759   1.544
 5092SOL    HW216176   3.320   2.920   1.543
 5093SOL     OW16177   0.676   0.957   1.703
 5093SOL    HW116178   0.770   0.937   1.731
 5093SOL    HW216179   0.631   0.871   1.679
 5094SOL     OW16180   0.235   0.082   6.525
 5094SOL    HW116181   0.255   7.022   6.577
 5094SOL    HW216182   0.281   0.077   6.436
 5095SOL     OW16183   2.979   0.412   5.482
 5095SOL    HW116184   3.055   0.352   5.506
 5095SOL    HW216185   2.947   0.389   5.390
 5096SOL     OW16186   3.394   6.051   2.415
 5096SOL    HW116187   3.463   5.982   2.436
 5096SOL    HW216188   3.434   6.142   2.419
 5097SOL     OW16189   1.297   1.957   6.657
 5097SOL    HW116190   1.269   1.909   6.740
 5097SOL    HW216191   1.389   1.929   6.631
 5098SOL     OW16192   0.572   2.369   2.936
 5098SOL    HW116193   0.557   2.283   2.984
 5098SOL    HW216194   0.567   2.445   3.001
 5099SOL     OW16195   0.464   1.366   4.221
 5099SOL    HW116196   0.508   1.312   4.149
 5099SOL    HW216197   0.376   1.401   4.187
 5100SOL     OW16198   4.573   4.831   5.658
 5100SOL    HW116199   4.621   4.891   5.723
 5100SOL    HW216200   4.636   4.802   5.586
 5101SOL     OW16201   5.602   6.226   0.784
 5101SOL    HW116202   5.678   6.171   0.749
 5101SOL    HW216203   5.539   6.168   0.835
 5102SOL     OW16204   3.178   5.868   3.716
 5102SOL    HW116205   3.220   5.823   3.638
 5102SOL    HW216206   3.249   5.910   3.773
 5103SOL     OW16207   1.272   1.646   3.714
 5103SOL    HW116208   1.368   1.622   3.699
 5103SOL    HW216209   1.241   1.708   3.642
 5104SOL     OW16210   0.843   0.682   0.587
 5104SOL    HW116211   0.826   0.610   0.520
 5104SOL    HW216212   0.923   0.735   0.560
 5105SOL     OW16213   1.588   3.137   6.642
 5105SOL    HW116214   1.583   3.194   6.561
 5105SOL    HW216215   1.573   3.041   6.617
 5106SOL     OW16216   2.111   6.928   2.275
 5106SOL    HW116217   2.201   6.901   2.307
 5106SOL    HW216218   2.118   7.013   2.223
 5107SOL     OW16219   1.900   6.685   6.286
 5107SOL    HW116220   1.891   6.689   6.386
 5107SOL    HW216221   1.907   6.589   6.257
 5108SOL     OW16222   3.804   3.860   4.575
 5108SOL    HW116223   3.729   3.905   4.623
 5108SOL    HW216224   3.849   3.795   4.636
 5109SOL     OW16225   0.324   1.987   2.963
 5109SOL    HW116226   0.389   2.052   3.002
 5109SOL    HW216227   0.270   2.033   2.892
 5110SOL     OW16228   2.342   6.384   5.387
 5110SOL    HW116229   2.257   6.380   5.439
 5110SOL    HW216230   2.400   6.307   5.414
 5111SOL     OW16231   1.332   0.460   6.655
 5111SOL    HW116232   1.402   0.518   6.697
 5111SOL    HW216233   1.374   0.373   6.628
 5112SOL     OW16234   0.315   0.061   2.701
 5112SOL    HW116235   0.343   0.082   2.795
 5112SOL    HW216236   0.288   0.145   2.655
 5113SOL     OW16237   0.553   1.175   6.726
 5113SOL    HW116238   0.594   1.164   6.635
 5113SOL    HW216239   0.587   1.103   6.786
 5114SOL     OW16240   4.979   5.707   6.581
 5114SOL    HW116241   5.069   5.679   6.615
 5114SOL    HW216242   4.955   5.650   6.502
 5115SOL     OW16243   2.629   4.039   5.364
 5115SOL    HW116244   2.722   4.006   5.348
 5115SOL    HW216245   2.567   3.999   5.297
 5116SOL     OW16246   6.885   3.992   1.230
 5116SOL    HW116247   6.797   3.947   1.214
 5116SOL    HW216248   6.875   4.091   1.220
 5117SOL     OW16249   2.649   5.388   2.977
 5117SOL    HW116250   2.639   5.486   2.992
 5117SOL    HW216251   2.745   5.363   2.979
 5118SOL     OW16252   4.126   0.099   1.268
 5118SOL    HW116253   4.182   0.179   1.290
 5118SOL    HW216254   4.182   0.016   1.274
 5119SOL     OW16255   6.113   0.739   2.292
 5119SOL    HW116256   6.189   0.719   2.230
 5119SOL    HW216257   6.128   0.693   2.380
 5120SOL     OW16258   3.259   1.524   1.846
 5120SOL    HW116259   3.166   1.489   1.859
 5120SOL    HW216260   3.324   1.449   1.856
 5121SOL     OW16261   0.410   3.904   4.213
 5121SOL    HW116262   0.472   3.832   4.243
 5121SOL    HW216263   0.360   3.940   4.292
 5122SOL     OW16264   2.200   5.531   2.990
 5122SOL    HW116265   2.249   5.563   2.909
 5122SOL    HW216266   2.266   5.519   3.065
 5123SOL     OW16267   6.049   3.214   2.698
 5123SOL    HW116268   6.093   3.283   2.756
 5123SOL    HW216269   5.999   3.260   2.624
 5124SOL     OW16270   3.093   5.989   0.722
 5124SOL    HW116271   3.191   5.967   0.721
 5124SOL    HW216272   3.076   6.059   0.791
 5125SOL     OW16273   0.691   1.815   5.996
 5125SOL    HW116274   0.716   1.884   6.064
 5125SOL    HW216275   0.604   1.841   5.953
 5126SOL     OW16276   4.398   1.664   0.329
 5126SOL    HW116277   4.310   1.683   0.371
 5126SOL    HW216278   4.455   1.746   0.332
 5127SOL     OW16279   4.857   3.647   6.394
 5127SOL    HW116280   4.837   3.735   6.349
 5127SOL    HW216281   4.771   3.601   6.417
 5128SOL     OW16282   0.288   0.546   6.502
 5128SOL    HW116283   0.255   0.478   6.567
 5128SOL    HW216284   0.367   0.594   6.541
 5129SOL     OW16285   4.775   2.808   4.083
 5129SOL    HW116286   4.756   2.815   4.181
 5129SOL    HW216287   4.779   2.900   4.044
 5130SOL     OW16288   2.497   6.623   4.630
 5130SOL    HW116289   2.471   6.702   4.575
 5130SOL    HW216290   2.420   6.560   4.635
 5131SOL     OW16291   3.236   4.970   3.015
 5131SOL    HW116292   3.258   4.951   3.110
 5131SOL    HW216293   3.146   5.012   3.009
 5132SOL     OW16294   3.560   1.945   6.371
 5132SOL    HW116295   3.505   1.884   6.313
 5132SOL    HW216296   3.518   2.036   6.372
 5133SOL     OW16297   4.251   4.500   6.050
 5133SOL    HW116298   4.155   4.477   6.067
 5133SOL    HW216299   4.269   4.498   5.951
 5134SOL     OW16300   5.922   6.054   0.611
 5134SOL    HW116301   5.948   6.048   0.515
 5134SOL    HW216302   5.958   5.976   0.661
 5135SOL     OW16303   0.537   3.036   2.219
 5135SOL    HW116304   0.451   3.085   2.206
 5135SOL    HW216305   0.561   2.988   2.134
 5136SOL     OW16306   0.229   0.102   4.257
 5136SOL    HW116307   0.134   0.130   4.252
 5136SOL    HW216308   0.261   0.112   4.352
 5137SOL     OW16309   5.728   0.667   2.709
 5137SOL    HW116310   5.741   0.763   2.684
 5137SOL    HW216311   5.635   0.639   2.685
 5138SOL     OW16312   3.233   3.610   2.842
 5138SOL    HW116313   3.246   3.708   2.829
 5138SOL    HW216314   3.169   3.594   2.917
 5139SOL     OW16315   5.027   0.692   4.774
 5139SOL    HW116316   5.027   0.635   4.692
 5139SOL    HW216317   5.120   0.701   4.808
 5140SOL     OW16318   2.801   3.817   6.058
 5140SOL    HW116319   2.706   3.801   6.033
 5140SOL    HW216320   2.839   3.890   6.001
 5141SOL     OW16321   1.086   3.092   1.045
 5141SOL    HW116322   1.142   3.152   1.102
 5141SOL    HW216323   1.119   2.999   1.052
 5142SOL     OW16324   0.301   6.837   2.568
 5142SOL    HW116325   0.368   6.842   2.494
 5142SOL    HW216326   0.309   6.917   2.627
 5143SOL     OW16327   6.239   6.654   2.793
 5143SOL    HW116328   6.337   6.638   2.788
 5143SOL    HW216329   6.193   6.607   2.717
 5144SOL     OW16330   2.201   2.991   5.296
 5144SOL    HW116331   2.118   3.000   5.241
 5144SOL    HW216332   2.280   2.987   5.235
 5145SOL     OW16333   1.375   5.461   5.492
 5145SOL    HW116334   1.381   5.532   5.561
 5145SOL    HW216335   1.367   5.372   5.536
 5146SOL     OW16336   5.636   6.205   6.836
 5146SOL    HW116337   5.704   6.134   6.820
 5146SOL    HW216338   5.642   6.236   6.931
 5147SOL     OW16339   4.965   1.238   3.321
 5147SOL    HW116340   5.002   1.305   3.256
 5147SOL    HW216341   4.878   1.272   3.357
 5148SOL     OW16342   5.853   1.767   0.822
 5148SOL    HW116343   5.813   1.698   0.762
 5148SOL    HW216344   5.885   1.845   0.768
 5149SOL     OW16345   3.037   6.209   3.639
 5149SOL    HW116346   3.050   6.164   3.551
 5149SOL    HW216347   3.089   6.294   3.640
 5150SOL     OW16348   6.662   0.653   3.827
 5150SOL    HW116349   6.702   0.712   3.757
 5150SOL    HW216350   6.638   0.708   3.907
 5151SOL     OW16351   5.295   4.546   1.957
 5151SOL    HW116352   5.236   4.472   1.922
 5151SOL    HW216353   5.343   4.514   2.038
 5152SOL     OW16354   2.162   1.707   0.220
 5152SOL    HW116355   2.229   1.734   0.289
 5152SOL    HW216356   2.107   1.786   0.194
 5153SOL     OW16357   2.587   2.333   0.031
 5153SOL    HW116358   2.497   2.375   0.041
 5153SOL    HW216359   2.654   2.384   0.085
 5154SOL     OW16360   0.567   2.623   0.178
 5154SOL    HW116361   0.564   2.634   0.278
 5154SOL    HW216362   0.524   2.702   0.135
 5155SOL     OW16363   1.558   0.640   0.268
 5155SOL    HW116364   1.585   0.620   0.173
 5155SOL    HW216365   1.627   0.698   0.311
 5156SOL     OW16366   5.574   5.161   6.298
 5156SOL    HW116367   5.626   5.108   6.230
 5156SOL    HW216368   5.549   5.101   6.374
 5157SOL     OW16369   3.390   1.282   1.864
 5157SOL    HW116370   3.331   1.236   1.930
 5157SOL    HW216371   3.417   1.217   1.792
 5158SOL     OW16372   1.631   2.819   2.823
 5158SOL    HW116373   1.655   2.783   2.733
 5158SOL    HW216374   1.586   2.748   2.877
 5159SOL     OW16375   6.604   2.881   5.221
 5159SOL    HW116376   6.550   2.941   5.162
 5159SOL    HW216377   6.616   2.923   5.311
 5160SOL     OW16378   6.746   0.233   3.073
 5160SOL    HW116379   6.684   0.296   3.121
 5160SOL    HW216380   6.746   0.254   2.976
 5161SOL     OW16381   1.064   1.877   6.523
 5161SOL    HW116382   1.093   1.781   6.532
 5161SOL    HW216383   1.115   1.933   6.589
 5162SOL     OW16384   0.263   6.879   5.554
 5162SOL    HW116385   0.250   6.850   5.649
 5162SOL    HW216386   0.284   6.800   5.497
 5163SOL     OW16387   2.980   0.892   1.425
 5163SOL    HW116388   3.014   0.978   1.463
 5163SOL    HW216389   2.888   0.874   1.460
 5164SOL     OW16390   2.480   3.051   0.401
 5164SOL    HW116391   2.386   3.016   0.404
 5164SOL    HW216392   2.544   2.975   0.413
 5165SOL     OW16393   0.975   5.204   5.556
 5165SOL    HW116394   0.915   5.161   5.625
 5165SOL    HW216395   1.063   5.226   5.598
 5166SOL     OW16396   6.820   6.024   5.529
 5166SOL    HW116397   6.834   6.087   5.606
 5166SOL    HW216398   6.724   6.026   5.502
 5167SOL     OW16399   6.430   3.654   6.222
 5167SOL    HW116400   6.366   3.686   6.292
 5167SOL    HW216401   6.451   3.557   6.237
 5168SOL     OW16402   5.025   1.799   3.317
 5168SOL    HW116403   5.124   1.784   3.319
 5168SOL    HW216404   4.999   1.858   3.393
 5169SOL     OW16405   5.090   5.568   4.404
 5169SOL    HW116406   5.060   5.658   4.435
 5169SOL    HW216407   5.016   5.525   4.351
 5170SOL     OW16408   2.347   3.545   6.135
 5170SOL    HW116409   2.447   3.547   6.140
 5170SOL    HW216410   2.318   3.547   6.040
 5171SOL     OW16411   2.210   6.497   5.723
 5171SOL    HW116412   2.220   6.584   5.771
 5171SOL    HW216413   2.157   6.511   5.639
 5172SOL     OW16414   5.516   5.377   6.020
 5172SOL    HW116415   5.453   5.335   6.085
 5172SOL    HW216416   5.599   5.406   6.067
 5173SOL     OW16417   3.922   6.062   4.111
 5173SOL    HW116418   3.991   6.117   4.158
 5173SOL    HW216419   3.852   6.123   4.073
 5174SOL     OW16420   0.665   5.792   3.263
 5174SOL    HW116421   0.663   5.833   3.172
 5174SOL    HW216422   0.591   5.829   3.318
 5175SOL     OW16423   2.961   1.464   6.705
 5175SOL    HW116424   2.902   1.484   6.783
 5175SOL    HW216425   2.922   1.504   6.623
 5176SOL     OW16426   5.828   6.576   6.209
 5176SOL    HW116427   5.814   6.671   6.183
 5176SOL    HW216428   5.836   6.570   6.309
 5177SOL     OW16429   5.617   5.771   0.648
 5177SOL    HW116430   5.641   5.776   0.552
 5177SOL    HW216431   5.517   5.775   0.658
 5178SOL     OW16432   0.979   4.240   0.840
 5178SOL    HW116433   1.059   4.260   0.897
 5178SOL    HW216434   0.959   4.143   0.845
 5179SOL     OW16435   4.047   5.333   2.823
 5179SOL    HW116436   3.977   5.264   2.837
 5179SOL    HW216437   4.022   5.391   2.745
 5180SOL     OW16438   2.572   5.015   2.077
 5180SOL    HW116439   2.485   5.039   2.036
 5180SOL    HW216440   2.632   4.975   2.008
 5181SOL     OW16441   6.605   1.380   5.811
 5181SOL    HW116442   6.529   1.319   5.833
 5181SOL    HW216443   6.631   1.367   5.715
 5182SOL     OW16444   2.009   6.381   2.123
 5182SOL    HW116445   1.921   6.405   2.165
 5182SOL    HW216446   1.993   6.324   2.043
 5183SOL     OW16447   5.472   1.938   3.418
 5183SOL    HW116448   5.509   2.000   3.350
 5183SOL    HW216449   5.546   1.897   3.470
 5184SOL     OW16450   3.055   1.371   2.487
 5184SOL    HW116451   2.974   1.415   2.527
 5184SOL    HW216452   3.131   1.436   2.485
 5185SOL     OW16453   6.429   0.099   1.585
 5185SOL    HW116454   6.451   0.196   1.582
 5185SOL    HW216455   6.329   0.088   1.583
 5186SOL     OW16456   5.987   2.461   6.729
 5186SOL    HW116457   6.047   2.540   6.717
 5186SOL    HW216458   6.033   2.394   6.787
 5187SOL     OW16459   1.527   4.455   4.832
 5187SOL    HW116460   1.515   4.532   4.770
 5187SOL    HW216461   1.610   4.405   4.808
 5188SOL     OW16462   0.182   0.106   1.666
 5188SOL    HW116463   0.147   0.157   1.587
 5188SOL    HW216464   0.262   0.053   1.638
 5189SOL     OW16465   5.469   6.033   6.660
 5189SOL    HW116466   5.516   6.099   6.719
 5189SOL    HW216467   5.410   5.975   6.715
 5190SOL     OW16468   1.468   5.051   0.887
 5190SOL    HW116469   1.495   4.987   0.816
 5190SOL    HW216470   1.487   5.145   0.857
 5191SOL     OW16471   2.842   4.169   1.555
 5191SOL    HW116472   2.823   4.083   1.507
 5191SOL    HW216473   2.894   4.149   1.638
 5192SOL     OW16474   0.738   4.460   2.833
 5192SOL    HW116475   0.777   4.370   2.850
 5192SOL    HW216476   0.647   4.450   2.793
 5193SOL     OW16477   3.875   0.307   4.788
 5193SOL    HW116478   3.855   0.261   4.874
 5193SOL    HW216479   3.952   0.261   4.743
 5194SOL     OW16480   4.757   1.476   5.287
 5194SOL    HW116481   4.725   1.464   5.193
 5194SOL    HW216482   4.754   1.573   5.311
 5195SOL     OW16483   2.080   1.310   5.332
 5195SOL    HW116484   2.132   1.396   5.341
 5195SOL    HW216485   2.135   1.235   5.367
 5196SOL     OW16486   5.732   6.374   3.258
 5196SOL    HW116487   5.712   6.276   3.255
 5196SOL    HW216488   5.830   6.388   3.263
 5197SOL     OW16489   1.866   3.965   5.221
 5197SOL    HW116490   1.833   4.010   5.138
 5197SOL    HW216491   1.966   3.969   5.224
 5198SOL     OW16492   6.420   5.746   3.799
 5198SOL    HW116493   6.490   5.782   3.862
 5198SOL    HW216494   6.337   5.801   3.807
 5199SOL     OW16495   0.977   5.459   1.283
 5199SOL    HW116496   0.887   5.477   1.323
 5199SOL    HW216497   0.967   5.428   1.189
 5200SOL     OW16498   6.587   3.971   5.084
 5200SOL    HW116499   6.682   3.942   5.076
 5200SOL    HW216500   6.545   3.974   4.993
 5201SOL     OW16501   0.614   6.099   4.783
 5201SOL    HW116502   0.582   6.021   4.837
 5201SOL    HW216503   0.656   6.166   4.844
 5202SOL     OW16504   0.154   4.338   1.536
 5202SOL    HW116505   0.166   4.250   1.488
 5202SOL    HW216506   0.108   4.402   1.475
 5203SOL     OW16507   6.749   3.172   6.448
 5203SOL    HW116508   6.760   3.130   6.358
 5203SOL    HW216509   6.803   3.256   6.453
 5204SOL     OW16510   5.117   5.457   6.535
 5204SOL    HW116511   5.150   5.465   6.441
 5204SOL    HW216512   5.180   5.506   6.597
 5205SOL     OW16513   2.570   5.830   0.193
 5205SOL    HW116514   2.573   5.917   0.144
 5205SOL    HW216515   2.617   5.840   0.281
 5206SOL     OW16516   0.680   4.445   5.146
 5206SOL    HW116517   0.616   4.511   5.106
 5206SOL    HW216518   0.639   4.403   5.227
 5207SOL     OW16519   1.514   5.811   2.032
 5207SOL    HW116520   1.551   5.737   2.087
 5207SOL    HW216521   1.589   5.873   2.006
 5208SOL     OW16522   4.645   1.611   6.977
 5208SOL    HW116523   4.653   1.667   0.037
 5208SOL    HW216524   4.696   1.526   6.989
 5209SOL     OW16525   6.110   5.060   3.135
 5209SOL    HW116526   6.132   4.968   3.167
 5209SOL    HW216527   6.194   5.108   3.111
 5210SOL     OW16528   5.128   3.913   3.556
 5210SOL    HW116529   5.088   3.900   3.647
 5210SOL    HW216530   5.091   3.845   3.493
 5211SOL     OW16531   3.264   3.951   2.521
 5211SOL    HW116532   3.329   3.875   2.527
 5211SOL    HW216533   3.176   3.923   2.559
 5212SOL     OW16534   0.728   0.113   6.692
 5212SOL    HW116535   0.652   0.048   6.692
 5212SOL    HW216536   0.813   0.064   6.672
 5213SOL     OW16537   5.020   2.092   6.130
 5213SOL    HW116538   4.952   2.044   6.185
 5213SOL    HW216539   5.079   2.025   6.084
 5214SOL     OW16540   4.546   1.879   0.296
 5214SOL    HW116541   4.619   1.853   0.233
 5214SOL    HW216542   4.571   1.963   0.344
 5215SOL     OW16543   5.719   5.307   4.158
 5215SOL    HW116544   5.671   5.220   4.145
 5215SOL    HW216545   5.733   5.324   4.255
 5216SOL     OW16546   4.282   6.142   1.273
 5216SOL    HW116547   4.301   6.080   1.349
 5216SOL    HW216548   4.301   6.095   1.187
 5217SOL     OW16549   3.090   4.855   3.856
 5217SOL    HW116550   3.064   4.859   3.953
 5217SOL    HW216551   3.008   4.865   3.800
 5218SOL     OW16552   1.646   0.339   3.258
 5218SOL    HW116553   1.573   0.291   3.211
 5218SOL    HW216554   1.712   0.373   3.192
 5219SOL     OW16555   3.209   0.026   1.223
 5219SOL    HW116556   3.294   0.019   1.170
 5219SOL    HW216557   3.231   0.028   1.320
 5220SOL     OW16558   0.991   6.735   2.464
 5220SOL    HW116559   0.904   6.735   2.512
 5220SOL    HW216560   1.062   6.699   2.525
 5221SOL     OW16561   4.704   0.767   0.384
 5221SOL    HW116562   4.614   0.727   0.366
 5221SOL    HW216563   4.725   0.758   0.482
 5222SOL     OW16564   0.681   6.459   2.473
 5222SOL    HW116565   0.681   6.559   2.473
 5222SOL    HW216566   0.591   6.425   2.500
 5223SOL     OW16567   4.163   6.746   1.453
 5223SOL    HW116568   4.128   6.679   1.518
 5223SOL    HW216569   4.110   6.830   1.459
 5224SOL     OW16570   5.703   0.727   3.914
 5224SOL    HW116571   5.734   0.681   3.997
 5224SOL    HW216572   5.763   0.703   3.838
 5225SOL     OW16573   0.341   7.006   5.250
 5225SOL    HW116574   0.404   7.013   5.173
 5225SOL    HW216575   0.373   0.041   5.325
 5226SOL     OW16576   2.564   0.706   4.009
 5226SOL    HW116577   2.584   0.803   4.022
 5226SOL    HW216578   2.550   0.688   3.911
 5227SOL     OW16579   5.040   3.468   4.601
 5227SOL    HW116580   5.014   3.388   4.546
 5227SOL    HW216581   5.117   3.444   4.660
 5228SOL     OW16582   4.864   0.010   1.656
 5228SOL    HW116583   4.948   6.985   1.681
 5228SOL    HW216584   4.810   6.975   1.595
 5229SOL     OW16585   0.676   3.926   3.722
 5229SOL    HW116586   0.655   3.837   3.682
 5229SOL    HW216587   0.639   3.998   3.663
 5230SOL     OW16588   0.467   1.573   6.351
 5230SOL    HW116589   0.453   1.668   6.323
 5230SOL    HW216590   0.388   1.541   6.403
 5231SOL     OW16591   2.914   3.565   3.926
 5231SOL    HW116592   2.948   3.555   4.020
 5231SOL    HW216593   2.901   3.474   3.886
 5232SOL     OW16594   5.138   3.008   4.946
 5232SOL    HW116595   5.063   3.040   4.888
 5232SOL    HW216596   5.110   2.924   4.992
 5233SOL     OW16597   0.911   6.778   2.953
 5233SOL    HW116598   0.853   6.737   3.023
 5233SOL    HW216599   0.978   6.838   2.996
 5234SOL     OW16600   4.048   4.789   1.321
 5234SOL    HW116601   4.100   4.706   1.343
 5234SOL    HW216602   3.981   4.806   1.393
 5235SOL     OW16603   1.046   2.573   1.844
 5235SOL    HW116604   1.075   2.483   1.810
 5235SOL    HW216605   1.082   2.587   1.936
 5236SOL     OW16606   6.319   3.621   0.404
 5236SOL    HW116607   6.336   3.681   0.325
 5236SOL    HW216608   6.268   3.540   0.374
 5237SOL     OW16609   1.927   1.943   2.658
 5237SOL    HW116610   1.860   1.876   2.691
 5237SOL    HW216611   1.976   1.905   2.580
 5238SOL     OW16612   2.323   3.103   0.864
 5238SOL    HW116613   2.284   3.172   0.802
 5238SOL    HW216614   2.363   3.029   0.810
 5239SOL     OW16615   2.880   3.362   5.341
 5239SOL    HW116616   2.979   3.346   5.332
 5239SOL    HW216617   2.831   3.277   5.323
 5240SOL     OW16618   3.803   2.070   4.628
 5240SOL    HW116619   3.776   2.166   4.635
 5240SOL    HW216620   3.896   2.064   4.593
 5241SOL     OW16621   3.942   5.675   5.421
 5241SOL    HW116622   3.891   5.617   5.485
 5241SOL    HW216623   3.936   5.770   5.451
 5242SOL     OW16624   3.918   0.251   5.520
 5242SOL    HW116625   3.926   0.325   5.586
 5242SOL    HW216626   3.888   0.168   5.567
 5243SOL     OW16627   1.322   3.844   0.688
 5243SOL    HW116628   1.257   3.823   0.761
 5243SOL    HW216629   1.335   3.763   0.631
 5244SOL     OW16630   5.693   3.811   6.960
 5244SOL    HW116631   5.687   3.759   6.875
 5244SOL    HW216632   5.677   3.749   0.014
 5245SOL     OW16633   4.636   3.821   5.942
 5245SOL    HW116634   4.717   3.763   5.939
 5245SOL    HW216635   4.555   3.766   5.962
 5246SOL     OW16636   1.146   3.438   3.356
 5246SOL    HW116637   1.202   3.451   3.274
 5246SOL    HW216638   1.205   3.427   3.436
 5247SOL     OW16639   0.688   4.900   0.438
 5247SOL    HW116640   0.784   4.874   0.430
 5247SOL    HW216641   0.661   4.898   0.535
 5248SOL     OW16642   4.971   1.115   0.256
 5248SOL    HW116643   4.982   1.017   0.275
 5248SOL    HW216644   4.902   1.128   0.186
 5249SOL     OW16645   1.171   5.524   6.983
 5249SOL    HW116646   1.149   5.598   0.023
 5249SOL    HW216647   1.249   5.551   6.927
 5250SOL     OW16648   1.040   1.499   5.932
 5250SOL    HW116649   1.005   1.593   5.927
 5250SOL    HW216650   1.096   1.481   5.851
 5251SOL     OW16651   0.650   2.788   1.077
 5251SOL    HW116652   0.569   2.847   1.089
 5251SOL    HW216653   0.641   2.707   1.134
 5252SOL     OW16654   4.806   6.145   1.106
 5252SOL    HW116655   4.709   6.123   1.109
 5252SOL    HW216656   4.847   6.102   1.025
 5253SOL     OW16657   5.607   2.972   3.917
 5253SOL    HW116658   5.578   3.027   3.995
 5253SOL    HW216659   5.620   2.877   3.946
 5254SOL     OW16660   5.579   0.376   4.374
 5254SOL    HW116661   5.657   0.439   4.374
 5254SOL    HW216662   5.594   0.305   4.305
 5255SOL     OW16663   2.504   5.572   3.228
 5255SOL    HW116664   2.536   5.567   3.323
 5255SOL    HW216665   2.426   5.510   3.217
 5256SOL     OW16666   4.975   5.924   2.142
 5256SOL    HW116667   5.000   5.992   2.211
 5256SOL    HW216668   4.937   5.843   2.186
 5257SOL     OW16669   2.917   1.264   2.844
 5257SOL    HW116670   2.883   1.182   2.798
 5257SOL    HW216671   2.860   1.342   2.818
 5258SOL     OW16672   5.735   1.818   1.639
 5258SOL    HW116673   5.796   1.861   1.572
 5258SOL    HW216674   5.655   1.782   1.591
 5259SOL     OW16675   6.071   4.688   1.970
 5259SOL    HW116676   6.113   4.603   1.941
 5259SOL    HW216677   5.977   4.693   1.935
 5260SOL     OW16678   4.690   2.906   1.649
 5260SOL    HW116679   4.655   2.953   1.731
 5260SOL    HW216680   4.694   2.808   1.666
 5261SOL     OW16681   2.473   2.570   5.248
 5261SOL    HW116682   2.438   2.606   5.161
 5261SOL    HW216683   2.485   2.646   5.312
 5262SOL     OW16684   1.349   0.325   1.648
 5262SOL    HW116685   1.270   0.278   1.688
 5262SOL    HW216686   1.318   0.406   1.598
 5263SOL     OW16687   1.133   6.761   6.923
 5263SOL    HW116688   1.046   6.715   6.903
 5263SOL    HW216689   1.129   6.801   7.015
 5264SOL     OW16690   1.133   0.950   0.701
 5264SOL    HW116691   1.174   1.038   0.725
 5264SOL    HW216692   1.137   0.888   0.779
 5265SOL     OW16693   5.182   4.846   4.397
 5265SOL    HW116694   5.257   4.846   4.463
 5265SOL    HW216695   5.203   4.784   4.323
 5266SOL     OW16696   1.593   0.393   0.963
 5266SOL    HW116697   1.583   0.416   1.061
 5266SOL    HW216698   1.511   0.422   0.914
 5267SOL     OW16699   4.003   4.085   5.291
 5267SOL    HW116700   4.051   4.055   5.373
 5267SOL    HW216701   4.017   4.018   5.217
 5268SOL     OW16702   5.755   5.157   5.640
 5268SOL    HW116703   5.791   5.072   5.678
 5268SOL    HW216704   5.825   5.200   5.583
 5269SOL     OW16705   2.283   5.373   5.509
 5269SOL    HW116706   2.279   5.321   5.594
 5269SOL    HW216707   2.209   5.344   5.449
 5270SOL     OW16708   6.518   2.347   3.577
 5270SOL    HW116709   6.593   2.282   3.589
 5270SOL    HW216710   6.551   2.439   3.597
 5271SOL     OW16711   5.508   3.509   5.121
 5271SOL    HW116712   5.416   3.487   5.090
 5271SOL    HW216713   5.537   3.597   5.081
 5272SOL     OW16714   2.285   2.165   3.979
 5272SOL    HW116715   2.316   2.089   3.923
 5272SOL    HW216716   2.363   2.209   4.023
 5273SOL     OW16717   6.667   0.514   5.791
 5273SOL    HW116718   6.695   0.424   5.825
 5273SOL    HW216719   6.586   0.544   5.841
 5274SOL     OW16720   0.337   5.404   4.216
 5274SOL    HW116721   0.270   5.381   4.287
 5274SOL    HW216722   0.347   5.503   4.211
 5275SOL     OW16723   2.235   6.310   0.022
 5275SOL    HW116724   2.143   6.275   0.003
 5275SOL    HW216725   2.297   6.284   6.972
 5276SOL     OW16726   0.855   0.284   0.216
 5276SOL    HW116727   0.911   0.206   0.246
 5276SOL    HW216728   0.863   0.294   0.117
 5277SOL     OW16729   0.496   1.224   1.667
 5277SOL    HW116730   0.576   1.219   1.607
 5277SOL    HW216731   0.509   1.163   1.745
 5278SOL     OW16732   0.863   4.786   6.143
 5278SOL    HW116733   0.952   4.755   6.177
 5278SOL    HW216734   0.877   4.851   6.069
 5279SOL     OW16735   2.151   6.588   0.004
 5279SOL    HW116736   2.112   6.642   0.079
 5279SOL    HW216737   2.184   6.500   0.040
 5280SOL     OW16738   4.359   6.731   5.792
 5280SOL    HW116739   4.438   6.691   5.746
 5280SOL    HW216740   4.388   6.767   5.881
 5281SOL     OW16741   2.387   6.760   5.097
 5281SOL    HW116742   2.399   6.676   5.043
 5281SOL    HW216743   2.396   6.839   5.037
 5282SOL     OW16744   6.630   5.929   0.878
 5282SOL    HW116745   6.681   5.943   0.793
 5282SOL    HW216746   6.692   5.895   0.948
 5283SOL     OW16747   1.539   0.771   4.375
 5283SOL    HW116748   1.485   0.834   4.320
 5283SOL    HW216749   1.621   0.744   4.324
 5284SOL     OW16750   4.780   2.896   2.222
 5284SOL    HW116751   4.867   2.850   2.237
 5284SOL    HW216752   4.784   2.946   2.136
 5285SOL     OW16753   1.750   1.981   4.517
 5285SOL    HW116754   1.848   1.985   4.536
 5285SOL    HW216755   1.713   2.074   4.508
 5286SOL     OW16756   6.930   2.998   1.478
 5286SOL    HW116757   6.981   3.022   1.560
 5286SOL    HW216758   6.832   3.013   1.494
 5287SOL     OW16759   0.690   5.215   2.098
 5287SOL    HW116760   0.711   5.122   2.127
 5287SOL    HW216761   0.672   5.217   1.999
 5288SOL     OW16762   4.228   1.234   1.444
 5288SOL    HW116763   4.315   1.205   1.485
 5288SOL    HW216764   4.159   1.164   1.460
 5289SOL     OW16765   2.084   4.903   6.176
 5289SOL    HW116766   2.010   4.971   6.180
 5289SOL    HW216767   2.114   4.893   6.081
 5290SOL     OW16768   1.573   2.988   5.115
 5290SOL    HW116769   1.555   3.079   5.076
 5290SOL    HW216770   1.500   2.925   5.088
 5291SOL     OW16771   2.548   5.298   4.420
 5291SOL    HW116772   2.570   5.379   4.367
 5291SOL    HW216773   2.517   5.325   4.511
 5292SOL     OW16774   0.279   3.857   4.863
 5292SOL    HW116775   0.306   3.778   4.807
 5292SOL    HW216776   0.324   3.852   4.952
 5293SOL     OW16777   2.253   0.460   3.586
 5293SOL    HW116778   2.317   0.386   3.563
 5293SOL    HW216779   2.190   0.428   3.657
 5294SOL     OW16780   4.960   0.170   4.139
 5294SOL    HW116781   4.899   0.092   4.131
 5294SOL    HW216782   5.053   0.139   4.156
 5295SOL     OW16783   2.219   0.834   1.235
 5295SOL    HW116784   2.281   0.802   1.163
 5295SOL    HW216785   2.125   0.809   1.211
 5296SOL     OW16786   4.794   4.964   1.923
 5296SOL    HW116787   4.807   4.903   2.001
 5296SOL    HW216788   4.763   4.910   1.845
 5297SOL     OW16789   3.557   5.040   5.962
 5297SOL    HW116790   3.617   5.111   5.925
 5297SOL    HW216791   3.556   5.047   6.062
 5298SOL     OW16792   2.960   1.455   0.060
 5298SOL    HW116793   2.926   1.364   0.080
 5298SOL    HW216794   3.045   1.448   0.007
 5299SOL     OW16795   2.125   0.441   1.343
 5299SOL    HW116796   2.160   0.350   1.367
 5299SOL    HW216797   2.108   0.493   1.427
 5300SOL     OW16798   3.282   5.003   6.482
 5300SOL    HW116799   3.242   4.912   6.475
 5300SOL    HW216800   3.250   5.047   6.566
 5301SOL     OW16801   6.122   6.642   5.602
 5301SOL    HW116802   6.037   6.600   5.570
 5301SOL    HW216803   6.158   6.703   5.532
 5302SOL     OW16804   4.983   5.274   2.712
 5302SOL    HW116805   4.976   5.371   2.690
 5302SOL    HW216806   4.942   5.257   2.802
 5303SOL     OW16807   1.065   6.152   5.245
 5303SOL    HW116808   1.112   6.211   5.311
 5303SOL    HW216809   1.133   6.103   5.190
 5304SOL     OW16810   0.284   0.677   3.081
 5304SOL    HW116811   0.324   0.586   3.078
 5304SOL    HW216812   0.287   0.718   2.990
 5305SOL     OW16813   0.011   5.490   4.800
 5305SOL    HW116814   0.009   5.400   4.844
 5305SOL    HW216815   0.044   5.479   4.706
 5306SOL     OW16816   1.000   2.072   6.072
 5306SOL    HW116817   1.062   2.023   6.011
 5306SOL    HW216818   0.915   2.019   6.082
 5307SOL     OW16819   0.389   1.448   1.516
 5307SOL    HW116820   0.303   1.448   1.465
 5307SOL    HW216821   0.412   1.353   1.541
 5308SOL     OW16822   2.031   4.595   2.503
 5308SOL    HW116823   2.031   4.533   2.581
 5308SOL    HW216824   2.005   4.545   2.420
 5309SOL     OW16825   5.663   6.126   3.592
 5309SOL    HW116826   5.689   6.198   3.655
 5309SOL    HW216827   5.663   6.038   3.640
 5310SOL     OW16828   6.643   2.200   3.148
 5310SOL    HW116829   6.632   2.232   3.054
 5310SOL    HW216830   6.563   2.146   3.175
 5311SOL     OW16831   6.075   6.994   0.323
 5311SOL    HW116832   6.038   6.975   0.414
 5311SOL    HW216833   6.039   0.058   0.290
 5312SOL     OW16834   5.881   6.613   0.759
 5312SOL    HW116835   5.893   6.514   0.770
 5312SOL    HW216836   5.893   6.638   0.663
 5313SOL     OW16837   1.614   6.879   5.637
 5313SOL    HW116838   1.705   6.920   5.629
 5313SOL    HW216839   1.595   6.823   5.556
 5314SOL     OW16840   5.884   1.946   1.426
 5314SOL    HW116841   5.894   2.034   1.380
 5314SOL    HW216842   5.917   1.873   1.366
 5315SOL     OW16843   4.165   2.265   3.710
 5315SOL    HW116844   4.195   2.231   3.621
 5315SOL    HW216845   4.067   2.251   3.720
 5316SOL     OW16846   0.406   2.996   5.114
 5316SOL    HW116847   0.411   2.915   5.172
 5316SOL    HW216848   0.417   2.969   5.019
 5317SOL     OW16849   5.361   3.341   0.122
 5317SOL    HW116850   5.305   3.424   0.122
 5317SOL    HW216851   5.443   3.357   0.177
 5318SOL     OW16852   0.169   3.816   5.502
 5318SOL    HW116853   0.139   3.797   5.595
 5318SOL    HW216854   0.162   3.914   5.485
 5319SOL     OW16855   3.563   6.483   2.291
 5319SOL    HW116856   3.623   6.414   2.249
 5319SOL    HW216857   3.517   6.444   2.370
 5320SOL     OW16858   4.920   6.076   0.837
 5320SOL    HW116859   4.884   5.984   0.853
 5320SOL    HW216860   4.943   6.087   0.741
 5321SOL     OW16861   1.745   4.161   5.933
 5321SOL    HW116862   1.829   4.174   5.987
 5321SOL    HW216863   1.677   4.114   5.989
 5322SOL     OW16864   3.860   6.407   2.156
 5322SOL    HW116865   3.805   6.325   2.141
 5322SOL    HW216866   3.845   6.471   2.081
 5323SOL     OW16867   4.049   0.373   6.224
 5323SOL    HW116868   4.123   0.364   6.157
 5323SOL    HW216869   4.011   0.283   6.244
 5324SOL     OW16870   1.206   2.054   1.549
 5324SOL    HW116871   1.283   1.996   1.520
 5324SOL    HW216872   1.207   2.063   1.648
 5325SOL     OW16873   2.013   2.638   5.107
 5325SOL    HW116874   2.104   2.680   5.112
 5325SOL    HW216875   1.961   2.662   5.190
 5326SOL     OW16876   5.926   6.886   1.349
 5326SOL    HW116877   6.001   6.865   1.412
 5326SOL    HW216878   5.899   6.802   1.301
 5327SOL     OW16879   0.360   2.659   5.612
 5327SOL    HW116880   0.328   2.691   5.701
 5327SOL    HW216881   0.460   2.659   5.610
 5328SOL     OW16882   4.279   5.109   0.381
 5328SOL    HW116883   4.351   5.159   0.331
 5328SOL    HW216884   4.221   5.060   0.316
 5329SOL     OW16885   2.044   6.521   6.012
 5329SOL    HW116886   2.064   6.617   6.030
 5329SOL    HW216887   2.126   6.466   6.030
 5330SOL     OW16888   2.765   4.928   1.373
 5330SOL    HW116889   2.690   4.862   1.373
 5330SOL    HW216890   2.728   5.021   1.367
 5331SOL     OW16891   6.288   1.315   6.715
 5331SOL    HW116892   6.347   1.330   6.795
 5331SOL    HW216893   6.194   1.340   6.738
 5332SOL     OW16894   0.837   4.346   1.511
 5332SOL    HW116895   0.763   4.309   1.567
 5332SOL    HW216896   0.900   4.273   1.487
 5333SOL     OW16897   1.044   6.475   5.139
 5333SOL    HW116898   1.047   6.569   5.105
 5333SOL    HW216899   0.996   6.473   5.227
 5334SOL     OW16900   3.477   6.990   5.107
 5334SOL    HW116901   3.569   0.002   5.127
 5334SOL    HW216902   3.429   6.972   5.193
 5335SOL     OW16903   6.810   5.997   0.650
 5335SOL    HW116904   6.874   6.040   0.713
 5335SOL    HW216905   6.780   6.064   0.582
 5336SOL     OW16906   1.512   4.416   1.167
 5336SOL    HW116907   1.446   4.477   1.123
 5336SOL    HW216908   1.574   4.471   1.223
 5337SOL     OW16909   5.077   4.469   1.654
 5337SOL    HW116910   5.018   4.548   1.672
 5337SOL    HW216911   5.110   4.432   1.740
 5338SOL     OW16912   5.310   2.892   0.146
 5338SOL    HW116913   5.348   2.954   0.078
 5338SOL    HW216914   5.333   2.924   0.238
 5339SOL     OW16915   6.189   0.396   1.750
 5339SOL    HW116916   6.106   0.355   1.787
 5339SOL    HW216917   6.183   0.495   1.758
 5340SOL     OW16918   4.972   2.648   6.638
 5340SOL    HW116919   5.029   2.628   6.558
 5340SOL    HW216920   4.986   2.578   6.708
 5341SOL     OW16921   4.695   0.692   1.078
 5341SOL    HW116922   4.693   0.750   0.996
 5341SOL    HW216923   4.661   0.601   1.055
 5342SOL     OW16924   2.775   0.184   6.285
 5342SOL    HW116925   2.727   0.098   6.267
 5342SOL    HW216926   2.822   0.177   6.374
 5343SOL     OW16927   3.468   3.928   1.675
 5343SOL    HW116928   3.444   3.991   1.748
 5343SOL    HW216929   3.385   3.883   1.641
 5344SOL     OW16930   2.167   2.612   2.558
 5344SOL    HW116931   2.070   2.624   2.578
 5344SOL    HW216932   2.219   2.609   2.644
 5345SOL     OW16933   4.600   0.494   2.988
 5345SOL    HW116934   4.678   0.537   3.033
 5345SOL    HW216935   4.546   0.564   2.941
 5346SOL     OW16936   3.013   0.531   3.916
 5346SOL    HW116937   2.914   0.532   3.911
 5346SOL    HW216938   3.042   0.555   4.009
 5347SOL     OW16939   6.484   1.501   1.538
 5347SOL    HW116940   6.513   1.494   1.443
 5347SOL    HW216941   6.547   1.561   1.588
 5348SOL     OW16942   6.419   1.615   0.447
 5348SOL    HW116943   6.475   1.633   0.528
 5348SOL    HW216944   6.395   1.518   0.443
 5349SOL     OW16945   5.898   0.229   1.464
 5349SOL    HW116946   5.986   0.251   1.421
 5349SOL    HW216947   5.860   0.310   1.508
 5350SOL     OW16948   2.501   0.262   6.507
 5350SOL    HW116949   2.535   0.352   6.478
 5350SOL    HW216950   2.576   0.210   6.548
 5351SOL     OW16951   3.976   1.058   2.465
 5351SOL    HW116952   4.016   1.140   2.425
 5351SOL    HW216953   3.889   1.038   2.421
 5352SOL     OW16954   3.206   6.502   3.968
 5352SOL    HW116955   3.277   6.488   3.899
 5352SOL    HW216956   3.119   6.522   3.923
 5353SOL     OW16957   6.004   0.075   5.910
 5353SOL    HW116958   6.045   0.066   6.000
 5353SOL    HW216959   6.052   0.145   5.858
 5354SOL     OW16960   1.811   3.584   0.961
 5354SOL    HW116961   1.746   3.646   0.917
 5354SOL    HW216962   1.790   3.577   1.058
 5355SOL     OW16963   4.491   1.410   6.076
 5355SOL    HW116964   4.506   1.430   5.979
 5355SOL    HW216965   4.472   1.312   6.087
 5356SOL     OW16966   6.523   3.364   0.766
 5356SOL    HW116967   6.612   3.318   0.760
 5356SOL    HW216968   6.451   3.300   0.739
 5357SOL     OW16969   4.021   6.018   0.480
 5357SOL    HW116970   4.007   6.106   0.524
 5357SOL    HW216971   4.115   5.986   0.497
 5358SOL     OW16972   5.239   4.317   1.841
 5358SOL    HW116973   5.296   4.267   1.775
 5358SOL    HW216974   5.158   4.263   1.863
 5359SOL     OW16975   3.243   0.080   6.716
 5359SOL    HW116976   3.277   0.017   6.646
 5359SOL    HW216977   3.201   0.160   6.672
 5360SOL     OW16978   4.384   1.248   0.024
 5360SOL    HW116979   4.458   1.233   0.089
 5360SOL    HW216980   4.415   1.313   6.977
 5361SOL     OW16981   1.490   1.077   6.336
 5361SOL    HW116982   1.487   0.981   6.364
 5361SOL    HW216983   1.409   1.124   6.370
 5362SOL     OW16984   4.144   5.784   3.292
 5362SOL    HW116985   4.162   5.688   3.316
 5362SOL    HW216986   4.225   5.839   3.311
 5363SOL     OW16987   0.646   5.482   4.698
 5363SOL    HW116988   0.591   5.412   4.744
 5363SOL    HW216989   0.586   5.538   4.640
 5364SOL     OW16990   1.420   6.037   6.934
 5364SOL    HW116991   1.347   6.011   6.871
 5364SOL    HW216992   1.479   6.105   6.891
 5365SOL     OW16993   3.621   2.025   6.056
 5365SOL    HW116994   3.612   2.121   6.081
 5365SOL    HW216995   3.630   1.970   6.139
 5366SOL     OW16996   3.568   3.900   6.289
 5366SOL    HW116997   3.478   3.939   6.309
 5366SOL    HW216998   3.637   3.973   6.291
 5367SOL     OW16999   0.328   4.711   1.145
 5367SOL    HW117000   0.229   4.719   1.130
 5367SOL    HW217001   0.375   4.708   1.057
 5368SOL     OW17002   0.795   0.703   4.067
 5368SOL    HW117003   0.829   0.622   4.018
 5368SOL    HW217004   0.703   0.724   4.035
 5369SOL     OW17005   2.128   3.573   2.562
 5369SOL    HW117006   2.096   3.542   2.472
 5369SOL    HW217007   2.172   3.663   2.552
 5370SOL     OW17008   3.821   2.961   1.430
 5370SOL    HW117009   3.873   3.046   1.425
 5370SOL    HW217010   3.762   2.963   1.511
 5371SOL     OW17011   1.839   4.173   4.992
 5371SOL    HW117012   1.740   4.160   4.987
 5371SOL    HW217013   1.859   4.270   5.002
 5372SOL     OW17014   3.176   6.053   2.554
 5372SOL    HW117015   3.137   6.144   2.550
 5372SOL    HW217016   3.268   6.054   2.515
 5373SOL     OW17017   1.403   5.195   3.819
 5373SOL    HW117018   1.400   5.289   3.855
 5373SOL    HW217019   1.326   5.143   3.857
 5374SOL     OW17020   3.100   2.428   0.489
 5374SOL    HW117021   3.040   2.472   0.556
 5374SOL    HW217022   3.142   2.497   0.431
 5375SOL     OW17023   0.969   3.806   5.142
 5375SOL    HW117024   0.973   3.785   5.240
 5375SOL    HW217025   0.898   3.751   5.099
 5376SOL     OW17026   2.996   4.456   6.225
 5376SOL    HW117027   2.986   4.552   6.197
 5376SOL    HW217028   2.979   4.397   6.146
 5377SOL     OW17029   0.865   2.084   1.970
 5377SOL    HW117030   0.859   2.142   1.889
 5377SOL    HW217031   0.791   2.017   1.968
 5378SOL     OW17032   5.096   0.460   6.867
 5378SOL    HW117033   5.147   0.385   6.825
 5378SOL    HW217034   4.998   0.444   6.854
 5379SOL     OW17035   0.421   6.993   0.375
 5379SOL    HW117036   0.402   6.925   0.304
 5379SOL    HW217037   0.468   0.048   0.334
 5380SOL     OW17038   1.923   1.307   5.042
 5380SOL    HW117039   1.961   1.393   5.009
 5380SOL    HW217040   1.926   1.305   5.142
 5381SOL     OW17041   6.056   3.709   2.037
 5381SOL    HW117042   5.960   3.693   2.016
 5381SOL    HW217043   6.112   3.642   1.989
 5382SOL     OW17044   1.647   6.741   1.636
 5382SOL    HW117045   1.632   6.656   1.686
 5382SOL    HW217046   1.667   6.815   1.700
 5383SOL     OW17047   2.596   2.015   4.817
 5383SOL    HW117048   2.617   1.983   4.725
 5383SOL    HW217049   2.507   2.061   4.817
 5384SOL     OW17050   5.441   6.929   4.403
 5384SOL    HW117051   5.342   6.918   4.408
 5384SOL    HW217052   5.480   6.921   4.494
 5385SOL     OW17053   3.608   4.032   2.994
 5385SOL    HW117054   3.646   4.041   2.902
 5385SOL    HW217055   3.679   3.999   3.056
 5386SOL     OW17056   5.874   6.612   5.508
 5386SOL    HW117057   5.863   6.618   5.408
 5386SOL    HW217058   5.813   6.541   5.544
 5387SOL     OW17059   3.773   5.007   1.215
 5387SOL    HW117060   3.740   5.074   1.148
 5387SOL    HW217061   3.832   4.940   1.169
 5388SOL     OW17062   5.952   5.831   3.056
 5388SOL    HW117063   5.859   5.842   3.091
 5388SOL    HW217064   5.980   5.736   3.064
 5389SOL     OW17065   5.984   3.251   1.187
 5389SOL    HW117066   6.080   3.257   1.216
 5389SOL    HW217067   5.956   3.338   1.146
 5390SOL     OW17068   6.542   5.359   6.295
 5390SOL    HW117069   6.466   5.334   6.235
 5390SOL    HW217070   6.506   5.401   6.379
 5391SOL     OW17071   3.524   3.856   6.873
 5391SOL    HW117072   3.584   3.861   6.793
 5391SOL    HW217073   3.429   3.847   6.843
 5392SOL     OW17074   0.068   2.700   2.859
 5392SOL    HW117075   0.149   2.642   2.858
 5392SOL    HW217076   0.076   2.772   2.790
 5393SOL     OW17077   6.512   6.864   6.330
 5393SOL    HW117078   6.425   6.910   6.348
 5393SOL    HW217079   6.537   6.875   6.234
 5394SOL     OW17080   1.966   3.716   5.923
 5394SOL    HW117081   1.884   3.773   5.913
 5394SOL    HW217082   1.950   3.646   5.993
 5395SOL     OW17083   4.462   0.796   1.528
 5395SOL    HW117084   4.522   0.790   1.448
 5395SOL    HW217085   4.418   0.885   1.530
 5396SOL     OW17086   4.649   2.607   1.347
 5396SOL    HW117087   4.611   2.536   1.407
 5396SOL    HW217088   4.584   2.682   1.339
 5397SOL     OW17089   1.491   2.586   1.844
 5397SOL    HW117090   1.583   2.547   1.844
 5397SOL    HW217091   1.472   2.626   1.934
 5398SOL     OW17092   3.213   3.033   2.818
 5398SOL    HW117093   3.306   2.998   2.805
 5398SOL    HW217094   3.184   3.019   2.912
 5399SOL     OW17095   0.498   5.409   0.159
 5399SOL    HW117096   0.470   5.387   0.253
 5399SOL    HW217097   0.418   5.440   0.108
 5400SOL     OW17098   2.272   3.327   7.016
 5400SOL    HW117099   2.183   3.339   6.971
 5400SOL    HW217100   2.264   3.255   0.062
 5401SOL     OW17101   6.515   1.921   0.750
 5401SOL    HW117102   6.442   1.871   0.705
 5401SOL    HW217103   6.485   1.948   0.842
 5402SOL     OW17104   1.184   6.122   2.401
 5402SOL    HW117105   1.202   6.105   2.304
 5402SOL    HW217106   1.138   6.210   2.411
 5403SOL     OW17107   6.273   3.098   6.720
 5403SOL    HW117108   6.357   3.099   6.665
 5403SOL    HW217109   6.219   3.180   6.700
 5404SOL     OW17110   0.861   3.105   3.451
 5404SOL    HW117111   0.898   3.132   3.363
 5404SOL    HW217112   0.810   3.181   3.491
 5405SOL     OW17113   6.764   4.393   5.481
 5405SOL    HW117114   6.843   4.452   5.463
 5405SOL    HW217115   6.741   4.342   5.399
 5406SOL     OW17116   1.535   7.008   3.939
 5406SOL    HW117117   1.624   7.004   3.893
 5406SOL    HW217118   1.464   6.977   3.877
 5407SOL     OW17119   4.261   3.472   6.761
 5407SOL    HW117120   4.328   3.398   6.762
 5407SOL    HW217121   4.281   3.537   6.834
 5408SOL     OW17122   3.607   1.105   6.340
 5408SOL    HW117123   3.631   1.037   6.270
 5408SOL    HW217124   3.682   1.111   6.406
 5409SOL     OW17125   4.981   0.656   1.663
 5409SOL    HW117126   5.076   0.646   1.634
 5409SOL    HW217127   4.978   0.703   1.751
 5410SOL     OW17128   1.473   2.839   3.443
 5410SOL    HW117129   1.443   2.796   3.358
 5410SOL    HW217130   1.396   2.845   3.507
 5411SOL     OW17131   2.208   4.765   4.755
 5411SOL    HW117132   2.224   4.668   4.769
 5411SOL    HW217133   2.268   4.818   4.816
 5412SOL     OW17134   6.258   2.120   2.259
 5412SOL    HW117135   6.195   2.190   2.292
 5412SOL    HW217136   6.213   2.031   2.260
 5413SOL     OW17137   1.477   6.761   2.740
 5413SOL    HW117138   1.437   6.725   2.655
 5413SOL    HW217139   1.567   6.800   2.720
 5414SOL     OW17140   4.015   7.005   6.086
 5414SOL    HW117141   3.936   6.962   6.041
 5414SOL    HW217142   4.017   0.079   6.063
 5415SOL     OW17143   6.586   3.644   2.881
 5415SOL    HW117144   6.647   3.723   2.882
 5415SOL    HW217145   6.570   3.612   2.974
 5416SOL     OW17146   4.157   5.316   4.338
 5416SOL    HW117147   4.191   5.223   4.324
 5416SOL    HW217148   4.062   5.312   4.368
 5417SOL     OW17149   3.035   6.997   5.727
 5417SOL    HW117150   3.033   6.898   5.741
 5417SOL    HW217151   2.984   0.019   5.800
 5418SOL     OW17152   3.786   1.083   2.997
 5418SOL    HW117153   3.806   0.996   2.951
 5418SOL    HW217154   3.868   1.139   2.999
 5419SOL     OW17155   3.136   4.234   6.919
 5419SOL    HW117156   3.057   4.294   6.921
 5419SOL    HW217157   3.106   4.138   6.927
 5420SOL     OW17158   0.987   2.223   2.931
 5420SOL    HW117159   0.998   2.170   3.015
 5420SOL    HW217160   1.002   2.320   2.950
 5421SOL     OW17161   2.114   2.161   0.639
 5421SOL    HW117162   2.053   2.093   0.680
 5421SOL    HW217163   2.095   2.251   0.679
 5422SOL     OW17164   0.894   3.301   0.247
 5422SOL    HW117165   0.979   3.273   0.202
 5422SOL    HW217166   0.909   3.302   0.346
 5423SOL     OW17167   4.618   2.829   5.745
 5423SOL    HW117168   4.584   2.866   5.831
 5423SOL    HW217169   4.718   2.834   5.743
 5424SOL     OW17170   5.204   3.014   5.561
 5424SOL    HW117171   5.264   3.060   5.626
 5424SOL    HW217172   5.253   2.999   5.475
 5425SOL     OW17173   5.137   1.056   4.957
 5425SOL    HW117174   5.198   1.044   5.036
 5425SOL    HW217175   5.192   1.067   4.874
 5426SOL     OW17176   0.551   0.105   4.654
 5426SOL    HW117177   0.598   0.127   4.739
 5426SOL    HW217178   0.618   0.094   4.581
 5427SOL     OW17179   4.098   0.323   0.181
 5427SOL    HW117180   4.032   0.373   0.127
 5427SOL    HW217181   4.086   0.224   0.166
 5428SOL     OW17182   1.601   1.049   6.878
 5428SOL    HW117183   1.694   1.013   6.877
 5428SOL    HW217184   1.594   1.123   6.945
 5429SOL     OW17185   0.814   2.368   6.091
 5429SOL    HW117186   0.759   2.334   6.015
 5429SOL    HW217187   0.877   2.297   6.122
 5430SOL     OW17188   2.178   2.892   5.587
 5430SOL    HW117189   2.186   2.932   5.496
 5430SOL    HW217190   2.115   2.815   5.584
 5431SOL     OW17191   3.473   5.626   4.256
 5431SOL    HW117192   3.525   5.676   4.324
 5431SOL    HW217193   3.526   5.619   4.172
 5432SOL     OW17194   5.521   5.237   1.266
 5432SOL    HW117195   5.437   5.289   1.281
 5432SOL    HW217196   5.527   5.163   1.333
 5433SOL     OW17197   0.730   1.737   3.985
 5433SOL    HW117198   0.669   1.767   3.912
 5433SOL    HW217199   0.799   1.674   3.947
 5434SOL     OW17200   2.461   6.567   4.932
 5434SOL    HW117201   2.527   6.532   4.998
 5434SOL    HW217202   2.508   6.594   4.849
 5435SOL     OW17203   4.998   1.251   2.158
 5435SOL    HW117204   4.987   1.208   2.068
 5435SOL    HW217205   4.908   1.270   2.197
 5436SOL     OW17206   5.568   3.744   3.024
 5436SOL    HW117207   5.542   3.822   3.081
 5436SOL    HW217208   5.533   3.660   3.065
 5437SOL     OW17209   3.957   4.918   6.073
 5437SOL    HW117210   4.046   4.875   6.089
 5437SOL    HW217211   3.901   4.910   6.156
 5438SOL     OW17212   6.559   0.628   0.807
 5438SOL    HW117213   6.652   0.596   0.826
 5438SOL    HW217214   6.502   0.614   0.888
 5439SOL     OW17215   1.297   3.152   0.668
 5439SOL    HW117216   1.276   3.235   0.721
 5439SOL    HW217217   1.228   3.141   0.596
 5440SOL     OW17218   2.041   1.140   1.575
 5440SOL    HW117219   2.110   1.087   1.526
 5440SOL    HW217220   2.085   1.215   1.623
 5441SOL     OW17221   3.642   1.898   4.472
 5441SOL    HW117222   3.545   1.911   4.491
 5441SOL    HW217223   3.696   1.952   4.536
 5442SOL     OW17224   3.271   1.145   2.056
 5442SOL    HW117225   3.264   1.047   2.039
 5442SOL    HW217226   3.283   1.161   2.154
 5443SOL     OW17227   2.085   6.461   5.460
 5443SOL    HW117228   2.004   6.414   5.494
 5443SOL    HW217229   2.058   6.545   5.413
 5444SOL     OW17230   0.653   1.293   3.462
 5444SOL    HW117231   0.554   1.281   3.471
 5444SOL    HW217232   0.680   1.381   3.501
 5445SOL     OW17233   6.161   3.457   2.009
 5445SOL    HW117234   6.229   3.388   2.032
 5445SOL    HW217235   6.105   3.476   2.090
 5446SOL     OW17236   6.477   6.027   6.000
 5446SOL    HW117237   6.577   6.027   5.993
 5446SOL    HW217238   6.438   6.062   5.915
 5447SOL     OW17239   3.020   2.341   0.940
 5447SOL    HW117240   3.044   2.323   1.035
 5447SOL    HW217241   3.066   2.424   0.909
 5448SOL     OW17242   5.416   1.516   6.564
 5448SOL    HW117243   5.392   1.602   6.609
 5448SOL    HW217244   5.455   1.452   6.630
 5449SOL     OW17245   0.342   2.786   6.844
 5449SOL    HW117246   0.248   2.764   6.818
 5449SOL    HW217247   0.405   2.752   6.775
 5450SOL     OW17248   2.577   6.143   0.911
 5450SOL    HW117249   2.662   6.125   0.861
 5450SOL    HW217250   2.584   6.105   1.003
 5451SOL     OW17251   2.649   0.545   2.961
 5451SOL    HW117252   2.647   0.634   2.915
 5451SOL    HW217253   2.590   0.480   2.912
 5452SOL     OW17254   2.482   4.041   5.852
 5452SOL    HW117255   2.463   3.945   5.869
 5452SOL    HW217256   2.580   4.053   5.832
 5453SOL     OW17257   0.509   5.353   5.629
 5453SOL    HW117258   0.577   5.426   5.626
 5453SOL    HW217259   0.419   5.390   5.608
 5454SOL     OW17260   0.828   4.003   5.295
 5454SOL    HW117261   0.784   3.958   5.218
 5454SOL    HW217262   0.927   3.995   5.286
 5455SOL     OW17263   6.613   2.160   0.627
 5455SOL    HW117264   6.548   2.086   0.642
 5455SOL    HW217265   6.603   2.228   0.700
 5456SOL     OW17266   3.439   6.803   1.258
 5456SOL    HW117267   3.432   6.879   1.323
 5456SOL    HW217268   3.535   6.791   1.231
 5457SOL     OW17269   6.664   3.877   1.149
 5457SOL    HW117270   6.578   3.827   1.160
 5457SOL    HW217271   6.655   3.942   1.073
 5458SOL     OW17272   1.713   4.460   5.913
 5458SOL    HW117273   1.628   4.456   5.860
 5458SOL    HW217274   1.739   4.368   5.941
 5459SOL     OW17275   2.375   3.995   6.134
 5459SOL    HW117276   2.324   4.015   6.217
 5459SOL    HW217277   2.312   3.966   6.062
 5460SOL     OW17278   3.999   0.164   3.954
 5460SOL    HW117279   3.952   0.242   3.914
 5460SOL    HW217280   3.937   0.115   4.016
 5461SOL     OW17281   4.418   6.652   4.945
 5461SOL    HW117282   4.417   6.695   5.035
 5461SOL    HW217283   4.450   6.718   4.877
 5462SOL     OW17284   0.333   0.408   1.383
 5462SOL    HW117285   0.333   0.459   1.297
 5462SOL    HW217286   0.396   0.452   1.447
 5463SOL     OW17287   6.706   3.074   0.896
 5463SOL    HW117288   6.692   2.992   0.840
 5463SOL    HW217289   6.771   3.135   0.849
 5464SOL     OW17290   1.599   6.429   4.726
 5464SOL    HW117291   1.515   6.379   4.702
 5464SOL    HW217292   1.643   6.460   4.642
 5465SOL     OW17293   3.010   5.746   6.727
 5465SOL    HW117294   3.037   5.709   6.639
 5465SOL    HW217295   3.016   5.674   6.797
 5466SOL     OW17296   5.659   5.791   4.551
 5466SOL    HW117297   5.640   5.731   4.473
 5466SOL    HW217298   5.598   5.870   4.548
 5467SOL     OW17299   5.921   1.761   1.874
 5467SOL    HW117300   5.858   1.810   1.813
 5467SOL    HW217301   5.969   1.691   1.822
 5468SOL     OW17302   4.210   1.192   6.397
 5468SOL    HW117303   4.224   1.113   6.456
 5468SOL    HW217304   4.288   1.254   6.407
 5469SOL     OW17305   4.896   4.671   1.630
 5469SOL    HW117306   4.799   4.679   1.655
 5469SOL    HW217307   4.947   4.748   1.667
 5470SOL     OW17308   0.456   4.717   3.199
 5470SOL    HW117309   0.362   4.752   3.199
 5470SOL    HW217310   0.464   4.643   3.131
 5471SOL     OW17311   6.592   4.464   2.336
 5471SOL    HW117312   6.681   4.498   2.367
 5471SOL    HW217313   6.520   4.529   2.360
 5472SOL     OW17314   3.558   5.462   5.029
 5472SOL    HW117315   3.570   5.421   5.119
 5472SOL    HW217316   3.545   5.390   4.961
 5473SOL     OW17317   1.344   4.498   3.708
 5473SOL    HW117318   1.442   4.504   3.689
 5473SOL    HW217319   1.295   4.563   3.650
 5474SOL     OW17320   1.190   6.172   3.261
 5474SOL    HW117321   1.219   6.189   3.167
 5474SOL    HW217322   1.246   6.100   3.301
 5475SOL     OW17323   3.239   3.038   1.660
 5475SOL    HW117324   3.151   3.082   1.674
 5475SOL    HW217325   3.252   2.967   1.730
 5476SOL     OW17326   1.823   3.088   6.778
 5476SOL    HW117327   1.729   3.105   6.749
 5476SOL    HW217328   1.822   3.037   6.864
 5477SOL     OW17329   2.296   2.403   2.156
 5477SOL    HW117330   2.352   2.482   2.182
 5477SOL    HW217331   2.297   2.336   2.230
 5478SOL     OW17332   6.685   5.388   5.631
 5478SOL    HW117333   6.674   5.292   5.655
 5478SOL    HW217334   6.724   5.437   5.709
 5479SOL     OW17335   4.372   6.274   5.335
 5479SOL    HW117336   4.382   6.201   5.267
 5479SOL    HW217337   4.462   6.313   5.355
 5480SOL     OW17338   0.265   2.210   5.746
 5480SOL    HW117339   0.168   2.186   5.747
 5480SOL    HW217340   0.282   2.278   5.675
 5481SOL     OW17341   3.888   6.441   3.216
 5481SOL    HW117342   3.944   6.485   3.285
 5481SOL    HW217343   3.858   6.351   3.249
 5482SOL     OW17344   1.605   6.264   1.929
 5482SOL    HW117345   1.678   6.197   1.913
 5482SOL    HW217346   1.632   6.327   2.002
 5483SOL     OW17347   1.076   2.270   6.261
 5483SOL    HW117348   1.013   2.201   6.227
 5483SOL    HW217349   1.070   2.275   6.361
 5484SOL     OW17350   5.413   0.151   4.699
 5484SOL    HW117351   5.510   0.159   4.673
 5484SOL    HW217352   5.403   0.079   4.767
 5485SOL     OW17353   3.574   0.857   4.575
 5485SOL    HW117354   3.632   0.936   4.594
 5485SOL    HW217355   3.500   0.854   4.643
 5486SOL     OW17356   3.522   5.055   3.958
 5486SOL    HW117357   3.472   5.138   3.983
 5486SOL    HW217358   3.536   4.999   4.039
 5487SOL     OW17359   3.322   6.042   5.035
 5487SOL    HW117360   3.352   6.120   4.979
 5487SOL    HW217361   3.402   6.000   5.078
 5488SOL     OW17362   5.141   2.229   6.339
 5488SOL    HW117363   5.100   2.320   6.342
 5488SOL    HW217364   5.102   2.177   6.262
 5489SOL     OW17365   6.856   2.679   4.190
 5489SOL    HW117366   6.791   2.645   4.258
 5489SOL    HW217367   6.944   2.633   4.203
 5490SOL     OW17368   0.957   5.288   2.099
 5490SOL    HW117369   0.998   5.251   2.016
 5490SOL    HW217370   0.864   5.252   2.109
 5491SOL     OW17371   6.279   4.274   0.600
 5491SOL    HW117372   6.296   4.226   0.514
 5491SOL    HW217373   6.185   4.307   0.602
 5492SOL     OW17374   0.622   1.994   6.787
 5492SOL    HW117375   0.618   2.082   6.740
 5492SOL    HW217376   0.533   1.974   6.828
 5493SOL     OW17377   4.336   4.219   6.875
 5493SOL    HW117378   4.320   4.234   6.777
 5493SOL    HW217379   4.334   4.121   6.894
 5494SOL     OW17380   5.824   2.646   5.869
 5494SOL    HW117381   5.878   2.730   5.871
 5494SOL    HW217382   5.730   2.666   5.897
 5495SOL     OW17383   5.832   0.717   0.813
 5495SOL    HW117384   5.762   0.769   0.862
 5495SOL    HW217385   5.805   0.706   0.718
 5496SOL     OW17386   4.273   6.341   5.885
 5496SOL    HW117387   4.198   6.406   5.893
 5496SOL    HW217388   4.255   6.277   5.811
 5497SOL     OW17389   0.955   6.967   5.924
 5497SOL    HW117390   0.879   6.928   5.872
 5497SOL    HW217391   0.970   0.038   5.894
 5498SOL     OW17392   0.828   5.870   1.589
 5498SOL    HW117393   0.781   5.908   1.669
 5498SOL    HW217394   0.825   5.770   1.593
 5499SOL     OW17395   2.104   0.410   3.806
 5499SOL    HW117396   2.188   0.405   3.860
 5499SOL    HW217397   2.054   0.493   3.831
 5500SOL     OW17398   1.754   6.194   1.653
 5500SOL    HW117399   1.726   6.100   1.634
 5500SOL    HW217400   1.695   6.257   1.604
 5501SOL     OW17401   5.347   3.806   0.553
 5501SOL    HW117402   5.434   3.845   0.584
 5501SOL    HW217403   5.276   3.876   0.557
 5502SOL     OW17404   4.748   3.422   0.030
 5502SOL    HW117405   4.814   3.479   7.004
 5502SOL    HW217406   4.687   3.377   6.987
 5503SOL     OW17407   6.364   3.443   1.223
 5503SOL    HW117408   6.410   3.529   1.246
 5503SOL    HW217409   6.290   3.426   1.288
 5504SOL     OW17410   3.341   2.023   6.800
 5504SOL    HW117411   3.352   2.070   6.712
 5504SOL    HW217412   3.310   2.089   6.868
 5505SOL     OW17413   2.560   5.344   2.263
 5505SOL    HW117414   2.593   5.250   2.268
 5505SOL    HW217415   2.574   5.389   2.351
 5506SOL     OW17416   6.403   2.585   6.069
 5506SOL    HW117417   6.342   2.658   6.101
 5506SOL    HW217418   6.357   2.532   5.998
 5507SOL     OW17419   3.970   6.749   0.529
 5507SOL    HW117420   3.971   6.840   0.487
 5507SOL    HW217421   3.893   6.742   0.592
 5508SOL     OW17422   6.480   1.891   6.386
 5508SOL    HW117423   6.543   1.933   6.321
 5508SOL    HW217424   6.394   1.942   6.387
 5509SOL     OW17425   6.231   4.187   0.180
 5509SOL    HW117426   6.274   4.127   0.248
 5509SOL    HW217427   6.279   4.178   0.093
 5510SOL     OW17428   5.798   5.511   0.148
 5510SOL    HW117429   5.784   5.610   0.143
 5510SOL    HW217430   5.724   5.464   0.101
 5511SOL     OW17431   0.975   2.705   6.229
 5511SOL    HW117432   1.064   2.700   6.182
 5511SOL    HW217433   0.934   2.614   6.231
 5512SOL     OW17434   3.051   0.001   2.180
 5512SOL    HW117435   3.089   6.957   2.243
 5512SOL    HW217436   2.958   0.024   2.207
 5513SOL     OW17437   3.912   4.511   6.565
 5513SOL    HW117438   3.971   4.555   6.634
 5513SOL    HW217439   3.967   4.481   6.488
 5514SOL     OW17440   3.704   1.252   0.173
 5514SOL    HW117441   3.635   1.187   0.141
 5514SOL    HW217442   3.723   1.235   0.269
 5515SOL     OW17443   3.403   5.145   2.441
 5515SOL    HW117444   3.421   5.063   2.387
 5515SOL    HW217445   3.309   5.141   2.477
 5516SOL     OW17446   1.231   2.716   6.084
 5516SOL    HW117447   1.191   2.675   6.002
 5516SOL    HW217448   1.320   2.674   6.103
 5517SOL     OW17449   0.868   2.255   4.321
 5517SOL    HW117450   0.833   2.183   4.381
 5517SOL    HW217451   0.968   2.257   4.326
 5518SOL     OW17452   4.490   4.232   5.847
 5518SOL    HW117453   4.542   4.171   5.907
 5518SOL    HW217454   4.438   4.177   5.781
 5519SOL     OW17455   5.136   2.491   5.834
 5519SOL    HW117456   5.093   2.441   5.910
 5519SOL    HW217457   5.085   2.474   5.750
 5520SOL     OW17458   5.075   6.023   1.321
 5520SOL    HW117459   5.090   6.013   1.420
 5520SOL    HW217460   5.065   6.120   1.299
 5521SOL     OW17461   4.418   0.555   2.199
 5521SOL    HW117462   4.362   0.474   2.179
 5521SOL    HW217463   4.405   0.582   2.294
 5522SOL     OW17464   4.831   6.339   6.737
 5522SOL    HW117465   4.867   6.418   6.787
 5522SOL    HW217466   4.904   6.273   6.722
 5523SOL     OW17467   5.132   2.081   0.719
 5523SOL    HW117468   5.038   2.051   0.703
 5523SOL    HW217469   5.171   2.117   0.634
 5524SOL     OW17470   2.433   1.585   3.031
 5524SOL    HW117471   2.470   1.677   3.021
 5524SOL    HW217472   2.456   1.530   2.950
 5525SOL     OW17473   6.967   1.164   0.919
 5525SOL    HW117474   7.020   1.226   0.978
 5525SOL    HW217475   7.012   1.075   0.917
 5526SOL     OW17476   5.177   4.419   4.016
 5526SOL    HW117477   5.210   4.472   4.094
 5526SOL    HW217478   5.223   4.331   4.014
 5527SOL     OW17479   6.645   0.346   2.608
 5527SOL    HW117480   6.583   0.296   2.547
 5527SOL    HW217481   6.608   0.437   2.626
 5528SOL     OW17482   1.502   1.301   0.148
 5528SOL    HW117483   1.542   1.361   0.218
 5528SOL    HW217484   1.504   1.346   0.059
 5529SOL     OW17485   3.647   0.155   2.203
 5529SOL    HW117486   3.640   0.228   2.135
 5529SOL    HW217487   3.722   0.175   2.266
 5530SOL     OW17488   0.890   1.548   1.361
 5530SOL    HW117489   0.984   1.520   1.346
 5530SOL    HW217490   0.847   1.572   1.274
 5531SOL     OW17491   1.335   4.602   0.149
 5531SOL    HW117492   1.367   4.583   0.242
 5531SOL    HW217493   1.326   4.700   0.136
 5532SOL     OW17494   0.315   4.562   6.136
 5532SOL    HW117495   0.397   4.616   6.115
 5532SOL    HW217496   0.305   4.555   6.235
 5533SOL     OW17497   3.113   1.015   3.226
 5533SOL    HW117498   3.064   0.995   3.311
 5533SOL    HW217499   3.048   1.026   3.151
 5534SOL     OW17500   1.399   0.553   4.672
 5534SOL    HW117501   1.335   0.581   4.600
 5534SOL    HW217502   1.348   0.532   4.755
 5535SOL     OW17503   0.211   1.814   2.578
 5535SOL    HW117504   0.213   1.885   2.507
 5535SOL    HW217505   0.304   1.800   2.613
 5536SOL     OW17506   4.497   0.321   4.354
 5536SOL    HW117507   4.446   0.364   4.279
 5536SOL    HW217508   4.540   0.391   4.410
 5537SOL     OW17509   2.556   2.511   2.757
 5537SOL    HW117510   2.474   2.456   2.741
 5537SOL    HW217511   2.536   2.606   2.732
 5538SOL     OW17512   4.130   5.366   3.628
 5538SOL    HW117513   4.046   5.419   3.625
 5538SOL    HW217514   4.202   5.419   3.674
 5539SOL     OW17515   2.488   3.955   0.104
 5539SOL    HW117516   2.404   3.988   0.062
 5539SOL    HW217517   2.517   3.870   0.060
 5540SOL     OW17518   3.798   5.367   1.222
 5540SOL    HW117519   3.739   5.306   1.169
 5540SOL    HW217520   3.802   5.457   1.177
 5541SOL     OW17521   4.921   0.333   6.433
 5541SOL    HW117522   5.015   0.325   6.465
 5541SOL    HW217523   4.894   0.429   6.434
 5542SOL     OW17524   5.831   4.092   6.324
 5542SOL    HW117525   5.840   4.167   6.389
 5542SOL    HW217526   5.867   4.008   6.365
 5543SOL     OW17527   0.581   2.137   5.093
 5543SOL    HW117528   0.623   2.228   5.091
 5543SOL    HW217529   0.493   2.141   5.140
 5544SOL     OW17530   5.546   0.331   6.872
 5544SOL    HW117531   5.461   0.323   6.925
 5544SOL    HW217532   5.551   0.423   6.831
 5545SOL     OW17533   2.476   2.604   1.866
 5545SOL    HW117534   2.408   2.531   1.866
 5545SOL    HW217535   2.443   2.680   1.922
 5546SOL     OW17536   3.431   5.679   4.897
 5546SOL    HW117537   3.483   5.608   4.945
 5546SOL    HW217538   3.490   5.725   4.831
 5547SOL     OW17539   2.969   5.177   3.772
 5547SOL    HW117540   3.044   5.236   3.803
 5547SOL    HW217541   2.970   5.170   3.673
 5548SOL     OW17542   6.928   1.900   4.996
 5548SOL    HW117543   6.892   1.946   4.915
 5548SOL    HW217544   6.885   1.939   5.078
 5549SOL     OW17545   3.256   5.512   6.173
 5549SOL    HW117546   3.201   5.477   6.096
 5549SOL    HW217547   3.333   5.565   6.137
 5550SOL     OW17548   2.614   6.122   2.772
 5550SOL    HW117549   2.565   6.084   2.850
 5550SOL    HW217550   2.560   6.197   2.733
 5551SOL     OW17551   0.621   1.187   2.537
 5551SOL    HW117552   0.566   1.161   2.457
 5551SOL    HW217553   0.684   1.260   2.512
 5552SOL     OW17554   2.196   2.345   2.463
 5552SOL    HW117555   2.113   2.291   2.478
 5552SOL    HW217556   2.177   2.441   2.478
 5553SOL     OW17557   5.297   6.396   6.556
 5553SOL    HW117558   5.197   6.395   6.557
 5553SOL    HW217559   5.330   6.358   6.469
 5554SOL     OW17560   3.488   0.420   5.047
 5554SOL    HW117561   3.430   0.459   5.118
 5554SOL    HW217562   3.444   0.339   5.009
 5555SOL     OW17563   1.154   5.933   1.633
 5555SOL    HW117564   1.142   5.863   1.563
 5555SOL    HW217565   1.107   5.904   1.717
 5556SOL     OW17566   6.751   1.389   4.901
 5556SOL    HW117567   6.725   1.327   4.828
 5556SOL    HW217568   6.785   1.475   4.862
 5557SOL     OW17569   3.679   0.734   2.300
 5557SOL    HW117570   3.741   0.664   2.334
 5557SOL    HW217571   3.715   0.825   2.324
 5558SOL     OW17572   4.943   2.777   6.038
 5558SOL    HW117573   4.883   2.700   6.058
 5558SOL    HW217574   4.960   2.782   5.939
 5559SOL     OW17575   2.842   0.483   0.856
 5559SOL    HW117576   2.939   0.491   0.878
 5559SOL    HW217577   2.787   0.531   0.925
 5560SOL     OW17578   0.149   1.876   4.853
 5560SOL    HW117579   0.215   1.824   4.908
 5560SOL    HW217580   0.068   1.893   4.908
 5561SOL     OW17581   2.043   4.493   1.911
 5561SOL    HW117582   1.984   4.466   1.835
 5561SOL    HW217583   2.017   4.584   1.942
 5562SOL     OW17584   3.634   2.282   0.347
 5562SOL    HW117585   3.585   2.245   0.426
 5562SOL    HW217586   3.685   2.363   0.376
 5563SOL     OW17587   3.877   4.462   1.029
 5563SOL    HW117588   3.877   4.428   1.123
 5563SOL    HW217589   3.820   4.544   1.023
 5564SOL     OW17590   6.509   1.344   2.082
 5564SOL    HW117591   6.560   1.427   2.056
 5564SOL    HW217592   6.440   1.324   2.012
 5565SOL     OW17593   1.374   3.017   5.735
 5565SOL    HW117594   1.404   3.082   5.804
 5565SOL    HW217595   1.426   2.932   5.744
 5566SOL     OW17596   2.512   4.212   0.554
 5566SOL    HW117597   2.524   4.207   0.455
 5566SOL    HW217598   2.553   4.132   0.597
 5567SOL     OW17599   1.226   5.518   3.215
 5567SOL    HW117600   1.180   5.544   3.299
 5567SOL    HW217601   1.325   5.522   3.227
 5568SOL     OW17602   3.516   2.742   0.267
 5568SOL    HW117603   3.581   2.743   0.342
 5568SOL    HW217604   3.528   2.658   0.213
 5569SOL     OW17605   4.791   1.738   6.561
 5569SOL    HW117606   4.824   1.790   6.640
 5569SOL    HW217607   4.869   1.707   6.506
 5570SOL     OW17608   1.785   2.517   5.690
 5570SOL    HW117609   1.883   2.530   5.677
 5570SOL    HW217610   1.757   2.554   5.779
 5571SOL     OW17611   0.598   4.642   6.467
 5571SOL    HW117612   0.656   4.572   6.508
 5571SOL    HW217613   0.649   4.728   6.461
 5572SOL     OW17614   0.480   3.433   5.977
 5572SOL    HW117615   0.550   3.415   6.046
 5572SOL    HW217616   0.465   3.351   5.922
 5573SOL     OW17617   6.744   3.586   6.603
 5573SOL    HW117618   6.770   3.669   6.651
 5573SOL    HW217619   6.646   3.586   6.587
 5574SOL     OW17620   2.073   6.088   4.350
 5574SOL    HW117621   2.019   6.045   4.278
 5574SOL    HW217622   2.013   6.117   4.424
 5575SOL     OW17623   1.037   1.423   3.063
 5575SOL    HW117624   0.992   1.336   3.082
 5575SOL    HW217625   1.106   1.441   3.134
 5576SOL     OW17626   5.249   6.853   6.043
 5576SOL    HW117627   5.256   6.795   5.961
 5576SOL    HW217628   5.214   6.798   6.119
 5577SOL     OW17629   1.402   4.740   4.719
 5577SOL    HW117630   1.433   4.833   4.737
 5577SOL    HW217631   1.329   4.742   4.650
 5578SOL     OW17632   4.139   1.600   6.013
 5578SOL    HW117633   4.190   1.580   6.097
 5578SOL    HW217634   4.172   1.542   5.939
 5579SOL     OW17635   4.784   4.749   2.526
 5579SOL    HW117636   4.796   4.753   2.625
 5579SOL    HW217637   4.820   4.663   2.491
 5580SOL     OW17638   6.432   1.167   1.643
 5580SOL    HW117639   6.435   1.267   1.636
 5580SOL    HW217640   6.518   1.135   1.683
 5581SOL     OW17641   3.288   3.215   0.777
 5581SOL    HW117642   3.209   3.230   0.837
 5581SOL    HW217643   3.298   3.118   0.758
 5582SOL     OW17644   2.879   3.651   4.780
 5582SOL    HW117645   2.786   3.680   4.803
 5582SOL    HW217646   2.930   3.633   4.864
 5583SOL     OW17647   3.850   0.616   6.556
 5583SOL    HW117648   3.945   0.619   6.585
 5583SOL    HW217649   3.795   0.674   6.615
 5584SOL     OW17650   4.937   3.300   4.329
 5584SOL    HW117651   4.934   3.400   4.319
 5584SOL    HW217652   5.005   3.263   4.266
 5585SOL     OW17653   0.212   0.866   3.671
 5585SOL    HW117654   0.196   0.777   3.715
 5585SOL    HW217655   0.133   0.925   3.685
 5586SOL     OW17656   1.827   0.495   6.769
 5586SOL    HW117657   1.917   0.467   6.737
 5586SOL    HW217658   1.833   0.529   6.863
 5587SOL     OW17659   3.269   5.781   3.129
 5587SOL    HW117660   3.258   5.880   3.126
 5587SOL    HW217661   3.181   5.739   3.151
 5588SOL     OW17662   4.837   5.633   6.985
 5588SOL    HW117663   4.774   5.556   6.995
 5588SOL    HW217664   4.813   5.685   6.903
 5589SOL     OW17665   1.614   2.670   6.746
 5589SOL    HW117666   1.549   2.596   6.764
 5589SOL    HW217667   1.660   2.695   6.831
 5590SOL     OW17668   6.495   0.554   3.402
 5590SOL    HW117669   6.459   0.472   3.447
 5590SOL    HW217670   6.520   0.621   3.471
 5591SOL     OW17671   5.110   1.100   6.411
 5591SOL    HW117672   5.073   1.041   6.483
 5591SOL    HW217673   5.195   1.141   6.443
 5592SOL     OW17674   1.320   3.725   2.799
 5592SOL    HW117675   1.410   3.689   2.774
 5592SOL    HW217676   1.258   3.648   2.817
 5593SOL     OW17677   2.153   3.634   5.271
 5593SOL    HW117678   2.160   3.626   5.370
 5593SOL    HW217679   2.172   3.545   5.229
 5594SOL     OW17680   3.106   0.916   5.989
 5594SOL    HW117681   3.128   0.825   5.954
 5594SOL    HW217682   3.156   0.931   6.075
 5595SOL     OW17683   6.872   3.394   6.967
 5595SOL    HW117684   6.791   3.339   6.987
 5595SOL    HW217685   6.845   3.480   6.924
 5596SOL     OW17686   5.015   3.851   4.345
 5596SOL    HW117687   5.096   3.805   4.379
 5596SOL    HW217688   4.956   3.878   4.422
 5597SOL     OW17689   0.409   1.850   6.539
 5597SOL    HW117690   0.475   1.774   6.535
 5597SOL    HW217691   0.350   1.848   6.458
 5598SOL     OW17692   6.911   6.869   3.430
 5598SOL    HW117693   6.903   6.929   3.350
 5598SOL    HW217694   6.912   6.924   3.513
 5599SOL     OW17695   4.921   3.338   3.075
 5599SOL    HW117696   4.933   3.405   3.002
 5599SOL    HW217697   4.844   3.278   3.052
 5600SOL     OW17698   1.941   3.200   1.801
 5600SOL    HW117699   2.039   3.202   1.782
 5600SOL    HW217700   1.891   3.180   1.717
 5601SOL     OW17701   5.372   2.472   6.377
 5601SOL    HW117702   5.389   2.559   6.331
 5601SOL    HW217703   5.279   2.442   6.358
 5602SOL     OW17704   5.901   1.330   2.690
 5602SOL    HW117705   5.912   1.355   2.786
 5602SOL    HW217706   5.814   1.283   2.677
 5603SOL     OW17707   3.551   1.096   5.790
 5603SOL    HW117708   3.454   1.117   5.779
 5603SOL    HW217709   3.592   1.078   5.701
 5604SOL     OW17710   1.225   4.501   3.295
 5604SOL    HW117711   1.312   4.458   3.318
 5604SOL    HW217712   1.153   4.431   3.291
 5605SOL     OW17713   3.347   6.571   4.590
 5605SOL    HW117714   3.407   6.513   4.645
 5605SOL    HW217715   3.317   6.649   4.645
 5606SOL     OW17716   4.436   4.135   1.403
 5606SOL    HW117717   4.437   4.036   1.391
 5606SOL    HW217718   4.427   4.158   1.500
 5607SOL     OW17719   1.297   1.922   2.471
 5607SOL    HW117720   1.353   1.990   2.518
 5607SOL    HW217721   1.200   1.948   2.478
 5608SOL     OW17722   6.477   6.177   3.547
 5608SOL    HW117723   6.438   6.101   3.496
 5608SOL    HW217724   6.573   6.159   3.568
 5609SOL     OW17725   6.352   1.119   0.581
 5609SOL    HW117726   6.274   1.058   0.570
 5609SOL    HW217727   6.330   1.209   0.544
 5610SOL     OW17728   5.267   6.808   6.494
 5610SOL    HW117729   5.291   6.905   6.486
 5610SOL    HW217730   5.351   6.754   6.504
 5611SOL     OW17731   6.789   3.780   1.450
 5611SOL    HW117732   6.783   3.720   1.371
 5611SOL    HW217733   6.845   3.860   1.428
 5612SOL     OW17734   4.974   2.236   1.402
 5612SOL    HW117735   4.883   2.241   1.443
 5612SOL    HW217736   5.015   2.327   1.402
 5613SOL     OW17737   6.587   5.165   5.291
 5613SOL    HW117738   6.569   5.096   5.362
 5613SOL    HW217739   6.678   5.202   5.303
 5614SOL     OW17740   5.657   2.479   4.521
 5614SOL    HW117741   5.620   2.572   4.511
 5614SOL    HW217742   5.656   2.454   4.618
 5615SOL     OW17743   0.374   3.522   2.466
 5615SOL    HW117744   0.407   3.496   2.376
 5615SOL    HW217745   0.314   3.450   2.501
 5616SOL     OW17746   1.402   3.056   1.612
 5616SOL    HW117747   1.353   2.970   1.602
 5616SOL    HW217748   1.498   3.038   1.632
 5617SOL     OW17749   0.334   5.083   5.054
 5617SOL    HW117750   0.420   5.061   5.098
 5617SOL    HW217751   0.262   5.092   5.123
 5618SOL     OW17752   5.118   0.903   3.303
 5618SOL    HW117753   5.033   0.941   3.340
 5618SOL    HW217754   5.097   0.837   3.231
 5619SOL     OW17755   3.655   4.102   4.233
 5619SOL    HW117756   3.595   4.158   4.176
 5619SOL    HW217757   3.647   4.006   4.206
 5620SOL     OW17758   4.449   4.663   5.429
 5620SOL    HW117759   4.418   4.757   5.443
 5620SOL    HW217760   4.379   4.599   5.461
 5621SOL     OW17761   1.065   3.375   6.817
 5621SOL    HW117762   1.106   3.368   6.726
 5621SOL    HW217763   1.053   3.284   6.855
 5622SOL     OW17764   5.657   5.849   3.099
 5622SOL    HW117765   5.606   5.808   3.175
 5622SOL    HW217766   5.606   5.835   3.014
 5623SOL     OW17767   4.700   4.642   3.388
 5623SOL    HW117768   4.603   4.658   3.406
 5623SOL    HW217769   4.721   4.545   3.400
 5624SOL     OW17770   4.786   4.002   3.599
 5624SOL    HW117771   4.762   4.094   3.631
 5624SOL    HW217772   4.839   3.956   3.670
 5625SOL     OW17773   4.081   6.908   6.338
 5625SOL    HW117774   4.059   6.954   6.252
 5625SOL    HW217775   4.103   6.813   6.320
 5626SOL     OW17776   1.957   4.586   5.910
 5626SOL    HW117777   1.867   4.548   5.890
 5626SOL    HW217778   2.025   4.541   5.852
 5627SOL     OW17779   0.941   5.635   0.838
 5627SOL    HW117780   1.002   5.604   0.765
 5627SOL    HW217781   0.889   5.715   0.807
 5628SOL     OW17782   0.890   2.343   0.137
 5628SOL    HW117783   0.879   2.442   0.128
 5628SOL    HW217784   0.839   2.310   0.216
 5629SOL     OW17785   0.673   3.245   4.802
 5629SOL    HW117786   0.668   3.151   4.769
 5629SOL    HW217787   0.697   3.245   4.899
 5630SOL     OW17788   1.180   4.608   6.710
 5630SOL    HW117789   1.138   4.520   6.732
 5630SOL    HW217790   1.272   4.612   6.749
 5631SOL     OW17791   3.353   0.922   3.193
 5631SOL    HW117792   3.254   0.933   3.179
 5631SOL    HW217793   3.373   0.925   3.291
 5632SOL     OW17794   3.593   6.478   6.570
 5632SOL    HW117795   3.669   6.530   6.607
 5632SOL    HW217796   3.552   6.528   6.493
 5633SOL     OW17797   1.745   5.494   4.822
 5633SOL    HW117798   1.753   5.578   4.769
 5633SOL    HW217799   1.778   5.417   4.766
 5634SOL     OW17800   2.399   0.308   1.965
 5634SOL    HW117801   2.377   0.243   1.892
 5634SOL    HW217802   2.374   0.400   1.936
 5635SOL     OW17803   4.075   0.716   2.335
 5635SOL    HW117804   4.043   0.796   2.283
 5635SOL    HW217805   4.004   0.688   2.400
 5636SOL     OW17806   5.246   0.740   4.286
 5636SOL    HW117807   5.195   0.691   4.214
 5636SOL    HW217808   5.268   0.677   4.360
 5637SOL     OW17809   5.942   6.990   5.205
 5637SOL    HW117810   5.860   6.999   5.148
 5637SOL    HW217811   5.915   6.969   5.299
 5638SOL     OW17812   1.249   5.907   6.761
 5638SOL    HW117813   1.177   5.975   6.747
 5638SOL    HW217814   1.319   5.918   6.691
 5639SOL     OW17815   3.328   6.859   1.750
 5639SOL    HW117816   3.251   6.891   1.806
 5639SOL    HW217817   3.296   6.837   1.658
 5640SOL     OW17818   3.941   6.636   4.295
 5640SOL    HW117819   3.903   6.729   4.286
 5640SOL    HW217820   4.036   6.642   4.327
 5641SOL     OW17821   6.586   4.884   3.670
 5641SOL    HW117822   6.673   4.903   3.716
 5641SOL    HW217823   6.511   4.917   3.726
 5642SOL     OW17824   2.382   2.006   6.496
 5642SOL    HW117825   2.462   1.983   6.551
 5642SOL    HW217826   2.385   2.103   6.471
 5643SOL     OW17827   5.091   2.874   3.678
 5643SOL    HW117828   5.113   2.959   3.726
 5643SOL    HW217829   5.174   2.839   3.634
 5644SOL     OW17830   3.244   0.611   6.229
 5644SOL    HW117831   3.261   0.580   6.135
 5644SOL    HW217832   3.298   0.693   6.248
 5645SOL     OW17833   6.338   6.045   3.898
 5645SOL    HW117834   6.245   6.009   3.887
 5645SOL    HW217835   6.340   6.140   3.868
 5646SOL     OW17836   6.683   0.947   2.580
 5646SOL    HW117837   6.762   0.975   2.525
 5646SOL    HW217838   6.602   0.995   2.547
 5647SOL     OW17839   6.015   3.633   6.220
 5647SOL    HW117840   5.921   3.657   6.197
 5647SOL    HW217841   6.054   3.578   6.146
 5648SOL     OW17842   1.807   1.617   3.979
 5648SOL    HW117843   1.735   1.675   3.941
 5648SOL    HW217844   1.864   1.582   3.904
 5649SOL     OW17845   6.869   0.787   4.200
 5649SOL    HW117846   6.888   0.840   4.283
 5649SOL    HW217847   6.948   0.790   4.139
 5650SOL     OW17848   5.905   4.765   5.333
 5650SOL    HW117849   5.868   4.816   5.255
 5650SOL    HW217850   5.878   4.669   5.326
 5651SOL     OW17851   6.239   0.308   2.835
 5651SOL    HW117852   6.286   0.371   2.897
 5651SOL    HW217853   6.161   0.354   2.793
 5652SOL     OW17854   4.291   4.268   6.597
 5652SOL    HW117855   4.249   4.358   6.611
 5652SOL    HW217856   4.222   4.204   6.564
 5653SOL     OW17857   2.418   6.234   6.841
 5653SOL    HW117858   2.456   6.326   6.850
 5653SOL    HW217859   2.446   6.195   6.753
 5654SOL     OW17860   2.547   6.556   0.517
 5654SOL    HW117861   2.629   6.611   0.505
 5654SOL    HW217862   2.556   6.499   0.598
 5655SOL     OW17863   6.657   5.795   2.381
 5655SOL    HW117864   6.727   5.854   2.421
 5655SOL    HW217865   6.651   5.813   2.283
 5656SOL     OW17866   3.513   5.030   6.230
 5656SOL    HW117867   3.435   4.996   6.283
 5656SOL    HW217868   3.592   5.038   6.290
 5657SOL     OW17869   4.770   5.465   2.302
 5657SOL    HW117870   4.833   5.416   2.242
 5657SOL    HW217871   4.769   5.422   2.392
 5658SOL     OW17872   4.938   6.464   6.217
 5658SOL    HW117873   4.972   6.558   6.223
 5658SOL    HW217874   4.938   6.435   6.121
 5659SOL     OW17875   3.585   3.779   1.991
 5659SOL    HW117876   3.572   3.714   2.066
 5659SOL    HW217877   3.612   3.868   2.028
 5660SOL     OW17878   0.228   5.536   1.696
 5660SOL    HW117879   0.180   5.624   1.696
 5660SOL    HW217880   0.244   5.506   1.602
 5661SOL     OW17881   6.308   5.937   4.456
 5661SOL    HW117882   6.312   5.954   4.357
 5661SOL    HW217883   6.357   6.008   4.505
 5662SOL     OW17884   1.563   3.608   4.525
 5662SOL    HW117885   1.501   3.543   4.481
 5662SOL    HW217886   1.612   3.562   4.599
 5663SOL     OW17887   2.482   3.609   0.529
 5663SOL    HW117888   2.533   3.603   0.444
 5663SOL    HW217889   2.515   3.540   0.593
 5664SOL     OW17890   6.370   6.852   1.484
 5664SOL    HW117891   6.342   6.854   1.580
 5664SOL    HW217892   6.411   6.940   1.459
 5665SOL     OW17893   1.869   0.674   5.888
 5665SOL    HW117894   1.819   0.690   5.973
 5665SOL    HW217895   1.938   0.746   5.877
 5666SOL     OW17896   5.452   6.450   6.782
 5666SOL    HW117897   5.520   6.393   6.827
 5666SOL    HW217898   5.416   6.402   6.702
 5667SOL     OW17899   5.558   4.365   2.844
 5667SOL    HW117900   5.525   4.425   2.771
 5667SOL    HW217901   5.484   4.346   2.908
 5668SOL     OW17902   6.449   2.428   6.806
 5668SOL    HW117903   6.502   2.512   6.809
 5668SOL    HW217904   6.481   2.371   6.731
 5669SOL     OW17905   0.138   2.212   5.065
 5669SOL    HW117906   0.162   2.152   5.142
 5669SOL    HW217907   0.212   2.210   4.997
 5670SOL     OW17908   1.558   2.969   2.009
 5670SOL    HW117909   1.520   3.038   1.948
 5670SOL    HW217910   1.559   2.880   1.962
 5671SOL     OW17911   1.439   0.570   5.922
 5671SOL    HW117912   1.489   0.563   5.836
 5671SOL    HW217913   1.464   0.655   5.968
 5672SOL     OW17914   4.363   4.478   5.794
 5672SOL    HW117915   4.415   4.396   5.820
 5672SOL    HW217916   4.375   4.495   5.697
 5673SOL     OW17917   1.817   6.673   1.409
 5673SOL    HW117918   1.785   6.726   1.488
 5673SOL    HW217919   1.904   6.628   1.432
 5674SOL     OW17920   0.716   2.395   0.885
 5674SOL    HW117921   0.777   2.379   0.808
 5674SOL    HW217922   0.730   2.324   0.954
 5675SOL     OW17923   4.485   0.760   5.572
 5675SOL    HW117924   4.575   0.801   5.553
 5675SOL    HW217925   4.430   0.826   5.623
 5676SOL     OW17926   2.231   6.613   2.449
 5676SOL    HW117927   2.253   6.533   2.394
 5676SOL    HW217928   2.140   6.603   2.488
 5677SOL     OW17929   6.540   7.005   2.787
 5677SOL    HW117930   6.455   0.017   2.747
 5677SOL    HW217931   6.532   6.906   2.800
 5678SOL     OW17932   1.423   5.282   2.677
 5678SOL    HW117933   1.362   5.320   2.607
 5678SOL    HW217934   1.378   5.286   2.766
 5679SOL     OW17935   3.952   5.967   5.531
 5679SOL    HW117936   3.898   6.041   5.571
 5679SOL    HW217937   4.020   6.005   5.469
 5680SOL     OW17938   1.847   6.719   6.578
 5680SOL    HW117939   1.780   6.664   6.628
 5680SOL    HW217940   1.810   6.810   6.562
 5681SOL     OW17941   3.138   3.478   0.525
 5681SOL    HW117942   3.220   3.441   0.567
 5681SOL    HW217943   3.136   3.578   0.535
 5682SOL     OW17944   2.143   3.659   4.709
 5682SOL    HW117945   2.203   3.719   4.762
 5682SOL    HW217946   2.057   3.707   4.689
 5683SOL     OW17947   3.981   3.175   4.942
 5683SOL    HW117948   3.914   3.243   4.912
 5683SOL    HW217949   3.934   3.092   4.971
 5684SOL     OW17950   3.060   3.954   2.984
 5684SOL    HW117951   3.116   3.973   3.065
 5684SOL    HW217952   3.058   4.035   2.926
 5685SOL     OW17953   6.932   6.717   1.426
 5685SOL    HW117954   6.899   6.783   1.358
 5685SOL    HW217955   6.948   6.763   1.513
 5686SOL     OW17956   3.320   4.676   6.205
 5686SOL    HW117957   3.269   4.756   6.174
 5686SOL    HW217958   3.272   4.633   6.282
 5687SOL     OW17959   4.614   6.274   6.570
 5687SOL    HW117960   4.565   6.327   6.501
 5687SOL    HW217961   4.686   6.330   6.611
 5688SOL     OW17962   5.233   1.882   2.545
 5688SOL    HW117963   5.207   1.867   2.449
 5688SOL    HW217964   5.185   1.961   2.581
 5689SOL     OW17965   3.958   2.979   5.182
 5689SOL    HW117966   3.947   3.060   5.239
 5689SOL    HW217967   3.965   2.898   5.240
 5690SOL     OW17968   3.729   0.618   2.854
 5690SOL    HW117969   3.743   0.560   2.934
 5690SOL    HW217970   3.681   0.701   2.881
 5691SOL     OW17971   3.645   0.768   4.081
 5691SOL    HW117972   3.600   0.792   4.166
 5691SOL    HW217973   3.612   0.827   4.007
 5692SOL     OW17974   5.868   2.948   0.353
 5692SOL    HW117975   5.843   3.020   0.288
 5692SOL    HW217976   5.957   2.969   0.392
 5693SOL     OW17977   5.518   3.147   1.795
 5693SOL    HW117978   5.438   3.112   1.747
 5693SOL    HW217979   5.592   3.080   1.790
 5694SOL     OW17980   1.562   2.032   5.030
 5694SOL    HW117981   1.555   1.968   4.954
 5694SOL    HW217982   1.631   1.999   5.095
 5695SOL     OW17983   1.924   3.839   3.341
 5695SOL    HW117984   1.946   3.741   3.348
 5695SOL    HW217985   1.965   3.888   3.418
 5696SOL     OW17986   3.503   1.390   6.564
 5696SOL    HW117987   3.504   1.490   6.564
 5696SOL    HW217988   3.550   1.356   6.645
 5697SOL     OW17989   6.908   3.890   0.181
 5697SOL    HW117990   6.864   3.955   0.242
 5697SOL    HW217991   6.988   3.934   0.139
 5698SOL     OW17992   1.301   4.296   3.922
 5698SOL    HW117993   1.305   4.365   3.850
 5698SOL    HW217994   1.389   4.293   3.970
 5699SOL     OW17995   0.954   2.485   5.026
 5699SOL    HW117996   0.984   2.496   5.121
 5699SOL    HW217997   1.021   2.431   4.975
 5700SOL     OW17998   1.156   5.050   4.405
 5700SOL    HW117999   1.131   4.954   4.409
 5700SOL    HW218000   1.235   5.067   4.465
 5701SOL     OW18001   4.754   2.853   2.758
 5701SOL    HW118002   4.808   2.770   2.744
 5701SOL    HW218003   4.767   2.914   2.680
 5702SOL     OW18004   3.784   0.336   0.202
 5702SOL    HW118005   3.850   0.403   0.167
 5702SOL    HW218006   3.752   0.278   0.127
 5703SOL     OW18007   5.189   4.247   2.842
 5703SOL    HW118008   5.129   4.245   2.761
 5703SOL    HW218009   5.188   4.338   2.882
 5704SOL     OW18010   5.789   4.065   3.219
 5704SOL    HW118011   5.735   4.061   3.135
 5704SOL    HW218012   5.729   4.078   3.297
 5705SOL     OW18013   6.785   0.895   3.735
 5705SOL    HW118014   6.878   0.874   3.765
 5705SOL    HW218015   6.736   0.944   3.807
 5706SOL     OW18016   2.528   1.378   6.385
 5706SOL    HW118017   2.546   1.393   6.482
 5706SOL    HW218018   2.614   1.369   6.336
 5707SOL     OW18019   3.879   1.291   0.927
 5707SOL    HW118020   3.818   1.337   0.862
 5707SOL    HW218021   3.838   1.294   1.018
 5708SOL     OW18022   0.774   0.119   0.932
 5708SOL    HW118023   0.848   0.053   0.934
 5708SOL    HW218024   0.809   0.209   0.958
 5709SOL     OW18025   0.703   2.089   0.969
 5709SOL    HW118026   0.800   2.082   0.994
 5709SOL    HW218027   0.692   2.060   0.874
 5710SOL     OW18028   3.584   4.876   6.720
 5710SOL    HW118029   3.574   4.956   6.660
 5710SOL    HW218030   3.501   4.820   6.714
 5711SOL     OW18031   5.157   1.667   4.910
 5711SOL    HW118032   5.206   1.742   4.955
 5711SOL    HW218033   5.067   1.656   4.952
 5712SOL     OW18034   5.629   7.019   6.313
 5712SOL    HW118035   5.667   0.075   6.264
 5712SOL    HW218036   5.570   0.028   6.387
 5713SOL     OW18037   0.400   3.458   2.205
 5713SOL    HW118038   0.491   3.449   2.165
 5713SOL    HW218039   0.331   3.440   2.134
 5714SOL     OW18040   2.336   0.730   0.760
 5714SOL    HW118041   2.397   0.692   0.690
 5714SOL    HW218042   2.287   0.656   0.805
 5715SOL     OW18043   0.456   6.295   3.725
 5715SOL    HW118044   0.388   6.368   3.720
 5715SOL    HW218045   0.455   6.254   3.816
 5716SOL     OW18046   1.804   2.175   5.360
 5716SOL    HW118047   1.758   2.261   5.335
 5716SOL    HW218048   1.753   2.131   5.434
 5717SOL     OW18049   0.778   3.435   6.164
 5717SOL    HW118050   0.699   3.418   6.223
 5717SOL    HW218051   0.773   3.376   6.084
 5718SOL     OW18052   3.296   5.918   6.077
 5718SOL    HW118053   3.360   5.845   6.051
 5718SOL    HW218054   3.254   5.956   5.995
 5719SOL     OW18055   2.348   0.922   6.837
 5719SOL    HW118056   2.367   0.850   6.903
 5719SOL    HW218057   2.407   0.910   6.757
 5720SOL     OW18058   2.139   6.151   3.742
 5720SOL    HW118059   2.117   6.180   3.649
 5720SOL    HW218060   2.235   6.122   3.746
 5721SOL     OW18061   6.645   5.125   6.411
 5721SOL    HW118062   6.643   5.202   6.348
 5721SOL    HW218063   6.723   5.135   6.473
 5722SOL     OW18064   5.272   1.073   4.720
 5722SOL    HW118065   5.330   1.139   4.767
 5722SOL    HW218066   5.310   1.055   4.629
 5723SOL     OW18067   6.836   4.624   1.263
 5723SOL    HW118068   6.763   4.558   1.279
 5723SOL    HW218069   6.806   4.692   1.196
 5724SOL     OW18070   4.967   3.067   6.087
 5724SOL    HW118071   4.959   2.968   6.087
 5724SOL    HW218072   4.936   3.104   5.999
 5725SOL     OW18073   5.839   6.603   5.251
 5725SOL    HW118074   5.790   6.689   5.238
 5725SOL    HW218075   5.929   6.609   5.209
 5726SOL     OW18076   3.753   5.244   5.898
 5726SOL    HW118077   3.767   5.162   5.842
 5726SOL    HW218078   3.814   5.316   5.867
 5727SOL     OW18079   5.695   2.305   3.965
 5727SOL    HW118080   5.707   2.348   3.876
 5727SOL    HW218081   5.780   2.311   4.017
 5728SOL     OW18082   3.709   1.128   4.963
 5728SOL    HW118083   3.774   1.127   5.039
 5728SOL    HW218084   3.644   1.053   4.975
 5729SOL     OW18085   2.552   2.166   4.098
 5729SOL    HW118086   2.643   2.131   4.120
 5729SOL    HW218087   2.495   2.168   4.180
 5730SOL     OW18088   4.096   4.651   0.114
 5730SOL    HW118089   4.137   4.674   0.026
 5730SOL    HW218090   4.162   4.600   0.169
 5731SOL     OW18091   4.573   1.032   5.026
 5731SOL    HW118092   4.606   1.025   4.932
 5731SOL    HW218093   4.519   0.950   5.048
 5732SOL     OW18094   6.443   4.197   4.027
 5732SOL    HW118095   6.390   4.132   3.972
 5732SOL    HW218096   6.386   4.277   4.047
 5733SOL     OW18097   2.156   6.648   1.767
 5733SOL    HW118098   2.066   6.635   1.811
 5733SOL    HW218099   2.226   6.601   1.821
 5734SOL     OW18100   2.076   0.320   5.632
 5734SOL    HW118101   2.027   0.317   5.545
 5734SOL    HW218102   2.030   0.383   5.694
 5735SOL     OW18103   5.475   1.417   0.637
 5735SOL    HW118104   5.469   1.501   0.692
 5735SOL    HW218105   5.392   1.363   0.651
 5736SOL     OW18106   4.927   3.817   6.692
 5736SOL    HW118107   4.987   3.802   6.614
 5736SOL    HW218108   4.930   3.738   6.753
 5737SOL     OW18109   4.863   6.137   2.523
 5737SOL    HW118110   4.864   6.142   2.623
 5737SOL    HW218111   4.883   6.228   2.486
 5738SOL     OW18112   3.344   1.450   1.004
 5738SOL    HW118113   3.256   1.493   0.987
 5738SOL    HW218114   3.403   1.513   1.055
 5739SOL     OW18115   2.369   1.258   5.446
 5739SOL    HW118116   2.390   1.351   5.413
 5739SOL    HW218117   2.355   1.260   5.545
 5740SOL     OW18118   4.834   3.074   2.902
 5740SOL    HW118119   4.879   3.048   2.987
 5740SOL    HW218120   4.790   2.994   2.862
 5741SOL     OW18121   1.687   3.516   3.522
 5741SOL    HW118122   1.781   3.536   3.495
 5741SOL    HW218123   1.682   3.424   3.561
 5742SOL     OW18124   5.856   5.159   2.129
 5742SOL    HW118125   5.948   5.138   2.095
 5742SOL    HW218126   5.863   5.227   2.202
 5743SOL     OW18127   4.100   6.777   6.755
 5743SOL    HW118128   4.010   6.732   6.762
 5743SOL    HW218129   4.103   6.856   6.816
 5744SOL     OW18130   5.451   5.742   3.310
 5744SOL    HW118131   5.452   5.671   3.381
 5744SOL    HW218132   5.395   5.711   3.233
 5745SOL     OW18133   1.125   3.775   2.363
 5745SOL    HW118134   1.056   3.825   2.311
 5745SOL    HW218135   1.117   3.677   2.344
 5746SOL     OW18136   5.478   0.739   3.308
 5746SOL    HW118137   5.397   0.735   3.367
 5746SOL    HW218138   5.556   0.774   3.360
 5747SOL     OW18139   2.097   6.933   1.749
 5747SOL    HW118140   2.142   6.844   1.759
 5747SOL    HW218141   2.010   6.931   1.798
 5748SOL     OW18142   6.347   6.712   0.044
 5748SOL    HW118143   6.373   6.630   0.096
 5748SOL    HW218144   6.248   6.711   0.028
 5749SOL     OW18145   2.092   6.558   6.561
 5749SOL    HW118146   2.064   6.648   6.592
 5749SOL    HW218147   2.018   6.493   6.576
 5750SOL     OW18148   6.139   2.803   4.092
 5750SOL    HW118149   6.149   2.868   4.015
 5750SOL    HW218150   6.160   2.711   4.060
 5751SOL     OW18151   0.091   3.547   3.631
 5751SOL    HW118152   0.109   3.629   3.686
 5751SOL    HW218153   0.068   3.574   3.537
 5752SOL     OW18154   5.845   1.506   6.741
 5752SOL    HW118155   5.854   1.500   6.642
 5752SOL    HW218156   5.907   1.576   6.776
 5753SOL     OW18157   3.558   3.394   4.202
 5753SOL    HW118158   3.466   3.428   4.222
 5753SOL    HW218159   3.601   3.362   4.287
 5754SOL     OW18160   5.862   6.788   0.980
 5754SOL    HW118161   5.874   6.883   0.952
 5754SOL    HW218162   5.879   6.728   0.902
 5755SOL     OW18163   0.412   3.776   6.472
 5755SOL    HW118164   0.456   3.772   6.562
 5755SOL    HW218165   0.478   3.750   6.402
 5756SOL     OW18166   6.498   6.438   1.979
 5756SOL    HW118167   6.484   6.533   2.007
 5756SOL    HW218168   6.409   6.393   1.970
 5757SOL     OW18169   0.968   1.787   4.117
 5757SOL    HW118170   0.881   1.790   4.067
 5757SOL    HW218171   1.043   1.772   4.052
 5758SOL     OW18172   6.447   6.797   3.120
 5758SOL    HW118173   6.488   6.716   3.163
 5758SOL    HW218174   6.349   6.796   3.136
 5759SOL     OW18175   2.163   6.334   3.182
 5759SOL    HW118176   2.085   6.365   3.128
 5759SOL    HW218177   2.205   6.413   3.228
 5760SOL     OW18178   0.206   2.124   0.525
 5760SOL    HW118179   0.251   2.158   0.608
 5760SOL    HW218180   0.211   2.024   0.523
 5761SOL     OW18181   6.297   0.023   5.186
 5761SOL    HW118182   6.361   7.014   5.117
 5761SOL    HW218183   6.319   0.117   5.212
 5762SOL     OW18184   0.994   5.604   5.561
 5762SOL    HW118185   0.986   5.554   5.475
 5762SOL    HW218186   1.050   5.685   5.547
 5763SOL     OW18187   4.973   0.643   0.134
 5763SOL    HW118188   4.917   0.662   0.054
 5763SOL    HW218189   4.971   0.722   0.196
 5764SOL     OW18190   3.490   6.245   4.267
 5764SOL    HW118191   3.469   6.250   4.365
 5764SOL    HW218192   3.577   6.290   4.250
 5765SOL     OW18193   0.169   6.358   2.468
 5765SOL    HW118194   0.131   6.449   2.485
 5765SOL    HW218195   0.146   6.298   2.544
 5766SOL     OW18196   0.801   0.912   4.928
 5766SOL    HW118197   0.870   0.984   4.917
 5766SOL    HW218198   0.814   0.842   4.858
 5767SOL     OW18199   6.086   6.541   0.255
 5767SOL    HW118200   6.131   6.454   0.274
 5767SOL    HW218201   6.071   6.549   0.157
 5768SOL     OW18202   1.040   0.574   5.163
 5768SOL    HW118203   1.108   0.641   5.131
 5768SOL    HW218204   1.064   0.483   5.129
 5769SOL     OW18205   1.140   2.658   5.834
 5769SOL    HW118206   1.065   2.680   5.771
 5769SOL    HW218207   1.212   2.609   5.785
 5770SOL     OW18208   1.443   4.056   2.473
 5770SOL    HW118209   1.412   3.972   2.430
 5770SOL    HW218210   1.394   4.069   2.560
 5771SOL     OW18211   2.718   5.921   3.089
 5771SOL    HW118212   2.774   6.003   3.090
 5771SOL    HW218213   2.631   5.940   3.044
 5772SOL     OW18214   2.634   0.676   3.200
 5772SOL    HW118215   2.625   0.621   3.117
 5772SOL    HW218216   2.544   0.692   3.240
 5773SOL     OW18217   5.840   0.493   4.328
 5773SOL    HW118218   5.904   0.553   4.376
 5773SOL    HW218219   5.880   0.466   4.240
 5774SOL     OW18220   1.091   5.840   3.691
 5774SOL    HW118221   1.072   5.917   3.632
 5774SOL    HW218222   1.129   5.872   3.778
 5775SOL     OW18223   5.381   4.717   2.716
 5775SOL    HW118224   5.344   4.647   2.656
 5775SOL    HW218225   5.335   4.804   2.698
 5776SOL     OW18226   3.816   1.142   3.891
 5776SOL    HW118227   3.907   1.107   3.915
 5776SOL    HW218228   3.824   1.209   3.818
 5777SOL     OW18229   0.896   0.319   1.900
 5777SOL    HW118230   0.836   0.344   1.976
 5777SOL    HW218231   0.845   0.268   1.831
 5778SOL     OW18232   0.261   1.336   0.121
 5778SOL    HW118233   0.291   1.278   0.197
 5778SOL    HW218234   0.325   1.328   0.045
 5779SOL     OW18235   5.606   1.542   0.453
 5779SOL    HW118236   5.541   1.613   0.425
 5779SOL    HW218237   5.563   1.482   0.520
 5780SOL     OW18238   5.267   5.291   4.536
 5780SOL    HW118239   5.207   5.221   4.576
 5780SOL    HW218240   5.295   5.355   4.608
 5781SOL     OW18241   1.228   6.277   5.889
 5781SOL    HW118242   1.281   6.350   5.846
 5781SOL    HW218243   1.149   6.254   5.833
 5782SOL     OW18244   5.950   0.516   0.972
 5782SOL    HW118245   5.898   0.561   0.900
 5782SOL    HW218246   6.005   0.583   1.021
 5783SOL     OW18247   2.631   2.350   6.368
 5783SOL    HW118248   2.600   2.445   6.363
 5783SOL    HW218249   2.631   2.310   6.276
 5784SOL     OW18250   6.580   6.731   0.459
 5784SOL    HW118251   6.556   6.765   0.368
 5784SOL    HW218252   6.678   6.711   0.463
 5785SOL     OW18253   1.548   1.835   1.836
 5785SOL    HW118254   1.453   1.812   1.856
 5785SOL    HW218255   1.574   1.916   1.889
 5786SOL     OW18256   6.589   5.456   2.019
 5786SOL    HW118257   6.502   5.458   2.067
 5786SOL    HW218258   6.591   5.379   1.956
 5787SOL     OW18259   1.698   2.936   6.347
 5787SOL    HW118260   1.646   2.884   6.280
 5787SOL    HW218261   1.783   2.887   6.369
 5788SOL     OW18262   3.513   0.354   3.455
 5788SOL    HW118263   3.596   0.410   3.447
 5788SOL    HW218264   3.472   0.368   3.545
 5789SOL     OW18265   3.405   4.512   5.992
 5789SOL    HW118266   3.369   4.570   5.919
 5789SOL    HW218267   3.387   4.554   6.080
 5790SOL     OW18268   1.413   3.789   4.282
 5790SOL    HW118269   1.430   3.692   4.266
 5790SOL    HW218270   1.491   3.829   4.331
 5791SOL     OW18271   1.399   0.951   3.469
 5791SOL    HW118272   1.395   1.019   3.395
 5791SOL    HW218273   1.435   0.865   3.434
 5792SOL     OW18274   0.227   2.305   3.061
 5792SOL    HW118275   0.317   2.291   3.104
 5792SOL    HW218276   0.167   2.354   3.124
 5793SOL     OW18277   6.172   0.864   5.048
 5793SOL    HW118278   6.194   0.787   5.108
 5793SOL    HW218279   6.236   0.865   4.971
 5794SOL     OW18280   6.890   3.815   6.742
 5794SOL    HW118281   6.986   3.821   6.768
 5794SOL    HW218282   6.865   3.896   6.689
 5795SOL     OW18283   6.725   4.709   6.696
 5795SOL    HW118284   6.719   4.777   6.769
 5795SOL    HW218285   6.632   4.682   6.669
 5796SOL     OW18286   2.875   2.029   0.630
 5796SOL    HW118287   2.951   2.067   0.684
 5796SOL    HW218288   2.805   1.994   0.692
 5797SOL     OW18289   3.187   2.806   5.292
 5797SOL    HW118290   3.225   2.807   5.384
 5797SOL    HW218291   3.169   2.711   5.265
 5798SOL     OW18292   6.436   4.955   4.272
 5798SOL    HW118293   6.534   4.966   4.290
 5798SOL    HW218294   6.397   5.044   4.247
 5799SOL     OW18295   5.646   0.413   4.047
 5799SOL    HW118296   5.736   0.417   4.090
 5799SOL    HW218297   5.650   0.357   3.965
 5800SOL     OW18298   5.722   5.704   6.769
 5800SOL    HW118299   5.757   5.610   6.771
 5800SOL    HW218300   5.799   5.767   6.761
 5801SOL     OW18301   1.503   1.510   2.211
 5801SOL    HW118302   1.586   1.458   2.233
 5801SOL    HW218303   1.515   1.606   2.237
 5802SOL     OW18304   0.312   2.452   4.768
 5802SOL    HW118305   0.232   2.475   4.713
 5802SOL    HW218306   0.373   2.530   4.773
 5803SOL     OW18307   1.529   5.313   0.813
 5803SOL    HW118308   1.464   5.366   0.868
 5803SOL    HW218309   1.622   5.342   0.834
 5804SOL     OW18310   0.517   2.646   6.274
 5804SOL    HW118311   0.490   2.632   6.179
 5804SOL    HW218312   0.453   2.598   6.334
 5805SOL     OW18313   5.133   3.285   6.802
 5805SOL    HW118314   5.094   3.200   6.766
 5805SOL    HW218315   5.219   3.264   6.849
 5806SOL     OW18316   6.267   6.972   6.436
 5806SOL    HW118317   6.171   6.948   6.423
 5806SOL    HW218318   6.281   7.005   6.529
 5807SOL     OW18319   3.123   4.020   1.438
 5807SOL    HW118320   3.120   4.014   1.338
 5807SOL    HW218321   3.132   4.115   1.465
 5808SOL     OW18322   6.043   2.079   3.275
 5808SOL    HW118323   6.037   2.054   3.372
 5808SOL    HW218324   6.018   2.175   3.263
 5809SOL     OW18325   0.683   2.672   3.732
 5809SOL    HW118326   0.774   2.702   3.703
 5809SOL    HW218327   0.614   2.714   3.673
 5810SOL     OW18328   2.900   2.227   2.748
 5810SOL    HW118329   2.998   2.212   2.735
 5810SOL    HW218330   2.854   2.229   2.659
 5811SOL     OW18331   2.704   0.378   2.039
 5811SOL    HW118332   2.676   0.339   2.127
 5811SOL    HW218333   2.629   0.373   1.974
 5812SOL     OW18334   4.306   0.381   4.753
 5812SOL    HW118335   4.253   0.465   4.760
 5812SOL    HW218336   4.285   0.334   4.667
 5813SOL     OW18337   2.031   1.888   5.294
 5813SOL    HW118338   2.092   1.967   5.306
 5813SOL    HW218339   1.980   1.873   5.378
 5814SOL     OW18340   0.453   5.338   1.405
 5814SOL    HW118341   0.364   5.384   1.405
 5814SOL    HW218342   0.439   5.240   1.420
 5815SOL     OW18343   4.165   6.661   4.464
 5815SOL    HW118344   4.179   6.731   4.534
 5815SOL    HW218345   4.249   6.647   4.413
 5816SOL     OW18346   5.511   6.459   0.377
 5816SOL    HW118347   5.516   6.368   0.419
 5816SOL    HW218348   5.460   6.454   0.291
 5817SOL     OW18349   6.350   2.782   6.639
 5817SOL    HW118350   6.431   2.839   6.646
 5817SOL    HW218351   6.297   2.809   6.558
 5818SOL     OW18352   6.653   6.749   5.123
 5818SOL    HW118353   6.601   6.826   5.086
 5818SOL    HW218354   6.716   6.782   5.193
 5819SOL     OW18355   6.232   0.165   1.143
 5819SOL    HW118356   6.135   0.143   1.128
 5819SOL    HW218357   6.275   0.188   1.057
 5820SOL     OW18358   5.339   4.766   1.800
 5820SOL    HW118359   5.325   4.693   1.866
 5820SOL    HW218360   5.354   4.726   1.709
 5821SOL     OW18361   2.956   6.891   2.566
 5821SOL    HW118362   2.895   6.909   2.489
 5821SOL    HW218363   3.029   6.959   2.568
 5822SOL     OW18364   0.259   0.826   2.446
 5822SOL    HW118365   0.291   0.783   2.530
 5822SOL    HW218366   0.162   0.805   2.433
 5823SOL     OW18367   1.942   2.752   4.221
 5823SOL    HW118368   1.858   2.806   4.211
 5823SOL    HW218369   1.955   2.696   4.139
 5824SOL     OW18370   5.250   0.267   3.965
 5824SOL    HW118371   5.240   0.220   4.054
 5824SOL    HW218372   5.169   0.248   3.909
 5825SOL     OW18373   3.289   1.582   1.536
 5825SOL    HW118374   3.351   1.645   1.489
 5825SOL    HW218375   3.299   1.591   1.635
 5826SOL     OW18376   0.464   6.676   3.645
 5826SOL    HW118377   0.447   6.593   3.593
 5826SOL    HW218378   0.506   6.745   3.586
 5827SOL     OW18379   1.568   4.883   5.747
 5827SOL    HW118380   1.527   4.903   5.836
 5827SOL    HW218381   1.594   4.969   5.703
 5828SOL     OW18382   5.958   2.235   1.458
 5828SOL    HW118383   6.020   2.206   1.385
 5828SOL    HW218384   6.011   2.256   1.541
 5829SOL     OW18385   2.067   1.740   1.377
 5829SOL    HW118386   1.983   1.785   1.346
 5829SOL    HW218387   2.049   1.692   1.463
 5830SOL     OW18388   1.830   0.729   5.626
 5830SOL    HW118389   1.836   0.693   5.719
 5830SOL    HW218390   1.849   0.656   5.561
 5831SOL     OW18391   5.690   5.434   2.814
 5831SOL    HW118392   5.687   5.398   2.721
 5831SOL    HW218393   5.751   5.514   2.818
 5832SOL     OW18394   3.550   3.346   4.881
 5832SOL    HW118395   3.550   3.373   4.784
 5832SOL    HW218396   3.586   3.253   4.889
 5833SOL     OW18397   2.923   3.321   4.888
 5833SOL    HW118398   2.925   3.407   4.838
 5833SOL    HW218399   2.832   3.280   4.881
 5834SOL     OW18400   5.945   1.078   0.085
 5834SOL    HW118401   5.926   1.169   0.047
 5834SOL    HW218402   5.860   1.036   0.115
 5835SOL     OW18403   5.321   2.803   4.418
 5835SOL    HW118404   5.236   2.822   4.468
 5835SOL    HW218405   5.330   2.870   4.344
 5836SOL     OW18406   3.328   0.010   3.636
 5836SOL    HW118407   3.404   0.011   3.571
 5836SOL    HW218408   3.364   0.015   3.730
 5837SOL     OW18409   4.364   3.989   6.136
 5837SOL    HW118410   4.447   3.941   6.163
 5837SOL    HW218411   4.380   4.088   6.139
 5838SOL     OW18412   0.520   1.019   5.832
 5838SOL    HW118413   0.544   1.003   5.736
 5838SOL    HW218414   0.567   0.953   5.890
 5839SOL     OW18415   0.092   2.158   2.472
 5839SOL    HW118416   0.113   2.255   2.458
 5839SOL    HW218417   0.176   2.105   2.466
 5840SOL     OW18418   3.521   5.642   0.624
 5840SOL    HW118419   3.609   5.643   0.671
 5840SOL    HW218420   3.477   5.553   0.638
 5841SOL     OW18421   6.053   2.375   3.300
 5841SOL    HW118422   6.151   2.368   3.317
 5841SOL    HW218423   6.037   2.405   3.206
 5842SOL     OW18424   3.832   2.154   1.074
 5842SOL    HW118425   3.907   2.176   1.012
 5842SOL    HW218426   3.864   2.162   1.169
 5843SOL     OW18427   0.410   2.508   1.277
 5843SOL    HW118428   0.496   2.521   1.228
 5843SOL    HW218429   0.402   2.412   1.304
 5844SOL     OW18430   1.644   6.412   6.543
 5844SOL    HW118431   1.637   6.320   6.504
 5844SOL    HW218432   1.605   6.478   6.479
 5845SOL     OW18433   1.806   2.888   4.945
 5845SOL    HW118434   1.727   2.933   4.987
 5845SOL    HW218435   1.883   2.887   5.009
 5846SOL     OW18436   0.429   3.998   6.780
 5846SOL    HW118437   0.492   3.960   6.713
 5846SOL    HW218438   0.441   3.951   6.868
 5847SOL     OW18439   1.610   2.571   4.314
 5847SOL    HW118440   1.625   2.654   4.260
 5847SOL    HW218441   1.545   2.591   4.387
 5848SOL     OW18442   0.629   4.661   3.573
 5848SOL    HW118443   0.629   4.756   3.544
 5848SOL    HW218444   0.682   4.651   3.657
 5849SOL     OW18445   2.893   0.022   5.979
 5849SOL    HW118446   2.875   0.107   6.029
 5849SOL    HW218447   2.806   7.005   5.951
 5850SOL     OW18448   1.019   4.460   2.995
 5850SOL    HW118449   0.989   4.365   2.996
 5850SOL    HW218450   1.119   4.464   2.998
 5851SOL     OW18451   6.349   3.267   2.035
 5851SOL    HW118452   6.422   3.271   2.103
 5851SOL    HW218453   6.317   3.173   2.025
 5852SOL     OW18454   3.599   6.189   3.117
 5852SOL    HW118455   3.653   6.240   3.050
 5852SOL    HW218456   3.512   6.162   3.075
 5853SOL     OW18457   4.938   4.061   5.375
 5853SOL    HW118458   4.847   4.082   5.340
 5853SOL    HW218459   5.002   4.131   5.346
 5854SOL     OW18460   0.877   1.582   6.761
 5854SOL    HW118461   0.906   1.620   6.849
 5854SOL    HW218462   0.781   1.604   6.745
 5855SOL     OW18463   1.495   1.519   4.834
 5855SOL    HW118464   1.476   1.497   4.930
 5855SOL    HW218465   1.413   1.558   4.791
 5856SOL     OW18466   1.020   5.578   3.453
 5856SOL    HW118467   1.056   5.544   3.541
 5856SOL    HW218468   0.958   5.654   3.470
 5857SOL     OW18469   0.241   2.424   5.230
 5857SOL    HW118470   0.237   2.509   5.177
 5857SOL    HW218471   0.214   2.347   5.172
 5858SOL     OW18472   2.998   6.620   3.770
 5858SOL    HW118473   3.070   6.689   3.760
 5858SOL    HW218474   2.936   6.626   3.692
 5859SOL     OW18475   5.821   5.354   1.799
 5859SOL    HW118476   5.864   5.436   1.761
 5859SOL    HW218477   5.746   5.324   1.740
 5860SOL     OW18478   6.880   4.144   0.713
 5860SOL    HW118479   6.923   4.171   0.799
 5860SOL    HW218480   6.949   4.132   0.642
 5861SOL     OW18481   5.970   1.381   3.877
 5861SOL    HW118482   5.980   1.397   3.975
 5861SOL    HW218483   5.889   1.428   3.843
 5862SOL     OW18484   5.415   4.879   3.776
 5862SOL    HW118485   5.386   4.876   3.872
 5862SOL    HW218486   5.374   4.958   3.731
 5863SOL     OW18487   2.088   1.502   0.387
 5863SOL    HW118488   2.143   1.421   0.366
 5863SOL    HW218489   2.093   1.567   0.312
 5864SOL     OW18490   4.817   5.032   0.672
 5864SOL    HW118491   4.863   5.015   0.759
 5864SOL    HW218492   4.731   4.980   0.669
 5865SOL     OW18493   4.270   0.922   2.766
 5865SOL    HW118494   4.251   0.865   2.846
 5865SOL    HW218495   4.315   0.867   2.696
 5866SOL     OW18496   3.153   1.429   6.903
 5866SOL    HW118497   3.252   1.437   6.898
 5866SOL    HW218498   3.113   1.458   6.816
 5867SOL     OW18499   6.655   3.038   1.653
 5867SOL    HW118500   6.595   3.016   1.576
 5867SOL    HW218501   6.647   3.135   1.675
 5868SOL     OW18502   0.440   6.389   5.301
 5868SOL    HW118503   0.412   6.346   5.215
 5868SOL    HW218504   0.436   6.322   5.375
 5869SOL     OW18505   2.477   4.459   3.884
 5869SOL    HW118506   2.408   4.527   3.859
 5869SOL    HW218507   2.498   4.466   3.982
 5870SOL     OW18508   5.079   5.777   3.995
 5870SOL    HW118509   5.165   5.727   3.990
 5870SOL    HW218510   5.068   5.834   3.913
 5871SOL     OW18511   3.162   4.059   0.622
 5871SOL    HW118512   3.216   4.143   0.611
 5871SOL    HW218513   3.087   4.076   0.686
 5872SOL     OW18514   4.039   5.646   4.134
 5872SOL    HW118515   4.007   5.631   4.041
 5872SOL    HW218516   4.122   5.592   4.151
 5873SOL     OW18517   2.151   2.746   0.140
 5873SOL    HW118518   2.249   2.725   0.132
 5873SOL    HW218519   2.118   2.785   0.055
 5874SOL     OW18520   0.887   4.529   6.585
 5874SOL    HW118521   0.876   4.433   6.558
 5874SOL    HW218522   0.962   4.570   6.532
 5875SOL     OW18523   3.861   1.868   1.068
 5875SOL    HW118524   3.886   1.862   0.971
 5875SOL    HW218525   3.841   1.963   1.091
 5876SOL     OW18526   4.426   3.619   5.994
 5876SOL    HW118527   4.361   3.682   5.951
 5876SOL    HW218528   4.380   3.533   6.015
 5877SOL     OW18529   5.409   0.108   2.617
 5877SOL    HW118530   5.324   0.143   2.579
 5877SOL    HW218531   5.389   0.048   2.695
 5878SOL     OW18532   5.009   3.486   2.849
 5878SOL    HW118533   5.100   3.521   2.869
 5878SOL    HW218534   4.968   3.539   2.775
 5879SOL     OW18535   3.123   4.826   4.998
 5879SOL    HW118536   3.051   4.765   5.031
 5879SOL    HW218537   3.095   4.867   4.911
 5880SOL     OW18538   6.033   2.524   0.074
 5880SOL    HW118539   5.947   2.505   0.122
 5880SOL    HW218540   6.069   2.612   0.106
 5881SOL     OW18541   1.247   5.981   2.624
 5881SOL    HW118542   1.211   6.036   2.699
 5881SOL    HW218543   1.226   6.026   2.537
 5882SOL     OW18544   1.493   5.351   5.080
 5882SOL    HW118545   1.398   5.321   5.089
 5882SOL    HW218546   1.548   5.309   5.153
 5883SOL     OW18547   0.110   5.732   0.121
 5883SOL    HW118548   0.143   5.719   0.027
 5883SOL    HW218549   0.188   5.745   0.182
 5884SOL     OW18550   0.102   1.304   2.384
 5884SOL    HW118551   0.185   1.249   2.389
 5884SOL    HW218552   0.088   1.337   2.291
 5885SOL     OW18553   6.807   5.794   1.473
 5885SOL    HW118554   6.801   5.891   1.498
 5885SOL    HW218555   6.733   5.771   1.410
 5886SOL     OW18556   1.696   4.643   3.179
 5886SOL    HW118557   1.604   4.659   3.215
 5886SOL    HW218558   1.763   4.690   3.236
 5887SOL     OW18559   2.649   3.969   0.575
 5887SOL    HW118560   2.647   3.904   0.651
 5887SOL    HW218561   2.586   3.939   0.504
 5888SOL     OW18562   2.939   5.683   1.714
 5888SOL    HW118563   3.012   5.724   1.661
 5888SOL    HW218564   2.955   5.584   1.723
 5889SOL     OW18565   5.053   1.539   2.011
 5889SOL    HW118566   5.107   1.458   1.986
 5889SOL    HW218567   5.086   1.618   1.959
 5890SOL     OW18568   2.572   4.599   3.213
 5890SOL    HW118569   2.516   4.517   3.201
 5890SOL    HW218570   2.615   4.622   3.125
 5891SOL     OW18571   2.375   2.889   6.749
 5891SOL    HW118572   2.442   2.929   6.687
 5891SOL    HW218573   2.284   2.891   6.707
 5892SOL     OW18574   0.437   2.398   0.942
 5892SOL    HW118575   0.534   2.413   0.921
 5892SOL    HW218576   0.391   2.486   0.951
 5893SOL     OW18577   0.541   6.137   1.667
 5893SOL    HW118578   0.633   6.135   1.626
 5893SOL    HW218579   0.480   6.189   1.607
 5894SOL     OW18580   2.339   4.900   6.642
 5894SOL    HW118581   2.326   4.929   6.547
 5894SOL    HW218582   2.375   4.977   6.696
 5895SOL     OW18583   5.835   2.825   3.659
 5895SOL    HW118584   5.742   2.857   3.644
 5895SOL    HW218585   5.836   2.725   3.667
 5896SOL     OW18586   5.615   2.513   1.406
 5896SOL    HW118587   5.521   2.531   1.377
 5896SOL    HW218588   5.614   2.488   1.503
 5897SOL     OW18589   3.693   3.064   0.394
 5897SOL    HW118590   3.617   3.128   0.388
 5897SOL    HW218591   3.725   3.059   0.489
 5898SOL     OW18592   3.265   0.679   6.829
 5898SOL    HW118593   3.261   0.716   6.736
 5898SOL    HW218594   3.187   0.617   6.843
 5899SOL     OW18595   0.518   0.139   0.016
 5899SOL    HW118596   0.565   0.054   0.040
 5899SOL    HW218597   0.585   0.212   0.009
 5900SOL     OW18598   5.603   6.363   2.966
 5900SOL    HW118599   5.581   6.447   2.917
 5900SOL    HW218600   5.625   6.385   3.061
 5901SOL     OW18601   1.624   0.721   4.988
 5901SOL    HW118602   1.555   0.789   4.962
 5901SOL    HW218603   1.703   0.729   4.927
 5902SOL     OW18604   4.176   3.689   5.752
 5902SOL    HW118605   4.243   3.745   5.799
 5902SOL    HW218606   4.137   3.623   5.816
 5903SOL     OW18607   5.846   1.806   5.321
 5903SOL    HW118608   5.746   1.815   5.315
 5903SOL    HW218609   5.876   1.735   5.258
 5904SOL     OW18610   6.898   4.856   1.903
 5904SOL    HW118611   6.974   4.864   1.838
 5904SOL    HW218612   6.844   4.940   1.902
 5905SOL     OW18613   6.385   2.250   4.830
 5905SOL    HW118614   6.389   2.171   4.891
 5905SOL    HW218615   6.425   2.330   4.876
 5906SOL     OW18616   3.983   0.546   5.091
 5906SOL    HW118617   4.042   0.466   5.091
 5906SOL    HW218618   3.891   0.520   5.119
 5907SOL     OW18619   0.469   3.700   5.992
 5907SOL    HW118620   0.501   3.756   5.915
 5907SOL    HW218621   0.476   3.603   5.968
 5908SOL     OW18622   4.285   3.624   6.970
 5908SOL    HW118623   4.189   3.610   6.993
 5908SOL    HW218624   4.336   3.650   0.028
 5909SOL     OW18625   6.071   4.717   3.530
 5909SOL    HW118626   5.998   4.694   3.594
 5909SOL    HW218627   6.111   4.805   3.554
 5910SOL     OW18628   3.021   4.298   1.385
 5910SOL    HW118629   2.959   4.225   1.415
 5910SOL    HW218630   3.021   4.371   1.453
 5911SOL     OW18631   6.071   0.704   5.890
 5911SOL    HW118632   6.142   0.741   5.831
 5911SOL    HW218633   6.104   0.621   5.934
 5912SOL     OW18634   0.572   3.405   6.334
 5912SOL    HW118635   0.494   3.343   6.325
 5912SOL    HW218636   0.583   3.433   6.429
 5913SOL     OW18637   1.937   2.808   4.525
 5913SOL    HW118638   1.967   2.722   4.567
 5913SOL    HW218639   1.933   2.797   4.426
 5914SOL     OW18640   1.245   5.877   0.322
 5914SOL    HW118641   1.185   5.956   0.338
 5914SOL    HW218642   1.287   5.850   0.408
 5915SOL     OW18643   5.707   3.970   4.310
 5915SOL    HW118644   5.699   3.975   4.210
 5915SOL    HW218645   5.654   3.893   4.344
 5916SOL     OW18646   2.940   1.007   6.743
 5916SOL    HW118647   3.003   1.070   6.787
 5916SOL    HW218648   2.910   1.044   6.655
 5917SOL     OW18649   3.464   4.111   2.162
 5917SOL    HW118650   3.562   4.111   2.146
 5917SOL    HW218651   3.446   4.114   2.260
 5918SOL     OW18652   2.948   1.959   3.889
 5918SOL    HW118653   2.922   2.034   3.828
 5918SOL    HW218654   2.947   1.991   3.984
 5919SOL     OW18655   1.622   2.129   6.977
 5919SOL    HW118656   1.647   2.032   6.981
 5919SOL    HW218657   1.703   2.184   6.957
 5920SOL     OW18658   2.436   5.106   6.799
 5920SOL    HW118659   2.360   5.158   6.841
 5920SOL    HW218660   2.523   5.145   6.830
 5921SOL     OW18661   3.869   5.841   4.832
 5921SOL    HW118662   3.820   5.768   4.879
 5921SOL    HW218663   3.967   5.831   4.848
 5922SOL     OW18664   0.081   5.418   2.459
 5922SOL    HW118665   0.151   5.471   2.508
 5922SOL    HW218666   0.124   5.341   2.413
 5923SOL     OW18667   0.718   0.830   3.227
 5923SOL    HW118668   0.732   0.926   3.253
 5923SOL    HW218669   0.623   0.804   3.247
 5924SOL     OW18670   5.797   2.020   4.550
 5924SOL    HW118671   5.752   2.071   4.623
 5924SOL    HW218672   5.896   2.032   4.557
 5925SOL     OW18673   6.573   5.880   0.513
 5925SOL    HW118674   6.656   5.879   0.570
 5925SOL    HW218675   6.517   5.959   0.539
 5926SOL     OW18676   3.016   6.561   1.779
 5926SOL    HW118677   3.098   6.598   1.735
 5926SOL    HW218678   3.041   6.520   1.867
 5927SOL     OW18679   2.286   4.904   1.361
 5927SOL    HW118680   2.333   4.989   1.340
 5927SOL    HW218681   2.238   4.871   1.279
 5928SOL     OW18682   6.969   5.999   1.205
 5928SOL    HW118683   0.044   6.012   1.207
 5928SOL    HW218684   6.926   6.061   1.271
 5929SOL     OW18685   7.013   6.831   5.561
 5929SOL    HW118686   0.076   6.881   5.567
 5929SOL    HW218687   7.021   6.743   5.608
 5930SOL     OW18688   6.183   1.373   5.216
 5930SOL    HW118689   6.205   1.436   5.142
 5930SOL    HW218690   6.119   1.304   5.183
 5931SOL     OW18691   5.469   4.957   0.889
 5931SOL    HW118692   5.425   4.898   0.957
 5931SOL    HW218693   5.468   5.052   0.922
 5932SOL     OW18694   2.258   6.847   0.246
 5932SOL    HW118695   2.338   6.787   0.255
 5932SOL    HW218696   2.265   6.922   0.312
 5933SOL     OW18697   5.916   2.257   3.083
 5933SOL    HW118698   5.998   2.242   3.027
 5933SOL    HW218699   5.839   2.207   3.042
 5934SOL     OW18700   4.164   3.193   2.140
 5934SOL    HW118701   4.202   3.229   2.055
 5934SOL    HW218702   4.112   3.109   2.120
 5935SOL     OW18703   3.736   3.040   2.954
 5935SOL    HW118704   3.679   3.027   2.873
 5935SOL    HW218705   3.830   3.059   2.927
 5936SOL     OW18706   6.594   6.291   6.685
 5936SOL    HW118707   6.530   6.303   6.609
 5936SOL    HW218708   6.615   6.194   6.697
 5937SOL     OW18709   1.062   4.416   0.199
 5937SOL    HW118710   1.093   4.467   0.119
 5937SOL    HW218711   1.021   4.480   0.265
 5938SOL     OW18712   2.351   4.882   0.665
 5938SOL    HW118713   2.254   4.861   0.658
 5938SOL    HW218714   2.362   4.980   0.682
 5939SOL     OW18715   1.482   0.777   2.308
 5939SOL    HW118716   1.451   0.832   2.230
 5939SOL    HW218717   1.437   0.688   2.305
 5940SOL     OW18718   3.962   4.869   3.488
 5940SOL    HW118719   3.879   4.853   3.540
 5940SOL    HW218720   3.991   4.964   3.500
 5941SOL     OW18721   6.028   2.616   3.495
 5941SOL    HW118722   6.118   2.636   3.533
 5941SOL    HW218723   6.030   2.528   3.448
 5942SOL     OW18724   6.987   1.225   4.906
 5942SOL    HW118725   6.899   1.178   4.898
 5942SOL    HW218726   7.005   1.277   4.823
 5943SOL     OW18727   1.815   5.397   0.864
 5943SOL    HW118728   1.897   5.417   0.918
 5943SOL    HW218729   1.758   5.478   0.859
 5944SOL     OW18730   5.275   2.681   2.638
 5944SOL    HW118731   5.210   2.757   2.627
 5944SOL    HW218732   5.262   2.616   2.563
 5945SOL     OW18733   6.505   5.777   6.265
 5945SOL    HW118734   6.603   5.788   6.285
 5945SOL    HW218735   6.494   5.733   6.176
 5946SOL     OW18736   3.761   2.582   5.360
 5946SOL    HW118737   3.789   2.488   5.338
 5946SOL    HW218738   3.818   2.647   5.311
 5947SOL     OW18739   4.863   4.040   2.628
 5947SOL    HW118740   4.818   4.029   2.539
 5947SOL    HW218741   4.933   3.969   2.639
 5948SOL     OW18742   2.873   5.301   3.173
 5948SOL    HW118743   2.809   5.228   3.198
 5948SOL    HW218744   2.924   5.330   3.254
 5949SOL     OW18745   4.916   4.299   3.115
 5949SOL    HW118746   4.866   4.260   3.192
 5949SOL    HW218747   4.918   4.233   3.040
 5950SOL     OW18748   6.330   2.314   4.380
 5950SOL    HW118749   6.286   2.291   4.467
 5950SOL    HW218750   6.403   2.249   4.361
 5951SOL     OW18751   1.980   0.941   3.870
 5951SOL    HW118752   1.932   0.994   3.941
 5951SOL    HW218753   1.974   0.989   3.783
 5952SOL     OW18754   0.368   6.446   4.602
 5952SOL    HW118755   0.416   6.525   4.566
 5952SOL    HW218756   0.296   6.418   4.537
 5953SOL     OW18757   0.232   2.980   6.127
 5953SOL    HW118758   0.195   2.892   6.155
 5953SOL    HW218759   0.282   3.021   6.203
 5954SOL     OW18760   1.555   4.829   6.250
 5954SOL    HW118761   1.645   4.814   6.290
 5954SOL    HW218762   1.536   4.756   6.184
 5955SOL     OW18763   4.201   5.092   2.738
 5955SOL    HW118764   4.136   5.043   2.795
 5955SOL    HW218765   4.158   5.118   2.652
 5956SOL     OW18766   0.194   2.365   0.091
 5956SOL    HW118767   0.125   2.330   0.028
 5956SOL    HW218768   0.220   2.293   0.155
 5957SOL     OW18769   4.170   6.615   5.644
 5957SOL    HW118770   4.242   6.645   5.706
 5957SOL    HW218771   4.206   6.544   5.583
 5958SOL     OW18772   1.113   5.295   2.538
 5958SOL    HW118773   1.127   5.199   2.513
 5958SOL    HW218774   1.123   5.352   2.457
 5959SOL     OW18775   2.019   0.983   6.322
 5959SOL    HW118776   1.963   1.059   6.289
 5959SOL    HW218777   1.973   0.897   6.301
 5960SOL     OW18778   3.676   6.110   5.303
 5960SOL    HW118779   3.774   6.097   5.297
 5960SOL    HW218780   3.646   6.175   5.233
 5961SOL     OW18781   2.403   1.270   5.725
 5961SOL    HW118782   2.415   1.326   5.807
 5961SOL    HW218783   2.490   1.231   5.698
 5962SOL     OW18784   5.344   4.006   2.376
 5962SOL    HW118785   5.404   3.955   2.314
 5962SOL    HW218786   5.252   4.007   2.339
 5963SOL     OW18787   4.265   4.520   1.750
 5963SOL    HW118788   4.283   4.538   1.653
 5963SOL    HW218789   4.333   4.456   1.785
 5964SOL     OW18790   1.534   3.745   5.495
 5964SOL    HW118791   1.619   3.767   5.448
 5964SOL    HW218792   1.512   3.648   5.480
 5965SOL     OW18793   1.870   1.669   4.264
 5965SOL    HW118794   1.830   1.685   4.174
 5965SOL    HW218795   1.818   1.599   4.312
 5966SOL     OW18796   1.681   6.138   4.306
 5966SOL    HW118797   1.699   6.134   4.208
 5966SOL    HW218798   1.716   6.224   4.343
 5967SOL     OW18799   4.693   5.494   1.397
 5967SOL    HW118800   4.616   5.557   1.392
 5967SOL    HW218801   4.667   5.406   1.356
 5968SOL     OW18802   1.372   1.948   4.440
 5968SOL    HW118803   1.433   1.873   4.463
 5968SOL    HW218804   1.306   1.918   4.371
 5969SOL     OW18805   0.128   1.815   3.082
 5969SOL    HW118806   0.214   1.862   3.063
 5969SOL    HW218807   0.098   1.766   3.000
 5970SOL     OW18808   2.147   3.916   3.475
 5970SOL    HW118809   2.160   4.014   3.461
 5970SOL    HW218810   2.180   3.891   3.566
 5971SOL     OW18811   3.161   5.529   3.324
 5971SOL    HW118812   3.146   5.525   3.225
 5971SOL    HW218813   3.079   5.494   3.371
 5972SOL     OW18814   5.579   0.375   1.518
 5972SOL    HW118815   5.578   0.317   1.599
 5972SOL    HW218816   5.611   0.466   1.542
 5973SOL     OW18817   2.366   5.039   3.261
 5973SOL    HW118818   2.436   5.104   3.231
 5973SOL    HW218819   2.374   4.955   3.207
 5974SOL     OW18820   0.682   4.159   6.802
 5974SOL    HW118821   0.731   4.122   6.881
 5974SOL    HW218822   0.680   4.091   6.729
 5975SOL     OW18823   2.171   2.318   6.280
 5975SOL    HW118824   2.095   2.375   6.311
 5975SOL    HW218825   2.135   2.231   6.246
 5976SOL     OW18826   3.523   3.462   4.626
 5976SOL    HW118827   3.445   3.521   4.607
 5976SOL    HW218828   3.583   3.458   4.546
 5977SOL     OW18829   0.422   3.635   2.736
 5977SOL    HW118830   0.410   3.618   2.638
 5977SOL    HW218831   0.400   3.552   2.787
 5978SOL     OW18832   5.098   5.609   1.956
 5978SOL    HW118833   5.004   5.640   1.972
 5978SOL    HW218834   5.098   5.511   1.940
 5979SOL     OW18835   0.900   0.828   1.658
 5979SOL    HW118836   0.996   0.836   1.634
 5979SOL    HW218837   0.884   0.742   1.706
 5980SOL     OW18838   5.841   2.720   5.558
 5980SOL    HW118839   5.875   2.638   5.512
 5980SOL    HW218840   5.883   2.727   5.648
 5981SOL     OW18841   3.519   1.933   0.406
 5981SOL    HW118842   3.562   1.882   0.331
 5981SOL    HW218843   3.420   1.919   0.404
 5982SOL     OW18844   6.310   3.008   0.102
 5982SOL    HW118845   6.258   3.089   0.130
 5982SOL    HW218846   6.408   3.025   0.113
 5983SOL     OW18847   0.932   0.295   4.911
 5983SOL    HW118848   0.914   0.308   4.814
 5983SOL    HW218849   0.858   0.243   4.952
 5984SOL     OW18850   0.809   0.291   6.027
 5984SOL    HW118851   0.794   0.390   6.021
 5984SOL    HW218852   0.884   0.266   5.966
 5985SOL     OW18853   5.626   3.338   3.922
 5985SOL    HW118854   5.671   3.280   3.854
 5985SOL    HW218855   5.577   3.281   3.987
 5986SOL     OW18856   3.279   3.370   2.708
 5986SOL    HW118857   3.194   3.318   2.700
 5986SOL    HW218858   3.259   3.460   2.747
 5987SOL     OW18859   4.485   0.225   5.462
 5987SOL    HW118860   4.411   0.281   5.424
 5987SOL    HW218861   4.454   0.131   5.474
 5988SOL     OW18862   3.844   6.800   5.925
 5988SOL    HW118863   3.798   6.747   5.997
 5988SOL    HW218864   3.877   6.737   5.854
 5989SOL     OW18865   3.229   1.776   6.674
 5989SOL    HW118866   3.228   1.726   6.761
 5989SOL    HW218867   3.266   1.868   6.689
 5990SOL     OW18868   3.522   5.144   2.882
 5990SOL    HW118869   3.523   5.135   2.982
 5990SOL    HW218870   3.563   5.063   2.841
 5991SOL     OW18871   3.517   4.942   3.550
 5991SOL    HW118872   3.442   4.891   3.594
 5991SOL    HW218873   3.479   5.013   3.492
 5992SOL     OW18874   4.264   1.878   4.157
 5992SOL    HW118875   4.339   1.933   4.120
 5992SOL    HW218876   4.178   1.906   4.115
 5993SOL     OW18877   2.319   4.970   3.859
 5993SOL    HW118878   2.261   4.956   3.939
 5993SOL    HW218879   2.309   4.892   3.797
 5994SOL     OW18880   6.267   2.870   0.502
 5994SOL    HW118881   6.322   2.870   0.586
 5994SOL    HW218882   6.175   2.837   0.522
 5995SOL     OW18883   0.432   3.685   1.924
 5995SOL    HW118884   0.388   3.718   2.008
 5995SOL    HW218885   0.505   3.621   1.948
 5996SOL     OW18886   1.302   5.985   5.965
 5996SOL    HW118887   1.307   5.916   5.893
 5996SOL    HW218888   1.298   6.076   5.923
 5997SOL     OW18889   0.650   0.619   1.266
 5997SOL    HW118890   0.703   0.692   1.309
 5997SOL    HW218891   0.691   0.531   1.288
 5998SOL     OW18892   5.229   2.854   3.318
 5998SOL    HW118893   5.165   2.926   3.292
 5998SOL    HW218894   5.293   2.838   3.243
 5999SOL     OW18895   2.323   2.750   2.841
 5999SOL    HW118896   2.345   2.846   2.858
 5999SOL    HW218897   2.328   2.699   2.926
 6000SOL     OW18898   4.879   0.988   3.390
 6000SOL    HW118899   4.779   0.993   3.380
 6000SOL    HW218900   4.918   1.080   3.381
 6001SOL     OW18901   6.295   1.370   0.490
 6001SOL    HW118902   6.242   1.383   0.574
 6001SOL    HW218903   6.232   1.355   0.413
 6002SOL     OW18904   1.890   0.209   2.398
 6002SOL    HW118905   1.886   0.183   2.301
 6002SOL    HW218906   1.877   0.308   2.406
 6003SOL     OW18907   4.823   4.240   3.694
 6003SOL    HW118908   4.758   4.300   3.742
 6003SOL    HW218909   4.898   4.217   3.755
 6004SOL     OW18910   0.298   3.423   1.356
 6004SOL    HW118911   0.383   3.445   1.403
 6004SOL    HW218912   0.223   3.475   1.397
 6005SOL     OW18913   1.820   6.115   2.393
 6005SOL    HW118914   1.731   6.076   2.369
 6005SOL    HW218915   1.881   6.042   2.424
 6006SOL     OW18916   2.416   5.497   6.919
 6006SOL    HW118917   2.458   5.586   6.901
 6006SOL    HW218918   2.367   5.502   7.006
 6007SOL     OW18919   5.498   3.546   4.646
 6007SOL    HW118920   5.448   3.625   4.682
 6007SOL    HW218921   5.587   3.576   4.612
 6008SOL     OW18922   4.692   4.110   1.674
 6008SOL    HW118923   4.693   4.166   1.591
 6008SOL    HW218924   4.603   4.064   1.682
 6009SOL     OW18925   4.597   1.463   4.766
 6009SOL    HW118926   4.542   1.379   4.769
 6009SOL    HW218927   4.547   1.533   4.715
 6010SOL     OW18928   2.065   4.400   3.189
 6010SOL    HW118929   2.039   4.391   3.093
 6010SOL    HW218930   2.066   4.496   3.214
 6011SOL     OW18931   6.320   2.165   1.997
 6011SOL    HW118932   6.229   2.132   1.970
 6011SOL    HW218933   6.333   2.150   2.094
 6012SOL     OW18934   0.801   3.157   1.125
 6012SOL    HW118935   0.734   3.116   1.064
 6012SOL    HW218936   0.890   3.162   1.078
 6013SOL     OW18937   5.590   0.316   2.554
 6013SOL    HW118938   5.531   0.249   2.599
 6013SOL    HW218939   5.652   0.356   2.621
 6014SOL     OW18940   6.153   0.723   0.802
 6014SOL    HW118941   6.089   0.749   0.874
 6014SOL    HW218942   6.111   0.652   0.745
 6015SOL     OW18943   5.814   0.073   4.084
 6015SOL    HW118944   5.861   0.138   4.025
 6015SOL    HW218945   5.840   0.089   4.179
 6016SOL     OW18946   1.563   0.504   5.686
 6016SOL    HW118947   1.649   0.481   5.642
 6016SOL    HW218948   1.496   0.531   5.617
 6017SOL     OW18949   6.882   3.410   2.380
 6017SOL    HW118950   6.876   3.347   2.457
 6017SOL    HW218951   6.947   3.483   2.401
 6018SOL     OW18952   3.511   4.915   1.261
 6018SOL    HW118953   3.481   4.843   1.323
 6018SOL    HW218954   3.611   4.918   1.260
 6019SOL     OW18955   6.190   6.462   3.316
 6019SOL    HW118956   6.178   6.474   3.217
 6019SOL    HW218957   6.259   6.392   3.333
 6020SOL     OW18958   1.948   6.425   3.060
 6020SOL    HW118959   1.862   6.375   3.066
 6020SOL    HW218960   1.931   6.522   3.077
 6021SOL     OW18961   3.628   0.761   3.429
 6021SOL    HW118962   3.633   0.661   3.436
 6021SOL    HW218963   3.539   0.792   3.462
 6022SOL     OW18964   4.084   0.977   5.383
 6022SOL    HW118965   4.008   0.955   5.443
 6022SOL    HW218966   4.119   1.068   5.404
 6023SOL     OW18967   0.332   2.048   2.444
 6023SOL    HW118968   0.344   2.099   2.359
 6023SOL    HW218969   0.404   1.979   2.452
 6024SOL     OW18970   6.249   5.759   2.788
 6024SOL    HW118971   6.178   5.829   2.793
 6024SOL    HW218972   6.339   5.804   2.786
 6025SOL     OW18973   4.474   2.433   2.653
 6025SOL    HW118974   4.532   2.354   2.670
 6025SOL    HW218975   4.382   2.417   2.690
 6026SOL     OW18976   0.760   4.368   5.836
 6026SOL    HW118977   0.813   4.312   5.899
 6026SOL    HW218978   0.683   4.315   5.800
 6027SOL     OW18979   4.071   3.904   0.385
 6027SOL    HW118980   4.039   3.899   0.479
 6027SOL    HW218981   4.123   3.988   0.371
 6028SOL     OW18982   0.537   4.347   6.707
 6028SOL    HW118983   0.585   4.434   6.714
 6028SOL    HW218984   0.597   4.274   6.742
 6029SOL     OW18985   1.237   5.494   1.362
 6029SOL    HW118986   1.237   5.510   1.460
 6029SOL    HW218987   1.146   5.466   1.332
 6030SOL     OW18988   1.947   6.595   1.944
 6030SOL    HW118989   2.004   6.582   2.025
 6030SOL    HW218990   1.939   6.509   1.895
 6031SOL     OW18991   4.911   0.843   4.166
 6031SOL    HW118992   4.969   0.879   4.240
 6031SOL    HW218993   4.969   0.805   4.095
 6032SOL     OW18994   1.231   2.433   2.596
 6032SOL    HW118995   1.155   2.387   2.642
 6032SOL    HW218996   1.235   2.403   2.501
 6033SOL     OW18997   0.474   6.858   4.750
 6033SOL    HW118998   0.470   6.954   4.722
 6033SOL    HW218999   0.446   6.849   4.846
 6034SOL     OW19000   2.287   4.503   4.801
 6034SOL    HW119001   2.272   4.434   4.872
 6034SOL    HW219002   2.327   4.459   4.720
 6035SOL     OW19003   4.738   0.088   3.739
 6035SOL    HW119004   4.652   0.039   3.737
 6035SOL    HW219005   4.721   0.187   3.733
 6036SOL     OW19006   6.145   0.571   4.742
 6036SOL    HW119007   6.225   0.606   4.693
 6036SOL    HW219008   6.168   0.484   4.785
 6037SOL     OW19009   0.349   5.751   4.671
 6037SOL    HW119010   0.436   5.777   4.630
 6037SOL    HW219011   0.327   5.657   4.644
 6038SOL     OW19012   0.038   4.252   6.790
 6038SOL    HW119013   0.116   4.189   6.786
 6038SOL    HW219014   0.029   4.287   6.883
 6039SOL     OW19015   3.553   3.183   4.002
 6039SOL    HW119016   3.510   3.213   3.918
 6039SOL    HW219017   3.577   3.262   4.058
 6040SOL     OW19018   1.402   0.935   0.820
 6040SOL    HW119019   1.419   0.847   0.776
 6040SOL    HW219020   1.489   0.976   0.846
 6041SOL     OW19021   0.793   3.069   6.998
 6041SOL    HW119022   0.794   3.027   0.066
 6041SOL    HW219023   0.883   3.109   6.979
 6042SOL     OW19024   4.839   5.316   4.883
 6042SOL    HW119025   4.752   5.365   4.876
 6042SOL    HW219026   4.910   5.367   4.834
 6043SOL     OW19027   0.123   4.199   4.012
 6043SOL    HW119028   0.067   4.249   3.947
 6043SOL    HW219029   0.180   4.264   4.064
 6044SOL     OW19030   1.691   0.537   1.431
 6044SOL    HW119031   1.654   0.452   1.395
 6044SOL    HW219032   1.750   0.579   1.363
 6045SOL     OW19033   6.515   4.609   0.189
 6045SOL    HW119034   6.485   4.640   0.099
 6045SOL    HW219035   6.600   4.656   0.214
 6046SOL     OW19036   1.698   3.506   6.817
 6046SOL    HW119037   1.623   3.441   6.808
 6046SOL    HW219038   1.695   3.571   6.741
 6047SOL     OW19039   1.015   5.442   4.918
 6047SOL    HW119040   0.990   5.405   4.829
 6047SOL    HW219041   0.951   5.408   4.988
 6048SOL     OW19042   4.465   5.988   4.086
 6048SOL    HW119043   4.470   5.975   4.185
 6048SOL    HW219044   4.467   6.086   4.064
 6049SOL     OW19045   6.651   5.535   7.021
 6049SOL    HW119046   6.589   5.474   0.046
 6049SOL    HW219047   6.713   5.579   0.063
 6050SOL     OW19048   5.896   4.502   5.287
 6050SOL    HW119049   5.917   4.438   5.214
 6050SOL    HW219050   5.885   4.452   5.373
 6051SOL     OW19051   3.535   2.108   3.734
 6051SOL    HW119052   3.492   2.185   3.687
 6051SOL    HW219053   3.474   2.073   3.805
 6052SOL     OW19054   0.260   1.718   6.751
 6052SOL    HW119055   0.331   1.734   6.683
 6052SOL    HW219056   0.264   1.623   6.782
 6053SOL     OW19057   1.338   0.218   6.302
 6053SOL    HW119058   1.312   0.306   6.262
 6053SOL    HW219059   1.294   0.145   6.251
 6054SOL     OW19060   0.887   4.260   6.073
 6054SOL    HW119061   0.898   4.162   6.087
 6054SOL    HW219062   0.966   4.309   6.110
 6055SOL     OW19063   5.541   0.362   3.058
 6055SOL    HW119064   5.480   0.283   3.049
 6055SOL    HW219065   5.500   0.429   3.120
 6056SOL     OW19066   5.602   3.389   6.433
 6056SOL    HW119067   5.520   3.333   6.449
 6056SOL    HW219068   5.587   3.447   6.354
 6057SOL     OW19069   3.868   1.000   6.378
 6057SOL    HW119070   3.943   1.040   6.325
 6057SOL    HW219071   3.900   0.976   6.469
 6058SOL     OW19072   5.136   1.975   5.186
 6058SOL    HW119073   5.223   1.945   5.148
 6058SOL    HW219074   5.101   2.053   5.134
 6059SOL     OW19075   0.118   6.440   6.779
 6059SOL    HW119076   0.057   6.361   6.773
 6059SOL    HW219077   0.174   6.445   6.696
 6060SOL     OW19078   3.291   5.620   6.527
 6060SOL    HW119079   3.374   5.653   6.572
 6060SOL    HW219080   3.263   5.685   6.456
 6061SOL     OW19081   2.014   1.427   0.029
 6061SOL    HW119082   1.993   1.435   6.954
 6061SOL    HW219083   2.091   1.486   0.051
 6062SOL     OW19084   1.445   0.221   4.047
 6062SOL    HW119085   1.472   0.252   4.138
 6062SOL    HW219086   1.498   0.139   4.023
 6063SOL     OW19087   6.073   5.859   6.850
 6063SOL    HW119088   6.087   5.923   6.773
 6063SOL    HW219089   6.151   5.797   6.856
 6064SOL     OW19090   1.100   5.014   2.447
 6064SOL    HW119091   1.143   4.938   2.498
 6064SOL    HW219092   1.013   4.983   2.410
 6065SOL     OW19093   5.301   6.800   1.917
 6065SOL    HW119094   5.278   6.896   1.900
 6065SOL    HW219095   5.396   6.783   1.893
 6066SOL     OW19096   3.998   1.711   5.551
 6066SOL    HW119097   3.989   1.613   5.537
 6066SOL    HW219098   4.039   1.729   5.641
 6067SOL     OW19099   4.669   1.963   6.474
 6067SOL    HW119100   4.657   2.019   6.556
 6067SOL    HW219101   4.692   1.870   6.501
 6068SOL     OW19102   5.217   0.725   5.534
 6068SOL    HW119103   5.254   0.636   5.508
 6068SOL    HW219104   5.118   0.720   5.541
 6069SOL     OW19105   6.444   5.260   3.420
 6069SOL    HW119106   6.349   5.256   3.451
 6069SOL    HW219107   6.472   5.169   3.388
 6070SOL     OW19108   4.896   3.686   0.667
 6070SOL    HW119109   4.809   3.736   0.672
 6070SOL    HW219110   4.883   3.592   0.697
 6071SOL     OW19111   5.106   6.661   5.209
 6071SOL    HW119112   5.096   6.640   5.111
 6071SOL    HW219113   5.175   6.732   5.220
 6072SOL     OW19114   6.236   1.898   1.474
 6072SOL    HW119115   6.280   1.985   1.457
 6072SOL    HW219116   6.146   1.913   1.515
 6073SOL     OW19117   6.128   0.578   1.288
 6073SOL    HW119118   6.129   0.646   1.214
 6073SOL    HW219119   6.074   0.612   1.365
 6074SOL     OW19120   0.749   0.528   5.900
 6074SOL    HW119121   0.827   0.587   5.918
 6074SOL    HW219122   0.776   0.454   5.838
 6075SOL     OW19123   5.232   3.697   6.091
 6075SOL    HW119124   5.163   3.765   6.117
 6075SOL    HW219125   5.189   3.607   6.084
 6076SOL     OW19126   2.739   0.462   3.999
 6076SOL    HW119127   2.677   0.538   3.978
 6076SOL    HW219128   2.755   0.459   4.098
 6077SOL     OW19129   4.619   4.903   3.244
 6077SOL    HW119130   4.715   4.891   3.270
 6077SOL    HW219131   4.572   4.953   3.316
 6078SOL     OW19132   1.892   4.013   4.214
 6078SOL    HW119133   1.921   4.095   4.164
 6078SOL    HW219134   1.854   4.039   4.302
 6079SOL     OW19135   3.351   2.118   0.956
 6079SOL    HW119136   3.275   2.066   0.918
 6079SOL    HW219137   3.329   2.145   1.050
 6080SOL     OW19138   5.896   3.115   3.358
 6080SOL    HW119139   5.912   3.200   3.408
 6080SOL    HW219140   5.905   3.133   3.260
 6081SOL     OW19141   0.575   4.222   1.945
 6081SOL    HW119142   0.556   4.292   2.013
 6081SOL    HW219143   0.508   4.148   1.954
 6082SOL     OW19144   3.994   1.727   4.922
 6082SOL    HW119145   4.026   1.723   5.017
 6082SOL    HW219146   3.964   1.820   4.901
 6083SOL     OW19147   1.924   6.508   6.894
 6083SOL    HW119148   1.995   6.570   6.927
 6083SOL    HW219149   1.942   6.416   6.926
 6084SOL     OW19150   6.791   5.811   6.203
 6084SOL    HW119151   6.768   5.874   6.129
 6084SOL    HW219152   6.840   5.732   6.165
 6085SOL     OW19153   5.102   5.336   1.904
 6085SOL    HW119154   5.042   5.275   1.851
 6085SOL    HW219155   5.194   5.297   1.908
 6086SOL     OW19156   3.197   1.817   2.443
 6086SOL    HW119157   3.175   1.876   2.365
 6086SOL    HW219158   3.296   1.817   2.457
 6087SOL     OW19159   3.772   0.656   0.470
 6087SOL    HW119160   3.789   0.754   0.481
 6087SOL    HW219161   3.857   0.605   0.487
 6088SOL     OW19162   6.998   0.782   5.135
 6088SOL    HW119163   0.024   0.721   5.197
 6088SOL    HW219164   0.003   0.765   5.041
 6089SOL     OW19165   6.560   4.007   1.382
 6089SOL    HW119166   6.522   3.927   1.428
 6089SOL    HW219167   6.603   3.978   1.296
 6090SOL     OW19168   6.849   5.704   4.338
 6090SOL    HW119169   6.880   5.797   4.324
 6090SOL    HW219170   6.841   5.657   4.250
 6091SOL     OW19171   6.709   2.378   1.879
 6091SOL    HW119172   6.619   2.388   1.921
 6091SOL    HW219173   6.752   2.294   1.912
 6092SOL     OW19174   1.160   3.583   0.914
 6092SOL    HW119175   1.256   3.555   0.921
 6092SOL    HW219176   1.107   3.540   0.988
 6093SOL     OW19177   1.032   4.852   0.700
 6093SOL    HW119178   0.974   4.887   0.774
 6093SOL    HW219179   1.103   4.793   0.738
 6094SOL     OW19180   0.472   1.208   1.096
 6094SOL    HW119181   0.559   1.257   1.107
 6094SOL    HW219182   0.408   1.266   1.045
 6095SOL     OW19183   6.444   4.182   5.221
 6095SOL    HW119184   6.486   4.104   5.175
 6095SOL    HW219185   6.438   4.164   5.319
 6096SOL     OW19186   5.492   1.852   2.537
 6096SOL    HW119187   5.395   1.835   2.556
 6096SOL    HW219188   5.501   1.921   2.466
 6097SOL     OW19189   3.485   2.062   2.695
 6097SOL    HW119190   3.477   2.064   2.795
 6097SOL    HW219191   3.569   2.109   2.668
 6098SOL     OW19192   0.793   0.682   6.679
 6098SOL    HW119193   0.754   0.594   6.653
 6098SOL    HW219194   0.780   0.697   6.777
 6099SOL     OW19195   5.671   4.338   4.648
 6099SOL    HW119196   5.749   4.340   4.585
 6099SOL    HW219197   5.657   4.244   4.680
 6100SOL     OW19198   0.186   2.873   0.465
 6100SOL    HW119199   0.223   2.903   0.553
 6100SOL    HW219200   0.155   2.778   0.472
 6101SOL     OW19201   6.448   6.437   3.473
 6101SOL    HW119202   6.527   6.469   3.422
 6101SOL    HW219203   6.449   6.337   3.478
 6102SOL     OW19204   3.146   6.751   4.706
 6102SOL    HW119205   3.105   6.698   4.780
 6102SOL    HW219206   3.080   6.762   4.632
 6103SOL     OW19207   5.553   1.857   5.228
 6103SOL    HW119208   5.491   1.899   5.294
 6103SOL    HW219209   5.500   1.798   5.166
 6104SOL     OW19210   1.539   2.564   0.931
 6104SOL    HW119211   1.520   2.472   0.964
 6104SOL    HW219212   1.630   2.567   0.889
 6105SOL     OW19213   3.002   4.897   4.359
 6105SOL    HW119214   2.932   4.965   4.337
 6105SOL    HW219215   2.993   4.869   4.454
 6106SOL     OW19216   2.203   4.936   4.101
 6106SOL    HW119217   2.187   4.972   4.193
 6106SOL    HW219218   2.149   4.853   4.088
 6107SOL     OW19219   2.316   5.255   5.757
 6107SOL    HW119220   2.222   5.274   5.787
 6107SOL    HW219221   2.335   5.158   5.766
 6108SOL     OW19222   5.322   1.850   5.023
 6108SOL    HW119223   5.341   1.880   4.929
 6108SOL    HW219224   5.379   1.771   5.045
 6109SOL     OW19225   6.955   3.992   1.604
 6109SOL    HW119226   6.965   4.062   1.675
 6109SOL    HW219227   6.883   3.928   1.631
 6110SOL     OW19228   3.354   1.867   3.339
 6110SOL    HW119229   3.443   1.904   3.313
 6110SOL    HW219230   3.298   1.940   3.379
 6111SOL     OW19231   0.433   4.080   3.956
 6111SOL    HW119232   0.380   4.086   4.041
 6111SOL    HW219233   0.461   3.985   3.941
 6112SOL     OW19234   1.259   1.720   1.258
 6112SOL    HW119235   1.195   1.797   1.254
 6112SOL    HW219236   1.208   1.634   1.256
 6113SOL     OW19237   1.543   4.881   5.373
 6113SOL    HW119238   1.467   4.822   5.344
 6113SOL    HW219239   1.585   4.843   5.456
 6114SOL     OW19240   4.319   4.314   0.789
 6114SOL    HW119241   4.265   4.286   0.710
 6114SOL    HW219242   4.265   4.376   0.846
 6115SOL     OW19243   6.995   4.873   2.149
 6115SOL    HW119244   6.947   4.859   2.062
 6115SOL    HW219245   6.956   4.951   2.197
 6116SOL     OW19246   3.999   2.170   1.306
 6116SOL    HW119247   4.048   2.083   1.304
 6116SOL    HW219248   3.982   2.196   1.401
 6117SOL     OW19249   5.581   5.889   4.103
 6117SOL    HW119250   5.607   5.793   4.093
 6117SOL    HW219251   5.646   5.947   4.054
 6118SOL     OW19252   6.794   6.992   3.162
 6118SOL    HW119253   6.751   0.041   3.106
 6118SOL    HW219254   6.723   6.930   3.195
 6119SOL     OW19255   5.908   5.369   4.402
 6119SOL    HW119256   5.818   5.365   4.446
 6119SOL    HW219257   5.915   5.454   4.350
 6120SOL     OW19258   2.382   1.542   3.309
 6120SOL    HW119259   2.378   1.631   3.354
 6120SOL    HW219260   2.402   1.555   3.212
 6121SOL     OW19261   0.171   2.104   3.828
 6121SOL    HW119262   0.238   2.058   3.886
 6121SOL    HW219263   0.101   2.039   3.798
 6122SOL     OW19264   3.544   5.830   4.034
 6122SOL    HW119265   3.622   5.769   4.020
 6122SOL    HW219266   3.554   5.878   4.122
 6123SOL     OW19267   5.571   1.405   2.848
 6123SOL    HW119268   5.626   1.467   2.904
 6123SOL    HW219269   5.519   1.458   2.781
 6124SOL     OW19270   3.158   0.388   5.004
 6124SOL    HW119271   3.078   0.345   4.961
 6124SOL    HW219272   3.235   0.324   5.005
 6125SOL     OW19273   0.805   4.187   2.134
 6125SOL    HW119274   0.851   4.269   2.169
 6125SOL    HW219275   0.806   4.189   2.034
 6126SOL     OW19276   3.409   6.583   3.005
 6126SOL    HW119277   3.422   6.681   3.014
 6126SOL    HW219278   3.389   6.543   3.094
 6127SOL     OW19279   2.095   5.534   1.526
 6127SOL    HW119280   2.048   5.523   1.438
 6127SOL    HW219281   2.143   5.449   1.549
 6128SOL     OW19282   5.135   4.233   1.240
 6128SOL    HW119283   5.214   4.179   1.270
 6128SOL    HW219284   5.146   4.328   1.271
 6129SOL     OW19285   6.282   3.672   3.647
 6129SOL    HW119286   6.297   3.699   3.742
 6129SOL    HW219287   6.193   3.626   3.640
 6130SOL     OW19288   5.416   3.518   3.126
 6130SOL    HW119289   5.475   3.437   3.124
 6130SOL    HW219290   5.412   3.554   3.220
 6131SOL     OW19291   6.616   0.796   5.414
 6131SOL    HW119292   6.555   0.739   5.358
 6131SOL    HW219293   6.659   0.739   5.484
 6132SOL     OW19294   0.046   2.636   0.436
 6132SOL    HW119295   6.978   2.673   0.451
 6132SOL    HW219296   0.042   2.536   0.437
 6133SOL     OW19297   1.360   4.905   0.140
 6133SOL    HW119298   1.263   4.925   0.149
 6133SOL    HW219299   1.382   4.891   0.043
 6134SOL     OW19300   4.949   4.091   6.502
 6134SOL    HW119301   4.904   4.123   6.418
 6134SOL    HW219302   5.037   4.050   6.478
 6135SOL     OW19303   5.869   6.771   2.708
 6135SOL    HW119304   5.819   6.706   2.652
 6135SOL    HW219305   5.838   6.863   2.689
 6136SOL     OW19306   1.393   1.701   2.705
 6136SOL    HW119307   1.347   1.742   2.626
 6136SOL    HW219308   1.444   1.771   2.755
 6137SOL     OW19309   3.770   6.805   6.492
 6137SOL    HW119310   3.728   6.775   6.406
 6137SOL    HW219311   3.864   6.772   6.497
 6138SOL     OW19312   4.840   0.582   3.102
 6138SOL    HW119313   4.893   0.666   3.114
 6138SOL    HW219314   4.888   0.520   3.041
 6139SOL     OW19315   2.718   6.091   3.631
 6139SOL    HW119316   2.790   6.028   3.659
 6139SOL    HW219317   2.758   6.168   3.582
 6140SOL     OW19318   2.490   5.544   1.253
 6140SOL    HW119319   2.445   5.591   1.177
 6140SOL    HW219320   2.474   5.595   1.337
 6141SOL     OW19321   0.495   5.603   5.182
 6141SOL    HW119322   0.578   5.549   5.169
 6141SOL    HW219323   0.518   5.691   5.225
 6142SOL     OW19324   6.930   3.654   3.824
 6142SOL    HW119325   6.846   3.683   3.872
 6142SOL    HW219326   6.939   3.554   3.831
 6143SOL     OW19327   5.989   5.335   6.249
 6143SOL    HW119328   5.961   5.240   6.232
 6143SOL    HW219329   6.068   5.335   6.311
 6144SOL     OW19330   0.345   5.686   4.281
 6144SOL    HW119331   0.362   5.738   4.197
 6144SOL    HW219332   0.280   5.736   4.338
 6145SOL     OW19333   5.933   5.273   3.165
 6145SOL    HW119334   5.889   5.266   3.075
 6145SOL    HW219335   6.005   5.204   3.172
 6146SOL     OW19336   6.062   2.193   3.563
 6146SOL    HW119337   5.986   2.129   3.553
 6146SOL    HW219338   6.054   2.265   3.495
 6147SOL     OW19339   0.851   3.657   3.824
 6147SOL    HW119340   0.870   3.560   3.810
 6147SOL    HW219341   0.779   3.686   3.761
 6148SOL     OW19342   6.409   5.997   2.850
 6148SOL    HW119343   6.481   6.058   2.818
 6148SOL    HW219344   6.332   6.051   2.884
 6149SOL     OW19345   1.120   5.683   4.464
 6149SOL    HW119346   1.035   5.699   4.514
 6149SOL    HW219347   1.119   5.590   4.426
 6150SOL     OW19348   4.439   6.627   6.347
 6150SOL    HW119349   4.415   6.709   6.399
 6150SOL    HW219350   4.411   6.546   6.398
 6151SOL     OW19351   4.590   0.165   5.068
 6151SOL    HW119352   4.676   0.215   5.075
 6151SOL    HW219353   4.513   0.229   5.068
 6152SOL     OW19354   6.435   4.220   5.844
 6152SOL    HW119355   6.474   4.133   5.876
 6152SOL    HW219356   6.506   4.271   5.796
 6153SOL     OW19357   3.779   5.496   5.572
 6153SOL    HW119358   3.815   5.479   5.663
 6153SOL    HW219359   3.679   5.496   5.575
 6154SOL     OW19360   5.153   3.170   3.120
 6154SOL    HW119361   5.133   3.073   3.128
 6154SOL    HW219362   5.068   3.223   3.131
 6155SOL     OW19363   2.571   4.615   4.776
 6155SOL    HW119364   2.594   4.647   4.868
 6155SOL    HW219365   2.477   4.583   4.774
 6156SOL     OW19366   5.754   0.710   4.686
 6156SOL    HW119367   5.805   0.689   4.770
 6156SOL    HW219368   5.814   0.698   4.607
 6157SOL     OW19369   0.794   1.580   4.590
 6157SOL    HW119370   0.734   1.644   4.638
 6157SOL    HW219371   0.799   1.605   4.493
 6158SOL     OW19372   5.353   0.167   6.997
 6158SOL    HW119373   5.289   0.120   0.035
 6158SOL    HW219374   5.442   0.123   7.003
 6159SOL     OW19375   5.137   3.620   6.369
 6159SOL    HW119376   5.039   3.637   6.354
 6159SOL    HW219377   5.148   3.541   6.429
 6160SOL     OW19378   6.424   5.318   6.679
 6160SOL    HW119379   6.507   5.344   6.630
 6160SOL    HW219380   6.409   5.219   6.670
 6161SOL     OW19381   5.702   0.209   6.131
 6161SOL    HW119382   5.794   0.196   6.095
 6161SOL    HW219383   5.636   0.205   6.056
 6162SOL     OW19384   5.983   5.219   3.944
 6162SOL    HW119385   5.897   5.194   3.901
 6162SOL    HW219386   5.971   5.223   4.043
 6163SOL     OW19387   6.779   3.842   2.948
 6163SOL    HW119388   6.701   3.848   3.010
 6163SOL    HW219389   6.850   3.906   2.978
 6164SOL     OW19390   4.589   3.257   1.421
 6164SOL    HW119391   4.533   3.175   1.434
 6164SOL    HW219392   4.610   3.296   1.510
 6165SOL     OW19393   4.044   0.196   1.017
 6165SOL    HW119394   4.132   0.217   0.976
 6165SOL    HW219395   4.056   0.172   1.113
 6166SOL     OW19396   3.246   0.668   0.553
 6166SOL    HW119397   3.223   0.749   0.499
 6166SOL    HW219398   3.163   0.615   0.570
 6167SOL     OW19399   6.773   5.234   3.358
 6167SOL    HW119400   6.708   5.181   3.304
 6167SOL    HW219401   6.847   5.175   3.388
 6168SOL     OW19402   0.497   3.032   1.424
 6168SOL    HW119403   0.552   2.960   1.381
 6168SOL    HW219404   0.410   2.993   1.455
 6169SOL     OW19405   1.259   4.076   0.944
 6169SOL    HW119406   1.188   4.022   0.898
 6169SOL    HW219407   1.283   4.154   0.886
 6170SOL     OW19408   6.677   2.104   3.474
 6170SOL    HW119409   6.650   2.008   3.470
 6170SOL    HW219410   6.637   2.153   3.397
 6171SOL     OW19411   5.590   1.834   6.607
 6171SOL    HW119412   5.650   1.757   6.626
 6171SOL    HW219413   5.644   1.918   6.596
 6172SOL     OW19414   0.472   4.912   3.827
 6172SOL    HW119415   0.505   4.819   3.841
 6172SOL    HW219416   0.402   4.913   3.755
 6173SOL     OW19417   5.388   6.114   3.077
 6173SOL    HW119418   5.472   6.111   3.131
 6173SOL    HW219419   5.354   6.209   3.073
 6174SOL     OW19420   7.008   2.276   3.505
 6174SOL    HW119421   6.966   2.237   3.587
 6174SOL    HW219422   6.992   2.215   3.427
 6175SOL     OW19423   3.959   2.240   6.859
 6175SOL    HW119424   4.030   2.172   6.838
 6175SOL    HW219425   3.881   2.226   6.797
 6176SOL     OW19426   2.961   4.704   6.097
 6176SOL    HW119427   2.871   4.721   6.137
 6176SOL    HW219428   3.023   4.779   6.123
 6177SOL     OW19429   5.975   5.589   1.699
 6177SOL    HW119430   6.016   5.666   1.749
 6177SOL    HW219431   5.929   5.622   1.617
 6178SOL     OW19432   4.500   4.996   2.022
 6178SOL    HW119433   4.453   4.908   2.035
 6178SOL    HW219434   4.522   5.009   1.926
 6179SOL     OW19435   4.591   5.427   4.864
 6179SOL    HW119436   4.576   5.524   4.878
 6179SOL    HW219437   4.570   5.377   4.948
 6180SOL     OW19438   2.163   3.702   0.010
 6180SOL    HW119439   2.141   3.785   0.062
 6180SOL    HW219440   2.083   3.674   6.979
 6181SOL     OW19441   0.051   6.307   0.259
 6181SOL    HW119442   0.110   6.305   0.340
 6181SOL    HW219443   0.081   6.238   0.194
 6182SOL     OW19444   3.367   2.791   6.310
 6182SOL    HW119445   3.313   2.770   6.229
 6182SOL    HW219446   3.400   2.885   6.304
 6183SOL     OW19447   0.265   0.368   0.271
 6183SOL    HW119448   0.299   0.312   0.347
 6183SOL    HW219449   0.318   0.453   0.267
 6184SOL     OW19450   3.471   6.754   5.550
 6184SOL    HW119451   3.558   6.719   5.515
 6184SOL    HW219452   3.486   6.845   5.590
 6185SOL     OW19453   3.425   2.882   4.115
 6185SOL    HW119454   3.378   2.852   4.032
 6185SOL    HW219455   3.509   2.930   4.090
 6186SOL     OW19456   1.043   1.616   2.548
 6186SOL    HW119457   1.106   1.641   2.475
 6186SOL    HW219458   0.959   1.670   2.539
 6187SOL     OW19459   3.710   1.642   5.789
 6187SOL    HW119460   3.713   1.543   5.805
 6187SOL    HW219461   3.802   1.680   5.794
 6188SOL     OW19462   1.678   1.504   5.782
 6188SOL    HW119463   1.732   1.566   5.839
 6188SOL    HW219464   1.627   1.441   5.841
 6189SOL     OW19465   6.592   5.632   0.431
 6189SOL    HW119466   6.686   5.606   0.451
 6189SOL    HW219467   6.582   5.731   0.443
 6190SOL     OW19468   1.063   3.192   3.842
 6190SOL    HW119469   1.147   3.245   3.835
 6190SOL    HW219470   1.062   3.141   3.929
 6191SOL     OW19471   3.063   4.514   0.191
 6191SOL    HW119472   3.118   4.594   0.166
 6191SOL    HW219473   2.993   4.541   0.258
 6192SOL     OW19474   3.092   1.960   1.326
 6192SOL    HW119475   3.004   2.005   1.338
 6192SOL    HW219476   3.115   1.909   1.410
 6193SOL     OW19477   4.786   5.849   6.736
 6193SOL    HW119478   4.854   5.797   6.684
 6193SOL    HW219479   4.694   5.824   6.705
 6194SOL     OW19480   5.416   0.119   5.711
 6194SOL    HW119481   5.397   0.214   5.736
 6194SOL    HW219482   5.421   0.111   5.612
 6195SOL     OW19483   4.538   5.585   5.723
 6195SOL    HW119484   4.620   5.531   5.743
 6195SOL    HW219485   4.542   5.617   5.628
 6196SOL     OW19486   0.042   3.686   3.335
 6196SOL    HW119487   7.022   3.596   3.338
 6196SOL    HW219488   0.034   3.724   3.243
 6197SOL     OW19489   0.579   5.582   0.585
 6197SOL    HW119490   0.651   5.536   0.532
 6197SOL    HW219491   0.535   5.516   0.646
 6198SOL     OW19492   6.267   1.579   6.036
 6198SOL    HW119493   6.352   1.611   5.995
 6198SOL    HW219494   6.267   1.601   6.134
 6199SOL     OW19495   2.446   6.740   6.512
 6199SOL    HW119496   2.427   6.826   6.465
 6199SOL    HW219497   2.395   6.738   6.599
 6200SOL     OW19498   1.713   6.819   0.158
 6200SOL    HW119499   1.809   6.820   0.186
 6200SOL    HW219500   1.657   6.782   0.232
 6201SOL     OW19501   0.259   4.656   3.928
 6201SOL    HW119502   0.347   4.677   3.971
 6201SOL    HW219503   0.270   4.579   3.865
 6202SOL     OW19504   5.888   0.817   1.755
 6202SOL    HW119505   5.915   0.911   1.772
 6202SOL    HW219506   5.798   0.800   1.795
 6203SOL     OW19507   0.074   1.333   2.107
 6203SOL    HW119508   0.078   1.421   2.059
 6203SOL    HW219509   7.015   1.284   2.080
 6204SOL     OW19510   1.184   6.134   4.830
 6204SOL    HW119511   1.153   6.057   4.775
 6204SOL    HW219512   1.236   6.100   4.909
 6205SOL     OW19513   6.563   4.165   3.338
 6205SOL    HW119514   6.476   4.170   3.289
 6205SOL    HW219515   6.565   4.233   3.411
 6206SOL     OW19516   5.218   2.038   3.415
 6206SOL    HW119517   5.318   2.028   3.421
 6206SOL    HW219518   5.178   2.030   3.506
 6207SOL     OW19519   1.600   5.707   3.817
 6207SOL    HW119520   1.512   5.702   3.770
 6207SOL    HW219521   1.673   5.725   3.751
 6208SOL     OW19522   3.828   4.083   6.591
 6208SOL    HW119523   3.788   4.163   6.636
 6208SOL    HW219524   3.780   4.001   6.622
 6209SOL     OW19525   3.284   1.016   2.447
 6209SOL    HW119526   3.211   1.041   2.511
 6209SOL    HW219527   3.321   1.098   2.404
 6210SOL     OW19528   5.830   0.990   4.167
 6210SOL    HW119529   5.921   0.980   4.127
 6210SOL    HW219530   5.801   0.903   4.206
 6211SOL     OW19531   4.947   2.670   4.915
 6211SOL    HW119532   4.962   2.708   4.824
 6211SOL    HW219533   4.931   2.745   4.980
 6212SOL     OW19534   5.339   3.726   4.751
 6212SOL    HW119535   5.264   3.676   4.793
 6212SOL    HW219536   5.354   3.812   4.800
 6213SOL     OW19537   5.100   5.659   0.280
 6213SOL    HW119538   5.005   5.627   0.280
 6213SOL    HW219539   5.149   5.618   0.357
 6214SOL     OW19540   6.541   6.602   6.338
 6214SOL    HW119541   6.582   6.591   6.429
 6214SOL    HW219542   6.511   6.696   6.326
 6215SOL     OW19543   5.718   2.637   5.186
 6215SOL    HW119544   5.728   2.568   5.258
 6215SOL    HW219545   5.694   2.592   5.100
 6216SOL     OW19546   5.061   2.445   5.575
 6216SOL    HW119547   4.998   2.519   5.551
 6216SOL    HW219548   5.008   2.361   5.592
 6217SOL     OW19549   0.024   4.268   2.228
 6217SOL    HW119550   0.045   4.310   2.316
 6217SOL    HW219551   0.105   4.272   2.169
 6218SOL     OW19552   4.754   6.674   1.509
 6218SOL    HW119553   4.705   6.588   1.521
 6218SOL    HW219554   4.688   6.749   1.501
 6219SOL     OW19555   2.408   0.640   0.501
 6219SOL    HW119556   2.466   0.646   0.419
 6219SOL    HW219557   2.316   0.613   0.474
 6220SOL     OW19558   3.210   0.553   2.453
 6220SOL    HW119559   3.278   0.620   2.482
 6220SOL    HW219560   3.248   0.495   2.382
 6221SOL     OW19561   4.690   4.780   5.265
 6221SOL    HW119562   4.600   4.790   5.223
 6221SOL    HW219563   4.680   4.760   5.362
 6222SOL     OW19564   6.661   1.083   1.747
 6222SOL    HW119565   6.673   1.022   1.826
 6222SOL    HW219566   6.715   1.166   1.761
 6223SOL     OW19567   6.642   5.174   4.084
 6223SOL    HW119568   6.550   5.189   4.118
 6223SOL    HW219569   6.690   5.110   4.144
 6224SOL     OW19570   4.025   0.078   0.145
 6224SOL    HW119571   3.966   0.036   0.077
 6224SOL    HW219572   4.008   0.037   0.235
 6225SOL     OW19573   5.307   5.897   6.832
 6225SOL    HW119574   5.352   5.925   6.917
 6225SOL    HW219575   5.214   5.932   6.831
 6226SOL     OW19576   1.099   1.441   4.054
 6226SOL    HW119577   1.172   1.441   4.123
 6226SOL    HW219578   1.058   1.350   4.049
 6227SOL     OW19579   2.063   4.353   6.235
 6227SOL    HW119580   2.094   4.340   6.329
 6227SOL    HW219581   2.051   4.451   6.217
 6228SOL     OW19582   0.367   3.059   4.120
 6228SOL    HW119583   0.323   3.140   4.081
 6228SOL    HW219584   0.334   2.977   4.074
 6229SOL     OW19585   0.367   4.457   5.173
 6229SOL    HW119586   0.311   4.483   5.251
 6229SOL    HW219587   0.307   4.429   5.097
 6230SOL     OW19588   1.041   0.795   1.331
 6230SOL    HW119589   0.946   0.795   1.361
 6230SOL    HW219590   1.089   0.875   1.369
 6231SOL     OW19591   2.342   5.603   5.823
 6231SOL    HW119592   2.383   5.527   5.773
 6231SOL    HW219593   2.376   5.690   5.788
 6232SOL     OW19594   4.226   0.462   6.424
 6232SOL    HW119595   4.223   0.395   6.498
 6232SOL    HW219596   4.155   0.440   6.357
 6233SOL     OW19597   6.766   4.474   1.001
 6233SOL    HW119598   6.804   4.505   1.088
 6233SOL    HW219599   6.671   4.503   0.993
 6234SOL     OW19600   4.433   5.319   3.095
 6234SOL    HW119601   4.412   5.353   3.003
 6234SOL    HW219602   4.532   5.318   3.108
 6235SOL     OW19603   7.009   0.931   1.597
 6235SOL    HW119604   0.012   0.984   1.678
 6235SOL    HW219605   0.068   0.904   1.547
 6236SOL     OW19606   6.626   5.959   1.670
 6236SOL    HW119607   6.586   6.026   1.733
 6236SOL    HW219608   6.723   5.977   1.659
 6237SOL     OW19609   4.255   1.690   2.476
 6237SOL    HW119610   4.267   1.609   2.534
 6237SOL    HW219611   4.231   1.768   2.533
 6238SOL     OW19612   2.438   0.201   3.961
 6238SOL    HW119613   2.417   0.166   4.052
 6238SOL    HW219614   2.400   0.139   3.892
 6239SOL     OW19615   3.839   1.688   4.182
 6239SOL    HW119616   3.835   1.625   4.260
 6239SOL    HW219617   3.753   1.737   4.173
 6240SOL     OW19618   3.859   3.562   3.834
 6240SOL    HW119619   3.944   3.614   3.849
 6240SOL    HW219620   3.866   3.473   3.879
 6241SOL     OW19621   4.301   6.957   3.254
 6241SOL    HW119622   4.273   6.866   3.224
 6241SOL    HW219623   4.352   6.950   3.340
 6242SOL     OW19624   3.354   2.114   4.314
 6242SOL    HW119625   3.400   2.079   4.396
 6242SOL    HW219626   3.257   2.128   4.333
 6243SOL     OW19627   3.142   0.961   0.043
 6243SOL    HW119628   3.126   1.006   6.978
 6243SOL    HW219629   3.153   1.031   0.114
 6244SOL     OW19630   4.700   2.344   1.945
 6244SOL    HW119631   4.746   2.416   1.895
 6244SOL    HW219632   4.709   2.361   2.044
 6245SOL     OW19633   6.933   4.568   2.029
 6245SOL    HW119634   6.893   4.489   1.983
 6245SOL    HW219635   6.920   4.650   1.973
 6246SOL     OW19636   0.819   5.654   4.886
 6246SOL    HW119637   0.908   5.610   4.897
 6246SOL    HW219638   0.782   5.633   4.796
 6247SOL     OW19639   5.655   5.296   2.594
 6247SOL    HW119640   5.592   5.332   2.525
 6247SOL    HW219641   5.662   5.196   2.585
 6248SOL     OW19642   4.517   2.734   6.295
 6248SOL    HW119643   4.587   2.672   6.260
 6248SOL    HW219644   4.455   2.760   6.221
 6249SOL     OW19645   5.603   2.745   3.358
 6249SOL    HW119646   5.549   2.701   3.288
 6249SOL    HW219647   5.603   2.844   3.344
 6250SOL     OW19648   5.273   6.907   5.170
 6250SOL    HW119649   5.246   7.003   5.167
 6250SOL    HW219650   5.326   6.890   5.253
 6251SOL     OW19651   2.556   0.971   4.086
 6251SOL    HW119652   2.495   1.035   4.039
 6251SOL    HW219653   2.651   0.995   4.066
 6252SOL     OW19654   3.202   5.312   0.478
 6252SOL    HW119655   3.112   5.341   0.511
 6252SOL    HW219656   3.193   5.226   0.427
 6253SOL     OW19657   5.079   6.008   3.368
 6253SOL    HW119658   5.101   6.104   3.382
 6253SOL    HW219659   5.131   5.951   3.432
 6254SOL     OW19660   6.958   6.944   2.084
 6254SOL    HW119661   6.990   7.005   2.156
 6254SOL    HW219662   6.910   6.998   2.014
 6255SOL     OW19663   2.098   0.811   0.637
 6255SOL    HW119664   2.190   0.820   0.675
 6255SOL    HW219665   2.033   0.797   0.712
 6256SOL     OW19666   6.823   4.547   2.417
 6256SOL    HW119667   6.913   4.537   2.375
 6256SOL    HW219668   6.807   4.643   2.439
 6257SOL     OW19669   4.214   3.969   0.717
 6257SOL    HW119670   4.122   3.943   0.689
 6257SOL    HW219671   4.219   4.068   0.728
 6258SOL     OW19672   3.810   4.941   4.639
 6258SOL    HW119673   3.802   4.989   4.727
 6258SOL    HW219674   3.893   4.886   4.639
 6259SOL     OW19675   4.702   0.536   4.393
 6259SOL    HW119676   4.738   0.469   4.329
 6259SOL    HW219677   4.703   0.627   4.351
 6260SOL     OW19678   3.609   2.231   6.934
 6260SOL    HW119679   3.524   2.262   6.976
 6260SOL    HW219680   3.663   2.180   7.001
 6261SOL     OW19681   4.421   6.648   1.390
 6261SOL    HW119682   4.465   6.600   1.467
 6261SOL    HW219683   4.322   6.647   1.403
 6262SOL     OW19684   6.297   1.328   3.080
 6262SOL    HW119685   6.265   1.235   3.098
 6262SOL    HW219686   6.223   1.381   3.038
 6263SOL     OW19687   6.044   6.362   6.235
 6263SOL    HW119688   6.093   6.382   6.320
 6263SOL    HW219689   5.975   6.433   6.220
 6264SOL     OW19690   1.135   6.364   1.213
 6264SOL    HW119691   1.135   6.273   1.172
 6264SOL    HW219692   1.229   6.398   1.219
 6265SOL     OW19693   4.135   6.710   0.040
 6265SOL    HW119694   4.191   6.781   7.021
 6265SOL    HW219695   4.101   6.648   6.993
 6266SOL     OW19696   2.732   5.089   3.347
 6266SOL    HW119697   2.654   5.130   3.395
 6266SOL    HW219698   2.715   4.992   3.333
 6267SOL     OW19699   0.618   6.312   4.586
 6267SOL    HW119700   0.532   6.362   4.575
 6267SOL    HW219701   0.601   6.227   4.636
 6268SOL     OW19702   2.974   1.434   1.839
 6268SOL    HW119703   2.953   1.345   1.879
 6268SOL    HW219704   2.898   1.463   1.780
 6269SOL     OW19705   6.962   6.006   0.316
 6269SOL    HW119706   6.891   6.075   0.302
 6269SOL    HW219707   0.003   6.007   0.239
 6270SOL     OW19708   1.608   6.556   0.991
 6270SOL    HW119709   1.684   6.619   0.975
 6270SOL    HW219710   1.638   6.463   0.967
 6271SOL     OW19711   0.142   3.574   6.167
 6271SOL    HW119712   0.176   3.480   6.156
 6271SOL    HW219713   0.165   3.627   6.085
 6272SOL     OW19714   0.360   1.169   0.581
 6272SOL    HW119715   0.357   1.203   0.675
 6272SOL    HW219716   0.302   1.087   0.573
 6273SOL     OW19717   0.730   6.130   3.254
 6273SOL    HW119718   0.664   6.093   3.189
 6273SOL    HW219719   0.686   6.143   3.343
 6274SOL     OW19720   2.906   5.728   4.194
 6274SOL    HW119721   2.998   5.707   4.160
 6274SOL    HW219722   2.845   5.744   4.117
 6275SOL     OW19723   2.949   5.390   1.718
 6275SOL    HW119724   2.899   5.367   1.635
 6275SOL    HW219725   3.012   5.315   1.741
 6276SOL     OW19726   1.791   4.576   2.128
 6276SOL    HW119727   1.815   4.645   2.060
 6276SOL    HW219728   1.763   4.621   2.212
 6277SOL     OW19729   5.128   2.438   1.339
 6277SOL    HW119730   5.074   2.410   1.260
 6277SOL    HW219731   5.151   2.535   1.332
 6278SOL     OW19732   3.356   2.968   0.269
 6278SOL    HW119733   3.396   2.877   0.257
 6278SOL    HW219734   3.373   3.023   0.188
 6279SOL     OW19735   1.490   6.785   2.134
 6279SOL    HW119736   1.427   6.742   2.199
 6279SOL    HW219737   1.564   6.721   2.114
 6280SOL     OW19738   4.873   0.926   6.915
 6280SOL    HW119739   4.827   0.838   6.910
 6280SOL    HW219740   4.970   0.912   6.930
 6281SOL     OW19741   5.608   3.893   5.864
 6281SOL    HW119742   5.635   3.959   5.934
 6281SOL    HW219743   5.515   3.861   5.884
 6282SOL     OW19744   0.203   3.699   5.940
 6282SOL    HW119745   0.209   3.653   5.852
 6282SOL    HW219746   0.295   3.720   5.973
 6283SOL     OW19747   2.349   0.135   4.218
 6283SOL    HW119748   2.259   0.099   4.193
 6283SOL    HW219749   2.344   0.235   4.225
 6284SOL     OW19750   1.661   3.860   6.327
 6284SOL    HW119751   1.730   3.899   6.266
 6284SOL    HW219752   1.622   3.778   6.286
 6285SOL     OW19753   1.521   4.473   3.363
 6285SOL    HW119754   1.580   4.488   3.442
 6285SOL    HW219755   1.527   4.377   3.335
 6286SOL     OW19756   1.094   3.101   6.799
 6286SOL    HW119757   1.037   3.119   6.718
 6286SOL    HW219758   1.162   3.031   6.777
 6287SOL     OW19759   4.490   5.278   5.147
 6287SOL    HW119760   4.570   5.323   5.187
 6287SOL    HW219761   4.513   5.185   5.121
 6288SOL     OW19762   3.220   3.748   5.462
 6288SOL    HW119763   3.138   3.694   5.477
 6288SOL    HW219764   3.292   3.690   5.424
 6289SOL     OW19765   2.487   4.776   5.242
 6289SOL    HW119766   2.512   4.873   5.237
 6289SOL    HW219767   2.514   4.740   5.331
 6290SOL     OW19768   6.521   0.040   3.055
 6290SOL    HW119769   6.529   0.036   2.955
 6290SOL    HW219770   6.506   6.972   3.091
 6291SOL     OW19771   3.088   3.279   2.236
 6291SOL    HW119772   3.094   3.213   2.311
 6291SOL    HW219773   3.179   3.295   2.198
 6292SOL     OW19774   1.070   4.249   4.997
 6292SOL    HW119775   1.030   4.329   5.043
 6292SOL    HW219776   1.131   4.280   4.924
 6293SOL     OW19777   2.891   0.986   0.426
 6293SOL    HW119778   2.872   0.919   0.497
 6293SOL    HW219779   2.864   0.950   0.337
 6294SOL     OW19780   1.717   0.367   1.995
 6294SOL    HW119781   1.793   0.310   2.023
 6294SOL    HW219782   1.730   0.460   2.028
 6295SOL     OW19783   4.596   2.261   5.582
 6295SOL    HW119784   4.573   2.343   5.531
 6295SOL    HW219785   4.520   2.235   5.641
 6296SOL     OW19786   6.760   2.435   0.442
 6296SOL    HW119787   6.822   2.386   0.380
 6296SOL    HW219788   6.668   2.436   0.402
 6297SOL     OW19789   0.053   1.261   4.445
 6297SOL    HW119790   0.067   1.346   4.394
 6297SOL    HW219791   0.141   1.220   4.468
 6298SOL     OW19792   6.603   0.562   6.614
 6298SOL    HW119793   6.560   0.568   6.524
 6298SOL    HW219794   6.534   0.570   6.685
 6299SOL     OW19795   3.156   1.565   3.995
 6299SOL    HW119796   3.131   1.530   4.085
 6299SOL    HW219797   3.221   1.503   3.952
 6300SOL     OW19798   2.912   2.145   1.254
 6300SOL    HW119799   2.976   2.214   1.221
 6300SOL    HW219800   2.838   2.134   1.188
 6301SOL     OW19801   3.994   6.636   1.222
 6301SOL    HW119802   4.080   6.687   1.218
 6301SOL    HW219803   3.992   6.569   1.148
 6302SOL     OW19804   1.621   3.783   0.292
 6302SOL    HW119805   1.645   3.863   0.238
 6302SOL    HW219806   1.633   3.803   0.390
 6303SOL     OW19807   6.401   4.789   4.866
 6303SOL    HW119808   6.319   4.846   4.870
 6303SOL    HW219809   6.437   4.775   4.958
 6304SOL     OW19810   2.410   2.196   4.331
 6304SOL    HW119811   2.311   2.206   4.335
 6304SOL    HW219812   2.451   2.231   4.415
 6305SOL     OW19813   0.841   5.783   5.186
 6305SOL    HW119814   0.821   5.714   5.118
 6305SOL    HW219815   0.935   5.816   5.174
 6306SOL     OW19816   0.779   4.198   4.528
 6306SOL    HW119817   0.715   4.188   4.451
 6306SOL    HW219818   0.777   4.292   4.561
 6307SOL     OW19819   3.005   3.235   3.199
 6307SOL    HW119820   3.034   3.256   3.105
 6307SOL    HW219821   3.012   3.136   3.214
 6308SOL     OW19822   0.643   1.037   1.323
 6308SOL    HW119823   0.558   1.020   1.374
 6308SOL    HW219824   0.651   1.135   1.305
 6309SOL     OW19825   1.714   5.887   5.024
 6309SOL    HW119826   1.644   5.926   5.083
 6309SOL    HW219827   1.725   5.790   5.045
 6310SOL     OW19828   0.774   6.668   3.164
 6310SOL    HW119829   0.697   6.614   3.197
 6310SOL    HW219830   0.843   6.674   3.236
 6311SOL     OW19831   6.260   1.194   6.136
 6311SOL    HW119832   6.206   1.109   6.138
 6311SOL    HW219833   6.339   1.184   6.196
 6312SOL     OW19834   3.704   5.905   1.218
 6312SOL    HW119835   3.747   5.898   1.129
 6312SOL    HW219836   3.646   5.824   1.234
 6313SOL     OW19837   5.590   4.533   2.608
 6313SOL    HW119838   5.634   4.554   2.521
 6313SOL    HW219839   5.546   4.616   2.644
 6314SOL     OW19840   1.991   6.763   3.434
 6314SOL    HW119841   1.982   6.835   3.503
 6314SOL    HW219842   2.030   6.801   3.351
 6315SOL     OW19843   1.991   2.852   3.129
 6315SOL    HW119844   1.911   2.869   3.186
 6315SOL    HW219845   1.966   2.866   3.033
 6316SOL     OW19846   4.480   0.581   4.554
 6316SOL    HW119847   4.546   0.564   4.481
 6316SOL    HW219848   4.494   0.674   4.590
 6317SOL     OW19849   4.846   3.952   3.172
 6317SOL    HW119850   4.816   3.982   3.082
 6317SOL    HW219851   4.869   4.032   3.228
 6318SOL     OW19852   5.752   0.069   0.248
 6318SOL    HW119853   5.839   0.112   0.273
 6318SOL    HW219854   5.707   0.034   0.330
 6319SOL     OW19855   4.708   2.744   4.326
 6319SOL    HW119856   4.681   2.673   4.260
 6319SOL    HW219857   4.684   2.714   4.418
 6320SOL     OW19858   6.019   1.861   6.393
 6320SOL    HW119859   6.048   1.768   6.415
 6320SOL    HW219860   6.097   1.922   6.397
 6321SOL     OW19861   1.009   3.989   0.324
 6321SOL    HW119862   0.936   4.042   0.368
 6321SOL    HW219863   1.079   4.052   0.291
 6322SOL     OW19864   2.159   1.679   2.682
 6322SOL    HW119865   2.114   1.743   2.620
 6322SOL    HW219866   2.194   1.601   2.630
 6323SOL     OW19867   2.069   6.117   0.975
 6323SOL    HW119868   2.000   6.187   0.963
 6323SOL    HW219869   2.132   6.144   1.047
 6324SOL     OW19870   4.924   3.996   0.943
 6324SOL    HW119871   5.011   4.040   0.919
 6324SOL    HW219872   4.908   4.004   1.042
 6325SOL     OW19873   1.224   3.462   4.253
 6325SOL    HW119874   1.241   3.365   4.239
 6325SOL    HW219875   1.275   3.515   4.186
 6326SOL     OW19876   4.846   5.287   5.170
 6326SOL    HW119877   4.857   5.290   5.070
 6326SOL    HW219878   4.902   5.213   5.207
 6327SOL     OW19879   0.861   0.903   2.758
 6327SOL    HW119880   0.919   0.831   2.719
 6327SOL    HW219881   0.777   0.911   2.704
 6328SOL     OW19882   4.096   3.315   4.699
 6328SOL    HW119883   4.017   3.292   4.644
 6328SOL    HW219884   4.102   3.252   4.777
 6329SOL     OW19885   0.164   3.021   4.708
 6329SOL    HW119886   0.182   3.081   4.786
 6329SOL    HW219887   0.079   2.970   4.723
 6330SOL     OW19888   4.268   1.878   3.458
 6330SOL    HW119889   4.212   1.832   3.527
 6330SOL    HW219890   4.284   1.973   3.486
 6331SOL     OW19891   1.946   3.587   3.459
 6331SOL    HW119892   1.975   3.512   3.400
 6331SOL    HW219893   1.992   3.580   3.547
 6332SOL     OW19894   4.663   2.151   0.230
 6332SOL    HW119895   4.683   2.155   0.132
 6332SOL    HW219896   4.571   2.115   0.245
 6333SOL     OW19897   5.904   1.152   0.429
 6333SOL    HW119898   5.955   1.183   0.510
 6333SOL    HW219899   5.910   1.221   0.357
 6334SOL     OW19900   2.171   1.370   1.716
 6334SOL    HW119901   2.209   1.355   1.807
 6334SOL    HW219902   2.242   1.407   1.656
 6335SOL     OW19903   5.712   2.412   5.361
 6335SOL    HW119904   5.652   2.343   5.402
 6335SOL    HW219905   5.799   2.414   5.409
 6336SOL     OW19906   0.641   5.107   6.133
 6336SOL    HW119907   0.729   5.135   6.170
 6336SOL    HW219908   0.601   5.037   6.192
 6337SOL     OW19909   5.932   0.270   5.458
 6337SOL    HW119910   5.969   0.329   5.529
 6337SOL    HW219911   5.970   0.297   5.369
 6338SOL     OW19912   0.965   0.706   2.615
 6338SOL    HW119913   0.911   0.675   2.537
 6338SOL    HW219914   1.063   0.692   2.596
 6339SOL     OW19915   0.221   3.907   3.340
 6339SOL    HW119916   0.173   3.988   3.304
 6339SOL    HW219917   0.160   3.829   3.340
 6340SOL     OW19918   2.297   5.312   6.510
 6340SOL    HW119919   2.381   5.270   6.475
 6340SOL    HW219920   2.218   5.259   6.480
 6341SOL     OW19921   0.830   4.474   2.515
 6341SOL    HW119922   0.890   4.395   2.513
 6341SOL    HW219923   0.867   4.543   2.576
 6342SOL     OW19924   2.394   0.209   1.689
 6342SOL    HW119925   2.336   0.184   1.611
 6342SOL    HW219926   2.471   0.264   1.656
 6343SOL     OW19927   1.403   4.882   6.880
 6343SOL    HW119928   1.389   4.920   6.789
 6343SOL    HW219929   1.429   4.785   6.872
 6344SOL     OW19930   1.418   1.337   4.349
 6344SOL    HW119931   1.345   1.403   4.334
 6344SOL    HW219932   1.446   1.298   4.261
 6345SOL     OW19933   0.392   3.087   3.166
 6345SOL    HW119934   0.364   3.156   3.233
 6345SOL    HW219935   0.492   3.083   3.163
 6346SOL     OW19936   0.823   4.435   3.519
 6346SOL    HW119937   0.759   4.509   3.539
 6346SOL    HW219938   0.863   4.401   3.604
 6347SOL     OW19939   2.281   2.083   2.832
 6347SOL    HW119940   2.296   1.985   2.840
 6347SOL    HW219941   2.207   2.111   2.894
 6348SOL     OW19942   1.545   3.081   0.142
 6348SOL    HW119943   1.578   3.131   0.221
 6348SOL    HW219944   1.468   3.023   0.168
 6349SOL     OW19945   6.290   1.578   1.020
 6349SOL    HW119946   6.384   1.560   1.048
 6349SOL    HW219947   6.232   1.500   1.045
 6350SOL     OW19948   0.361   6.912   1.515
 6350SOL    HW119949   0.454   6.878   1.502
 6350SOL    HW219950   0.301   6.837   1.542
 6351SOL     OW19951   6.086   2.678   2.126
 6351SOL    HW119952   6.040   2.646   2.044
 6351SOL    HW219953   6.172   2.723   2.100
 6352SOL     OW19954   3.910   0.871   4.804
 6352SOL    HW119955   3.963   0.844   4.884
 6352SOL    HW219956   3.869   0.789   4.762
 6353SOL     OW19957   4.090   5.939   5.872
 6353SOL    HW119958   4.005   5.990   5.863
 6353SOL    HW219959   4.151   5.986   5.936
 6354SOL     OW19960   5.764   4.613   2.409
 6354SOL    HW119961   5.758   4.691   2.348
 6354SOL    HW219962   5.860   4.596   2.432
 6355SOL     OW19963   5.131   6.161   6.989
 6355SOL    HW119964   5.090   6.146   0.056
 6355SOL    HW219965   5.084   6.105   6.921
 6356SOL     OW19966   0.708   6.797   5.910
 6356SOL    HW119967   0.647   6.864   5.868
 6356SOL    HW219968   0.728   6.825   6.004
 6357SOL     OW19969   5.020   1.765   2.900
 6357SOL    HW119970   4.964   1.706   2.958
 6357SOL    HW219971   5.101   1.715   2.869
 6358SOL     OW19972   1.202   1.406   4.879
 6358SOL    HW119973   1.270   1.335   4.860
 6358SOL    HW219974   1.133   1.406   4.807
 6359SOL     OW19975   6.179   4.852   0.799
 6359SOL    HW119976   6.169   4.931   0.860
 6359SOL    HW219977   6.180   4.768   0.853
 6360SOL     OW19978   2.678   2.597   0.642
 6360SOL    HW119979   2.675   2.657   0.722
 6360SOL    HW219980   2.585   2.583   0.608
 6361SOL     OW19981   0.068   2.661   2.526
 6361SOL    HW119982   0.153   2.713   2.525
 6361SOL    HW219983   7.013   2.723   2.520
 6362SOL     OW19984   2.307   5.564   0.578
 6362SOL    HW119985   2.358   5.627   0.520
 6362SOL    HW219986   2.354   5.475   0.579
 6363SOL     OW19987   1.013   2.673   1.573
 6363SOL    HW119988   1.086   2.715   1.518
 6363SOL    HW219989   1.048   2.655   1.665
 6364SOL     OW19990   2.709   1.657   4.337
 6364SOL    HW119991   2.681   1.724   4.269
 6364SOL    HW219992   2.644   1.581   4.338
 6365SOL     OW19993   6.594   6.760   2.141
 6365SOL    HW119994   6.650   6.775   2.059
 6365SOL    HW219995   6.595   6.842   2.197
 6366SOL     OW19996   5.670   1.262   4.912
 6366SOL    HW119997   5.580   1.264   4.869
 6366SOL    HW219998   5.696   1.354   4.939
 6367SOL     OW19999   1.476   3.029   4.768
 6367SOL    HW120000   1.561   2.999   4.726
 6367SOL    HW220001   1.428   2.950   4.808
 6368SOL     OW20002   5.084   3.320   5.313
 6368SOL    HW120003   5.113   3.416   5.314
 6368SOL    HW220004   5.148   3.267   5.257
 6369SOL     OW20005   3.184   4.603   0.462
 6369SOL    HW120006   3.145   4.517   0.497
 6369SOL    HW220007   3.246   4.582   0.386
 6370SOL     OW20008   6.182   3.644   4.744
 6370SOL    HW120009   6.249   3.652   4.671
 6370SOL    HW220010   6.195   3.556   4.791
 6371SOL     OW20011   5.846   4.623   1.010
 6371SOL    HW120012   5.831   4.549   1.076
 6371SOL    HW220013   5.774   4.692   1.020
 6372SOL     OW20014   6.149   1.613   1.397
 6372SOL    HW120015   6.159   1.627   1.495
 6372SOL    HW220016   6.228   1.650   1.349
 6373SOL     OW20017   5.536   1.942   1.401
 6373SOL    HW120018   5.619   1.886   1.404
 6373SOL    HW220019   5.556   2.029   1.355
 6374SOL     OW20020   3.675   2.865   6.471
 6374SOL    HW120021   3.727   2.802   6.529
 6374SOL    HW220022   3.659   2.824   6.382
 6375SOL     OW20023   5.737   0.982   2.039
 6375SOL    HW120024   5.681   1.028   2.108
 6375SOL    HW220025   5.817   0.941   2.083
 6376SOL     OW20026   3.037   6.703   0.571
 6376SOL    HW120027   3.066   6.741   0.659
 6376SOL    HW220028   3.075   6.611   0.560
 6377SOL     OW20029   6.941   1.081   0.246
 6377SOL    HW120030   6.961   1.154   0.181
 6377SOL    HW220031   6.997   1.001   0.225
 6378SOL     OW20032   6.080   4.068   3.365
 6378SOL    HW120033   6.134   4.003   3.418
 6378SOL    HW220034   6.028   4.019   3.295
 6379SOL     OW20035   2.827   5.427   6.823
 6379SOL    HW120036   2.885   5.485   6.880
 6379SOL    HW220037   2.761   5.379   6.880
 6380SOL     OW20038   2.298   2.900   4.785
 6380SOL    HW120039   2.308   2.966   4.710
 6380SOL    HW220040   2.304   2.949   4.873
 6381SOL     OW20041   3.122   4.404   0.654
 6381SOL    HW120042   3.221   4.404   0.639
 6381SOL    HW220043   3.104   4.401   0.752
 6382SOL     OW20044   1.876   1.060   1.005
 6382SOL    HW120045   1.829   1.119   1.070
 6382SOL    HW220046   1.915   1.116   0.932
 6383SOL     OW20047   2.806   1.887   2.647
 6383SOL    HW120048   2.836   1.844   2.732
 6383SOL    HW220049   2.856   1.848   2.570
 6384SOL     OW20050   6.920   1.541   2.617
 6384SOL    HW120051   6.856   1.504   2.550
 6384SOL    HW220052   7.010   1.550   2.576
 6385SOL     OW20053   0.128   3.881   1.190
 6385SOL    HW120054   0.031   3.908   1.193
 6385SOL    HW220055   0.165   3.903   1.099
 6386SOL     OW20056   3.131   4.263   0.220
 6386SOL    HW120057   3.132   4.359   0.190
 6386SOL    HW220058   3.045   4.221   0.195
 6387SOL     OW20059   6.292   1.117   5.565
 6387SOL    HW120060   6.325   1.178   5.493
 6387SOL    HW220061   6.370   1.073   5.609
 6388SOL     OW20062   6.152   5.131   2.081
 6388SOL    HW120063   6.162   5.055   2.016
 6388SOL    HW220064   6.221   5.124   2.152
 6389SOL     OW20065   6.610   6.748   0.750
 6389SOL    HW120066   6.582   6.732   0.655
 6389SOL    HW220067   6.621   6.660   0.796
 6390SOL     OW20068   4.598   6.358   0.098
 6390SOL    HW120069   4.556   6.437   0.053
 6390SOL    HW220070   4.612   6.380   0.195
 6391SOL     OW20071   0.990   2.129   5.167
 6391SOL    HW120072   1.041   2.204   5.124
 6391SOL    HW220073   1.048   2.047   5.169
 6392SOL     OW20074   4.551   6.510   3.498
 6392SOL    HW120075   4.565   6.542   3.591
 6392SOL    HW220076   4.600   6.570   3.434
 6393SOL     OW20077   2.837   4.942   0.130
 6393SOL    HW120078   2.798   5.011   0.191
 6393SOL    HW220079   2.898   4.882   0.182
 6394SOL     OW20080   1.409   5.699   1.802
 6394SOL    HW120081   1.474   5.653   1.742
 6394SOL    HW220082   1.458   5.756   1.868
 6395SOL     OW20083   1.159   4.061   5.165
 6395SOL    HW120084   1.096   3.985   5.153
 6395SOL    HW220085   1.133   4.136   5.104
 6396SOL     OW20086   1.038   3.101   4.857
 6396SOL    HW120087   1.019   3.066   4.949
 6396SOL    HW220088   1.131   3.138   4.853
 6397SOL     OW20089   6.808   3.501   4.657
 6397SOL    HW120090   6.901   3.526   4.684
 6397SOL    HW220091   6.764   3.578   4.611
 6398SOL     OW20092   0.761   0.166   2.948
 6398SOL    HW120093   0.764   0.123   2.858
 6398SOL    HW220094   0.851   0.161   2.991
 6399SOL     OW20095   2.807   6.701   6.955
 6399SOL    HW120096   2.844   6.712   6.863
 6399SOL    HW220097   2.776   6.790   6.990
 6400SOL     OW20098   1.131   6.240   2.761
 6400SOL    HW120099   1.209   6.263   2.703
 6400SOL    HW220100   1.051   6.292   2.732
 6401SOL     OW20101   3.906   4.843   1.540
 6401SOL    HW120102   3.815   4.867   1.505
 6401SOL    HW220103   3.896   4.788   1.623
 6402SOL     OW20104   3.304   3.450   5.972
 6402SOL    HW120105   3.215   3.437   5.929
 6402SOL    HW220106   3.351   3.362   5.978
 6403SOL     OW20107   4.053   5.302   5.502
 6403SOL    HW120108   4.032   5.319   5.599
 6403SOL    HW220109   3.972   5.320   5.447
 6404SOL     OW20110   5.150   5.926   6.152
 6404SOL    HW120111   5.119   5.846   6.099
 6404SOL    HW220112   5.242   5.910   6.185
 6405SOL     OW20113   4.541   0.732   2.887
 6405SOL    HW120114   4.466   0.750   2.952
 6405SOL    HW220115   4.578   0.818   2.854
 6406SOL     OW20116   0.214   3.416   2.013
 6406SOL    HW120117   0.153   3.472   2.070
 6406SOL    HW220118   0.249   3.471   1.937
 6407SOL     OW20119   0.510   6.910   2.390
 6407SOL    HW120120   0.535   7.001   2.356
 6407SOL    HW220121   0.485   6.851   2.313
 6408SOL     OW20122   6.689   1.387   1.828
 6408SOL    HW120123   6.661   1.480   1.851
 6408SOL    HW220124   6.742   1.388   1.743
 6409SOL     OW20125   6.227   4.488   3.958
 6409SOL    HW120126   6.266   4.558   3.898
 6409SOL    HW220127   6.164   4.431   3.905
 6410SOL     OW20128   1.541   0.611   6.733
 6410SOL    HW120129   1.500   0.701   6.720
 6410SOL    HW220130   1.641   0.619   6.730
 6411SOL     OW20131   1.202   2.497   4.282
 6411SOL    HW120132   1.149   2.482   4.365
 6411SOL    HW220133   1.239   2.410   4.250
 6412SOL     OW20134   4.400   0.445   6.883
 6412SOL    HW120135   4.418   0.433   6.786
 6412SOL    HW220136   4.374   0.358   6.924
 6413SOL     OW20137   4.827   5.960   2.952
 6413SOL    HW120138   4.772   5.910   3.019
 6413SOL    HW220139   4.858   6.047   2.991
 6414SOL     OW20140   3.522   0.421   0.269
 6414SOL    HW120141   3.500   0.451   0.362
 6414SOL    HW220142   3.617   0.388   0.267
 6415SOL     OW20143   6.842   2.133   3.696
 6415SOL    HW120144   6.787   2.181   3.765
 6415SOL    HW220145   6.790   2.127   3.611
 6416SOL     OW20146   2.850   4.627   0.020
 6416SOL    HW120147   2.882   4.559   0.085
 6416SOL    HW220148   2.756   4.653   0.042
 6417SOL     OW20149   4.507   3.547   6.311
 6417SOL    HW120150   4.410   3.546   6.289
 6417SOL    HW220151   4.532   3.464   6.360
 6418SOL     OW20152   5.015   5.336   0.245
 6418SOL    HW120153   4.931   5.377   0.279
 6418SOL    HW220154   5.089   5.350   0.311
 6419SOL     OW20155   1.522   6.597   6.390
 6419SOL    HW120156   1.567   6.667   6.334
 6419SOL    HW220157   1.435   6.572   6.346
 6420SOL     OW20158   2.020   4.966   3.175
 6420SOL    HW120159   2.081   4.958   3.097
 6420SOL    HW220160   2.048   5.044   3.232
 6421SOL     OW20161   5.073   6.863   1.705
 6421SOL    HW120162   5.122   6.777   1.722
 6421SOL    HW220163   5.114   6.936   1.760
 6422SOL     OW20164   0.982   1.153   5.081
 6422SOL    HW120165   1.019   1.232   5.129
 6422SOL    HW220166   0.897   1.179   5.035
 6423SOL     OW20167   1.365   3.807   4.603
 6423SOL    HW120168   1.288   3.744   4.610
 6423SOL    HW220169   1.421   3.782   4.524
 6424SOL     OW20170   6.823   4.117   5.696
 6424SOL    HW120171   6.759   4.193   5.698
 6424SOL    HW220172   6.807   4.062   5.614
 6425SOL     OW20173   1.111   0.139   5.298
 6425SOL    HW120174   1.196   0.089   5.285
 6425SOL    HW220175   1.123   0.208   5.369
 6426SOL     OW20176   3.790   5.110   3.897
 6426SOL    HW120177   3.839   5.039   3.946
 6426SOL    HW220178   3.692   5.098   3.909
 6427SOL     OW20179   3.001   3.584   3.537
 6427SOL    HW120180   2.978   3.488   3.526
 6427SOL    HW220181   2.994   3.631   3.449
 6428SOL     OW20182   6.205   2.778   0.218
 6428SOL    HW120183   6.182   2.825   0.304
 6428SOL    HW220184   6.261   2.839   0.161
 6429SOL     OW20185   2.824   1.720   4.859
 6429SOL    HW120186   2.761   1.765   4.922
 6429SOL    HW220187   2.772   1.672   4.789
 6430SOL     OW20188   6.563   1.539   5.118
 6430SOL    HW120189   6.629   1.606   5.151
 6430SOL    HW220190   6.520   1.494   5.197
 6431SOL     OW20191   3.257   4.920   3.286
 6431SOL    HW120192   3.320   4.994   3.311
 6431SOL    HW220193   3.197   4.899   3.363
 6432SOL     OW20194   4.497   3.287   6.756
 6432SOL    HW120195   4.497   3.263   6.853
 6432SOL    HW220196   4.575   3.245   6.711
 6433SOL     OW20197   4.089   5.323   5.978
 6433SOL    HW120198   4.164   5.352   6.037
 6433SOL    HW220199   4.014   5.388   5.984
 6434SOL     OW20200   6.420   4.687   6.216
 6434SOL    HW120201   6.478   4.649   6.288
 6434SOL    HW220202   6.427   4.629   6.134
 6435SOL     OW20203   4.544   1.447   0.968
 6435SOL    HW120204   4.477   1.453   0.893
 6435SOL    HW220205   4.534   1.358   1.013
 6436SOL     OW20206   0.825   2.219   4.018
 6436SOL    HW120207   0.762   2.294   3.999
 6436SOL    HW220208   0.845   2.216   4.115
 6437SOL     OW20209   1.321   2.867   6.457
 6437SOL    HW120210   1.419   2.863   6.477
 6437SOL    HW220211   1.308   2.912   6.369
 6438SOL     OW20212   0.626   5.887   1.321
 6438SOL    HW120213   0.695   5.910   1.391
 6438SOL    HW220214   0.535   5.889   1.363
 6439SOL     OW20215   4.104   6.396   3.053
 6439SOL    HW120216   4.174   6.348   3.106
 6439SOL    HW220217   4.030   6.425   3.113
 6440SOL     OW20218   2.359   2.281   5.688
 6440SOL    HW120219   2.414   2.322   5.615
 6440SOL    HW220220   2.262   2.284   5.662
 6441SOL     OW20221   1.514   1.803   1.216
 6441SOL    HW120222   1.497   1.869   1.143
 6441SOL    HW220223   1.437   1.741   1.224
 6442SOL     OW20224   3.016   1.739   4.442
 6442SOL    HW120225   3.068   1.807   4.389
 6442SOL    HW220226   2.942   1.785   4.491
 6443SOL     OW20227   2.754   2.397   5.715
 6443SOL    HW120228   2.704   2.481   5.695
 6443SOL    HW220229   2.836   2.391   5.657
 6444SOL     OW20230   0.019   4.031   5.376
 6444SOL    HW120231   0.035   3.946   5.327
 6444SOL    HW220232   6.952   4.067   5.353
 6445SOL     OW20233   3.539   3.018   3.549
 6445SOL    HW120234   3.522   3.097   3.490
 6445SOL    HW220235   3.523   3.043   3.645
 6446SOL     OW20236   1.544   0.320   1.376
 6446SOL    HW120237   1.501   0.281   1.457
 6446SOL    HW220238   1.543   0.253   1.302
 6447SOL     OW20239   6.428   3.815   1.537
 6447SOL    HW120240   6.344   3.851   1.578
 6447SOL    HW220241   6.468   3.746   1.598
 6448SOL     OW20242   3.912   4.281   1.616
 6448SOL    HW120243   3.963   4.208   1.661
 6448SOL    HW220244   3.970   4.326   1.548
 6449SOL     OW20245   4.445   5.603   0.222
 6449SOL    HW120246   4.526   5.654   0.250
 6449SOL    HW220247   4.367   5.632   0.277
 6450SOL     OW20248   4.547   3.265   0.472
 6450SOL    HW120249   4.533   3.166   0.476
 6450SOL    HW220250   4.460   3.312   0.484
 6451SOL     OW20251   4.446   2.823   1.310
 6451SOL    HW120252   4.463   2.899   1.373
 6451SOL    HW220253   4.348   2.807   1.304
 6452SOL     OW20254   4.389   2.065   4.578
 6452SOL    HW120255   4.340   2.144   4.542
 6452SOL    HW220256   4.356   1.982   4.533
 6453SOL     OW20257   2.721   0.896   3.101
 6453SOL    HW120258   2.705   0.803   3.134
 6453SOL    HW220259   2.651   0.957   3.138
 6454SOL     OW20260   5.288   3.505   5.738
 6454SOL    HW120261   5.367   3.474   5.685
 6454SOL    HW220262   5.217   3.434   5.737
 6455SOL     OW20263   0.039   2.878   5.303
 6455SOL    HW120264   0.128   2.838   5.284
 6455SOL    HW220265   0.050   2.959   5.360
 6456SOL     OW20266   6.178   2.212   2.963
 6456SOL    HW120267   6.180   2.302   2.919
 6456SOL    HW220268   6.264   2.196   3.011
 6457SOL     OW20269   1.373   6.043   3.515
 6457SOL    HW120270   1.464   6.032   3.476
 6457SOL    HW220271   1.380   6.046   3.615
 6458SOL     OW20272   1.470   0.383   5.195
 6458SOL    HW120273   1.506   0.352   5.283
 6458SOL    HW220274   1.488   0.314   5.125
 6459SOL     OW20275   0.652   3.294   2.972
 6459SOL    HW120276   0.640   3.215   3.032
 6459SOL    HW220277   0.749   3.313   2.961
 6460SOL     OW20278   1.628   5.431   5.802
 6460SOL    HW120279   1.607   5.508   5.742
 6460SOL    HW220280   1.549   5.370   5.807
 6461SOL     OW20281   0.406   7.021   2.074
 6461SOL    HW120282   0.339   0.062   2.113
 6461SOL    HW220283   0.376   6.928   2.092
 6462SOL     OW20284   2.414   4.275   5.236
 6462SOL    HW120285   2.394   4.192   5.185
 6462SOL    HW220286   2.512   4.282   5.252
 6463SOL     OW20287   4.736   3.221   1.696
 6463SOL    HW120288   4.699   3.151   1.756
 6463SOL    HW220289   4.834   3.204   1.681
 6464SOL     OW20290   1.030   3.691   3.449
 6464SOL    HW120291   1.042   3.597   3.416
 6464SOL    HW220292   1.100   3.712   3.517
 6465SOL     OW20293   2.407   1.452   2.770
 6465SOL    HW120294   2.358   1.385   2.827
 6465SOL    HW220295   2.385   1.436   2.674
 6466SOL     OW20296   6.276   5.721   6.505
 6466SOL    HW120297   6.245   5.638   6.550
 6466SOL    HW220298   6.327   5.698   6.422
 6467SOL     OW20299   2.812   3.247   5.690
 6467SOL    HW120300   2.865   3.317   5.644
 6467SOL    HW220301   2.858   3.158   5.680
 6468SOL     OW20302   0.920   0.800   1.053
 6468SOL    HW120303   0.934   0.734   1.126
 6468SOL    HW220304   1.009   0.824   1.013
 6469SOL     OW20305   2.648   0.841   0.806
 6469SOL    HW120306   2.601   0.929   0.800
 6469SOL    HW220307   2.586   0.773   0.846
 6470SOL     OW20308   5.679   0.905   6.926
 6470SOL    HW120309   5.622   0.824   6.932
 6470SOL    HW220310   5.711   0.931   7.017
 6471SOL     OW20311   1.097   6.141   5.637
 6471SOL    HW120312   0.998   6.137   5.624
 6471SOL    HW220313   1.137   6.205   5.571
 6472SOL     OW20314   0.683   6.402   1.417
 6472SOL    HW120315   0.670   6.469   1.490
 6472SOL    HW220316   0.706   6.449   1.332
 6473SOL     OW20317   2.826   1.747   3.637
 6473SOL    HW120318   2.826   1.844   3.661
 6473SOL    HW220319   2.733   1.711   3.643
 6474SOL     OW20320   3.887   6.913   4.333
 6474SOL    HW120321   3.859   6.882   4.424
 6474SOL    HW220322   3.926   7.005   4.341
 6475SOL     OW20323   5.207   5.925   3.595
 6475SOL    HW120324   5.291   5.875   3.616
 6475SOL    HW220325   5.148   5.927   3.676
 6476SOL     OW20326   5.389   3.847   5.228
 6476SOL    HW120327   5.464   3.781   5.236
 6476SOL    HW220328   5.369   3.886   5.317
 6477SOL     OW20329   0.993   6.651   0.974
 6477SOL    HW120330   0.917   6.699   1.017
 6477SOL    HW220331   0.965   6.557   0.952
 6478SOL     OW20332   1.825   5.809   6.921
 6478SOL    HW120333   1.910   5.816   6.972
 6478SOL    HW220334   1.781   5.898   6.916
 6479SOL     OW20335   4.457   5.765   3.892
 6479SOL    HW120336   4.423   5.838   3.951
 6479SOL    HW220337   4.557   5.765   3.894
 6480SOL     OW20338   3.237   1.102   4.918
 6480SOL    HW120339   3.160   1.157   4.884
 6480SOL    HW220340   3.322   1.151   4.902
 6481SOL     OW20341   4.110   3.378   1.917
 6481SOL    HW120342   4.151   3.468   1.935
 6481SOL    HW220343   4.033   3.364   1.978
 6482SOL     OW20344   5.273   2.713   3.992
 6482SOL    HW120345   5.176   2.686   3.991
 6482SOL    HW220346   5.330   2.632   4.007
 6483SOL     OW20347   1.808   6.128   5.578
 6483SOL    HW120348   1.791   6.217   5.620
 6483SOL    HW220349   1.849   6.066   5.646
 6484SOL     OW20350   4.134   0.579   3.241
 6484SOL    HW120351   4.070   0.584   3.319
 6484SOL    HW220352   4.096   0.629   3.164
 6485SOL     OW20353   1.772   5.108   4.640
 6485SOL    HW120354   1.798   5.024   4.593
 6485SOL    HW220355   1.724   5.085   4.724
 6486SOL     OW20356   0.064   4.278   2.517
 6486SOL    HW120357   0.162   4.258   2.510
 6486SOL    HW220358   0.051   4.361   2.571
 6487SOL     OW20359   6.251   5.470   4.296
 6487SOL    HW120360   6.342   5.507   4.280
 6487SOL    HW220361   6.200   5.530   4.357
 6488SOL     OW20362   3.321   4.898   3.722
 6488SOL    HW120363   3.388   4.930   3.790
 6488SOL    HW220364   3.233   4.885   3.766
 6489SOL     OW20365   6.212   3.316   5.758
 6489SOL    HW120366   6.255   3.295   5.846
 6489SOL    HW220367   6.123   3.358   5.773
 6490SOL     OW20368   2.004   3.320   6.923
 6490SOL    HW120369   1.980   3.259   6.848
 6490SOL    HW220370   1.927   3.326   6.987
 6491SOL     OW20371   1.382   0.540   2.301
 6491SOL    HW120372   1.390   0.489   2.215
 6491SOL    HW220373   1.364   0.475   2.376
 6492SOL     OW20374   4.033   3.315   3.037
 6492SOL    HW120375   4.062   3.371   3.114
 6492SOL    HW220376   3.957   3.359   2.990
 6493SOL     OW20377   1.527   4.963   4.048
 6493SOL    HW120378   1.504   4.873   4.011
 6493SOL    HW220379   1.471   5.033   4.003
 6494SOL     OW20380   6.319   0.938   1.706
 6494SOL    HW120381   6.365   1.027   1.702
 6494SOL    HW220382   6.323   0.894   1.616
 6495SOL     OW20383   6.029   6.535   2.650
 6495SOL    HW120384   6.005   6.506   2.557
 6495SOL    HW220385   5.986   6.623   2.669
 6496SOL     OW20386   2.617   2.880   1.346
 6496SOL    HW120387   2.594   2.783   1.352
 6496SOL    HW220388   2.538   2.931   1.312
 6497SOL     OW20389   0.217   2.551   0.687
 6497SOL    HW120390   0.276   2.569   0.607
 6497SOL    HW220391   0.275   2.537   0.767
 6498SOL     OW20392   2.511   4.749   4.541
 6498SOL    HW120393   2.537   4.687   4.615
 6498SOL    HW220394   2.561   4.835   4.550
 6499SOL     OW20395   5.751   2.463   2.666
 6499SOL    HW120396   5.834   2.519   2.665
 6499SOL    HW220397   5.671   2.522   2.669
 6500SOL     OW20398   1.891   4.116   2.689
 6500SOL    HW120399   1.796   4.085   2.699
 6500SOL    HW220400   1.918   4.168   2.770
 6501SOL     OW20401   6.760   1.350   2.477
 6501SOL    HW120402   6.683   1.409   2.503
 6501SOL    HW220403   6.733   1.254   2.485
 6502SOL     OW20404   0.804   2.860   2.603
 6502SOL    HW120405   0.774   2.799   2.530
 6502SOL    HW220406   0.731   2.923   2.627
 6503SOL     OW20407   0.285   2.382   5.509
 6503SOL    HW120408   0.297   2.464   5.565
 6503SOL    HW220409   0.301   2.406   5.413
 6504SOL     OW20410   4.153   6.253   6.597
 6504SOL    HW120411   4.159   6.181   6.666
 6504SOL    HW220412   4.161   6.213   6.505
 6505SOL     OW20413   0.636   6.946   0.080
 6505SOL    HW120414   0.609   6.862   0.032
 6505SOL    HW220415   0.652   6.925   0.177
 6506SOL     OW20416   0.295   4.288   1.787
 6506SOL    HW120417   0.266   4.326   1.700
 6506SOL    HW220418   0.311   4.190   1.777
 6507SOL     OW20419   5.107   5.618   0.620
 6507SOL    HW120420   5.034   5.683   0.640
 6507SOL    HW220421   5.164   5.605   0.701
 6508SOL     OW20422   0.118   0.816   4.098
 6508SOL    HW120423   0.140   0.769   4.184
 6508SOL    HW220424   0.199   0.867   4.067
 6509SOL     OW20425   2.494   1.392   0.127
 6509SOL    HW120426   2.486   1.293   0.114
 6509SOL    HW220427   2.419   1.438   0.080
 6510SOL     OW20428   3.500   5.005   4.234
 6510SOL    HW120429   3.405   5.003   4.204
 6510SOL    HW220430   3.504   5.009   4.334
 6511SOL     OW20431   3.737   3.016   0.114
 6511SOL    HW120432   3.715   3.016   0.212
 6511SOL    HW220433   3.791   2.934   0.093
 6512SOL     OW20434   4.817   1.245   1.795
 6512SOL    HW120435   4.903   1.285   1.765
 6512SOL    HW220436   4.820   1.145   1.783
 6513SOL     OW20437   3.440   5.049   2.061
 6513SOL    HW120438   3.534   5.044   2.095
 6513SOL    HW220439   3.438   5.024   1.964
 6514SOL     OW20440   5.063   5.677   6.085
 6514SOL    HW120441   5.071   5.609   6.013
 6514SOL    HW220442   4.971   5.717   6.083
 6515SOL     OW20443   1.186   5.026   2.170
 6515SOL    HW120444   1.114   4.989   2.111
 6515SOL    HW220445   1.162   5.010   2.266
 6516SOL     OW20446   5.816   1.041   3.649
 6516SOL    HW120447   5.877   0.997   3.715
 6516SOL    HW220448   5.732   1.070   3.694
 6517SOL     OW20449   6.490   4.512   0.978
 6517SOL    HW120450   6.446   4.570   1.046
 6517SOL    HW220451   6.427   4.498   0.901
 6518SOL     OW20452   1.049   1.442   2.051
 6518SOL    HW120453   0.974   1.448   1.986
 6518SOL    HW220454   1.024   1.380   2.126
 6519SOL     OW20455   1.431   1.913   3.810
 6519SOL    HW120456   1.378   1.870   3.737
 6519SOL    HW220457   1.368   1.948   3.880
 6520SOL     OW20458   5.874   6.350   6.624
 6520SOL    HW120459   5.907   6.339   6.718
 6520SOL    HW220460   5.895   6.268   6.571
 6521SOL     OW20461   1.564   4.399   4.532
 6521SOL    HW120462   1.485   4.340   4.548
 6521SOL    HW220463   1.641   4.369   4.588
 6522SOL     OW20464   2.453   2.845   5.400
 6522SOL    HW120465   2.355   2.832   5.389
 6522SOL    HW220466   2.480   2.933   5.361
 6523SOL     OW20467   5.221   6.736   0.440
 6523SOL    HW120468   5.148   6.673   0.411
 6523SOL    HW220469   5.282   6.690   0.503
 6524SOL     OW20470   3.424   2.409   1.238
 6524SOL    HW120471   3.440   2.311   1.242
 6524SOL    HW220472   3.480   2.455   1.307
 6525SOL     OW20473   2.218   4.815   3.643
 6525SOL    HW120474   2.138   4.862   3.606
 6525SOL    HW220475   2.191   4.723   3.674
 6526SOL     OW20476   6.332   6.519   0.536
 6526SOL    HW120477   6.284   6.555   0.615
 6526SOL    HW220478   6.378   6.593   0.488
 6527SOL     OW20479   5.408   2.333   0.786
 6527SOL    HW120480   5.330   2.332   0.849
 6527SOL    HW220481   5.414   2.245   0.740
 6528SOL     OW20482   4.902   6.945   0.444
 6528SOL    HW120483   4.834   7.017   0.434
 6528SOL    HW220484   4.916   6.899   0.356
 6529SOL     OW20485   4.056   6.583   1.641
 6529SOL    HW120486   3.971   6.570   1.692
 6529SOL    HW220487   4.132   6.593   1.706
 6530SOL     OW20488   0.046   2.145   4.371
 6530SOL    HW120489   0.029   2.159   4.468
 6530SOL    HW220490   0.096   2.223   4.334
 6531SOL     OW20491   3.140   3.912   3.946
 6531SOL    HW120492   3.061   3.907   3.884
 6531SOL    HW220493   3.214   3.854   3.910
 6532SOL     OW20494   1.096   5.714   0.123
 6532SOL    HW120495   1.161   5.774   0.170
 6532SOL    HW220496   1.010   5.712   0.173
 6533SOL     OW20497   4.993   5.005   0.946
 6533SOL    HW120498   5.009   5.102   0.927
 6533SOL    HW220499   5.033   4.949   0.873
 6534SOL     OW20500   6.399   3.218   3.987
 6534SOL    HW120501   6.352   3.289   3.936
 6534SOL    HW220502   6.483   3.192   3.938
 6535SOL     OW20503   5.473   3.681   0.168
 6535SOL    HW120504   5.389   3.699   0.221
 6535SOL    HW220505   5.451   3.678   0.071
 6536SOL     OW20506   0.142   5.080   5.241
 6536SOL    HW120507   0.119   5.059   5.336
 6536SOL    HW220508   0.104   5.168   5.216
 6537SOL     OW20509   6.645   5.372   4.503
 6537SOL    HW120510   6.593   5.453   4.531
 6537SOL    HW220511   6.660   5.374   4.405
 6538SOL     OW20512   1.409   3.416   3.203
 6538SOL    HW120513   1.448   3.508   3.208
 6538SOL    HW220514   1.471   3.357   3.152
 6539SOL     OW20515   5.419   0.049   4.968
 6539SOL    HW120516   5.350   7.016   5.015
 6539SOL    HW220517   5.433   0.133   5.019
 6540SOL     OW20518   0.955   2.289   5.409
 6540SOL    HW120519   0.879   2.269   5.472
 6540SOL    HW220520   0.943   2.235   5.326
 6541SOL     OW20521   3.921   1.399   5.329
 6541SOL    HW120522   3.989   1.359   5.268
 6541SOL    HW220523   3.852   1.447   5.275
 6542SOL     OW20524   2.312   4.418   2.436
 6542SOL    HW120525   2.232   4.462   2.477
 6542SOL    HW220526   2.286   4.328   2.401
 6543SOL     OW20527   4.002   1.920   4.083
 6543SOL    HW120528   3.930   1.864   4.124
 6543SOL    HW220529   3.988   1.925   3.984
 6544SOL     OW20530   1.303   0.728   1.295
 6544SOL    HW120531   1.346   0.817   1.306
 6544SOL    HW220532   1.203   0.739   1.293
 6545SOL     OW20533   5.954   5.260   1.153
 6545SOL    HW120534   6.037   5.228   1.198
 6545SOL    HW220535   5.978   5.312   1.071
 6546SOL     OW20536   4.215   5.480   4.585
 6546SOL    HW120537   4.196   5.427   4.502
 6546SOL    HW220538   4.137   5.474   4.647
 6547SOL     OW20539   1.042   6.769   5.040
 6547SOL    HW120540   1.005   6.853   5.081
 6547SOL    HW220541   1.137   6.784   5.013
 6548SOL     OW20542   1.266   1.533   5.777
 6548SOL    HW120543   1.277   1.476   5.696
 6548SOL    HW220544   1.344   1.595   5.785
 6549SOL     OW20545   3.040   1.493   3.072
 6549SOL    HW120546   3.015   1.413   3.126
 6549SOL    HW220547   3.041   1.574   3.132
 6550SOL     OW20548   5.750   6.772   1.978
 6550SOL    HW120549   5.724   6.817   1.893
 6550SOL    HW220550   5.824   6.707   1.960
 6551SOL     OW20551   2.727   5.198   1.376
 6551SOL    HW120552   2.648   5.259   1.378
 6551SOL    HW220553   2.810   5.250   1.392
 6552SOL     OW20554   2.361   3.609   0.212
 6552SOL    HW120555   2.387   3.674   0.284
 6552SOL    HW220556   2.270   3.631   0.178
 6553SOL     OW20557   0.374   1.338   3.584
 6553SOL    HW120558   0.293   1.281   3.570
 6553SOL    HW220559   0.346   1.425   3.624
 6554SOL     OW20560   1.623   1.822   3.974
 6554SOL    HW120561   1.627   1.847   4.071
 6554SOL    HW220562   1.540   1.860   3.934
 6555SOL     OW20563   2.106   3.765   1.885
 6555SOL    HW120564   2.132   3.694   1.950
 6555SOL    HW220565   2.162   3.846   1.900
 6556SOL     OW20566   4.916   3.091   3.461
 6556SOL    HW120567   4.918   3.190   3.447
 6556SOL    HW220568   4.883   3.046   3.378
 6557SOL     OW20569   2.023   6.713   2.752
 6557SOL    HW120570   2.109   6.763   2.754
 6557SOL    HW220571   2.024   6.646   2.679
 6558SOL     OW20572   5.477   5.488   0.999
 6558SOL    HW120573   5.562   5.484   1.050
 6558SOL    HW220574   5.401   5.456   1.057
 6559SOL     OW20575   0.166   1.719   6.090
 6559SOL    HW120576   0.199   1.625   6.104
 6559SOL    HW220577   0.169   1.768   6.177
 6560SOL     OW20578   6.618   4.706   6.421
 6560SOL    HW120579   6.705   4.749   6.397
 6560SOL    HW220580   6.628   4.606   6.420
 6561SOL     OW20581   2.838   5.350   0.144
 6561SOL    HW120582   2.879   5.298   0.070
 6561SOL    HW220583   2.910   5.394   0.197
 6562SOL     OW20584   4.703   2.874   0.880
 6562SOL    HW120585   4.631   2.847   0.817
 6562SOL    HW220586   4.665   2.886   0.972
 6563SOL     OW20587   6.160   5.451   5.555
 6563SOL    HW120588   6.232   5.456   5.486
 6563SOL    HW220589   6.135   5.543   5.584
 6564SOL     OW20590   5.351   3.949   1.969
 6564SOL    HW120591   5.260   3.909   1.958
 6564SOL    HW220592   5.412   3.913   1.897
 6565SOL     OW20593   5.390   5.659   1.630
 6565SOL    HW120594   5.396   5.644   1.729
 6565SOL    HW220595   5.354   5.577   1.586
 6566SOL     OW20596   5.613   5.431   3.931
 6566SOL    HW120597   5.643   5.363   3.998
 6566SOL    HW220598   5.568   5.385   3.854
 6567SOL     OW20599   3.033   0.575   2.647
 6567SOL    HW120600   3.098   0.547   2.576
 6567SOL    HW220601   3.056   0.667   2.678
 6568SOL     OW20602   5.087   1.612   0.387
 6568SOL    HW120603   5.177   1.594   0.347
 6568SOL    HW220604   5.071   1.547   0.462
 6569SOL     OW20605   1.318   3.843   3.286
 6569SOL    HW120606   1.300   3.860   3.383
 6569SOL    HW220607   1.282   3.919   3.232
 6570SOL     OW20608   4.389   0.030   2.714
 6570SOL    HW120609   4.345   6.981   2.768
 6570SOL    HW220610   4.381   0.117   2.763
 6571SOL     OW20611   2.904   6.414   3.135
 6571SOL    HW120612   2.945   6.452   3.218
 6571SOL    HW220613   2.808   6.392   3.152
 6572SOL     OW20614   1.292   6.563   3.817
 6572SOL    HW120615   1.207   6.547   3.767
 6572SOL    HW220616   1.320   6.658   3.805
 6573SOL     OW20617   1.203   2.482   3.503
 6573SOL    HW120618   1.287   2.447   3.546
 6573SOL    HW220619   1.124   2.454   3.557
 6574SOL     OW20620   1.111   5.086   1.388
 6574SOL    HW120621   1.195   5.129   1.418
 6574SOL    HW220622   1.089   5.009   1.447
 6575SOL     OW20623   6.803   1.429   4.153
 6575SOL    HW120624   6.865   1.466   4.223
 6575SOL    HW220625   6.719   1.397   4.197
 6576SOL     OW20626   4.020   0.029   2.126
 6576SOL    HW120627   4.027   0.063   2.220
 6576SOL    HW220628   3.942   6.990   2.119
 6577SOL     OW20629   3.037   0.990   5.392
 6577SOL    HW120630   3.078   1.021   5.307
 6577SOL    HW220631   3.013   0.893   5.384
 6578SOL     OW20632   0.651   5.959   0.086
 6578SOL    HW120633   0.571   5.991   0.035
 6578SOL    HW220634   0.638   5.863   0.112
 6579SOL     OW20635   1.859   1.856   3.440
 6579SOL    HW120636   1.952   1.836   3.471
 6579SOL    HW220637   1.800   1.870   3.519
 6580SOL     OW20638   3.314   2.783   6.900
 6580SOL    HW120639   3.337   2.740   6.812
 6580SOL    HW220640   3.342   2.880   6.897
 6581SOL     OW20641   0.480   2.750   1.935
 6581SOL    HW120642   0.394   2.792   1.966
 6581SOL    HW220643   0.545   2.822   1.911
 6582SOL     OW20644   4.068   0.143   3.261
 6582SOL    HW120645   4.119   0.058   3.267
 6582SOL    HW220646   3.976   0.124   3.228
 6583SOL     OW20647   2.418   3.821   1.284
 6583SOL    HW120648   2.343   3.772   1.238
 6583SOL    HW220649   2.502   3.768   1.274
 6584SOL     OW20650   4.449   3.236   6.111
 6584SOL    HW120651   4.392   3.237   6.193
 6584SOL    HW220652   4.541   3.206   6.135
 6585SOL     OW20653   5.201   0.015   1.885
 6585SOL    HW120654   5.212   0.083   1.813
 6585SOL    HW220655   5.161   0.059   1.966
 6586SOL     OW20656   6.635   1.931   0.219
 6586SOL    HW120657   6.632   2.023   0.259
 6586SOL    HW220658   6.698   1.874   0.271
 6587SOL     OW20659   2.476   4.670   5.496
 6587SOL    HW120660   2.505   4.579   5.527
 6587SOL    HW220661   2.397   4.699   5.550
 6588SOL     OW20662   0.977   2.062   0.686
 6588SOL    HW120663   0.878   2.050   0.674
 6588SOL    HW220664   1.024   2.035   0.602
 6589SOL     OW20665   5.639   0.063   0.889
 6589SOL    HW120666   5.574   0.024   0.824
 6589SOL    HW220667   5.591   0.091   0.972
 6590SOL     OW20668   1.424   6.511   4.485
 6590SOL    HW120669   1.341   6.532   4.433
 6590SOL    HW220670   1.404   6.441   4.553
 6591SOL     OW20671   6.443   3.271   3.395
 6591SOL    HW120672   6.367   3.214   3.362
 6591SOL    HW220673   6.525   3.252   3.341
 6592SOL     OW20674   0.159   0.769   4.368
 6592SOL    HW120675   0.087   0.835   4.387
 6592SOL    HW220676   0.239   0.790   4.425
 6593SOL     OW20677   0.971   0.758   3.154
 6593SOL    HW120678   0.876   0.754   3.186
 6593SOL    HW220679   0.974   0.729   3.058
 6594SOL     OW20680   5.374   0.362   6.554
 6594SOL    HW120681   5.322   0.376   6.469
 6594SOL    HW220682   5.317   0.313   6.620
 6595SOL     OW20683   1.371   0.907   5.235
 6595SOL    HW120684   1.309   0.934   5.162
 6595SOL    HW220685   1.369   0.807   5.246
 6596SOL     OW20686   5.444   0.468   2.789
 6596SOL    HW120687   5.381   0.532   2.834
 6596SOL    HW220688   5.503   0.426   2.858
 6597SOL     OW20689   1.403   5.316   1.231
 6597SOL    HW120690   1.351   5.370   1.296
 6597SOL    HW220691   1.346   5.295   1.152
 6598SOL     OW20692   1.650   5.311   1.686
 6598SOL    HW120693   1.606   5.230   1.724
 6598SOL    HW220694   1.582   5.366   1.637
 6599SOL     OW20695   0.566   6.270   6.154
 6599SOL    HW120696   0.561   6.203   6.229
 6599SOL    HW220697   0.631   6.342   6.179
 6600SOL     OW20698   4.673   0.052   4.298
 6600SOL    HW120699   4.660   0.144   4.261
 6600SOL    HW220700   4.678   7.010   4.222
 6601SOL     OW20701   0.848   2.658   2.830
 6601SOL    HW120702   0.879   2.583   2.888
 6601SOL    HW220703   0.825   2.623   2.740
 6602SOL     OW20704   5.983   6.196   0.245
 6602SOL    HW120705   5.970   6.264   0.316
 6602SOL    HW220706   5.994   6.106   0.287
 6603SOL     OW20707   0.209   4.653   2.476
 6603SOL    HW120708   0.145   4.678   2.403
 6603SOL    HW220709   0.167   4.670   2.565
 6604SOL     OW20710   1.887   5.249   2.703
 6604SOL    HW120711   1.858   5.342   2.679
 6604SOL    HW220712   1.810   5.186   2.693
 6605SOL     OW20713   6.903   5.581   1.073
 6605SOL    HW120714   6.859   5.668   1.052
 6605SOL    HW220715   6.911   5.527   0.989
 6606SOL     OW20716   1.449   4.763   2.671
 6606SOL    HW120717   1.483   4.755   2.765
 6606SOL    HW220718   1.459   4.675   2.625
 6607SOL     OW20719   6.708   3.352   4.392
 6607SOL    HW120720   6.634   3.341   4.326
 6607SOL    HW220721   6.706   3.445   4.429
 6608SOL     OW20722   1.720   0.943   5.476
 6608SOL    HW120723   1.751   0.859   5.520
 6608SOL    HW220724   1.666   0.997   5.541
 6609SOL     OW20725   2.734   1.991   6.913
 6609SOL    HW120726   2.782   2.025   6.832
 6609SOL    HW220727   2.638   2.019   6.909
 6610SOL     OW20728   3.260   5.906   1.036
 6610SOL    HW120729   3.240   5.973   0.963
 6610SOL    HW220730   3.336   5.848   1.007
 6611SOL     OW20731   3.251   1.491   4.933
 6611SOL    HW120732   3.244   1.422   5.005
 6611SOL    HW220733   3.212   1.577   4.965
 6612SOL     OW20734   6.800   0.809   0.236
 6612SOL    HW120735   6.828   0.744   0.306
 6612SOL    HW220736   6.718   0.857   0.266
 6613SOL     OW20737   4.534   0.220   0.963
 6613SOL    HW120738   4.534   0.192   1.059
 6613SOL    HW220739   4.624   0.204   0.922
 6614SOL     OW20740   4.045   4.560   0.450
 6614SOL    HW120741   4.129   4.525   0.408
 6614SOL    HW220742   3.980   4.485   0.461
 6615SOL     OW20743   3.741   5.682   5.953
 6615SOL    HW120744   3.642   5.685   5.957
 6615SOL    HW220745   3.771   5.694   5.858
 6616SOL     OW20746   4.101   2.014   6.059
 6616SOL    HW120747   4.135   1.983   6.149
 6616SOL    HW220748   4.036   2.089   6.072
 6617SOL     OW20749   3.461   1.672   4.105
 6617SOL    HW120750   3.471   1.690   4.008
 6617SOL    HW220751   3.529   1.726   4.156
 6618SOL     OW20752   6.654   2.925   3.198
 6618SOL    HW120753   6.738   2.873   3.212
 6618SOL    HW220754   6.581   2.865   3.164
 6619SOL     OW20755   4.505   5.055   4.031
 6619SOL    HW120756   4.438   5.011   4.091
 6619SOL    HW220757   4.587   5.077   4.084
 6620SOL     OW20758   1.159   2.626   3.268
 6620SOL    HW120759   1.197   2.569   3.341
 6620SOL    HW220760   1.059   2.626   3.275
 6621SOL     OW20761   3.297   3.561   3.477
 6621SOL    HW120762   3.210   3.610   3.478
 6621SOL    HW220763   3.358   3.602   3.409
 6622SOL     OW20764   0.027   4.623   2.268
 6622SOL    HW120765   0.011   4.722   2.264
 6622SOL    HW220766   7.012   4.580   2.186
 6623SOL     OW20767   3.824   3.322   3.959
 6623SOL    HW120768   3.807   3.231   3.921
 6623SOL    HW220769   3.834   3.316   4.059
 6624SOL     OW20770   2.432   2.240   2.412
 6624SOL    HW120771   2.340   2.271   2.438
 6624SOL    HW220772   2.500   2.304   2.448
 6625SOL     OW20773   0.524   4.705   5.534
 6625SOL    HW120774   0.427   4.704   5.559
 6625SOL    HW220775   0.578   4.731   5.614
 6626SOL     OW20776   3.546   6.135   5.548
 6626SOL    HW120777   3.590   6.141   5.458
 6626SOL    HW220778   3.557   6.221   5.596
 6627SOL     OW20779   2.784   6.660   4.637
 6627SOL    HW120780   2.816   6.638   4.729
 6627SOL    HW220781   2.684   6.672   4.638
 6628SOL     OW20782   4.057   6.552   3.450
 6628SOL    HW120783   4.102   6.641   3.449
 6628SOL    HW220784   4.125   6.480   3.436
 6629SOL     OW20785   4.656   5.965   5.402
 6629SOL    HW120786   4.639   5.881   5.454
 6629SOL    HW220787   4.742   6.006   5.434
 6630SOL     OW20788   1.930   6.994   0.434
 6630SOL    HW120789   1.964   0.016   0.351
 6630SOL    HW220790   1.873   0.035   0.486
 6631SOL     OW20791   1.792   1.871   6.224
 6631SOL    HW120792   1.835   1.869   6.314
 6631SOL    HW220793   1.700   1.910   6.231
 6632SOL     OW20794   1.253   0.480   6.227
 6632SOL    HW120795   1.330   0.509   6.284
 6632SOL    HW220796   1.199   0.560   6.201
 6633SOL     OW20797   4.687   6.509   5.959
 6633SOL    HW120798   4.629   6.440   5.916
 6633SOL    HW220799   4.631   6.584   5.992
 6634SOL     OW20800   2.954   2.052   4.162
 6634SOL    HW120801   3.042   2.065   4.207
 6634SOL    HW220802   2.881   2.050   4.231
 6635SOL     OW20803   4.746   5.421   5.976
 6635SOL    HW120804   4.844   5.402   5.981
 6635SOL    HW220805   4.695   5.335   5.973
 6636SOL     OW20806   4.289   1.621   1.223
 6636SOL    HW120807   4.192   1.618   1.201
 6636SOL    HW220808   4.317   1.716   1.240
 6637SOL     OW20809   0.471   3.118   6.671
 6637SOL    HW120810   0.402   3.094   6.739
 6637SOL    HW220811   0.471   3.218   6.657
 6638SOL     OW20812   3.051   3.752   4.165
 6638SOL    HW120813   3.053   3.813   4.245
 6638SOL    HW220814   3.082   3.802   4.084
 6639SOL     OW20815   5.026   3.131   1.653
 6639SOL    HW120816   5.096   3.169   1.592
 6639SOL    HW220817   4.982   3.054   1.609
 6640SOL     OW20818   1.236   3.512   4.522
 6640SOL    HW120819   1.239   3.512   4.422
 6640SOL    HW220820   1.150   3.473   4.553
 6641SOL     OW20821   5.422   2.377   6.885
 6641SOL    HW120822   5.387   2.296   6.837
 6641SOL    HW220823   5.346   2.424   6.930
 6642SOL     OW20824   1.088   5.009   6.204
 6642SOL    HW120825   1.156   5.077   6.177
 6642SOL    HW220826   1.027   4.990   6.126
 6643SOL     OW20827   4.813   5.747   6.022
 6643SOL    HW120828   4.729   5.694   6.037
 6643SOL    HW220829   4.800   5.841   6.054
 6644SOL     OW20830   1.717   7.003   3.252
 6644SOL    HW120831   1.762   6.952   3.178
 6644SOL    HW220832   1.731   0.078   3.238
 6645SOL     OW20833   4.873   2.643   5.209
 6645SOL    HW120834   4.879   2.550   5.175
 6645SOL    HW220835   4.964   2.684   5.213
 6646SOL     OW20836   4.739   6.947   5.897
 6646SOL    HW120837   4.818   6.886   5.891
 6646SOL    HW220838   4.683   6.937   5.815
 6647SOL     OW20839   3.576   4.668   0.646
 6647SOL    HW120840   3.497   4.645   0.703
 6647SOL    HW220841   3.546   4.687   0.553
 6648SOL     OW20842   3.397   5.614   5.255
 6648SOL    HW120843   3.343   5.533   5.231
 6648SOL    HW220844   3.434   5.655   5.172
 6649SOL     OW20845   5.673   3.154   5.472
 6649SOL    HW120846   5.675   3.083   5.402
 6649SOL    HW220847   5.658   3.243   5.428
 6650SOL     OW20848   2.891   0.834   4.881
 6650SOL    HW120849   2.881   0.909   4.815
 6650SOL    HW220850   2.984   0.797   4.876
 6651SOL     OW20851   6.757   1.163   3.613
 6651SOL    HW120852   6.815   1.172   3.532
 6651SOL    HW220853   6.760   1.068   3.645
 6652SOL     OW20854   6.985   5.413   6.940
 6652SOL    HW120855   7.021   5.395   0.009
 6652SOL    HW220856   6.900   5.361   6.927
 6653SOL     OW20857   5.699   3.966   6.655
 6653SOL    HW120858   5.733   3.872   6.650
 6653SOL    HW220859   5.648   3.987   6.572
 6654SOL     OW20860   6.926   1.875   3.594
 6654SOL    HW120861   6.937   1.890   3.496
 6654SOL    HW220862   6.904   1.962   3.639
 6655SOL     OW20863   0.193   5.531   1.386
 6655SOL    HW120864   0.230   5.519   1.294
 6655SOL    HW220865   0.094   5.517   1.384
 6656SOL     OW20866   5.239   0.815   2.455
 6656SOL    HW120867   5.186   0.899   2.442
 6656SOL    HW220868   5.240   0.791   2.553
 6657SOL     OW20869   4.613   1.938   4.275
 6657SOL    HW120870   4.552   1.959   4.198
 6657SOL    HW220871   4.614   2.015   4.339
 6658SOL     OW20872   6.535   5.895   4.729
 6658SOL    HW120873   6.590   5.869   4.649
 6658SOL    HW220874   6.564   5.985   4.761
 6659SOL     OW20875   0.794   6.824   0.738
 6659SOL    HW120876   0.702   6.805   0.771
 6659SOL    HW220877   0.856   6.834   0.815
 6660SOL     OW20878   1.122   0.364   4.041
 6660SOL    HW120879   1.127   0.288   4.107
 6660SOL    HW220880   1.039   0.417   4.058
 6661SOL     OW20881   3.592   6.347   3.692
 6661SOL    HW120882   3.679   6.382   3.657
 6661SOL    HW220883   3.586   6.249   3.672
 6662SOL     OW20884   3.388   0.085   2.048
 6662SOL    HW120885   3.452   0.074   2.124
 6662SOL    HW220886   3.365   0.181   2.037
 6663SOL     OW20887   1.614   3.849   5.226
 6663SOL    HW120888   1.565   3.934   5.247
 6663SOL    HW220889   1.712   3.868   5.218
 6664SOL     OW20890   2.966   0.141   1.791
 6664SOL    HW120891   2.994   0.142   1.695
 6664SOL    HW220892   2.982   0.231   1.832
 6665SOL     OW20893   2.520   0.190   6.883
 6665SOL    HW120894   2.503   0.099   6.845
 6665SOL    HW220895   2.618   0.210   6.880
 6666SOL     OW20896   3.092   6.228   6.008
 6666SOL    HW120897   3.157   6.194   6.075
 6666SOL    HW220898   3.054   6.315   6.040
 6667SOL     OW20899   2.012   5.824   0.194
 6667SOL    HW120900   2.111   5.809   0.198
 6667SOL    HW220901   1.967   5.737   0.174
 6668SOL     OW20902   0.580   3.685   6.262
 6668SOL    HW120903   0.551   3.678   6.166
 6668SOL    HW220904   0.610   3.595   6.294
 6669SOL     OW20905   0.889   3.404   3.749
 6669SOL    HW120906   0.935   3.320   3.780
 6669SOL    HW220907   0.818   3.380   3.683
 6670SOL     OW20908   2.180   4.121   0.821
 6670SOL    HW120909   2.223   4.031   0.827
 6670SOL    HW220910   2.251   4.190   0.810
 6671SOL     OW20911   4.498   4.973   0.488
 6671SOL    HW120912   4.498   4.946   0.584
 6671SOL    HW220913   4.414   5.023   0.468
 6672SOL     OW20914   2.062   2.440   0.892
 6672SOL    HW120915   2.090   2.535   0.884
 6672SOL    HW220916   2.072   2.409   0.986
 6673SOL     OW20917   5.742   3.677   4.587
 6673SOL    HW120918   5.809   3.622   4.536
 6673SOL    HW220919   5.780   3.701   4.676
 6674SOL     OW20920   6.533   1.136   0.159
 6674SOL    HW120921   6.451   1.137   0.101
 6674SOL    HW220922   6.521   1.069   0.233
 6675SOL     OW20923   4.920   1.744   6.975
 6675SOL    HW120924   4.898   1.802   6.897
 6675SOL    HW220925   4.959   1.658   6.942
 6676SOL     OW20926   1.154   3.562   5.449
 6676SOL    HW120927   1.252   3.557   5.468
 6676SOL    HW220928   1.133   3.650   5.407
 6677SOL     OW20929   0.389   2.351   6.918
 6677SOL    HW120930   0.312   2.397   6.962
 6677SOL    HW220931   0.407   2.265   6.964
 6678SOL     OW20932   3.066   3.779   6.438
 6678SOL    HW120933   3.014   3.862   6.460
 6678SOL    HW220934   3.084   3.777   6.339
 6679SOL     OW20935   1.646   0.314   4.234
 6679SOL    HW120936   1.729   0.363   4.207
 6679SOL    HW220937   1.574   0.380   4.255
 6680SOL     OW20938   6.327   5.444   2.108
 6680SOL    HW120939   6.318   5.529   2.159
 6680SOL    HW220940   6.273   5.449   2.024
 6681SOL     OW20941   3.362   5.462   0.940
 6681SOL    HW120942   3.277   5.489   0.893
 6681SOL    HW220943   3.345   5.381   0.995
 6682SOL     OW20944   2.497   4.946   6.325
 6682SOL    HW120945   2.504   5.031   6.273
 6682SOL    HW220946   2.574   4.939   6.388
 6683SOL     OW20947   6.989   6.191   6.473
 6683SOL    HW120948   6.987   6.266   6.407
 6683SOL    HW220949   6.899   6.149   6.478
 6684SOL     OW20950   3.115   6.840   6.034
 6684SOL    HW120951   3.093   6.753   5.989
 6684SOL    HW220952   3.039   6.904   6.022
 6685SOL     OW20953   3.627   2.655   0.816
 6685SOL    HW120954   3.628   2.579   0.881
 6685SOL    HW220955   3.533   2.676   0.790
 6686SOL     OW20956   4.544   4.175   5.398
 6686SOL    HW120957   4.446   4.189   5.383
 6686SOL    HW220958   4.561   4.078   5.418
 6687SOL     OW20959   6.835   2.599   0.805
 6687SOL    HW120960   6.900   2.525   0.822
 6687SOL    HW220961   6.758   2.591   0.868
 6688SOL     OW20962   5.817   5.265   0.790
 6688SOL    HW120963   5.729   5.218   0.788
 6688SOL    HW220964   5.852   5.275   0.697
 6689SOL     OW20965   3.618   4.786   5.924
 6689SOL    HW120966   3.579   4.878   5.929
 6689SOL    HW220967   3.580   4.729   5.996
 6690SOL     OW20968   1.207   0.417   0.118
 6690SOL    HW120969   1.228   0.341   0.057
 6690SOL    HW220970   1.196   0.382   0.212
 6691SOL     OW20971   2.130   1.729   1.962
 6691SOL    HW120972   2.212   1.685   1.926
 6691SOL    HW220973   2.061   1.660   1.983
 6692SOL     OW20974   4.022   6.540   2.316
 6692SOL    HW120975   4.062   6.476   2.382
 6692SOL    HW220976   3.983   6.489   2.240
 6693SOL     OW20977   2.669   1.162   6.104
 6693SOL    HW120978   2.662   1.241   6.043
 6693SOL    HW220979   2.721   1.187   6.186
 6694SOL     OW20980   4.387   4.114   1.674
 6694SOL    HW120981   4.384   4.184   1.745
 6694SOL    HW220982   4.302   4.061   1.676
 6695SOL     OW20983   3.061   2.460   6.974
 6695SOL    HW120984   3.003   2.472   6.894
 6695SOL    HW220985   3.016   2.401   0.018
 6696SOL     OW20986   3.492   2.701   5.357
 6696SOL    HW120987   3.582   2.659   5.344
 6696SOL    HW220988   3.433   2.638   5.407
 6697SOL     OW20989   5.245   1.595   2.888
 6697SOL    HW120990   5.275   1.677   2.937
 6697SOL    HW220991   5.313   1.571   2.819
 6698SOL     OW20992   2.897   3.881   1.540
 6698SOL    HW120993   2.911   3.875   1.639
 6698SOL    HW220994   2.972   3.932   1.499
 6699SOL     OW20995   2.016   3.191   6.620
 6699SOL    HW120996   1.949   3.146   6.679
 6699SOL    HW220997   2.107   3.183   6.661
 6700SOL     OW20998   4.941   0.575   1.415
 6700SOL    HW120999   4.940   0.620   1.504
 6700SOL    HW221000   4.973   0.639   1.345
 6701SOL     OW21001   5.639   6.905   1.734
 6701SOL    HW121002   5.626   6.816   1.692
 6701SOL    HW221003   5.702   6.959   1.678
 6702SOL     OW21004   4.853   2.658   0.774
 6702SOL    HW121005   4.826   2.573   0.728
 6702SOL    HW221006   4.772   2.704   0.809
 6703SOL     OW21007   0.318   1.467   0.548
 6703SOL    HW121008   0.385   1.464   0.622
 6703SOL    HW221009   0.359   1.511   0.468
 6704SOL     OW21010   2.814   6.523   5.874
 6704SOL    HW121011   2.806   6.451   5.806
 6704SOL    HW221012   2.740   6.589   5.862
 6705SOL     OW21013   0.640   4.340   2.344
 6705SOL    HW121014   0.694   4.256   2.335
 6705SOL    HW221015   0.692   4.407   2.396
 6706SOL     OW21016   0.359   5.943   0.965
 6706SOL    HW121017   0.284   6.003   0.936
 6706SOL    HW221018   0.322   5.868   1.019
 6707SOL     OW21019   5.024   0.780   3.051
 6707SOL    HW121020   4.960   0.771   2.975
 6707SOL    HW221021   5.107   0.727   3.033
 6708SOL     OW21022   0.691   3.307   0.737
 6708SOL    HW121023   0.616   3.310   0.671
 6708SOL    HW221024   0.684   3.222   0.791
 6709SOL     OW21025   1.983   4.149   2.195
 6709SOL    HW121026   1.919   4.159   2.120
 6709SOL    HW221027   2.062   4.097   2.165
 6710SOL     OW21028   4.463   1.843   1.630
 6710SOL    HW121029   4.386   1.803   1.582
 6710SOL    HW221030   4.430   1.902   1.704
 6711SOL     OW21031   4.624   5.594   6.265
 6711SOL    HW121032   4.564   5.594   6.185
 6711SOL    HW221033   4.605   5.676   6.320
 6712SOL     OW21034   5.591   3.913   1.238
 6712SOL    HW121035   5.685   3.881   1.253
 6712SOL    HW221036   5.591   3.984   1.169
 6713SOL     OW21037   1.918   4.583   3.838
 6713SOL    HW121038   1.927   4.547   3.745
 6713SOL    HW221039   1.822   4.605   3.856
 6714SOL     OW21040   6.199   1.091   2.426
 6714SOL    HW121041   6.231   1.049   2.341
 6714SOL    HW221042   6.129   1.033   2.467
 6715SOL     OW21043   1.345   0.011   5.680
 6715SOL    HW121044   1.373   0.096   5.725
 6715SOL    HW221045   1.421   6.969   5.682
 6716SOL     OW21046   1.126   4.613   1.931
 6716SOL    HW121047   1.170   4.684   1.876
 6716SOL    HW221048   1.187   4.534   1.938
 6717SOL     OW21049   5.990   2.498   5.452
 6717SOL    HW121050   6.078   2.521   5.410
 6717SOL    HW221051   5.988   2.401   5.476
 6718SOL     OW21052   4.554   2.452   0.660
 6718SOL    HW121053   4.605   2.404   0.732
 6718SOL    HW221054   4.575   2.410   0.572
 6719SOL     OW21055   1.425   0.985   0.450
 6719SOL    HW121056   1.398   0.895   0.484
 6719SOL    HW221057   1.399   0.993   0.353
 6720SOL     OW21058   1.814   1.537   4.774
 6720SOL    HW121059   1.717   1.544   4.799
 6720SOL    HW221060   1.836   1.441   4.753
 6721SOL     OW21061   6.201   6.749   0.387
 6721SOL    HW121062   6.184   6.841   0.351
 6721SOL    HW221063   6.191   6.683   0.313
 6722SOL     OW21064   6.142   4.403   1.595
 6722SOL    HW121065   6.160   4.326   1.655
 6722SOL    HW221066   6.044   4.405   1.572
 6723SOL     OW21067   1.878   3.227   4.528
 6723SOL    HW121068   1.912   3.296   4.464
 6723SOL    HW221069   1.955   3.170   4.559
 6724SOL     OW21070   1.960   3.297   5.366
 6724SOL    HW121071   2.050   3.268   5.401
 6724SOL    HW221072   1.944   3.392   5.392
 6725SOL     OW21073   4.778   2.743   3.478
 6725SOL    HW121074   4.861   2.693   3.453
 6725SOL    HW221075   4.789   2.780   3.571
 6726SOL     OW21076   6.927   1.509   0.326
 6726SOL    HW121077   6.900   1.418   0.295
 6726SOL    HW221078   7.010   1.502   0.382
 6727SOL     OW21079   0.696   5.572   5.615
 6727SOL    HW121080   0.694   5.633   5.694
 6727SOL    HW221081   0.780   5.586   5.563
 6728SOL     OW21082   3.779   1.600   5.194
 6728SOL    HW121083   3.716   1.669   5.230
 6728SOL    HW221084   3.739   1.557   5.114
 6729SOL     OW21085   4.643   0.949   2.715
 6729SOL    HW121086   4.551   0.966   2.680
 6729SOL    HW221087   4.677   1.032   2.760
 6730SOL     OW21088   0.372   1.840   1.673
 6730SOL    HW121089   0.342   1.811   1.764
 6730SOL    HW221090   0.421   1.765   1.629
 6731SOL     OW21091   3.830   0.504   6.317
 6731SOL    HW121092   3.828   0.551   6.406
 6731SOL    HW221093   3.922   0.465   6.303
 6732SOL     OW21094   6.075   5.306   5.803
 6732SOL    HW121095   6.117   5.343   5.721
 6732SOL    HW221096   5.977   5.328   5.803
 6733SOL     OW21097   5.080   4.690   5.120
 6733SOL    HW121098   5.107   4.617   5.183
 6733SOL    HW221099   5.161   4.736   5.084
 6734SOL     OW21100   5.483   2.327   5.586
 6734SOL    HW121101   5.434   2.408   5.551
 6734SOL    HW221102   5.418   2.266   5.631
 6735SOL     OW21103   5.846   2.822   4.524
 6735SOL    HW121104   5.754   2.784   4.513
 6735SOL    HW221105   5.912   2.766   4.473
 6736SOL     OW21106   3.919   3.648   0.850
 6736SOL    HW121107   3.882   3.555   0.844
 6736SOL    HW221108   4.011   3.644   0.888
 6737SOL     OW21109   6.190   3.616   1.083
 6737SOL    HW121110   6.141   3.669   1.153
 6737SOL    HW221111   6.260   3.559   1.126
 6738SOL     OW21112   2.197   6.772   4.156
 6738SOL    HW121113   2.146   6.837   4.099
 6738SOL    HW221114   2.290   6.806   4.170
 6739SOL     OW21115   0.521   0.274   5.686
 6739SOL    HW121116   0.604   0.329   5.693
 6739SOL    HW221117   0.448   0.317   5.739
 6740SOL     OW21118   1.033   6.644   1.960
 6740SOL    HW121119   0.961   6.692   1.910
 6740SOL    HW221120   1.010   6.643   2.058
 6741SOL     OW21121   3.152   2.162   0.366
 6741SOL    HW121122   3.133   2.256   0.392
 6741SOL    HW221123   3.074   2.124   0.317
 6742SOL     OW21124   6.589   4.927   2.532
 6742SOL    HW121125   6.575   5.012   2.482
 6742SOL    HW221126   6.513   4.912   2.596
 6743SOL     OW21127   4.039   3.915   6.497
 6743SOL    HW121128   3.993   3.986   6.550
 6743SOL    HW221129   4.004   3.825   6.525
 6744SOL     OW21130   6.697   6.397   5.896
 6744SOL    HW121131   6.776   6.450   5.929
 6744SOL    HW221132   6.728   6.330   5.829
 6745SOL     OW21133   5.402   3.481   5.410
 6745SOL    HW121134   5.490   3.442   5.382
 6745SOL    HW221135   5.398   3.577   5.380
 6746SOL     OW21136   1.278   2.135   3.070
 6746SOL    HW121137   1.260   2.233   3.075
 6746SOL    HW221138   1.241   2.099   2.984
 6747SOL     OW21139   1.315   5.991   5.504
 6747SOL    HW121140   1.382   6.051   5.461
 6747SOL    HW221141   1.234   6.043   5.528
 6748SOL     OW21142   1.510   2.180   4.442
 6748SOL    HW121143   1.455   2.226   4.372
 6748SOL    HW221144   1.470   2.091   4.463
 6749SOL     OW21145   3.748   4.902   2.401
 6749SOL    HW121146   3.827   4.888   2.460
 6749SOL    HW221147   3.721   4.998   2.403
 6750SOL     OW21148   3.952   0.511   5.997
 6750SOL    HW121149   3.936   0.436   6.062
 6750SOL    HW221150   4.011   0.580   6.039
 6751SOL     OW21151   3.973   0.957   4.490
 6751SOL    HW121152   4.023   1.004   4.563
 6751SOL    HW221153   3.934   1.024   4.428
 6752SOL     OW21154   1.881   4.789   3.295
 6752SOL    HW121155   1.911   4.855   3.227
 6752SOL    HW221156   1.960   4.749   3.341
 6753SOL     OW21157   3.323   4.230   0.403
 6753SOL    HW121158   3.391   4.162   0.378
 6753SOL    HW221159   3.237   4.211   0.357
 6754SOL     OW21160   6.047   0.760   0.370
 6754SOL    HW121161   6.025   0.666   0.396
 6754SOL    HW221162   6.143   0.766   0.343
 6755SOL     OW21163   4.199   5.661   5.534
 6755SOL    HW121164   4.130   5.657   5.462
 6755SOL    HW221165   4.275   5.601   5.511
 6756SOL     OW21166   4.272   3.211   6.329
 6756SOL    HW121167   4.328   3.162   6.396
 6756SOL    HW221168   4.177   3.180   6.335
 6757SOL     OW21169   4.409   6.911   2.001
 6757SOL    HW121170   4.430   6.958   2.087
 6757SOL    HW221171   4.467   6.830   1.993
 6758SOL     OW21172   4.830   2.983   3.223
 6758SOL    HW121173   4.751   2.928   3.197
 6758SOL    HW221174   4.911   2.950   3.174
 6759SOL     OW21175   1.416   2.754   2.179
 6759SOL    HW121176   1.496   2.810   2.198
 6759SOL    HW221177   1.430   2.662   2.218
 6760SOL     OW21178   5.444   1.871   5.992
 6760SOL    HW121179   5.477   1.780   6.015
 6760SOL    HW221180   5.523   1.932   5.977
 6761SOL     OW21181   2.860   0.410   4.788
 6761SOL    HW121182   2.861   0.380   4.693
 6761SOL    HW221183   2.911   0.344   4.844
 6762SOL     OW21184   5.518   5.135   4.431
 6762SOL    HW121185   5.500   5.042   4.400
 6762SOL    HW221186   5.458   5.156   4.509
 6763SOL     OW21187   5.797   6.191   3.852
 6763SOL    HW121188   5.889   6.151   3.847
 6763SOL    HW221189   5.791   6.268   3.789
 6764SOL     OW21190   0.872   4.568   1.884
 6764SOL    HW121191   0.858   4.558   1.785
 6764SOL    HW221192   0.965   4.602   1.900
 6765SOL     OW21193   6.933   4.024   3.054
 6765SOL    HW121194   6.853   4.082   3.042
 6765SOL    HW221195   7.016   4.077   3.036
 6766SOL     OW21196   5.853   0.010   1.604
 6766SOL    HW121197   5.880   0.103   1.579
 6766SOL    HW221198   5.845   6.977   1.522
 6767SOL     OW21199   3.321   0.186   1.479
 6767SOL    HW121200   3.340   0.201   1.577
 6767SOL    HW221201   3.392   0.232   1.425
 6768SOL     OW21202   1.673   6.925   6.506
 6768SOL    HW121203   1.633   6.965   6.424
 6768SOL    HW221204   1.698   6.999   6.569
 6769SOL     OW21205   5.273   3.162   1.116
 6769SOL    HW121206   5.263   3.065   1.095
 6769SOL    HW221207   5.184   3.200   1.141
 6770SOL     OW21208   0.364   1.442   1.864
 6770SOL    HW121209   0.364   1.359   1.920
 6770SOL    HW221210   0.353   1.417   1.768
 6771SOL     OW21211   4.930   1.279   3.593
 6771SOL    HW121212   4.948   1.353   3.658
 6771SOL    HW221213   4.988   1.289   3.513
 6772SOL     OW21214   3.435   1.288   4.887
 6772SOL    HW121215   3.440   1.262   4.791
 6772SOL    HW221216   3.427   1.388   4.895
 6773SOL     OW21217   0.165   3.709   1.741
 6773SOL    HW121218   0.259   3.690   1.769
 6773SOL    HW221219   0.150   3.808   1.741
 6774SOL     OW21220   1.401   2.238   6.348
 6774SOL    HW121221   1.345   2.155   6.340
 6774SOL    HW221222   1.370   2.305   6.280
 6775SOL     OW21223   0.443   3.518   0.489
 6775SOL    HW121224   0.397   3.564   0.565
 6775SOL    HW221225   0.483   3.587   0.428
 6776SOL     OW21226   6.091   6.076   6.690
 6776SOL    HW121227   6.116   6.042   6.599
 6776SOL    HW221228   6.161   6.139   6.722
 6777SOL     OW21229   4.293   4.663   6.930
 6777SOL    HW121230   4.335   4.754   6.931
 6777SOL    HW221231   4.355   4.597   6.974
 6778SOL     OW21232   5.910   5.748   3.390
 6778SOL    HW121233   5.915   5.694   3.307
 6778SOL    HW221234   5.828   5.723   3.442
 6779SOL     OW21235   6.057   3.651   6.582
 6779SOL    HW121236   5.995   3.585   6.541
 6779SOL    HW221237   6.079   3.624   6.675
 6780SOL     OW21238   0.831   3.051   1.379
 6780SOL    HW121239   0.826   3.095   1.289
 6780SOL    HW221240   0.885   3.109   1.441
 6781SOL     OW21241   5.164   4.836   5.821
 6781SOL    HW121242   5.171   4.826   5.722
 6781SOL    HW221243   5.190   4.929   5.847
 6782SOL     OW21244   6.057   1.563   3.165
 6782SOL    HW121245   6.052   1.520   3.256
 6782SOL    HW221246   6.026   1.658   3.171
 6783SOL     OW21247   1.421   5.859   6.565
 6783SOL    HW121248   1.401   5.948   6.524
 6783SOL    HW221249   1.512   5.829   6.536
 6784SOL     OW21250   4.087   3.390   0.102
 6784SOL    HW121251   4.022   3.319   0.130
 6784SOL    HW221252   4.041   3.458   0.046
 6785SOL     OW21253   5.657   5.709   1.986
 6785SOL    HW121254   5.565   5.743   1.967
 6785SOL    HW221255   5.675   5.628   1.931
 6786SOL     OW21256   1.635   3.413   5.358
 6786SOL    HW121257   1.731   3.441   5.354
 6786SOL    HW221258   1.580   3.474   5.301
 6787SOL     OW21259   1.068   3.766   1.393
 6787SOL    HW121260   1.049   3.861   1.417
 6787SOL    HW221261   1.152   3.736   1.438
 6788SOL     OW21262   2.712   3.766   1.243
 6788SOL    HW121263   2.725   3.730   1.335
 6788SOL    HW221264   2.798   3.759   1.192
 6789SOL     OW21265   1.776   4.385   3.095
 6789SOL    HW121266   1.689   4.336   3.097
 6789SOL    HW221267   1.760   4.482   3.111
 6790SOL     OW21268   1.341   2.877   0.718
 6790SOL    HW121269   1.343   2.871   0.818
 6790SOL    HW221270   1.357   2.972   0.690
 6791SOL     OW21271   3.734   3.951   5.947
 6791SOL    HW121272   3.684   3.876   5.991
 6791SOL    HW221273   3.771   3.919   5.859
 6792SOL     OW21274   0.305   4.885   0.725
 6792SOL    HW121275   0.300   4.797   0.772
 6792SOL    HW221276   0.401   4.911   0.714
 6793SOL     OW21277   5.348   1.199   1.092
 6793SOL    HW121278   5.319   1.290   1.123
 6793SOL    HW221279   5.432   1.207   1.039
 6794SOL     OW21280   3.655   1.456   4.700
 6794SOL    HW121281   3.623   1.537   4.750
 6794SOL    HW221282   3.598   1.441   4.620
 6795SOL     OW21283   3.789   5.979   0.074
 6795SOL    HW121284   3.779   6.008   7.002
 6795SOL    HW221285   3.714   6.015   0.129
 6796SOL     OW21286   4.376   2.007   2.119
 6796SOL    HW121287   4.412   1.961   2.200
 6796SOL    HW221288   4.294   2.058   2.144
 6797SOL     OW21289   6.425   2.490   2.286
 6797SOL    HW121290   6.453   2.586   2.293
 6797SOL    HW221291   6.326   2.484   2.280
 6798SOL     OW21292   6.590   6.963   2.353
 6798SOL    HW121293   6.591   0.014   2.285
 6798SOL    HW221294   6.681   6.954   2.394
 6799SOL     OW21295   5.455   6.162   1.868
 6799SOL    HW121296   5.511   6.150   1.950
 6799SOL    HW221297   5.381   6.226   1.887
 6800SOL     OW21298   3.247   4.067   6.555
 6800SOL    HW121299   3.252   3.971   6.583
 6800SOL    HW221300   3.208   4.121   6.629
 6801SOL     OW21301   0.918   3.193   3.182
 6801SOL    HW121302   0.935   3.260   3.110
 6801SOL    HW221303   1.005   3.164   3.222
 6802SOL     OW21304   3.174   4.928   2.528
 6802SOL    HW121305   3.155   4.890   2.437
 6802SOL    HW221306   3.096   4.981   2.559
 6803SOL     OW21307   4.064   2.128   0.856
 6803SOL    HW121308   4.021   2.208   0.815
 6803SOL    HW221309   4.162   2.146   0.867
 6804SOL     OW21310   1.078   6.450   3.490
 6804SOL    HW121311   1.044   6.400   3.410
 6804SOL    HW221312   1.175   6.431   3.502
 6805SOL     OW21313   5.625   1.221   5.640
 6805SOL    HW121314   5.593   1.130   5.664
 6805SOL    HW221315   5.571   1.289   5.690
 6806SOL     OW21316   5.169   6.215   4.906
 6806SOL    HW121317   5.176   6.314   4.894
 6806SOL    HW221318   5.251   6.171   4.870
 6807SOL     OW21319   3.741   3.452   0.074
 6807SOL    HW121320   3.765   3.373   0.130
 6807SOL    HW221321   3.747   3.535   0.130
 6808SOL     OW21322   2.223   3.946   4.048
 6808SOL    HW121323   2.171   3.875   4.097
 6808SOL    HW221324   2.254   4.015   4.112
 6809SOL     OW21325   1.710   3.937   0.108
 6809SOL    HW121326   1.661   3.984   0.035
 6809SOL    HW221327   1.770   4.002   0.155
 6810SOL     OW21328   5.575   1.178   3.756
 6810SOL    HW121329   5.495   1.120   3.742
 6810SOL    HW221330   5.562   1.233   3.839
 6811SOL     OW21331   5.272   5.960   1.944
 6811SOL    HW121332   5.219   5.885   1.903
 6811SOL    HW221333   5.316   6.013   1.871
 6812SOL     OW21334   3.550   2.997   2.758
 6812SOL    HW121335   3.542   2.988   2.659
 6812SOL    HW221336   3.495   2.927   2.803
 6813SOL     OW21337   5.158   3.846   1.273
 6813SOL    HW121338   5.075   3.805   1.309
 6813SOL    HW221339   5.150   3.855   1.173
 6814SOL     OW21340   2.401   2.710   0.501
 6814SOL    HW121341   2.343   2.771   0.447
 6814SOL    HW221342   2.356   2.621   0.510
 6815SOL     OW21343   1.420   0.409   0.553
 6815SOL    HW121344   1.484   0.343   0.514
 6815SOL    HW221345   1.469   0.491   0.582
 6816SOL     OW21346   5.080   4.866   1.695
 6816SOL    HW121347   5.180   4.862   1.701
 6816SOL    HW221348   5.055   4.913   1.611
 6817SOL     OW21349   0.717   2.582   5.931
 6817SOL    HW121350   0.777   2.543   6.001
 6817SOL    HW221351   0.757   2.667   5.897
 6818SOL     OW21352   4.055   5.337   1.280
 6818SOL    HW121353   3.959   5.365   1.273
 6818SOL    HW221354   4.060   5.252   1.332
 6819SOL     OW21355   2.379   1.748   4.024
 6819SOL    HW121356   2.392   1.813   3.949
 6819SOL    HW221357   2.281   1.728   4.033
 6820SOL     OW21358   1.585   5.152   4.439
 6820SOL    HW121359   1.606   5.082   4.371
 6820SOL    HW221360   1.653   5.151   4.511
 6821SOL     OW21361   2.199   3.071   3.975
 6821SOL    HW121362   2.286   3.034   4.008
 6821SOL    HW221363   2.150   3.114   4.051
 6822SOL     OW21364   5.039   1.494   6.058
 6822SOL    HW121365   5.134   1.478   6.032
 6822SOL    HW221366   5.001   1.568   6.002
 6823SOL     OW21367   4.137   3.734   2.274
 6823SOL    HW121368   4.152   3.636   2.272
 6823SOL    HW221369   4.200   3.777   2.339
 6824SOL     OW21370   0.727   5.244   4.957
 6824SOL    HW121371   0.727   5.144   4.956
 6824SOL    HW221372   0.637   5.278   4.929
 6825SOL     OW21373   5.622   0.256   3.817
 6825SOL    HW121374   5.622   0.331   3.750
 6825SOL    HW221375   5.670   0.177   3.778
 6826SOL     OW21376   1.264   3.020   3.104
 6826SOL    HW121377   1.238   3.070   3.022
 6826SOL    HW221378   1.225   3.065   3.184
 6827SOL     OW21379   4.895   4.969   5.238
 6827SOL    HW121380   4.848   4.881   5.233
 6827SOL    HW221381   4.988   4.955   5.271
 6828SOL     OW21382   2.247   1.830   1.033
 6828SOL    HW121383   2.257   1.778   1.118
 6828SOL    HW221384   2.182   1.784   0.973
 6829SOL     OW21385   5.644   4.896   3.631
 6829SOL    HW121386   5.569   4.851   3.679
 6829SOL    HW221387   5.612   4.928   3.541
 6830SOL     OW21388   5.208   1.785   3.688
 6830SOL    HW121389   5.282   1.718   3.683
 6830SOL    HW221390   5.127   1.749   3.642
 6831SOL     OW21391   0.184   1.686   5.771
 6831SOL    HW121392   0.152   1.608   5.717
 6831SOL    HW221393   0.141   1.684   5.861
 6832SOL     OW21394   3.641   4.627   0.948
 6832SOL    HW121395   3.550   4.637   0.986
 6832SOL    HW221396   3.650   4.537   0.905
 6833SOL     OW21397   4.304   6.001   0.385
 6833SOL    HW121398   4.288   6.000   0.286
 6833SOL    HW221399   4.328   6.093   0.414
 6834SOL     OW21400   2.986   5.022   2.756
 6834SOL    HW121401   2.994   5.065   2.847
 6834SOL    HW221402   2.921   5.074   2.701
 6835SOL     OW21403   3.637   0.125   4.807
 6835SOL    HW121404   3.613   0.114   4.711
 6835SOL    HW221405   3.650   0.222   4.828
 6836SOL     OW21406   4.049   5.944   0.014
 6836SOL    HW121407   3.958   5.981   0.035
 6836SOL    HW221408   4.041   5.846   7.020
 6837SOL     OW21409   0.668   3.092   3.162
 6837SOL    HW121410   0.762   3.122   3.175
 6837SOL    HW221411   0.664   3.016   3.097
 6838SOL     OW21412   2.821   1.657   1.077
 6838SOL    HW121413   2.744   1.669   1.140
 6838SOL    HW221414   2.884   1.734   1.086
 6839SOL     OW21415   3.873   0.995   1.729
 6839SOL    HW121416   3.937   0.923   1.755
 6839SOL    HW221417   3.779   0.961   1.735
 6840SOL     OW21418   1.044   1.244   6.266
 6840SOL    HW121419   0.986   1.219   6.189
 6840SOL    HW221420   1.052   1.166   6.328
 6841SOL     OW21421   0.452   3.187   5.865
 6841SOL    HW121422   0.463   3.203   5.767
 6841SOL    HW221423   0.381   3.117   5.880
 6842SOL     OW21424   2.782   4.764   2.540
 6842SOL    HW121425   2.865   4.783   2.488
 6842SOL    HW221426   2.712   4.727   2.479
 6843SOL     OW21427   4.277   0.268   1.411
 6843SOL    HW121428   4.291   0.363   1.437
 6843SOL    HW221429   4.210   0.226   1.473
 6844SOL     OW21430   5.685   0.201   5.258
 6844SOL    HW121431   5.714   0.115   5.298
 6844SOL    HW221432   5.764   0.247   5.217
 6845SOL     OW21433   5.794   1.802   2.556
 6845SOL    HW121434   5.808   1.779   2.652
 6845SOL    HW221435   5.699   1.831   2.542
 6846SOL     OW21436   2.088   3.408   0.294
 6846SOL    HW121437   2.083   3.310   0.279
 6846SOL    HW221438   2.067   3.456   0.209
 6847SOL     OW21439   0.000   2.395   4.235
 6847SOL    HW121440   7.005   2.378   4.138
 6847SOL    HW221441   6.937   2.408   4.283
 6848SOL     OW21442   6.907   4.930   3.686
 6848SOL    HW121443   6.985   4.889   3.733
 6848SOL    HW221444   6.867   5.001   3.745
 6849SOL     OW21445   2.872   4.169   5.462
 6849SOL    HW121446   2.778   4.153   5.431
 6849SOL    HW221447   2.916   4.237   5.402
 6850SOL     OW21448   5.002   0.363   4.339
 6850SOL    HW121449   4.968   0.301   4.268
 6850SOL    HW221450   5.014   0.311   4.424
 6851SOL     OW21451   1.969   4.257   2.932
 6851SOL    HW121452   2.008   4.170   2.961
 6851SOL    HW221453   1.901   4.288   2.998
 6852SOL     OW21454   4.317   3.285   0.195
 6852SOL    HW121455   4.350   3.332   0.276
 6852SOL    HW221456   4.241   3.336   0.155
 6853SOL     OW21457   4.101   5.063   5.901
 6853SOL    HW121458   4.089   5.156   5.937
 6853SOL    HW221459   4.045   4.999   5.954
 6854SOL     OW21460   5.159   6.104   5.745
 6854SOL    HW121461   5.207   6.098   5.657
 6854SOL    HW221462   5.215   6.065   5.817
 6855SOL     OW21463   3.647   5.175   3.154
 6855SOL    HW121464   3.628   5.272   3.146
 6855SOL    HW221465   3.736   5.155   3.113
 6856SOL     OW21466   6.440   2.617   0.652
 6856SOL    HW121467   6.354   2.658   0.684
 6856SOL    HW221468   6.420   2.537   0.597
 6857SOL     OW21469   1.134   4.581   5.905
 6857SOL    HW121470   1.123   4.623   5.815
 6857SOL    HW221471   1.232   4.568   5.924
 6858SOL     OW21472   1.119   3.313   1.325
 6858SOL    HW121473   1.211   3.338   1.295
 6858SOL    HW221474   1.052   3.341   1.256
 6859SOL     OW21475   2.428   1.837   0.821
 6859SOL    HW121476   2.371   1.842   0.902
 6859SOL    HW221477   2.437   1.742   0.792
 6860SOL     OW21478   0.503   6.755   6.984
 6860SOL    HW121479   0.565   6.687   6.945
 6860SOL    HW221480   0.409   6.724   6.971
 6861SOL     OW21481   6.589   3.045   0.179
 6861SOL    HW121482   6.588   3.014   0.274
 6861SOL    HW221483   6.666   3.003   0.131
 6862SOL     OW21484   0.316   4.209   3.746
 6862SOL    HW121485   0.290   4.140   3.678
 6862SOL    HW221486   0.369   4.166   3.819
 6863SOL     OW21487   5.270   1.247   5.496
 6863SOL    HW121488   5.226   1.262   5.408
 6863SOL    HW221489   5.295   1.151   5.506
 6864SOL     OW21490   2.137   3.555   6.592
 6864SOL    HW121491   2.069   3.603   6.647
 6864SOL    HW221492   2.150   3.463   6.629
 6865SOL     OW21493   1.811   0.536   4.105
 6865SOL    HW121494   1.774   0.507   4.017
 6865SOL    HW221495   1.780   0.629   4.125
 6866SOL     OW21496   1.935   5.074   7.007
 6866SOL    HW121497   1.922   4.987   0.032
 6866SOL    HW221498   2.026   5.074   6.964
 6867SOL     OW21499   1.855   2.578   6.111
 6867SOL    HW121500   1.802   2.525   6.045
 6867SOL    HW221501   1.865   2.672   6.078
 6868SOL     OW21502   3.768   4.929   3.703
 6868SOL    HW121503   3.760   5.009   3.763
 6868SOL    HW221504   3.688   4.924   3.643
 6869SOL     OW21505   1.549   0.827   5.670
 6869SOL    HW121506   1.490   0.779   5.605
 6869SOL    HW221507   1.639   0.783   5.672
 6870SOL     OW21508   5.376   2.710   6.757
 6870SOL    HW121509   5.445   2.641   6.736
 6870SOL    HW221510   5.301   2.667   6.808
 6871SOL     OW21511   6.424   2.439   2.546
 6871SOL    HW121512   6.510   2.481   2.576
 6871SOL    HW221513   6.416   2.445   2.447
 6872SOL     OW21514   1.852   4.740   0.828
 6872SOL    HW121515   1.810   4.669   0.773
 6872SOL    HW221516   1.817   4.736   0.922
 6873SOL     OW21517   0.632   4.148   2.659
 6873SOL    HW121518   0.640   4.155   2.560
 6873SOL    HW221519   0.703   4.087   2.695
 6874SOL     OW21520   4.316   6.167   1.928
 6874SOL    HW121521   4.356   6.213   1.848
 6874SOL    HW221522   4.359   6.078   1.940
 6875SOL     OW21523   2.835   1.098   6.523
 6875SOL    HW121524   2.787   1.036   6.460
 6875SOL    HW221525   2.843   1.188   6.480
 6876SOL     OW21526   5.745   5.144   3.354
 6876SOL    HW121527   5.802   5.184   3.282
 6876SOL    HW221528   5.744   5.044   3.344
 6877SOL     OW21529   0.581   4.288   1.354
 6877SOL    HW121530   0.600   4.358   1.423
 6877SOL    HW221531   0.572   4.331   1.264
 6878SOL     OW21532   2.064   0.671   4.086
 6878SOL    HW121533   1.982   0.616   4.102
 6878SOL    HW221534   2.058   0.714   3.996
 6879SOL     OW21535   0.990   1.507   1.624
 6879SOL    HW121536   1.065   1.573   1.630
 6879SOL    HW221537   0.956   1.505   1.530
 6880SOL     OW21538   2.195   6.329   0.748
 6880SOL    HW121539   2.118   6.276   0.712
 6880SOL    HW221540   2.218   6.403   0.683
 6881SOL     OW21541   7.014   3.773   0.430
 6881SOL    HW121542   6.938   3.715   0.457
 6881SOL    HW221543   6.999   3.807   0.337
 6882SOL     OW21544   2.749   6.738   0.533
 6882SOL    HW121545   2.736   6.800   0.456
 6882SOL    HW221546   2.846   6.717   0.544
 6883SOL     OW21547   4.817   0.207   1.263
 6883SOL    HW121548   4.771   0.295   1.247
 6883SOL    HW221549   4.854   0.173   1.176
 6884SOL     OW21550   1.544   4.965   3.100
 6884SOL    HW121551   1.493   4.879   3.100
 6884SOL    HW221552   1.630   4.952   3.052
 6885SOL     OW21553   5.636   5.040   4.876
 6885SOL    HW121554   5.571   5.116   4.867
 6885SOL    HW221555   5.625   4.997   4.965
 6886SOL     OW21556   5.582   3.979   0.538
 6886SOL    HW121557   5.622   3.935   0.458
 6886SOL    HW221558   5.522   4.054   0.508
 6887SOL     OW21559   5.397   6.655   5.548
 6887SOL    HW121560   5.470   6.592   5.523
 6887SOL    HW221561   5.409   6.742   5.499
 6888SOL     OW21562   6.549   4.383   0.518
 6888SOL    HW121563   6.597   4.296   0.522
 6888SOL    HW221564   6.464   4.372   0.467
 6889SOL     OW21565   6.914   2.567   5.982
 6889SOL    HW121566   6.899   2.663   6.005
 6889SOL    HW221567   7.010   2.544   5.998
 6890SOL     OW21568   4.886   4.964   4.437
 6890SOL    HW121569   4.891   4.939   4.534
 6890SOL    HW221570   4.967   4.929   4.389
 6891SOL     OW21571   2.169   1.618   0.628
 6891SOL    HW121572   2.261   1.654   0.608
 6891SOL    HW221573   2.143   1.552   0.557
 6892SOL     OW21574   2.004   1.062   4.811
 6892SOL    HW121575   1.958   1.150   4.821
 6892SOL    HW221576   1.978   1.002   4.886
 6893SOL     OW21577   5.792   3.169   0.224
 6893SOL    HW121578   5.803   3.179   0.125
 6893SOL    HW221579   5.858   3.228   0.271
 6894SOL     OW21580   5.522   5.170   0.219
 6894SOL    HW121581   5.611   5.135   0.189
 6894SOL    HW221582   5.483   5.228   0.148
 6895SOL     OW21583   1.270   5.250   2.048
 6895SOL    HW121584   1.245   5.179   2.114
 6895SOL    HW221585   1.268   5.339   2.092
 6896SOL     OW21586   5.425   0.891   6.384
 6896SOL    HW121587   5.342   0.896   6.329
 6896SOL    HW221588   5.477   0.809   6.359
 6897SOL     OW21589   4.478   2.593   4.988
 6897SOL    HW121590   4.509   2.503   4.958
 6897SOL    HW221591   4.388   2.585   5.031
 6898SOL     OW21592   1.756   6.847   1.203
 6898SOL    HW121593   1.812   6.812   1.279
 6898SOL    HW221594   1.722   6.938   1.227
 6899SOL     OW21595   5.338   5.024   2.420
 6899SOL    HW121596   5.300   5.006   2.511
 6899SOL    HW221597   5.428   4.982   2.413
 6900SOL     OW21598   0.182   4.270   4.604
 6900SOL    HW121599   0.204   4.219   4.688
 6900SOL    HW221600   0.251   4.251   4.535
 6901SOL     OW21601   5.109   4.588   6.155
 6901SOL    HW121602   5.033   4.652   6.164
 6901SOL    HW221603   5.095   4.512   6.218
 6902SOL     OW21604   0.152   5.781   6.094
 6902SOL    HW121605   0.187   5.873   6.112
 6902SOL    HW221606   0.116   5.777   6.001
 6903SOL     OW21607   1.809   6.412   5.549
 6903SOL    HW121608   1.829   6.509   5.536
 6903SOL    HW221609   1.759   6.377   5.470
 6904SOL     OW21610   1.044   0.698   6.206
 6904SOL    HW121611   1.022   0.690   6.303
 6904SOL    HW221612   0.979   0.759   6.161
 6905SOL     OW21613   4.503   6.087   5.631
 6905SOL    HW121614   4.540   6.049   5.547
 6905SOL    HW221615   4.420   6.037   5.657
 6906SOL     OW21616   3.166   1.468   3.517
 6906SOL    HW121617   3.136   1.490   3.610
 6906SOL    HW221618   3.154   1.370   3.502
 6907SOL     OW21619   5.669   2.537   0.494
 6907SOL    HW121620   5.692   2.586   0.578
 6907SOL    HW221621   5.571   2.515   0.495
 6908SOL     OW21622   4.110   6.306   0.542
 6908SOL    HW121623   4.155   6.295   0.630
 6908SOL    HW221624   4.178   6.324   0.471
 6909SOL     OW21625   5.779   3.952   2.129
 6909SOL    HW121626   5.759   4.013   2.206
 6909SOL    HW221627   5.875   3.961   2.103
 6910SOL     OW21628   1.710   2.430   1.910
 6910SOL    HW121629   1.700   2.331   1.900
 6910SOL    HW221630   1.741   2.451   2.003
 6911SOL     OW21631   2.761   6.667   5.401
 6911SOL    HW121632   2.736   6.707   5.488
 6911SOL    HW221633   2.678   6.640   5.351
 6912SOL     OW21634   3.179   4.347   6.666
 6912SOL    HW121635   3.256   4.410   6.672
 6912SOL    HW221636   3.160   4.309   6.757
 6913SOL     OW21637   4.278   5.656   6.046
 6913SOL    HW121638   4.240   5.661   5.953
 6913SOL    HW221639   4.377   5.674   6.042
 6914SOL     OW21640   0.371   2.305   2.619
 6914SOL    HW121641   0.306   2.327   2.546
 6914SOL    HW221642   0.447   2.370   2.616
 6915SOL     OW21643   0.066   3.033   4.316
 6915SOL    HW121644   0.008   3.065   4.391
 6915SOL    HW221645   0.058   3.097   4.239
 6916SOL     OW21646   4.594   6.327   5.721
 6916SOL    HW121647   4.553   6.254   5.667
 6916SOL    HW221648   4.688   6.303   5.744
 6917SOL     OW21649   4.054   6.234   2.412
 6917SOL    HW121650   4.063   6.209   2.508
 6917SOL    HW221651   4.007   6.161   2.362
 6918SOL     OW21652   2.036   3.666   0.441
 6918SOL    HW121653   2.044   3.577   0.397
 6918SOL    HW221654   2.031   3.737   0.371
 6919SOL     OW21655   6.249   6.175   3.012
 6919SOL    HW121656   6.163   6.153   3.057
 6919SOL    HW221657   6.241   6.266   2.969
 6920SOL     OW21658   0.230   2.680   5.377
 6920SOL    HW121659   0.298   2.665   5.305
 6920SOL    HW221660   0.275   2.675   5.466
 6921SOL     OW21661   3.493   0.489   4.200
 6921SOL    HW121662   3.443   0.487   4.287
 6921SOL    HW221663   3.584   0.450   4.213
 6922SOL     OW21664   2.949   4.900   6.660
 6922SOL    HW121665   2.912   4.815   6.623
 6922SOL    HW221666   2.961   4.966   6.585
 6923SOL     OW21667   4.998   6.798   3.183
 6923SOL    HW121668   5.058   6.833   3.255
 6923SOL    HW221669   4.949   6.718   3.216
 6924SOL     OW21670   2.953   5.095   1.912
 6924SOL    HW121671   2.898   5.091   1.829
 6924SOL    HW221672   3.010   5.013   1.918
 6925SOL     OW21673   6.560   6.323   4.402
 6925SOL    HW121674   6.600   6.383   4.471
 6925SOL    HW221675   6.525   6.378   4.327
 6926SOL     OW21676   2.756   2.396   0.456
 6926SOL    HW121677   2.807   2.314   0.433
 6926SOL    HW221678   2.797   2.440   0.536
 6927SOL     OW21679   3.311   6.954   6.499
 6927SOL    HW121680   3.324   6.938   6.402
 6927SOL    HW221681   3.359   6.885   6.552
 6928SOL     OW21682   4.757   6.139   0.402
 6928SOL    HW121683   4.756   6.107   0.307
 6928SOL    HW221684   4.837   6.102   0.449
 6929SOL     OW21685   4.828   5.346   2.978
 6929SOL    HW121686   4.831   5.442   2.952
 6929SOL    HW221687   4.768   5.296   2.915
 6930SOL     OW21688   0.934   6.409   1.632
 6930SOL    HW121689   1.032   6.427   1.639
 6930SOL    HW221690   0.911   6.324   1.679
 6931SOL     OW21691   3.481   3.051   1.043
 6931SOL    HW121692   3.547   3.033   1.116
 6931SOL    HW221693   3.465   2.968   0.990
 6932SOL     OW21694   4.123   0.708   6.572
 6932SOL    HW121695   4.176   0.658   6.503
 6932SOL    HW221696   4.180   0.722   6.653
 6933SOL     OW21697   3.547   6.010   5.938
 6933SOL    HW121698   3.498   6.053   6.014
 6933SOL    HW221699   3.620   6.071   5.907
 6934SOL     OW21700   4.719   5.100   0.294
 6934SOL    HW121701   4.813   5.118   0.323
 6934SOL    HW221702   4.702   5.001   0.293
 6935SOL     OW21703   4.274   5.639   2.257
 6935SOL    HW121704   4.365   5.680   2.246
 6935SOL    HW221705   4.248   5.591   2.174
 6936SOL     OW21706   0.876   1.978   6.929
 6936SOL    HW121707   0.904   2.073   6.917
 6936SOL    HW221708   0.796   1.960   6.872
 6937SOL     OW21709   5.675   4.610   0.518
 6937SOL    HW121710   5.676   4.704   0.485
 6937SOL    HW221711   5.580   4.581   0.532
 6938SOL     OW21712   3.354   0.195   4.973
 6938SOL    HW121713   3.414   0.126   5.012
 6938SOL    HW221714   3.286   0.151   4.914
 6939SOL     OW21715   5.561   2.960   3.644
 6939SOL    HW121716   5.479   2.919   3.605
 6939SOL    HW221717   5.553   2.963   3.744
 6940SOL     OW21718   1.913   6.348   1.830
 6940SOL    HW121719   1.979   6.293   1.778
 6940SOL    HW221720   1.821   6.321   1.804
 6941SOL     OW21721   3.738   3.270   2.534
 6941SOL    HW121722   3.809   3.219   2.582
 6941SOL    HW221723   3.653   3.267   2.587
 6942SOL     OW21724   6.668   4.821   3.127
 6942SOL    HW121725   6.611   4.745   3.099
 6942SOL    HW221726   6.719   4.796   3.210
 6943SOL     OW21727   3.328   5.353   5.446
 6943SOL    HW121728   3.387   5.431   5.467
 6943SOL    HW221729   3.282   5.323   5.530
 6944SOL     OW21730   0.854   5.068   5.315
 6944SOL    HW121731   0.757   5.048   5.301
 6944SOL    HW221732   0.863   5.139   5.385
 6945SOL     OW21733   4.405   1.303   0.451
 6945SOL    HW121734   4.327   1.323   0.390
 6945SOL    HW221735   4.489   1.340   0.411
 6946SOL     OW21736   5.299   5.677   2.752
 6946SOL    HW121737   5.299   5.691   2.653
 6946SOL    HW221738   5.227   5.734   2.793
 6947SOL     OW21739   6.117   4.090   5.156
 6947SOL    HW121740   6.102   4.085   5.254
 6947SOL    HW221741   6.205   4.134   5.137
 6948SOL     OW21742   0.127   4.856   6.660
 6948SOL    HW121743   0.219   4.840   6.625
 6948SOL    HW221744   0.131   4.918   6.738
 6949SOL     OW21745   2.451   1.235   3.009
 6949SOL    HW121746   2.400   1.189   3.081
 6949SOL    HW221747   2.543   1.257   3.041
 6950SOL     OW21748   2.053   1.200   4.114
 6950SOL    HW121749   2.121   1.200   4.041
 6950SOL    HW221750   2.064   1.118   4.170
 6951SOL     OW21751   1.359   3.991   0.092
 6951SOL    HW121752   1.309   4.074   0.115
 6951SOL    HW221753   1.339   3.921   0.161
 6952SOL     OW21754   4.359   5.302   3.384
 6952SOL    HW121755   4.411   5.375   3.429
 6952SOL    HW221756   4.395   5.286   3.292
 6953SOL     OW21757   0.323   1.000   1.759
 6953SOL    HW121758   0.267   1.063   1.706
 6953SOL    HW221759   0.312   1.021   1.857
 6954SOL     OW21760   6.482   4.955   6.047
 6954SOL    HW121761   6.466   4.917   5.955
 6954SOL    HW221762   6.457   4.887   6.115
 6955SOL     OW21763   4.299   5.904   2.495
 6955SOL    HW121764   4.390   5.867   2.476
 6955SOL    HW221765   4.244   5.904   2.411
 6956SOL     OW21766   5.807   5.119   1.469
 6956SOL    HW121767   5.757   5.200   1.500
 6956SOL    HW221768   5.847   5.072   1.547
 6957SOL     OW21769   5.977   4.203   4.938
 6957SOL    HW121770   6.051   4.243   4.883
 6957SOL    HW221771   6.017   4.155   5.016
 6958SOL     OW21772   3.300   3.731   2.016
 6958SOL    HW121773   3.317   3.808   2.078
 6958SOL    HW221774   3.385   3.707   1.969
 6959SOL     OW21775   1.197   3.911   2.628
 6959SOL    HW121776   1.221   3.893   2.533
 6959SOL    HW221777   1.240   3.843   2.687
 6960SOL     OW21778   5.166   4.790   1.303
 6960SOL    HW121779   5.246   4.802   1.245
 6960SOL    HW221780   5.098   4.734   1.255
 6961SOL     OW21781   5.393   2.106   4.827
 6961SOL    HW121782   5.342   2.098   4.742
 6961SOL    HW221783   5.347   2.169   4.889
 6962SOL     OW21784   2.364   6.098   0.752
 6962SOL    HW121785   2.301   6.175   0.754
 6962SOL    HW221786   2.435   6.110   0.821
 6963SOL     OW21787   0.703   6.553   6.904
 6963SOL    HW121788   0.696   6.459   6.872
 6963SOL    HW221789   0.792   6.590   6.881
 6964SOL     OW21790   2.307   1.538   4.846
 6964SOL    HW121791   2.374   1.490   4.791
 6964SOL    HW221792   2.227   1.560   4.791
 6965SOL     OW21793   1.475   1.456   6.913
 6965SOL    HW121794   1.529   1.539   6.926
 6965SOL    HW221795   1.474   1.432   6.816
 6966SOL     OW21796   1.404   6.700   0.910
 6966SOL    HW121797   1.480   6.663   0.963
 6966SOL    HW221798   1.319   6.688   0.962
 6967SOL     OW21799   3.777   7.019   6.687
 6967SOL    HW121800   3.715   0.062   6.645
 6967SOL    HW221801   3.774   6.933   6.636
 6968SOL     OW21802   3.699   0.391   2.046
 6968SOL    HW121803   3.795   0.386   2.016
 6968SOL    HW221804   3.680   0.484   2.079
 6969SOL     OW21805   1.240   3.476   2.865
 6969SOL    HW121806   1.323   3.425   2.843
 6969SOL    HW221807   1.256   3.534   2.945
 6970SOL     OW21808   3.534   5.867   5.692
 6970SOL    HW121809   3.523   5.901   5.786
 6970SOL    HW221810   3.532   5.944   5.629
 6971SOL     OW21811   6.810   4.147   6.783
 6971SOL    HW121812   6.909   4.161   6.774
 6971SOL    HW221813   6.775   4.099   6.703
 6972SOL     OW21814   5.702   4.066   1.860
 6972SOL    HW121815   5.795   4.067   1.822
 6972SOL    HW221816   5.707   4.059   1.960
 6973SOL     OW21817   1.142   1.580   3.283
 6973SOL    HW121818   1.221   1.627   3.244
 6973SOL    HW221819   1.060   1.636   3.269
 6974SOL     OW21820   4.024   3.713   2.753
 6974SOL    HW121821   4.060   3.703   2.660
 6974SOL    HW221822   3.930   3.678   2.755
 6975SOL     OW21823   2.992   5.246   5.024
 6975SOL    HW121824   3.064   5.185   5.059
 6975SOL    HW221825   2.998   5.334   5.070
 6976SOL     OW21826   4.620   5.187   6.033
 6976SOL    HW121827   4.588   5.243   6.110
 6976SOL    HW221828   4.602   5.090   6.053
 6977SOL     OW21829   4.397   4.759   2.236
 6977SOL    HW121830   4.379   4.745   2.138
 6977SOL    HW221831   4.485   4.718   2.260
 6978SOL     OW21832   1.242   3.681   1.176
 6978SOL    HW121833   1.200   3.746   1.239
 6978SOL    HW221834   1.328   3.719   1.141
 6979SOL     OW21835   1.017   3.962   3.048
 6979SOL    HW121836   0.965   4.014   2.979
 6979SOL    HW221837   1.074   4.026   3.101
 6980SOL     OW21838   2.144   4.659   3.309
 6980SOL    HW121839   2.221   4.697   3.258
 6980SOL    HW221840   2.174   4.630   3.400
 6981SOL     OW21841   4.021   2.289   0.103
 6981SOL    HW121842   4.103   2.338   0.132
 6981SOL    HW221843   4.020   2.280   0.003
 6982SOL     OW21844   6.453   0.100   1.861
 6982SOL    HW121845   6.522   0.172   1.851
 6982SOL    HW221846   6.436   0.058   1.772
 6983SOL     OW21847   0.267   0.603   3.806
 6983SOL    HW121848   0.367   0.606   3.803
 6983SOL    HW221849   0.237   0.567   3.895
 6984SOL     OW21850   1.830   4.408   3.414
 6984SOL    HW121851   1.847   4.387   3.318
 6984SOL    HW221852   1.785   4.330   3.458
 6985SOL     OW21853   5.353   3.414   0.983
 6985SOL    HW121854   5.372   3.441   0.889
 6985SOL    HW221855   5.315   3.321   0.983
 6986SOL     OW21856   3.569   5.891   5.160
 6986SOL    HW121857   3.650   5.833   5.153
 6986SOL    HW221858   3.583   5.958   5.233
 6987SOL     OW21859   6.866   1.205   6.819
 6987SOL    HW121860   6.912   1.209   6.908
 6987SOL    HW221861   6.788   1.267   6.820
 6988SOL     OW21862   2.241   0.481   5.936
 6988SOL    HW121863   2.317   0.542   5.916
 6988SOL    HW221864   2.272   0.410   6.000
 6989SOL     OW21865   0.773   3.447   2.211
 6989SOL    HW121866   0.717   3.428   2.131
 6989SOL    HW221867   0.769   3.371   2.275
 6990SOL     OW21868   3.713   4.326   6.699
 6990SOL    HW121869   3.792   4.359   6.647
 6990SOL    HW221870   3.722   4.352   6.795
 6991SOL     OW21871   5.092   4.204   3.513
 6991SOL    HW121872   5.003   4.201   3.468
 6991SOL    HW221873   5.120   4.112   3.539
 6992SOL     OW21874   1.823   5.374   5.970
 6992SOL    HW121875   1.759   5.411   5.903
 6992SOL    HW221876   1.875   5.449   6.012
 6993SOL     OW21877   4.361   2.626   1.706
 6993SOL    HW121878   4.299   2.581   1.641
 6993SOL    HW221879   4.374   2.566   1.785
 6994SOL     OW21880   2.562   1.089   2.796
 6994SOL    HW121881   2.489   1.024   2.777
 6994SOL    HW221882   2.532   1.152   2.867
 6995SOL     OW21883   6.778   4.733   0.769
 6995SOL    HW121884   6.720   4.719   0.689
 6995SOL    HW221885   6.798   4.645   0.812
 6996SOL     OW21886   0.780   1.775   6.451
 6996SOL    HW121887   0.788   1.729   6.362
 6996SOL    HW221888   0.863   1.827   6.469
 6997SOL     OW21889   5.761   6.208   5.988
 6997SOL    HW121890   5.769   6.171   6.081
 6997SOL    HW221891   5.776   6.307   5.990
 6998SOL     OW21892   0.319   0.993   0.053
 6998SOL    HW121893   0.337   1.042   6.990
 6998SOL    HW221894   0.404   0.984   0.104
 6999SOL     OW21895   0.414   2.842   0.097
 6999SOL    HW121896   0.340   2.791   0.141
 6999SOL    HW221897   0.395   2.850   7.022
 7000SOL     OW21898   0.591   4.915   3.510
 7000SOL    HW121899   0.508   4.939   3.461
 7000SOL    HW221900   0.608   4.981   3.583
 7001SOL     OW21901   0.848   1.579   4.271
 7001SOL    HW121902   0.749   1.581   4.284
 7001SOL    HW221903   0.876   1.658   4.216
 7002SOL     OW21904   1.229   4.458   2.460
 7002SOL    HW121905   1.192   4.548   2.438
 7002SOL    HW221906   1.159   4.403   2.506
 7003SOL     OW21907   0.526   5.387   6.345
 7003SOL    HW121908   0.547   5.326   6.268
 7003SOL    HW221909   0.612   5.420   6.384
 7004SOL     OW21910   1.153   0.792   6.505
 7004SOL    HW121911   1.187   0.799   6.599
 7004SOL    HW221912   1.085   0.719   6.500
 7005SOL     OW21913   1.931   5.322   0.097
 7005SOL    HW121914   1.925   5.229   0.060
 7005SOL    HW221915   2.027   5.346   0.112
 7006SOL     OW21916   0.800   0.642   3.685
 7006SOL    HW121917   0.896   0.670   3.690
 7006SOL    HW221918   0.746   0.717   3.646
 7007SOL     OW21919   2.034   0.168   6.590
 7007SOL    HW121920   2.060   0.074   6.612
 7007SOL    HW221921   1.938   0.169   6.559
 7008SOL     OW21922   5.237   3.322   2.475
 7008SOL    HW121923   5.209   3.417   2.489
 7008SOL    HW221924   5.330   3.321   2.439
 7009SOL     OW21925   5.396   5.931   2.592
 7009SOL    HW121926   5.407   5.897   2.498
 7009SOL    HW221927   5.309   5.979   2.599
 7010SOL     OW21928   5.213   3.621   2.452
 7010SOL    HW121929   5.183   3.705   2.498
 7010SOL    HW221930   5.306   3.599   2.480
 7011SOL     OW21931   2.063   6.167   6.197
 7011SOL    HW121932   2.039   6.260   6.227
 7011SOL    HW221933   2.117   6.172   6.113
 7012SOL     OW21934   7.022   4.236   0.497
 7012SOL    HW121935   7.021   4.279   0.588
 7012SOL    HW221936   6.968   4.290   0.434
 7013SOL     OW21937   2.872   2.699   0.289
 7013SOL    HW121938   2.876   2.630   0.361
 7013SOL    HW221939   2.960   2.746   0.282
 7014SOL     OW21940   6.554   3.526   0.546
 7014SOL    HW121941   6.519   3.481   0.628
 7014SOL    HW221942   6.480   3.573   0.498
 7015SOL     OW21943   5.989   6.268   1.450
 7015SOL    HW121944   6.050   6.310   1.517
 7015SOL    HW221945   6.021   6.290   1.357
 7016SOL     OW21946   3.654   5.199   1.057
 7016SOL    HW121947   3.674   5.252   0.974
 7016SOL    HW221948   3.566   5.152   1.045
 7017SOL     OW21949   6.393   4.509   6.573
 7017SOL    HW121950   6.383   4.444   6.648
 7017SOL    HW221951   6.480   4.494   6.527
 7018SOL     OW21952   5.736   3.044   4.907
 7018SOL    HW121953   5.828   3.013   4.934
 7018SOL    HW221954   5.742   3.098   4.823
 7019SOL     OW21955   3.581   5.795   2.338
 7019SOL    HW121956   3.579   5.696   2.355
 7019SOL    HW221957   3.495   5.822   2.294
 7020SOL     OW21958   0.041   1.409   0.554
 7020SOL    HW121959   7.016   1.476   0.610
 7020SOL    HW221960   0.135   1.401   0.585
 7021SOL     OW21961   0.600   2.089   4.826
 7021SOL    HW121962   0.673   2.023   4.810
 7021SOL    HW221963   0.593   2.107   4.925
 7022SOL     OW21964   1.988   3.996   0.985
 7022SOL    HW121965   2.048   4.057   0.934
 7022SOL    HW221966   2.006   4.006   1.083
 7023SOL     OW21967   0.076   1.655   1.100
 7023SOL    HW121968   0.099   1.624   1.008
 7023SOL    HW221969   7.000   1.663   1.109
 7024SOL     OW21970   3.513   3.968   5.573
 7024SOL    HW121971   3.438   3.980   5.508
 7024SOL    HW221972   3.600   3.980   5.526
 7025SOL     OW21973   2.651   0.742   1.266
 7025SOL    HW121974   2.720   0.808   1.235
 7025SOL    HW221975   2.638   0.750   1.364
 7026SOL     OW21976   2.720   2.128   1.057
 7026SOL    HW121977   2.621   2.138   1.071
 7026SOL    HW221978   2.737   2.057   0.989
 7027SOL     OW21979   2.944   4.450   1.166
 7027SOL    HW121980   2.936   4.546   1.191
 7027SOL    HW221981   2.973   4.398   1.246
 7028SOL     OW21982   3.381   0.225   2.958
 7028SOL    HW121983   3.365   0.321   2.932
 7028SOL    HW221984   3.366   0.214   3.056
 7029SOL     OW21985   3.348   3.982   3.525
 7029SOL    HW121986   3.261   4.014   3.488
 7029SOL    HW221987   3.336   3.889   3.560
 7030SOL     OW21988   6.291   6.734   4.873
 7030SOL    HW121989   6.333   6.665   4.932
 7030SOL    HW221990   6.197   6.751   4.903
 7031SOL     OW21991   5.966   5.335   0.554
 7031SOL    HW121992   5.878   5.343   0.508
 7031SOL    HW221993   6.024   5.413   0.528
 7032SOL     OW21994   3.903   4.905   4.341
 7032SOL    HW121995   3.978   4.910   4.406
 7032SOL    HW221996   3.817   4.893   4.390
 7033SOL     OW21997   2.223   2.094   5.287
 7033SOL    HW121998   2.164   2.152   5.343
 7033SOL    HW221999   2.310   2.080   5.334
 7034SOL     OW22000   6.601   2.226   2.223
 7034SOL    HW122001   6.548   2.302   2.260
 7034SOL    HW222002   6.698   2.246   2.231
 7035SOL     OW22003   2.757   2.407   0.996
 7035SOL    HW122004   2.853   2.385   0.981
 7035SOL    HW222005   2.704   2.323   1.006
 7036SOL     OW22006   6.511   1.831   1.824
 7036SOL    HW122007   6.600   1.841   1.869
 7036SOL    HW222008   6.447   1.785   1.885
 7037SOL     OW22009   1.283   0.819   6.106
 7037SOL    HW122010   1.227   0.775   6.175
 7037SOL    HW222011   1.225   0.871   6.043
 7038SOL     OW22012   0.392   4.814   0.173
 7038SOL    HW122013   0.380   4.726   0.126
 7038SOL    HW222014   0.388   4.800   0.272
 7039SOL     OW22015   6.827   6.942   1.316
 7039SOL    HW122016   6.868   0.003   1.280
 7039SOL    HW222017   6.771   6.963   1.396
 7040SOL     OW22018   5.145   2.881   4.609
 7040SOL    HW122019   5.060   2.868   4.660
 7040SOL    HW222020   5.143   2.970   4.562
 7041SOL     OW22021   1.007   6.979   3.836
 7041SOL    HW122022   1.058   6.931   3.764
 7041SOL    HW222023   0.950   0.027   3.794
 7042SOL     OW22024   5.249   5.890   5.213
 7042SOL    HW122025   5.321   5.885   5.282
 7042SOL    HW222026   5.218   5.797   5.190
 7043SOL     OW22027   1.859   5.967   0.543
 7043SOL    HW122028   1.901   6.054   0.516
 7043SOL    HW222029   1.927   5.894   0.537
 7044SOL     OW22030   4.119   6.003   4.925
 7044SOL    HW122031   4.023   6.008   4.954
 7044SOL    HW222032   4.164   6.090   4.944
 7045SOL     OW22033   5.572   6.454   1.967
 7045SOL    HW122034   5.645   6.397   2.005
 7045SOL    HW222035   5.574   6.544   2.012
 7046SOL     OW22036   2.811   1.010   2.724
 7046SOL    HW122037   2.805   0.991   2.626
 7046SOL    HW222038   2.724   1.046   2.757
 7047SOL     OW22039   1.619   0.039   0.878
 7047SOL    HW122040   1.565   0.123   0.882
 7047SOL    HW222041   1.562   6.987   0.845
 7048SOL     OW22042   0.419   5.802   4.043
 7048SOL    HW122043   0.370   5.794   3.956
 7048SOL    HW222044   0.517   5.788   4.027
 7049SOL     OW22045   3.172   1.336   4.706
 7049SOL    HW122046   3.138   1.413   4.651
 7049SOL    HW222047   3.193   1.368   4.798
 7050SOL     OW22048   4.144   4.467   1.002
 7050SOL    HW122049   4.165   4.554   0.958
 7050SOL    HW222050   4.045   4.455   1.007
 7051SOL     OW22051   1.696   1.324   2.151
 7051SOL    HW122052   1.767   1.394   2.160
 7051SOL    HW222053   1.674   1.311   2.054
 7052SOL     OW22054   5.362   2.528   2.835
 7052SOL    HW122055   5.332   2.586   2.758
 7052SOL    HW222056   5.292   2.529   2.906
 7053SOL     OW22057   1.049   4.573   3.889
 7053SOL    HW122058   1.083   4.665   3.869
 7053SOL    HW222059   1.118   4.505   3.865
 7054SOL     OW22060   5.360   0.629   0.301
 7054SOL    HW122061   5.310   0.550   0.264
 7054SOL    HW222062   5.326   0.649   0.393
 7055SOL     OW22063   1.871   0.243   6.936
 7055SOL    HW122064   1.883   0.238   6.837
 7055SOL    HW222065   1.777   0.219   6.960
 7056SOL     OW22066   6.615   5.543   0.907
 7056SOL    HW122067   6.657   5.475   0.968
 7056SOL    HW222068   6.668   5.549   0.822
 7057SOL     OW22069   2.967   5.564   4.757
 7057SOL    HW122070   2.977   5.594   4.851
 7057SOL    HW222071   2.870   5.565   4.731
 7058SOL     OW22072   5.916   2.234   6.167
 7058SOL    HW122073   6.008   2.270   6.152
 7058SOL    HW222074   5.863   2.240   6.083
 7059SOL     OW22075   1.412   0.877   4.908
 7059SOL    HW122076   1.424   0.896   4.811
 7059SOL    HW222077   1.342   0.938   4.946
 7060SOL     OW22078   2.984   2.345   1.641
 7060SOL    HW122079   3.046   2.393   1.578
 7060SOL    HW222080   2.978   2.397   1.726
 7061SOL     OW22081   1.994   0.633   1.191
 7061SOL    HW122082   2.039   0.545   1.208
 7061SOL    HW222083   1.926   0.622   1.119
 7062SOL     OW22084   3.745   0.819   5.111
 7062SOL    HW122085   3.841   0.840   5.126
 7062SOL    HW222086   3.690   0.901   5.129
 7063SOL     OW22087   0.199   1.148   1.569
 7063SOL    HW122088   0.232   1.201   1.491
 7063SOL    HW222089   0.154   1.209   1.634
 7064SOL     OW22090   2.961   1.384   5.613
 7064SOL    HW122091   2.950   1.484   5.610
 7064SOL    HW222092   2.930   1.344   5.527
 7065SOL     OW22093   3.377   6.862   4.323
 7065SOL    HW122094   3.350   6.829   4.232
 7065SOL    HW222095   3.458   6.811   4.354
 7066SOL     OW22096   3.964   0.639   1.073
 7066SOL    HW122097   3.887   0.581   1.099
 7066SOL    HW222098   4.042   0.582   1.047
 7067SOL     OW22099   2.484   4.197   6.588
 7067SOL    HW122100   2.522   4.110   6.620
 7067SOL    HW222101   2.539   4.232   6.512
 7068SOL     OW22102   4.826   4.732   2.813
 7068SOL    HW122103   4.783   4.695   2.896
 7068SOL    HW222104   4.826   4.832   2.817
 7069SOL     OW22105   4.070   0.796   5.016
 7069SOL    HW122106   4.087   0.852   5.097
 7069SOL    HW222107   4.045   0.703   5.043
 7070SOL     OW22108   7.014   1.141   5.800
 7070SOL    HW122109   0.068   1.107   5.853
 7070SOL    HW222110   6.979   1.225   5.841
 7071SOL     OW22111   4.613   5.647   6.644
 7071SOL    HW122112   4.535   5.587   6.660
 7071SOL    HW222113   4.607   5.685   6.552
 7072SOL     OW22114   1.101   3.745   6.482
 7072SOL    HW122115   1.144   3.684   6.416
 7072SOL    HW222116   1.079   3.692   6.565
 7073SOL     OW22117   4.107   1.102   4.141
 7073SOL    HW122118   4.115   1.004   4.157
 7073SOL    HW222119   4.020   1.134   4.177
 7074SOL     OW22120   5.981   3.492   2.221
 7074SOL    HW122121   5.931   3.433   2.158
 7074SOL    HW222122   5.925   3.572   2.244
 7075SOL     OW22123   2.154   5.223   2.701
 7075SOL    HW122124   2.189   5.315   2.718
 7075SOL    HW222125   2.054   5.225   2.698
 7076SOL     OW22126   6.241   2.751   0.753
 7076SOL    HW122127   6.146   2.738   0.783
 7076SOL    HW222128   6.275   2.839   0.788
 7077SOL     OW22129   3.790   5.877   1.488
 7077SOL    HW122130   3.765   5.915   1.399
 7077SOL    HW222131   3.747   5.932   1.560
 7078SOL     OW22132   0.091   1.957   6.755
 7078SOL    HW122133   0.162   1.887   6.746
 7078SOL    HW222134   0.123   2.041   6.712
 7079SOL     OW22135   2.496   5.536   5.489
 7079SOL    HW122136   2.577   5.483   5.466
 7079SOL    HW222137   2.417   5.475   5.494
 7080SOL     OW22138   3.991   1.728   5.827
 7080SOL    HW122139   4.030   1.679   5.905
 7080SOL    HW222140   3.947   1.812   5.860
 7081SOL     OW22141   2.552   6.080   0.051
 7081SOL    HW122142   2.533   6.133   6.992
 7081SOL    HW222143   2.592   6.140   0.120
 7082SOL     OW22144   1.529   4.855   2.242
 7082SOL    HW122145   1.594   4.785   2.269
 7082SOL    HW222146   1.549   4.940   2.291
 7083SOL     OW22147   5.461   3.189   2.384
 7083SOL    HW122148   5.536   3.241   2.343
 7083SOL    HW222149   5.498   3.116   2.441
 7084SOL     OW22150   1.238   5.409   0.214
 7084SOL    HW122151   1.230   5.440   0.119
 7084SOL    HW222152   1.296   5.474   0.265
 7085SOL     OW22153   0.087   3.600   2.152
 7085SOL    HW122154   0.088   3.581   2.250
 7085SOL    HW222155   0.021   3.673   2.133
 7086SOL     OW22156   4.365   0.853   3.792
 7086SOL    HW122157   4.390   0.895   3.880
 7086SOL    HW222158   4.377   0.920   3.719
 7087SOL     OW22159   5.321   2.771   3.554
 7087SOL    HW122160   5.346   2.675   3.536
 7087SOL    HW222161   5.285   2.812   3.470
 7088SOL     OW22162   5.997   2.250   5.544
 7088SOL    HW122163   5.974   2.195   5.464
 7088SOL    HW222164   6.077   2.210   5.589
 7089SOL     OW22165   2.982   5.960   1.208
 7089SOL    HW122166   2.987   6.058   1.227
 7089SOL    HW222167   3.073   5.920   1.212
 7090SOL     OW22168   4.875   3.812   1.283
 7090SOL    HW122169   4.886   3.910   1.265
 7090SOL    HW222170   4.874   3.796   1.382
 7091SOL     OW22171   6.056   0.533   6.974
 7091SOL    HW122172   5.958   0.517   6.961
 7091SOL    HW222173   6.070   0.621   7.019
 7092SOL     OW22174   4.203   6.756   6.116
 7092SOL    HW122175   4.237   6.842   6.078
 7092SOL    HW222176   4.273   6.715   6.175
 7093SOL     OW22177   4.265   2.992   0.651
 7093SOL    HW122178   4.186   2.931   0.664
 7093SOL    HW222179   4.281   3.004   0.553
 7094SOL     OW22180   4.349   0.785   4.943
 7094SOL    HW122181   4.383   0.771   4.850
 7094SOL    HW222182   4.250   0.794   4.941
 7095SOL     OW22183   1.974   4.512   3.595
 7095SOL    HW122184   2.068   4.515   3.562
 7095SOL    HW222185   1.916   4.471   3.524
 7096SOL     OW22186   6.835   5.675   0.171
 7096SOL    HW122187   6.917   5.716   0.132
 7096SOL    HW222188   6.838   5.682   0.271
 7097SOL     OW22189   4.994   1.992   2.740
 7097SOL    HW122190   4.988   1.899   2.779
 7097SOL    HW222191   4.941   2.055   2.797
 7098SOL     OW22192   0.610   1.159   2.906
 7098SOL    HW122193   0.654   1.158   2.816
 7098SOL    HW222194   0.616   1.069   2.948
 7099SOL     OW22195   3.401   1.974   4.544
 7099SOL    HW122196   3.369   2.045   4.606
 7099SOL    HW222197   3.365   1.885   4.574
 7100SOL     OW22198   0.428   4.093   1.570
 7100SOL    HW122199   0.473   4.174   1.532
 7100SOL    HW222200   0.347   4.071   1.516
 7101SOL     OW22201   2.672   5.518   4.310
 7101SOL    HW122202   2.707   5.573   4.386
 7101SOL    HW222203   2.618   5.577   4.250
 7102SOL     OW22204   5.659   1.224   2.646
 7102SOL    HW122205   5.593   1.213   2.571
 7102SOL    HW222206   5.616   1.276   2.720
 7103SOL     OW22207   6.222   3.605   4.199
 7103SOL    HW122208   6.211   3.704   4.206
 7103SOL    HW222209   6.194   3.562   4.285
 7104SOL     OW22210   4.642   2.508   4.194
 7104SOL    HW122211   4.605   2.469   4.110
 7104SOL    HW222212   4.567   2.523   4.260
 7105SOL     OW22213   3.039   3.978   2.032
 7105SOL    HW122214   2.981   4.039   2.085
 7105SOL    HW222215   3.113   3.943   2.090
 7106SOL     OW22216   2.790   2.166   2.515
 7106SOL    HW122217   2.813   2.193   2.422
 7106SOL    HW222218   2.772   2.068   2.518
 7107SOL     OW22219   4.459   0.675   0.378
 7107SOL    HW122220   4.482   0.593   0.326
 7107SOL    HW222221   4.362   0.695   0.368
 7108SOL     OW22222   3.122   6.825   1.547
 7108SOL    HW122223   3.026   6.805   1.569
 7108SOL    HW222224   3.149   6.773   1.466
 7109SOL     OW22225   2.354   4.996   5.859
 7109SOL    HW122226   2.418   4.924   5.885
 7109SOL    HW222227   2.260   4.964   5.871
 7110SOL     OW22228   2.884   5.614   5.775
 7110SOL    HW122229   2.904   5.705   5.812
 7110SOL    HW222230   2.788   5.591   5.792
 7111SOL     OW22231   6.574   1.024   4.757
 7111SOL    HW122232   6.648   1.043   4.822
 7111SOL    HW222233   6.506   0.966   4.801
 7112SOL     OW22234   6.228   5.149   4.964
 7112SOL    HW122235   6.149   5.177   5.017
 7112SOL    HW222236   6.274   5.230   4.927
 7113SOL     OW22237   3.162   0.014   4.803
 7113SOL    HW122238   3.073   6.992   4.809
 7113SOL    HW222239   3.189   0.022   4.707
 7114SOL     OW22240   5.461   4.351   0.003
 7114SOL    HW122241   5.408   4.267   0.015
 7114SOL    HW222242   5.526   4.361   0.078
 7115SOL     OW22243   4.874   3.060   5.748
 7115SOL    HW122244   4.904   3.059   5.652
 7115SOL    HW222245   4.810   3.135   5.762
 7116SOL     OW22246   6.215   5.195   4.439
 7116SOL    HW122247   6.298   5.182   4.492
 7116SOL    HW222248   6.202   5.292   4.420
 7117SOL     OW22249   4.067   0.559   2.941
 7117SOL    HW122250   4.080   0.462   2.918
 7117SOL    HW222251   3.971   0.575   2.963
 7118SOL     OW22252   4.758   4.077   5.702
 7118SOL    HW122253   4.749   4.061   5.800
 7118SOL    HW222254   4.808   4.002   5.660
 7119SOL     OW22255   2.662   6.450   4.356
 7119SOL    HW122256   2.698   6.543   4.361
 7119SOL    HW222257   2.562   6.453   4.349
 7120SOL     OW22258   4.329   1.568   2.146
 7120SOL    HW122259   4.349   1.584   2.050
 7120SOL    HW222260   4.249   1.622   2.173
 7121SOL     OW22261   1.318   5.952   2.137
 7121SOL    HW122262   1.388   5.916   2.075
 7121SOL    HW222263   1.243   5.991   2.084
 7122SOL     OW22264   3.253   2.032   6.125
 7122SOL    HW122265   3.320   1.969   6.165
 7122SOL    HW222266   3.196   2.071   6.198
 7123SOL     OW22267   5.322   4.603   6.737
 7123SOL    HW122268   5.257   4.645   6.674
 7123SOL    HW222269   5.340   4.508   6.709
 7124SOL     OW22270   2.924   2.883   6.465
 7124SOL    HW122271   2.937   2.856   6.369
 7124SOL    HW222272   2.834   2.854   6.496
 7125SOL     OW22273   0.900   6.143   1.725
 7125SOL    HW122274   0.838   6.121   1.650
 7125SOL    HW222275   0.993   6.116   1.700
 7126SOL     OW22276   4.042   4.814   0.797
 7126SOL    HW122277   4.043   4.892   0.734
 7126SOL    HW222278   3.981   4.834   0.874
 7127SOL     OW22279   2.790   6.718   5.055
 7127SOL    HW122280   2.826   6.680   5.140
 7127SOL    HW222281   2.708   6.772   5.075
 7128SOL     OW22282   3.645   4.135   0.212
 7128SOL    HW122283   3.625   4.113   0.117
 7128SOL    HW222284   3.596   4.071   0.272
 7129SOL     OW22285   0.086   1.963   0.052
 7129SOL    HW122286   0.070   2.031   7.004
 7129SOL    HW222287   0.155   1.898   0.021
 7130SOL     OW22288   3.801   0.324   3.897
 7130SOL    HW122289   3.744   0.329   3.815
 7130SOL    HW222290   3.761   0.382   3.968
 7131SOL     OW22291   2.148   1.848   3.065
 7131SOL    HW122292   2.076   1.894   3.014
 7131SOL    HW222293   2.112   1.815   3.152
 7132SOL     OW22294   5.305   4.994   1.937
 7132SOL    HW122295   5.352   4.983   2.024
 7132SOL    HW222296   5.293   4.904   1.894
 7133SOL     OW22297   3.086   5.914   2.325
 7133SOL    HW122298   3.164   5.893   2.267
 7133SOL    HW222299   3.117   5.961   2.407
 7134SOL     OW22300   5.086   4.830   6.915
 7134SOL    HW122301   5.178   4.823   6.954
 7134SOL    HW222302   5.084   4.902   6.846
 7135SOL     OW22303   2.170   4.721   1.157
 7135SOL    HW122304   2.205   4.636   1.195
 7135SOL    HW222305   2.218   4.742   1.071
 7136SOL     OW22306   1.515   3.013   2.664
 7136SOL    HW122307   1.590   3.027   2.599
 7136SOL    HW222308   1.546   2.953   2.738
 7137SOL     OW22309   1.898   0.150   2.108
 7137SOL    HW122310   1.992   0.163   2.079
 7137SOL    HW222311   1.856   0.077   2.054
 7138SOL     OW22312   6.726   3.921   0.413
 7138SOL    HW122313   6.634   3.893   0.440
 7138SOL    HW222314   6.794   3.864   0.459
 7139SOL     OW22315   5.720   6.114   1.042
 7139SOL    HW122316   5.756   6.207   1.030
 7139SOL    HW222317   5.741   6.060   0.960
 7140SOL     OW22318   0.018   4.456   0.676
 7140SOL    HW122319   0.043   4.531   0.615
 7140SOL    HW222320   6.995   4.492   0.757
 7141SOL     OW22321   2.928   1.771   0.631
 7141SOL    HW122322   2.899   1.859   0.593
 7141SOL    HW222323   2.850   1.710   0.635
 7142SOL     OW22324   4.573   6.604   5.679
 7142SOL    HW122325   4.667   6.638   5.673
 7142SOL    HW222326   4.574   6.506   5.700
 7143SOL     OW22327   3.518   2.996   5.745
 7143SOL    HW122328   3.552   3.090   5.748
 7143SOL    HW222329   3.537   2.957   5.655
 7144SOL     OW22330   6.295   1.453   5.668
 7144SOL    HW122331   6.206   1.438   5.626
 7144SOL    HW222332   6.335   1.364   5.693
 7145SOL     OW22333   0.631   3.505   6.964
 7145SOL    HW122334   0.573   3.493   0.021
 7145SOL    HW222335   0.648   3.416   6.922
 7146SOL     OW22336   0.031   1.801   4.607
 7146SOL    HW122337   0.066   1.835   4.694
 7146SOL    HW222338   0.094   1.827   4.534
 7147SOL     OW22339   6.642   0.031   0.527
 7147SOL    HW122340   6.710   6.995   0.571
 7147SOL    HW222341   6.676   0.126   0.527
 7148SOL     OW22342   5.314   6.496   0.892
 7148SOL    HW122343   5.301   6.468   0.797
 7148SOL    HW222344   5.403   6.538   0.903
 7149SOL     OW22345   6.441   3.972   6.880
 7149SOL    HW122346   6.408   4.007   6.792
 7149SOL    HW222347   6.529   4.013   6.901
 7150SOL     OW22348   3.055   2.013   7.005
 7150SOL    HW122349   3.029   2.008   6.909
 7150SOL    HW222350   3.133   1.952   7.021
 7151SOL     OW22351   5.591   2.278   0.097
 7151SOL    HW122352   5.513   2.306   0.040
 7151SOL    HW222353   5.676   2.292   0.047
 7152SOL     OW22354   5.354   0.307   5.064
 7152SOL    HW122355   5.440   0.344   5.030
 7152SOL    HW222356   5.283   0.377   5.059
 7153SOL     OW22357   5.349   5.796   0.642
 7153SOL    HW122358   5.326   5.722   0.706
 7153SOL    HW222359   5.316   5.773   0.551
 7154SOL     OW22360   4.807   0.420   1.690
 7154SOL    HW122361   4.861   0.381   1.615
 7154SOL    HW222362   4.862   0.487   1.739
 7155SOL     OW22363   1.891   0.292   1.265
 7155SOL    HW122364   1.987   0.309   1.245
 7155SOL    HW222365   1.851   0.238   1.191
 7156SOL     OW22366   6.140   3.078   5.355
 7156SOL    HW122367   6.105   3.094   5.447
 7156SOL    HW222368   6.154   2.980   5.341
 7157SOL     OW22369   6.990   3.518   5.333
 7157SOL    HW122370   6.911   3.463   5.306
 7157SOL    HW222371   6.959   3.604   5.374
 7158SOL     OW22372   4.745   0.350   4.162
 7158SOL    HW122373   4.666   0.309   4.116
 7158SOL    HW222374   4.829   0.310   4.125
 7159SOL     OW22375   0.437   6.486   3.045
 7159SOL    HW122376   0.452   6.579   3.013
 7159SOL    HW222377   0.517   6.430   3.025
 7160SOL     OW22378   5.537   6.606   2.797
 7160SOL    HW122379   5.438   6.597   2.782
 7160SOL    HW222380   5.563   6.702   2.785
 7161SOL     OW22381   3.860   3.348   2.006
 7161SOL    HW122382   3.810   3.354   2.092
 7161SOL    HW222383   3.806   3.390   1.933
 7162SOL     OW22384   1.067   5.963   0.604
 7162SOL    HW122385   1.100   6.018   0.681
 7162SOL    HW222386   1.060   6.021   0.523
 7163SOL     OW22387   7.016   6.554   0.292
 7163SOL    HW122388   6.946   6.564   0.363
 7163SOL    HW222389   7.012   6.461   0.255
 7164SOL     OW22390   1.506   6.418   0.031
 7164SOL    HW122391   1.514   6.424   6.955
 7164SOL    HW222392   1.437   6.483   0.063
 7165SOL     OW22393   3.991   2.246   6.479
 7165SOL    HW122394   3.956   2.315   6.542
 7165SOL    HW222395   3.916   2.208   6.425
 7166SOL     OW22396   6.756   6.278   4.829
 7166SOL    HW122397   6.841   6.268   4.880
 7166SOL    HW222398   6.757   6.365   4.779
 7167SOL     OW22399   0.743   3.294   5.506
 7167SOL    HW122400   0.704   3.318   5.417
 7167SOL    HW222401   0.784   3.376   5.547
 7168SOL     OW22402   1.154   0.096   2.540
 7168SOL    HW122403   1.136   0.025   2.472
 7168SOL    HW222404   1.231   0.069   2.597
 7169SOL     OW22405   1.371   4.884   5.955
 7169SOL    HW122406   1.431   4.947   6.005
 7169SOL    HW222407   1.393   4.790   5.981
 7170SOL     OW22408   4.240   2.165   1.642
 7170SOL    HW122409   4.177   2.232   1.681
 7170SOL    HW222410   4.332   2.181   1.677
 7171SOL     OW22411   0.728   5.375   1.489
 7171SOL    HW122412   0.789   5.297   1.487
 7171SOL    HW222413   0.649   5.358   1.430
 7172SOL     OW22414   1.278   2.867   3.618
 7172SOL    HW122415   1.299   2.834   3.711
 7172SOL    HW222416   1.190   2.915   3.619
 7173SOL     OW22417   3.216   5.496   4.576
 7173SOL    HW122418   3.252   5.435   4.647
 7173SOL    HW222419   3.138   5.546   4.613
 7174SOL     OW22420   6.773   3.624   2.241
 7174SOL    HW122421   6.828   3.705   2.261
 7174SOL    HW222422   6.815   3.544   2.285
 7175SOL     OW22423   6.513   3.378   6.263
 7175SOL    HW122424   6.600   3.420   6.290
 7175SOL    HW222425   6.528   3.282   6.240
 7176SOL     OW22426   6.669   1.788   6.858
 7176SOL    HW122427   6.622   1.868   6.896
 7176SOL    HW222428   6.632   1.767   6.768
 7177SOL     OW22429   1.057   6.078   3.524
 7177SOL    HW122430   1.126   6.144   3.553
 7177SOL    HW222431   1.065   6.064   3.425
 7178SOL     OW22432   1.147   6.531   5.638
 7178SOL    HW122433   1.115   6.577   5.722
 7178SOL    HW222434   1.117   6.584   5.559
 7179SOL     OW22435   5.044   4.096   6.034
 7179SOL    HW122436   4.986   4.172   6.006
 7179SOL    HW222437   5.093   4.060   5.954
 7180SOL     OW22438   0.315   2.482   2.239
 7180SOL    HW122439   0.354   2.573   2.226
 7180SOL    HW222440   0.268   2.453   2.156
 7181SOL     OW22441   3.479   0.129   0.176
 7181SOL    HW122442   3.385   0.101   0.195
 7181SOL    HW222443   3.494   0.221   0.211
 7182SOL     OW22444   2.313   1.167   2.617
 7182SOL    HW122445   2.336   1.080   2.575
 7182SOL    HW222446   2.395   1.226   2.618
 7183SOL     OW22447   1.805   0.098   1.080
 7183SOL    HW122448   1.737   0.069   1.013
 7183SOL    HW222449   1.895   0.062   1.053
 7184SOL     OW22450   0.115   1.224   3.513
 7184SOL    HW122451   0.126   1.309   3.461
 7184SOL    HW222452   0.106   1.147   3.450
 7185SOL     OW22453   3.772   0.482   3.490
 7185SOL    HW122454   3.825   0.398   3.490
 7185SOL    HW222455   3.775   0.524   3.581
 7186SOL     OW22456   6.350   2.086   6.779
 7186SOL    HW122457   6.385   2.143   6.854
 7186SOL    HW222458   6.251   2.087   6.780
 7187SOL     OW22459   3.752   3.561   4.092
 7187SOL    HW122460   3.684   3.490   4.110
 7187SOL    HW222461   3.726   3.611   4.009
 7188SOL     OW22462   5.046   4.436   6.943
 7188SOL    HW122463   4.976   4.507   6.948
 7188SOL    HW222464   5.136   4.478   6.935
 7189SOL     OW22465   6.770   2.140   5.762
 7189SOL    HW122466   6.782   2.211   5.692
 7189SOL    HW222467   6.701   2.075   5.730
 7190SOL     OW22468   5.732   5.960   0.807
 7190SOL    HW122469   5.801   5.987   0.739
 7190SOL    HW222470   5.685   5.878   0.774
 7191SOL     OW22471   0.154   4.907   2.869
 7191SOL    HW122472   0.071   4.921   2.923
 7191SOL    HW222473   0.207   4.832   2.908
 7192SOL     OW22474   3.373   3.764   5.712
 7192SOL    HW122475   3.299   3.757   5.645
 7192SOL    HW222476   3.429   3.844   5.691
 7193SOL     OW22477   3.764   1.399   3.303
 7193SOL    HW122478   3.834   1.336   3.335
 7193SOL    HW222479   3.685   1.346   3.270
 7194SOL     OW22480   3.472   2.307   5.323
 7194SOL    HW122481   3.567   2.277   5.330
 7194SOL    HW222482   3.420   2.242   5.267
 7195SOL     OW22483   0.455   4.136   5.494
 7195SOL    HW122484   0.451   4.052   5.439
 7195SOL    HW222485   0.363   4.176   5.499
 7196SOL     OW22486   3.016   4.153   1.764
 7196SOL    HW122487   3.098   4.195   1.725
 7196SOL    HW222488   3.037   4.116   1.855
 7197SOL     OW22489   3.803   4.389   6.199
 7197SOL    HW122490   3.720   4.444   6.191
 7197SOL    HW222491   3.780   4.293   6.183
 7198SOL     OW22492   1.285   0.272   2.376
 7198SOL    HW122493   1.268   0.236   2.285
 7198SOL    HW222494   1.247   0.209   2.444
 7199SOL     OW22495   6.081   0.925   3.281
 7199SOL    HW122496   6.174   0.917   3.247
 7199SOL    HW222497   6.020   0.870   3.224
 7200SOL     OW22498   0.618   3.960   6.596
 7200SOL    HW122499   0.685   3.899   6.554
 7200SOL    HW222500   0.589   4.029   6.528
 7201SOL     OW22501   5.460   5.969   4.496
 7201SOL    HW122502   5.408   5.984   4.412
 7201SOL    HW222503   5.427   6.031   4.567
 7202SOL     OW22504   5.028   0.605   5.791
 7202SOL    HW122505   5.032   0.682   5.855
 7202SOL    HW222506   4.982   0.635   5.707
 7203SOL     OW22507   1.113   1.630   0.926
 7203SOL    HW122508   1.082   1.601   0.835
 7203SOL    HW222509   1.192   1.692   0.916
 7204SOL     OW22510   5.782   0.717   2.970
 7204SOL    HW122511   5.817   0.796   2.919
 7204SOL    HW222512   5.744   0.650   2.905
 7205SOL     OW22513   2.689   1.826   3.889
 7205SOL    HW122514   2.781   1.864   3.893
 7205SOL    HW222515   2.641   1.845   3.974
 7206SOL     OW22516   2.133   2.920   6.634
 7206SOL    HW122517   2.149   2.838   6.578
 7206SOL    HW222518   2.067   2.979   6.589
 7207SOL     OW22519   1.865   2.166   3.304
 7207SOL    HW122520   1.774   2.201   3.325
 7207SOL    HW222521   1.905   2.127   3.387
 7208SOL     OW22522   3.059   0.080   3.650
 7208SOL    HW122523   3.094   0.168   3.683
 7208SOL    HW222524   3.136   0.017   3.636
 7209SOL     OW22525   4.101   0.963   2.216
 7209SOL    HW122526   4.190   0.918   2.222
 7209SOL    HW222527   4.076   1.000   2.306
 7210SOL     OW22528   3.307   1.155   4.573
 7210SOL    HW122529   3.253   1.072   4.562
 7210SOL    HW222530   3.253   1.224   4.623
 7211SOL     OW22531   4.500   6.092   6.140
 7211SOL    HW122532   4.450   6.103   6.226
 7211SOL    HW222533   4.504   6.179   6.092
 7212SOL     OW22534   0.598   5.932   4.379
 7212SOL    HW122535   0.516   5.980   4.409
 7212SOL    HW222536   0.627   5.968   4.290
 7213SOL     OW22537   4.773   2.485   6.986
 7213SOL    HW122538   4.705   2.537   6.933
 7213SOL    HW222539   4.774   2.518   0.057
 7214SOL     OW22540   6.414   1.204   5.886
 7214SOL    HW122541   6.490   1.143   5.908
 7214SOL    HW222542   6.330   1.169   5.927
 7215SOL     OW22543   6.131   1.371   2.374
 7215SOL    HW122544   6.038   1.400   2.394
 7215SOL    HW222545   6.148   1.282   2.416
 7216SOL     OW22546   5.622   6.522   4.066
 7216SOL    HW122547   5.579   6.574   4.140
 7216SOL    HW222548   5.653   6.434   4.101
 7217SOL     OW22549   1.142   3.157   3.325
 7217SOL    HW122550   1.188   3.134   3.410
 7217SOL    HW222551   1.133   3.256   3.317
 7218SOL     OW22552   6.554   2.576   5.384
 7218SOL    HW122553   6.613   2.495   5.384
 7218SOL    HW222554   6.567   2.626   5.298
 7219SOL     OW22555   3.151   5.837   1.564
 7219SOL    HW122556   3.200   5.750   1.571
 7219SOL    HW222557   3.214   5.909   1.537
 7220SOL     OW22558   6.836   3.358   3.820
 7220SOL    HW122559   6.788   3.325   3.901
 7220SOL    HW222560   6.824   3.293   3.745
 7221SOL     OW22561   4.615   4.987   3.614
 7221SOL    HW122562   4.688   4.930   3.652
 7221SOL    HW222563   4.544   5.002   3.683
 7222SOL     OW22564   6.590   5.968   3.900
 7222SOL    HW122565   6.646   6.034   3.850
 7222SOL    HW222566   6.495   5.999   3.902
 7223SOL     OW22567   6.812   5.761   1.756
 7223SOL    HW122568   6.828   5.736   1.661
 7223SOL    HW222569   6.717   5.790   1.768
 7224SOL     OW22570   5.050   2.523   2.371
 7224SOL    HW122571   5.132   2.479   2.408
 7224SOL    HW222572   5.050   2.512   2.271
 7225SOL     OW22573   0.853   5.697   0.235
 7225SOL    HW122574   0.764   5.672   0.197
 7225SOL    HW222575   0.896   5.617   0.276
 7226SOL     OW22576   6.417   6.474   0.158
 7226SOL    HW122577   6.506   6.474   0.203
 7226SOL    HW222578   6.394   6.381   0.130
 7227SOL     OW22579   1.824   1.052   2.078
 7227SOL    HW122580   1.837   0.978   2.144
 7227SOL    HW222581   1.762   1.120   2.116
 7228SOL     OW22582   5.917   3.180   3.106
 7228SOL    HW122583   5.933   3.087   3.075
 7228SOL    HW222584   5.897   3.239   3.027
 7229SOL     OW22585   6.360   0.353   5.102
 7229SOL    HW122586   6.364   0.316   5.195
 7229SOL    HW222587   6.452   0.381   5.073
 7230SOL     OW22588   2.132   4.616   5.080
 7230SOL    HW122589   2.199   4.573   5.141
 7230SOL    HW222590   2.179   4.650   4.999
 7231SOL     OW22591   3.984   3.227   6.244
 7231SOL    HW122592   3.930   3.275   6.175
 7231SOL    HW222593   3.947   3.246   6.335
 7232SOL     OW22594   4.366   5.938   3.299
 7232SOL    HW122595   4.330   5.984   3.379
 7232SOL    HW222596   4.424   5.861   3.328
 7233SOL     OW22597   0.192   1.823   6.338
 7233SOL    HW122598   0.174   1.917   6.310
 7233SOL    HW222599   0.105   1.775   6.351
 7234SOL     OW22600   5.951   4.697   2.856
 7234SOL    HW122601   5.923   4.771   2.917
 7234SOL    HW222602   6.002   4.734   2.779
 7235SOL     OW22603   6.745   0.464   1.159
 7235SOL    HW122604   6.760   0.546   1.214
 7235SOL    HW222605   6.688   0.400   1.210
 7236SOL     OW22606   0.556   3.856   2.705
 7236SOL    HW122607   0.573   3.871   2.608
 7236SOL    HW222608   0.501   3.773   2.717
 7237SOL     OW22609   5.231   1.142   0.136
 7237SOL    HW122610   5.137   1.120   0.162
 7237SOL    HW222611   5.259   1.226   0.181
 7238SOL     OW22612   4.506   3.232   0.024
 7238SOL    HW122613   4.445   3.247   0.101
 7238SOL    HW222614   4.589   3.187   0.055
 7239SOL     OW22615   5.720   3.049   1.585
 7239SOL    HW122616   5.765   3.117   1.527
 7239SOL    HW222617   5.665   2.987   1.528
 7240SOL     OW22618   0.227   2.135   0.240
 7240SOL    HW122619   0.180   2.060   0.194
 7240SOL    HW222620   0.205   2.133   0.338
 7241SOL     OW22621   2.063   0.361   2.738
 7241SOL    HW122622   2.058   0.269   2.777
 7241SOL    HW222623   1.977   0.381   2.691
 7242SOL     OW22624   6.290   4.071   5.679
 7242SOL    HW122625   6.321   4.145   5.738
 7242SOL    HW222626   6.228   4.012   5.730
 7243SOL     OW22627   6.080   4.734   6.248
 7243SOL    HW122628   5.981   4.729   6.265
 7243SOL    HW222629   6.098   4.715   6.152
 7244SOL     OW22630   6.747   6.069   6.518
 7244SOL    HW122631   6.652   6.059   6.488
 7244SOL    HW222632   6.793   5.981   6.515
 7245SOL     OW22633   1.357   2.221   7.004
 7245SOL    HW122634   1.306   2.197   0.064
 7245SOL    HW222635   1.437   2.162   6.996
 7246SOL     OW22636   4.401   6.621   4.040
 7246SOL    HW122637   4.469   6.626   4.114
 7246SOL    HW222638   4.312   6.596   4.078
 7247SOL     OW22639   3.398   4.054   5.026
 7247SOL    HW122640   3.467   4.102   4.973
 7247SOL    HW222641   3.434   4.034   5.117
 7248SOL     OW22642   2.436   1.537   5.118
 7248SOL    HW122643   2.400   1.528   5.025
 7248SOL    HW222644   2.400   1.621   5.159
 7249SOL     OW22645   2.985   5.716   2.661
 7249SOL    HW122646   2.914   5.786   2.668
 7249SOL    HW222647   3.075   5.758   2.676
 7250SOL     OW22648   5.299   5.538   5.905
 7250SOL    HW122649   5.282   5.513   5.810
 7250SOL    HW222650   5.378   5.486   5.939
 7251SOL     OW22651   0.694   6.054   4.147
 7251SOL    HW122652   0.766   6.038   4.080
 7251SOL    HW222653   0.721   6.130   4.207
 7252SOL     OW22654   3.893   3.890   2.263
 7252SOL    HW122655   3.826   3.840   2.318
 7252SOL    HW222656   3.984   3.851   2.278
 7253SOL     OW22657   2.074   5.432   5.198
 7253SOL    HW122658   2.094   5.470   5.108
 7253SOL    HW222659   1.975   5.415   5.206
 7254SOL     OW22660   6.802   3.269   4.103
 7254SOL    HW122661   6.738   3.197   4.077
 7254SOL    HW222662   6.804   3.278   4.203
 7255SOL     OW22663   4.451   4.039   0.342
 7255SOL    HW122664   4.424   4.000   0.430
 7255SOL    HW222665   4.535   3.996   0.310
 7256SOL     OW22666   3.084   6.750   4.156
 7256SOL    HW122667   3.090   6.689   4.235
 7256SOL    HW222668   3.035   6.705   4.082
 7257SOL     OW22669   0.890   1.005   5.292
 7257SOL    HW122670   0.947   1.036   5.216
 7257SOL    HW222671   0.827   1.078   5.319
 7258SOL     OW22672   5.929   2.679   2.630
 7258SOL    HW122673   5.927   2.714   2.537
 7258SOL    HW222674   6.021   2.643   2.650
 7259SOL     OW22675   0.974   4.271   2.426
 7259SOL    HW122676   0.909   4.200   2.397
 7259SOL    HW222677   1.004   4.324   2.347
 7260SOL     OW22678   6.273   3.205   1.119
 7260SOL    HW122679   6.288   3.300   1.146
 7260SOL    HW222680   6.360   3.156   1.116
 7261SOL     OW22681   0.523   4.301   0.012
 7261SOL    HW122682   0.602   4.349   0.049
 7261SOL    HW222683   0.540   4.278   6.939
 7262SOL     OW22684   3.702   0.516   5.205
 7262SOL    HW122685   3.628   0.487   5.144
 7262SOL    HW222686   3.706   0.616   5.207
 7263SOL     OW22687   6.265   5.516   5.207
 7263SOL    HW122688   6.284   5.427   5.249
 7263SOL    HW222689   6.270   5.507   5.107
 7264SOL     OW22690   5.647   1.129   1.697
 7264SOL    HW122691   5.577   1.057   1.695
 7264SOL    HW222692   5.669   1.157   1.603
 7265SOL     OW22693   3.726   0.212   5.880
 7265SOL    HW122694   3.720   0.165   5.968
 7265SOL    HW222695   3.752   0.146   5.809
 7266SOL     OW22696   6.658   0.916   3.242
 7266SOL    HW122697   6.733   0.894   3.305
 7266SOL    HW222698   6.651   1.015   3.231
 7267SOL     OW22699   6.791   3.809   5.201
 7267SOL    HW122700   6.888   3.809   5.177
 7267SOL    HW222701   6.759   3.714   5.211
 7268SOL     OW22702   5.560   6.329   4.351
 7268SOL    HW122703   5.625   6.328   4.275
 7268SOL    HW222704   5.602   6.289   4.432
 7269SOL     OW22705   2.845   5.349   4.194
 7269SOL    HW122706   2.782   5.402   4.251
 7269SOL    HW222707   2.792   5.285   4.138
 7270SOL     OW22708   0.207   0.494   4.693
 7270SOL    HW122709   0.306   0.511   4.688
 7270SOL    HW222710   0.175   0.459   4.606
 7271SOL     OW22711   0.756   4.759   3.052
 7271SOL    HW122712   0.816   4.807   3.116
 7271SOL    HW222713   0.680   4.818   3.026
 7272SOL     OW22714   5.856   4.357   1.545
 7272SOL    HW122715   5.871   4.260   1.563
 7272SOL    HW222716   5.779   4.368   1.482
 7273SOL     OW22717   0.199   1.389   5.025
 7273SOL    HW122718   0.286   1.347   4.997
 7273SOL    HW222719   0.127   1.320   5.021
 7274SOL     OW22720   0.167   5.365   6.153
 7274SOL    HW122721   0.072   5.339   6.136
 7274SOL    HW222722   0.228   5.301   6.106
 7275SOL     OW22723   0.738   5.203   3.342
 7275SOL    HW122724   0.821   5.232   3.295
 7275SOL    HW222725   0.714   5.270   3.411
 7276SOL     OW22726   4.666   6.240   3.467
 7276SOL    HW122727   4.653   6.189   3.381
 7276SOL    HW222728   4.652   6.337   3.450
 7277SOL     OW22729   5.160   0.856   0.537
 7277SOL    HW122730   5.205   0.767   0.530
 7277SOL    HW222731   5.203   0.910   0.609
 7278SOL     OW22732   3.581   2.951   2.487
 7278SOL    HW122733   3.672   2.971   2.524
 7278SOL    HW222734   3.589   2.922   2.392
 7279SOL     OW22735   3.720   6.589   6.091
 7279SOL    HW122736   3.703   6.516   6.157
 7279SOL    HW222737   3.674   6.567   6.005
 7280SOL     OW22738   4.860   1.116   6.243
 7280SOL    HW122739   4.919   1.166   6.307
 7280SOL    HW222740   4.773   1.164   6.234
 7281SOL     OW22741   5.578   1.262   6.083
 7281SOL    HW122742   5.535   1.297   6.166
 7281SOL    HW222743   5.526   1.183   6.049
 7282SOL     OW22744   5.789   5.947   2.648
 7282SOL    HW122745   5.806   6.009   2.571
 7282SOL    HW222746   5.700   5.966   2.688
 7283SOL     OW22747   2.136   1.509   3.745
 7283SOL    HW122748   2.179   1.512   3.655
 7283SOL    HW222749   2.038   1.526   3.735
 7284SOL     OW22750   1.559   1.860   5.417
 7284SOL    HW122751   1.612   1.863   5.333
 7284SOL    HW222752   1.477   1.805   5.403
 7285SOL     OW22753   6.087   5.238   1.812
 7285SOL    HW122754   6.088   5.201   1.905
 7285SOL    HW222755   6.000   5.283   1.795
 7286SOL     OW22756   1.778   3.970   0.811
 7286SOL    HW122757   1.701   4.028   0.838
 7286SOL    HW222758   1.851   3.978   0.879
 7287SOL     OW22759   6.410   1.688   5.715
 7287SOL    HW122760   6.375   1.598   5.688
 7287SOL    HW222761   6.375   1.758   5.653
 7288SOL     OW22762   2.842   0.259   0.127
 7288SOL    HW122763   2.928   0.304   0.150
 7288SOL    HW222764   2.772   0.284   0.194
 7289SOL     OW22765   4.424   2.079   4.072
 7289SOL    HW122766   4.412   2.160   4.130
 7289SOL    HW222767   4.382   2.095   3.983
 7290SOL     OW22768   2.532   5.705   4.578
 7290SOL    HW122769   2.580   5.671   4.659
 7290SOL    HW222770   2.585   5.779   4.537
 7291SOL     OW22771   3.615   4.477   1.365
 7291SOL    HW122772   3.658   4.499   1.452
 7291SOL    HW222773   3.521   4.512   1.364
 7292SOL     OW22774   3.617   0.014   4.532
 7292SOL    HW122775   3.577   0.029   4.442
 7292SOL    HW222776   3.716   0.004   4.523
 7293SOL     OW22777   2.162   1.217   6.613
 7293SOL    HW122778   2.249   1.204   6.566
 7293SOL    HW222779   2.179   1.227   6.711
 7294SOL     OW22780   5.608   5.399   0.004
 7294SOL    HW122781   5.573   5.479   6.980
 7294SOL    HW222782   5.630   5.328   6.960
 7295SOL     OW22783   4.489   0.082   1.574
 7295SOL    HW122784   4.546   0.158   1.543
 7295SOL    HW222785   4.396   0.095   1.541
 7296SOL     OW22786   4.399   5.450   1.132
 7296SOL    HW122787   4.465   5.491   1.069
 7296SOL    HW222788   4.310   5.442   1.087
 7297SOL     OW22789   4.878   6.689   2.097
 7297SOL    HW122790   4.946   6.731   2.157
 7297SOL    HW222791   4.811   6.758   2.069
 7298SOL     OW22792   6.472   3.259   4.236
 7298SOL    HW122793   6.391   3.268   4.294
 7298SOL    HW222794   6.443   3.243   4.141
 7299SOL     OW22795   5.861   3.463   6.880
 7299SOL    HW122796   5.867   3.419   6.790
 7299SOL    HW222797   5.765   3.485   6.900
 7300SOL     OW22798   4.632   5.883   1.503
 7300SOL    HW122799   4.687   5.894   1.421
 7300SOL    HW222800   4.598   5.971   1.534
 7301SOL     OW22801   6.702   1.531   6.428
 7301SOL    HW122802   6.692   1.583   6.343
 7301SOL    HW222803   6.749   1.445   6.409
 7302SOL     OW22804   5.778   0.899   6.173
 7302SOL    HW122805   5.835   0.932   6.097
 7302SOL    HW222806   5.827   0.914   6.259
 7303SOL     OW22807   4.194   0.712   0.812
 7303SOL    HW122808   4.141   0.784   0.858
 7303SOL    HW222809   4.195   0.630   0.869
 7304SOL     OW22810   3.726   2.995   5.065
 7304SOL    HW122811   3.665   2.915   5.075
 7304SOL    HW222812   3.812   2.977   5.112
 7305SOL     OW22813   5.713   1.923   0.327
 7305SOL    HW122814   5.642   1.877   0.381
 7305SOL    HW222815   5.707   2.022   0.341
 7306SOL     OW22816   4.875   4.813   2.153
 7306SOL    HW122817   4.812   4.761   2.211
 7306SOL    HW222818   4.941   4.750   2.111
 7307SOL     OW22819   4.506   6.338   2.122
 7307SOL    HW122820   4.462   6.313   2.035
 7307SOL    HW222821   4.437   6.340   2.195
 7308SOL     OW22822   6.111   0.836   4.372
 7308SOL    HW122823   6.159   0.824   4.285
 7308SOL    HW222824   6.058   0.920   4.369
 7309SOL     OW22825   4.260   5.286   1.483
 7309SOL    HW122826   4.208   5.344   1.420
 7309SOL    HW222827   4.332   5.341   1.526
 7310SOL     OW22828   1.917   5.700   1.650
 7310SOL    HW122829   1.992   5.660   1.596
 7310SOL    HW222830   1.931   5.678   1.747
 7311SOL     OW22831   2.832   1.890   1.913
 7311SOL    HW122832   2.737   1.907   1.885
 7311SOL    HW222833   2.886   1.972   1.898
 7312SOL     OW22834   6.772   2.492   6.354
 7312SOL    HW122835   6.742   2.494   6.259
 7312SOL    HW222836   6.750   2.403   6.394
 7313SOL     OW22837   3.538   2.237   6.380
 7313SOL    HW122838   3.521   2.292   6.461
 7313SOL    HW222839   3.506   2.286   6.299
 7314SOL     OW22840   1.156   2.378   4.529
 7314SOL    HW122841   1.224   2.439   4.571
 7314SOL    HW222842   1.069   2.386   4.578
 7315SOL     OW22843   0.101   0.775   5.945
 7315SOL    HW122844   0.124   0.734   5.857
 7315SOL    HW222845   0.004   0.760   5.964
 7316SOL     OW22846   3.901   2.983   4.717
 7316SOL    HW122847   3.834   3.038   4.768
 7316SOL    HW222848   3.987   2.981   4.768
 7317SOL     OW22849   2.827   1.051   4.006
 7317SOL    HW122850   2.848   1.134   4.057
 7317SOL    HW222851   2.854   0.971   4.059
 7318SOL     OW22852   1.137   1.465   1.270
 7318SOL    HW122853   1.209   1.399   1.292
 7318SOL    HW222854   1.113   1.458   1.174
 7319SOL     OW22855   0.386   4.270   6.250
 7319SOL    HW122856   0.326   4.191   6.256
 7319SOL    HW222857   0.339   4.351   6.286
 7320SOL     OW22858   0.518   1.859   2.521
 7320SOL    HW122859   0.505   1.778   2.577
 7320SOL    HW222860   0.598   1.847   2.463
 7321SOL     OW22861   2.792   1.509   3.889
 7321SOL    HW122862   2.768   1.592   3.838
 7321SOL    HW222863   2.889   1.490   3.878
 7322SOL     OW22864   0.526   3.466   1.519
 7322SOL    HW122865   0.588   3.490   1.594
 7322SOL    HW222866   0.576   3.410   1.452
 7323SOL     OW22867   2.297   4.106   3.125
 7323SOL    HW122868   2.321   4.169   3.051
 7323SOL    HW222869   2.232   4.038   3.090
 7324SOL     OW22870   5.064   4.927   3.146
 7324SOL    HW122871   5.153   4.887   3.169
 7324SOL    HW222872   4.996   4.896   3.212
 7325SOL     OW22873   3.022   5.841   0.478
 7325SOL    HW122874   3.095   5.774   0.486
 7325SOL    HW222875   3.016   5.894   0.562
 7326SOL     OW22876   2.468   0.652   4.263
 7326SOL    HW122877   2.487   0.692   4.173
 7326SOL    HW222878   2.388   0.696   4.303
 7327SOL     OW22879   1.311   3.209   5.537
 7327SOL    HW122880   1.331   3.157   5.620
 7327SOL    HW222881   1.334   3.153   5.457
 7328SOL     OW22882   2.000   6.906   6.687
 7328SOL    HW122883   1.990   6.939   6.781
 7328SOL    HW222884   1.934   6.832   6.671
 7329SOL     OW22885   4.638   3.607   1.645
 7329SOL    HW122886   4.614   3.704   1.640
 7329SOL    HW222887   4.555   3.551   1.638
 7330SOL     OW22888   4.435   1.880   0.795
 7330SOL    HW122889   4.441   1.812   0.868
 7330SOL    HW222890   4.421   1.833   0.708
 7331SOL     OW22891   4.807   1.568   1.608
 7331SOL    HW122892   4.889   1.529   1.650
 7331SOL    HW222893   4.831   1.653   1.562
 7332SOL     OW22894   3.553   6.267   0.514
 7332SOL    HW122895   3.485   6.336   0.540
 7332SOL    HW222896   3.577   6.213   0.595
 7333SOL     OW22897   0.487   4.848   2.729
 7333SOL    HW122898   0.485   4.857   2.828
 7333SOL    HW222899   0.438   4.925   2.687
 7334SOL     OW22900   3.249   0.206   4.400
 7334SOL    HW122901   3.237   0.204   4.301
 7334SOL    HW222902   3.281   0.116   4.431
 7335SOL     OW22903   2.184   3.291   2.811
 7335SOL    HW122904   2.095   3.333   2.825
 7335SOL    HW222905   2.188   3.205   2.863
 7336SOL     OW22906   1.876   6.384   4.003
 7336SOL    HW122907   1.847   6.295   4.038
 7336SOL    HW222908   1.948   6.421   4.063
 7337SOL     OW22909   4.896   2.497   1.807
 7337SOL    HW122910   4.815   2.551   1.782
 7337SOL    HW222911   4.969   2.514   1.741
 7338SOL     OW22912   7.011   3.377   0.227
 7338SOL    HW122913   0.028   3.455   0.275
 7338SOL    HW222914   6.940   3.410   0.164
 7339SOL     OW22915   1.128   5.692   4.910
 7339SOL    HW122916   1.100   5.597   4.898
 7339SOL    HW222917   1.226   5.701   4.890
 7340SOL     OW22918   2.737   6.429   7.003
 7340SOL    HW122919   2.773   6.521   6.992
 7340SOL    HW222920   2.671   6.427   0.055
 7341SOL     OW22921   6.708   2.209   1.044
 7341SOL    HW122922   6.803   2.196   1.015
 7341SOL    HW222923   6.648   2.205   0.964
 7342SOL     OW22924   1.060   6.080   2.091
 7342SOL    HW122925   1.077   6.174   2.061
 7342SOL    HW222926   0.986   6.080   2.158
 7343SOL     OW22927   6.094   3.093   0.372
 7343SOL    HW122928   6.168   3.049   0.421
 7343SOL    HW222929   6.130   3.140   0.291
 7344SOL     OW22930   2.550   6.593   6.131
 7344SOL    HW122931   2.584   6.543   6.051
 7344SOL    HW222932   2.493   6.670   6.100
 7345SOL     OW22933   3.813   5.783   5.710
 7345SOL    HW122934   3.725   5.808   5.670
 7345SOL    HW222935   3.883   5.847   5.679
 7346SOL     OW22936   4.047   5.200   2.161
 7346SOL    HW122937   3.997   5.247   2.089
 7346SOL    HW222938   3.984   5.151   2.220
 7347SOL     OW22939   6.036   1.322   0.256
 7347SOL    HW122940   6.048   1.277   0.167
 7347SOL    HW222941   6.028   1.420   0.242
 7348SOL     OW22942   6.822   5.333   0.186
 7348SOL    HW122943   6.739   5.380   0.215
 7348SOL    HW222944   6.809   5.294   0.095
 7349SOL     OW22945   3.932   1.781   1.419
 7349SOL    HW122946   3.911   1.727   1.500
 7349SOL    HW222947   4.007   1.844   1.440
 7350SOL     OW22948   3.714   1.098   4.407
 7350SOL    HW122949   3.719   1.073   4.504
 7350SOL    HW222950   3.626   1.071   4.369
 7351SOL     OW22951   2.204   4.548   3.777
 7351SOL    HW122952   2.106   4.528   3.774
 7351SOL    HW222953   2.246   4.521   3.690
 7352SOL     OW22954   5.788   3.158   4.235
 7352SOL    HW122955   5.883   3.187   4.224
 7352SOL    HW222956   5.762   3.166   4.331
 7353SOL     OW22957   6.142   0.869   5.361
 7353SOL    HW122958   6.075   0.922   5.413
 7353SOL    HW222959   6.163   0.915   5.276
 7354SOL     OW22960   0.972   1.715   2.938
 7354SOL    HW122961   0.882   1.706   2.895
 7354SOL    HW222962   1.007   1.624   2.961
 7355SOL     OW22963   3.365   1.691   0.753
 7355SOL    HW122964   3.351   1.683   0.654
 7355SOL    HW222965   3.278   1.675   0.800
 7356SOL     OW22966   4.371   4.247   6.140
 7356SOL    HW122967   4.470   4.250   6.160
 7356SOL    HW222968   4.341   4.336   6.107
 7357SOL     OW22969   4.928   6.394   1.827
 7357SOL    HW122970   5.002   6.350   1.878
 7357SOL    HW222971   4.885   6.465   1.884
 7358SOL     OW22972   4.686   0.120   3.217
 7358SOL    HW122973   4.662   0.023   3.220
 7358SOL    HW222974   4.628   0.166   3.150
 7359SOL     OW22975   3.885   6.806   2.314
 7359SOL    HW122976   3.892   6.711   2.343
 7359SOL    HW222977   3.975   6.849   2.317
 7360SOL     OW22978   2.785   3.612   5.290
 7360SOL    HW122979   2.817   3.518   5.302
 7360SOL    HW222980   2.769   3.630   5.193
 7361SOL     OW22981   6.652   0.483   3.155
 7361SOL    HW122982   6.677   0.518   3.245
 7361SOL    HW222983   6.553   0.488   3.144
 7362SOL     OW22984   3.570   5.736   0.373
 7362SOL    HW122985   3.538   5.724   0.467
 7362SOL    HW222986   3.517   5.677   0.312
 7363SOL     OW22987   4.277   0.880   1.150
 7363SOL    HW122988   4.367   0.924   1.149
 7363SOL    HW222989   4.221   0.916   1.075
 7364SOL     OW22990   6.274   6.270   1.831
 7364SOL    HW122991   6.262   6.238   1.737
 7364SOL    HW222992   6.187   6.305   1.865
 7365SOL     OW22993   4.870   3.688   2.598
 7365SOL    HW122994   4.862   3.613   2.533
 7365SOL    HW222995   4.790   3.689   2.659
 7366SOL     OW22996   2.504   0.304   3.510
 7366SOL    HW122997   2.521   0.233   3.578
 7366SOL    HW222998   2.562   0.384   3.528
 7367SOL     OW22999   4.525   1.150   6.807
 7367SOL    HW123000   4.498   1.081   6.874
 7367SOL    HW223001   4.485   1.238   6.833
 7368SOL     OW23002   2.907   3.343   3.431
 7368SOL    HW123003   2.819   3.381   3.400
 7368SOL    HW223004   2.953   3.299   3.353
 7369SOL     OW23005   5.917   3.987   6.978
 7369SOL    HW123006   5.903   4.051   6.902
 7369SOL    HW223007   5.844   3.919   6.978
 7370SOL     OW23008   1.885   1.297   4.667
 7370SOL    HW123009   1.853   1.202   4.664
 7370SOL    HW223010   1.956   1.311   4.599
 7371SOL     OW23011   3.954   0.723   3.490
 7371SOL    HW123012   3.876   0.687   3.438
 7371SOL    HW223013   3.932   0.721   3.587
 7372SOL     OW23014   5.012   0.970   5.412
 7372SOL    HW123015   4.963   1.039   5.360
 7372SOL    HW223016   5.006   0.882   5.366
 7373SOL     OW23017   5.962   3.056   4.513
 7373SOL    HW123018   5.932   2.962   4.528
 7373SOL    HW223019   6.031   3.058   4.442
 7374SOL     OW23020   0.783   2.375   6.517
 7374SOL    HW123021   0.766   2.456   6.461
 7374SOL    HW223022   0.876   2.377   6.552
 7375SOL     OW23023   2.218   2.965   0.397
 7375SOL    HW123024   2.177   2.980   0.307
 7375SOL    HW223025   2.154   2.992   0.468
 7376SOL     OW23026   6.560   4.952   0.398
 7376SOL    HW123027   6.506   4.880   0.355
 7376SOL    HW223028   6.507   4.993   0.472
 7377SOL     OW23029   2.666   5.679   0.914
 7377SOL    HW123030   2.709   5.737   0.982
 7377SOL    HW223031   2.567   5.675   0.930
 7378SOL     OW23032   1.910   5.183   5.611
 7378SOL    HW123033   1.828   5.169   5.666
 7378SOL    HW223034   1.900   5.131   5.525
 7379SOL     OW23035   4.881   1.935   2.396
 7379SOL    HW123036   4.916   1.846   2.426
 7379SOL    HW223037   4.794   1.954   2.441
 7380SOL     OW23038   5.301   3.670   1.721
 7380SOL    HW123039   5.280   3.647   1.816
 7380SOL    HW223040   5.241   3.618   1.659
 7381SOL     OW23041   3.765   6.616   2.010
 7381SOL    HW123042   3.668   6.643   2.007
 7381SOL    HW223043   3.820   6.697   2.033
 7382SOL     OW23044   0.359   2.254   6.410
 7382SOL    HW123045   0.383   2.195   6.487
 7382SOL    HW223046   0.280   2.215   6.362
 7383SOL     OW23047   2.094   6.705   0.820
 7383SOL    HW123048   2.058   6.794   0.792
 7383SOL    HW223049   2.194   6.711   0.828
 7384SOL     OW23050   6.654   6.737   0.180
 7384SOL    HW123051   6.594   6.789   0.118
 7384SOL    HW223052   6.747   6.737   0.144
 7385SOL     OW23053   6.342   4.568   3.168
 7385SOL    HW123054   6.292   4.522   3.242
 7385SOL    HW223055   6.438   4.541   3.171
 7386SOL     OW23056   6.076   4.469   6.961
 7386SOL    HW123057   6.092   4.488   6.864
 7386SOL    HW223058   6.140   4.399   6.992
 7387SOL     OW23059   6.733   5.521   3.821
 7387SOL    HW123060   6.675   5.456   3.771
 7387SOL    HW223061   6.741   5.606   3.768
 7388SOL     OW23062   2.622   4.591   2.690
 7388SOL    HW123063   2.697   4.657   2.700
 7388SOL    HW223064   2.603   4.577   2.593
 7389SOL     OW23065   6.384   2.985   0.824
 7389SOL    HW123066   6.464   2.929   0.802
 7389SOL    HW223067   6.397   3.029   0.912
 7390SOL     OW23068   3.195   2.145   3.505
 7390SOL    HW123069   3.205   2.054   3.544
 7390SOL    HW223070   3.150   2.206   3.570
 7391SOL     OW23071   3.370   4.174   3.016
 7391SOL    HW123072   3.457   4.126   3.023
 7391SOL    HW223073   3.317   4.158   3.100
 7392SOL     OW23074   3.445   6.636   0.849
 7392SOL    HW123075   3.437   6.672   0.756
 7392SOL    HW223076   3.363   6.660   0.901
 7393SOL     OW23077   5.302   5.649   3.109
 7393SOL    HW123078   5.293   5.579   3.038
 7393SOL    HW223079   5.272   5.737   3.073
 7394SOL     OW23080   2.145   2.198   5.950
 7394SOL    HW123081   2.085   2.150   6.014
 7394SOL    HW223082   2.240   2.182   5.977
 7395SOL     OW23083   2.906   6.203   1.380
 7395SOL    HW123084   2.910   6.126   1.444
 7395SOL    HW223085   2.927   6.288   1.428
 7396SOL     OW23086   1.442   4.972   2.016
 7396SOL    HW123087   1.455   4.903   2.087
 7396SOL    HW223088   1.416   5.059   2.059
 7397SOL     OW23089   5.855   4.513   4.058
 7397SOL    HW123090   5.820   4.444   3.996
 7397SOL    HW223091   5.869   4.599   4.008
 7398SOL     OW23092   2.997   5.086   2.238
 7398SOL    HW123093   2.993   4.987   2.249
 7398SOL    HW223094   3.008   5.109   2.142
 7399SOL     OW23095   6.080   1.726   5.466
 7399SOL    HW123096   6.003   1.758   5.410
 7399SOL    HW223097   6.087   1.626   5.459
 7400SOL     OW23098   4.131   3.377   5.569
 7400SOL    HW123099   4.223   3.373   5.608
 7400SOL    HW223100   4.121   3.463   5.518
 7401SOL     OW23101   1.642   2.306   3.889
 7401SOL    HW123102   1.549   2.314   3.854
 7401SOL    HW223103   1.702   2.272   3.816
 7402SOL     OW23104   3.304   5.430   4.328
 7402SOL    HW123105   3.261   5.457   4.415
 7402SOL    HW223106   3.363   5.504   4.296
 7403SOL     OW23107   1.796   4.408   4.059
 7403SOL    HW123108   1.837   4.325   4.022
 7403SOL    HW223109   1.868   4.472   4.086
 7404SOL     OW23110   2.261   3.870   0.812
 7404SOL    HW123111   2.181   3.823   0.848
 7404SOL    HW223112   2.344   3.835   0.855
 7405SOL     OW23113   3.906   6.578   5.760
 7405SOL    HW123114   3.823   6.528   5.786
 7405SOL    HW223115   3.901   6.602   5.662
 7406SOL     OW23116   0.464   2.601   4.463
 7406SOL    HW123117   0.530   2.593   4.389
 7406SOL    HW223118   0.372   2.586   4.428
 7407SOL     OW23119   0.898   6.558   5.379
 7407SOL    HW123120   0.873   6.512   5.464
 7407SOL    HW223121   0.976   6.619   5.395
 7408SOL     OW23122   4.428   5.432   5.452
 7408SOL    HW123123   4.518   5.389   5.446
 7408SOL    HW223124   4.362   5.364   5.484
 7409SOL     OW23125   6.228   5.042   1.627
 7409SOL    HW123126   6.197   5.001   1.541
 7409SOL    HW223127   6.161   5.108   1.659
 7410SOL     OW23128   6.480   0.848   1.228
 7410SOL    HW123129   6.572   0.888   1.227
 7410SOL    HW223130   6.436   0.866   1.140
 7411SOL     OW23131   3.855   1.899   5.438
 7411SOL    HW123132   3.795   1.870   5.363
 7411SOL    HW223133   3.897   1.818   5.480
 7412SOL     OW23134   4.305   6.965   0.210
 7412SOL    HW123135   4.257   0.023   0.177
 7412SOL    HW223136   4.312   6.898   0.136
 7413SOL     OW23137   5.270   0.819   3.565
 7413SOL    HW123138   5.219   0.904   3.552
 7413SOL    HW223139   5.351   0.837   3.621
 7414SOL     OW23140   2.643   1.198   3.814
 7414SOL    HW123141   2.727   1.176   3.863
 7414SOL    HW223142   2.564   1.180   3.873
 7415SOL     OW23143   3.836   0.282   6.545
 7415SOL    HW123144   3.825   0.377   6.514
 7415SOL    HW223145   3.831   0.279   6.645
 7416SOL     OW23146   1.262   0.536   1.507
 7416SOL    HW123147   1.226   0.574   1.593
 7416SOL    HW223148   1.278   0.610   1.442
 7417SOL     OW23149   0.232   0.367   2.317
 7417SOL    HW123150   0.227   0.286   2.258
 7417SOL    HW223151   0.323   0.372   2.359
 7418SOL     OW23152   1.472   3.563   6.078
 7418SOL    HW123153   1.522   3.565   5.991
 7418SOL    HW223154   1.384   3.609   6.067
 7419SOL     OW23155   6.317   3.190   4.484
 7419SOL    HW123156   6.370   3.207   4.567
 7419SOL    HW223157   6.289   3.094   4.481
 7420SOL     OW23158   0.040   6.649   0.789
 7420SOL    HW123159   0.087   6.582   0.847
 7420SOL    HW223160   0.060   6.741   0.822
 7421SOL     OW23161   6.077   3.711   1.355
 7421SOL    HW123162   6.108   3.804   1.374
 7421SOL    HW223163   6.104   3.651   1.431
 7422SOL     OW23164   5.410   3.373   1.429
 7422SOL    HW123165   5.312   3.391   1.440
 7422SOL    HW223166   5.423   3.280   1.395
 7423SOL     OW23167   4.744   2.571   6.209
 7423SOL    HW123168   4.737   2.481   6.166
 7423SOL    HW223169   4.770   2.561   6.305
 7424SOL     OW23170   0.467   2.294   4.245
 7424SOL    HW123171   0.538   2.358   4.276
 7424SOL    HW223172   0.409   2.268   4.322
 7425SOL     OW23173   5.529   0.231   1.304
 7425SOL    HW123174   5.505   0.289   1.226
 7425SOL    HW223175   5.553   0.289   1.382
 7426SOL     OW23176   3.382   3.119   5.387
 7426SOL    HW123177   3.398   3.098   5.291
 7426SOL    HW223178   3.454   3.078   5.443
 7427SOL     OW23179   2.617   0.337   2.511
 7427SOL    HW123180   2.531   0.387   2.501
 7427SOL    HW223181   2.685   0.397   2.554
 7428SOL     OW23182   2.603   0.075   5.095
 7428SOL    HW123183   2.623   0.172   5.082
 7428SOL    HW223184   2.566   0.059   5.186
 7429SOL     OW23185   1.164   0.969   2.431
 7429SOL    HW123186   1.129   0.878   2.452
 7429SOL    HW223187   1.090   1.036   2.440
 7430SOL     OW23188   0.162   4.112   2.975
 7430SOL    HW123189   0.151   4.212   2.969
 7430SOL    HW223190   0.249   4.086   2.935
 7431SOL     OW23191   1.036   2.107   4.757
 7431SOL    HW123192   0.967   2.035   4.747
 7431SOL    HW223193   1.001   2.192   4.718
 7432SOL     OW23194   1.562   1.222   2.751
 7432SOL    HW123195   1.583   1.309   2.795
 7432SOL    HW223196   1.471   1.227   2.709
 7433SOL     OW23197   3.505   6.807   6.641
 7433SOL    HW123198   3.568   6.805   6.564
 7433SOL    HW223199   3.536   6.743   6.712
 7434SOL     OW23200   3.938   0.262   3.463
 7434SOL    HW123201   3.996   0.286   3.541
 7434SOL    HW223202   3.996   0.233   3.387
 7435SOL     OW23203   5.099   4.612   2.732
 7435SOL    HW123204   5.015   4.660   2.758
 7435SOL    HW223205   5.133   4.561   2.810
 7436SOL     OW23206   5.040   2.748   5.768
 7436SOL    HW123207   5.099   2.669   5.788
 7436SOL    HW223208   5.037   2.764   5.670
 7437SOL     OW23209   3.108   0.659   1.498
 7437SOL    HW123210   3.048   0.730   1.461
 7437SOL    HW223211   3.194   0.659   1.448
 7438SOL     OW23212   1.702   0.089   6.716
 7438SOL    HW123213   1.663   0.157   6.654
 7438SOL    HW223214   1.634   0.063   6.784
 7439SOL     OW23215   1.494   4.656   6.065
 7439SOL    HW123216   1.508   4.593   5.988
 7439SOL    HW223217   1.428   4.616   6.129
 7440SOL     OW23218   5.672   3.221   3.667
 7440SOL    HW123219   5.677   3.265   3.578
 7440SOL    HW223220   5.623   3.134   3.659
 7441SOL     OW23221   4.293   6.320   0.748
 7441SOL    HW123222   4.367   6.254   0.763
 7441SOL    HW223223   4.267   6.362   0.834
 7442SOL     OW23224   5.857   1.070   5.787
 7442SOL    HW123225   5.905   1.150   5.826
 7442SOL    HW223226   5.849   1.081   5.688
 7443SOL     OW23227   0.300   6.979   1.091
 7443SOL    HW123228   0.393   6.992   1.127
 7443SOL    HW223229   0.287   6.883   1.068
 7444SOL     OW23230   1.594   6.195   6.797
 7444SOL    HW123231   1.660   6.183   6.723
 7444SOL    HW223232   1.558   6.289   6.794
 7445SOL     OW23233   3.354   5.610   2.769
 7445SOL    HW123234   3.271   5.661   2.791
 7445SOL    HW223235   3.330   5.522   2.728
 7446SOL     OW23236   6.741   5.036   0.131
 7446SOL    HW123237   6.654   5.072   0.098
 7446SOL    HW223238   6.725   4.980   0.212
 7447SOL     OW23239   0.836   5.912   0.841
 7447SOL    HW123240   0.779   5.952   0.913
 7447SOL    HW223241   0.833   5.970   0.760
 7448SOL     OW23242   4.080   4.762   6.681
 7448SOL    HW123243   4.120   4.846   6.717
 7448SOL    HW223244   4.152   4.694   6.667
 7449SOL     OW23245   6.471   4.076   6.595
 7449SOL    HW123246   6.407   4.007   6.560
 7449SOL    HW223247   6.541   4.093   6.526
 7450SOL     OW23248   5.648   2.827   0.430
 7450SOL    HW123249   5.654   2.730   0.404
 7450SOL    HW223250   5.731   2.874   0.401
 7451SOL     OW23251   4.444   4.855   3.022
 7451SOL    HW123252   4.457   4.881   2.926
 7451SOL    HW223253   4.522   4.886   3.076
 7452SOL     OW23254   6.296   5.948   6.218
 7452SOL    HW123255   6.360   5.882   6.256
 7452SOL    HW223256   6.337   5.991   6.137
 7453SOL     OW23257   4.315   5.509   6.465
 7453SOL    HW123258   4.261   5.592   6.448
 7453SOL    HW223259   4.377   5.525   6.541
 7454SOL     OW23260   4.042   1.837   0.817
 7454SOL    HW123261   3.963   1.866   0.763
 7454SOL    HW223262   4.059   1.904   0.889
 7455SOL     OW23263   6.348   0.213   3.227
 7455SOL    HW123264   6.379   0.156   3.151
 7455SOL    HW223265   6.316   0.301   3.193
 7456SOL     OW23266   2.912   1.757   6.107
 7456SOL    HW123267   2.965   1.836   6.076
 7456SOL    HW223268   2.869   1.713   6.028
 7457SOL     OW23269   1.180   1.367   2.851
 7457SOL    HW123270   1.131   1.397   2.933
 7457SOL    HW223271   1.210   1.447   2.799
 7458SOL     OW23272   0.317   5.576   4.928
 7458SOL    HW123273   0.284   5.659   4.883
 7458SOL    HW223274   0.332   5.595   5.025
 7459SOL     OW23275   5.675   7.016   3.306
 7459SOL    HW123276   5.581   0.020   3.288
 7459SOL    HW223277   5.700   6.939   3.247
 7460SOL     OW23278   0.791   0.397   1.319
 7460SOL    HW123279   0.886   0.386   1.349
 7460SOL    HW223280   0.754   0.307   1.293
 7461SOL     OW23281   1.992   4.349   4.679
 7461SOL    HW123282   2.054   4.271   4.689
 7461SOL    HW223283   2.035   4.431   4.716
 7462SOL     OW23284   1.947   4.809   0.096
 7462SOL    HW123285   1.883   4.732   0.103
 7462SOL    HW223286   2.033   4.785   0.140
 7463SOL     OW23287   4.820   5.229   1.593
 7463SOL    HW123288   4.862   5.242   1.503
 7463SOL    HW223289   4.891   5.205   1.659
 7464SOL     OW23290   5.304   5.343   4.865
 7464SOL    HW123291   5.238   5.417   4.882
 7464SOL    HW223292   5.258   5.255   4.877
 7465SOL     OW23293   1.509   4.096   6.724
 7465SOL    HW123294   1.509   4.071   6.628
 7465SOL    HW223295   1.562   4.180   6.737
 7466SOL     OW23296   0.706   0.553   5.445
 7466SOL    HW123297   0.742   0.620   5.379
 7466SOL    HW223298   0.649   0.486   5.398
 7467SOL     OW23299   0.936   3.521   4.550
 7467SOL    HW123300   0.990   3.605   4.555
 7467SOL    HW223301   0.891   3.516   4.461
 7468SOL     OW23302   5.373   2.752   5.490
 7468SOL    HW123303   5.460   2.777   5.533
 7468SOL    HW223304   5.342   2.828   5.433
 7469SOL     OW23305   0.079   2.350   0.438
 7469SOL    HW123306   0.112   2.277   0.497
 7469SOL    HW223307   0.037   2.310   0.356
 7470SOL     OW23308   4.810   3.037   3.946
 7470SOL    HW123309   4.788   3.106   3.877
 7470SOL    HW223310   4.909   3.023   3.948
 7471SOL     OW23311   3.636   6.655   6.841
 7471SOL    HW123312   3.678   6.711   6.913
 7471SOL    HW223313   3.589   6.577   6.883
 7472SOL     OW23314   0.296   0.392   5.795
 7472SOL    HW123315   0.270   0.481   5.758
 7472SOL    HW223316   0.351   0.404   5.878
 7473SOL     OW23317   4.020   6.024   3.220
 7473SOL    HW123318   4.053   5.933   3.246
 7473SOL    HW223319   3.928   6.038   3.255
 7474SOL     OW23320   5.803   2.581   0.260
 7474SOL    HW123321   5.715   2.596   0.215
 7474SOL    HW223322   5.788   2.548   0.353
 7475SOL     OW23323   5.101   2.768   0.824
 7475SOL    HW123324   5.004   2.748   0.812
 7475SOL    HW223325   5.147   2.761   0.736
 7476SOL     OW23326   2.572   1.247   2.553
 7476SOL    HW123327   2.573   1.345   2.571
 7476SOL    HW223328   2.616   1.199   2.629
 7477SOL     OW23329   2.764   3.782   5.735
 7477SOL    HW123330   2.759   3.874   5.697
 7477SOL    HW223331   2.703   3.721   5.684
 7478SOL     OW23332   0.134   2.104   6.283
 7478SOL    HW123333   0.084   2.165   6.345
 7478SOL    HW223334   0.136   2.145   6.192
 7479SOL     OW23335   4.909   2.698   1.360
 7479SOL    HW123336   4.921   2.754   1.278
 7479SOL    HW223337   4.823   2.648   1.355
 7480SOL     OW23338   3.513   5.961   2.659
 7480SOL    HW123339   3.551   6.037   2.712
 7480SOL    HW223340   3.581   5.887   2.653
 7481SOL     OW23341   0.045   3.582   6.665
 7481SOL    HW123342   6.980   3.626   6.646
 7481SOL    HW223343   0.099   3.578   6.582
 7482SOL     OW23344   4.454   2.468   4.411
 7482SOL    HW123345   4.512   2.396   4.449
 7482SOL    HW223346   4.394   2.428   4.341
 7483SOL     OW23347   5.040   1.685   6.407
 7483SOL    HW123348   5.033   1.599   6.356
 7483SOL    HW223349   5.136   1.712   6.412
 7484SOL     OW23350   2.665   0.726   4.483
 7484SOL    HW123351   2.640   0.759   4.574
 7484SOL    HW223352   2.637   0.793   4.414
 7485SOL     OW23353   3.860   0.334   6.811
 7485SOL    HW123354   3.821   0.267   6.874
 7485SOL    HW223355   3.959   0.322   6.808
 7486SOL     OW23356   4.471   6.868   1.100
 7486SOL    HW123357   4.558   6.849   1.144
 7486SOL    HW223358   4.487   6.914   1.012
 7487SOL     OW23359   3.123   6.203   4.307
 7487SOL    HW123360   3.181   6.278   4.274
 7487SOL    HW223361   3.141   6.188   4.404
 7488SOL     OW23362   1.449   6.158   4.088
 7488SOL    HW123363   1.379   6.217   4.048
 7488SOL    HW223364   1.405   6.077   4.128
 7489SOL     OW23365   5.245   3.008   6.536
 7489SOL    HW123366   5.284   2.919   6.515
 7489SOL    HW223367   5.170   2.997   6.601
 7490SOL     OW23368   1.830   3.145   1.566
 7490SOL    HW123369   1.896   3.074   1.541
 7490SOL    HW223370   1.767   3.161   1.490
 7491SOL     OW23371   4.375   3.844   6.547
 7491SOL    HW123372   4.412   3.829   6.638
 7491SOL    HW223373   4.292   3.789   6.536
 7492SOL     OW23374   1.712   0.594   3.620
 7492SOL    HW123375   1.636   0.561   3.564
 7492SOL    HW223376   1.709   0.549   3.710
 7493SOL     OW23377   6.531   4.948   4.674
 7493SOL    HW123378   6.493   4.877   4.733
 7493SOL    HW223379   6.589   5.009   4.727
 7494SOL     OW23380   6.317   1.078   2.148
 7494SOL    HW123381   6.282   1.130   2.070
 7494SOL    HW223382   6.406   1.115   2.175
 7495SOL     OW23383   1.503   2.963   4.371
 7495SOL    HW123384   1.573   3.033   4.388
 7495SOL    HW223385   1.498   2.901   4.450
 7496SOL     OW23386   6.387   3.534   2.739
 7496SOL    HW123387   6.329   3.614   2.729
 7496SOL    HW223388   6.469   3.559   2.791
 7497SOL     OW23389   6.484   0.080   1.248
 7497SOL    HW123390   6.393   0.104   1.215
 7497SOL    HW223391   6.508   7.012   1.216
 7498SOL     OW23392   2.585   6.950   4.020
 7498SOL    HW123393   2.581   6.898   3.935
 7498SOL    HW223394   2.668   7.006   4.022
 7499SOL     OW23395   2.827   1.419   3.472
 7499SOL    HW123396   2.728   1.425   3.484
 7499SOL    HW223397   2.872   1.466   3.547
 7500SOL     OW23398   3.718   1.473   4.285
 7500SOL    HW123399   3.652   1.455   4.358
 7500SOL    HW223400   3.694   1.419   4.205
 7501SOL     OW23401   6.154   2.046   3.834
 7501SOL    HW123402   6.135   2.084   3.743
 7501SOL    HW223403   6.080   1.984   3.860
 7502SOL     OW23404   4.056   1.011   3.619
 7502SOL    HW123405   4.079   0.936   3.681
 7502SOL    HW223406   3.957   1.022   3.615
 7503SOL     OW23407   1.609   5.987   1.008
 7503SOL    HW123408   1.685   5.962   0.949
 7503SOL    HW223409   1.614   5.934   1.093
 7504SOL     OW23410   5.472   6.477   4.631
 7504SOL    HW123411   5.414   6.543   4.680
 7504SOL    HW223412   5.517   6.523   4.554
 7505SOL     OW23413   0.879   6.391   5.763
 7505SOL    HW123414   0.800   6.451   5.762
 7505SOL    HW223415   0.878   6.333   5.682
 7506SOL     OW23416   3.613   2.154   4.171
 7506SOL    HW123417   3.527   2.135   4.217
 7506SOL    HW223418   3.662   2.225   4.221
 7507SOL     OW23419   6.655   3.860   6.347
 7507SOL    HW123420   6.582   3.812   6.396
 7507SOL    HW223421   6.661   3.824   6.253
 7508SOL     OW23422   2.951   6.253   0.538
 7508SOL    HW123423   2.870   6.266   0.480
 7508SOL    HW223424   3.025   6.215   0.483
 7509SOL     OW23425   6.458   4.695   2.447
 7509SOL    HW123426   6.384   4.702   2.379
 7509SOL    HW223427   6.505   4.784   2.454
 7510SOL     OW23428   3.392   4.144   1.391
 7510SOL    HW123429   3.322   4.077   1.365
 7510SOL    HW223430   3.409   4.138   1.490
 7511SOL     OW23431   4.764   6.124   3.870
 7511SOL    HW123432   4.789   6.064   3.946
 7511SOL    HW223433   4.704   6.074   3.807
 7512SOL     OW23434   4.285   0.230   0.887
 7512SOL    HW123435   4.369   0.231   0.942
 7512SOL    HW223436   4.287   0.152   0.825
 7513SOL     OW23437   1.007   0.836   1.989
 7513SOL    HW123438   0.934   0.904   2.002
 7513SOL    HW223439   1.080   0.877   1.934
 7514SOL     OW23440   0.397   0.270   0.518
 7514SOL    HW123441   0.343   0.284   0.600
 7514SOL    HW223442   0.488   0.236   0.542
 7515SOL     OW23443   0.183   4.797   5.157
 7515SOL    HW123444   0.274   4.809   5.116
 7515SOL    HW223445   0.160   4.877   5.212
 7516SOL     OW23446   1.729   6.310   5.293
 7516SOL    HW123447   1.825   6.286   5.279
 7516SOL    HW223448   1.691   6.345   5.207
 7517SOL     OW23449   0.585   2.265   6.694
 7517SOL    HW123450   0.565   2.330   6.767
 7517SOL    HW223451   0.642   2.309   6.625
 7518SOL     OW23452   4.054   2.007   4.520
 7518SOL    HW123453   4.112   2.089   4.518
 7518SOL    HW223454   4.107   1.928   4.490
 7519SOL     OW23455   3.481   6.738   5.015
 7519SOL    HW123456   3.495   6.735   4.916
 7519SOL    HW223457   3.477   6.833   5.044
 7520SOL     OW23458   1.861   1.194   0.731
 7520SOL    HW123459   1.815   1.282   0.744
 7520SOL    HW223460   1.920   1.200   0.651
 7521SOL     OW23461   4.267   1.320   5.318
 7521SOL    HW123462   4.352   1.294   5.273
 7521SOL    HW223463   4.284   1.397   5.380
 7522SOL     OW23464   1.978   6.510   4.537
 7522SOL    HW123465   1.939   6.601   4.522
 7522SOL    HW223466   1.970   6.456   4.454
 7523SOL     OW23467   5.783   1.767   0.117
 7523SOL    HW123468   5.742   1.797   0.031
 7523SOL    HW223469   5.755   1.829   0.191
 7524SOL     OW23470   0.585   3.635   5.492
 7524SOL    HW123471   0.646   3.600   5.421
 7524SOL    HW223472   0.511   3.570   5.507
 7525SOL     OW23473   1.896   4.793   5.728
 7525SOL    HW123474   1.800   4.822   5.728
 7525SOL    HW223475   1.910   4.725   5.800
 7526SOL     OW23476   1.601   4.178   0.843
 7526SOL    HW123477   1.662   4.252   0.816
 7526SOL    HW223478   1.507   4.212   0.844
 7527SOL     OW23479   2.843   5.199   2.631
 7527SOL    HW123480   2.865   5.283   2.680
 7527SOL    HW223481   2.786   5.220   2.552
 7528SOL     OW23482   6.106   2.724   6.737
 7528SOL    HW123483   6.107   2.789   6.813
 7528SOL    HW223484   6.200   2.709   6.706
 7529SOL     OW23485   5.601   3.289   4.673
 7529SOL    HW123486   5.636   3.367   4.724
 7529SOL    HW223487   5.503   3.278   4.692
 7530SOL     OW23488   1.374   2.777   3.164
 7530SOL    HW123489   1.290   2.737   3.199
 7530SOL    HW223490   1.354   2.868   3.126
 7531SOL     OW23491   4.148   1.754   3.663
 7531SOL    HW123492   4.128   1.666   3.618
 7531SOL    HW223493   4.181   1.737   3.756
 7532SOL     OW23494   4.996   5.303   6.238
 7532SOL    HW123495   5.010   5.210   6.270
 7532SOL    HW223496   5.002   5.306   6.138
 7533SOL     OW23497   4.393   4.730   1.957
 7533SOL    HW123498   4.463   4.665   1.988
 7533SOL    HW223499   4.355   4.700   1.870
 7534SOL     OW23500   4.433   5.702   5.383
 7534SOL    HW123501   4.445   5.604   5.392
 7534SOL    HW223502   4.493   5.750   5.447
 7535SOL     OW23503   0.427   6.704   4.503
 7535SOL    HW123504   0.435   6.777   4.435
 7535SOL    HW223505   0.441   6.742   4.594
 7536SOL     OW23506   6.498   6.472   2.826
 7536SOL    HW123507   6.542   6.398   2.876
 7536SOL    HW223508   6.562   6.548   2.816
 7537SOL     OW23509   1.668   0.180   2.678
 7537SOL    HW123510   1.622   0.221   2.600
 7537SOL    HW223511   1.717   0.250   2.729
 7538SOL     OW23512   0.144   4.953   0.210
 7538SOL    HW123513   0.148   4.923   0.305
 7538SOL    HW223514   0.219   4.911   0.158
 7539SOL     OW23515   6.570   0.560   4.221
 7539SOL    HW123516   6.543   0.626   4.151
 7539SOL    HW223517   6.667   0.537   4.210
 7540SOL     OW23518   5.178   4.285   3.221
 7540SOL    HW123519   5.080   4.300   3.204
 7540SOL    HW223520   5.192   4.272   3.319
 7541SOL     OW23521   2.220   4.189   6.688
 7541SOL    HW123522   2.312   4.191   6.650
 7541SOL    HW223523   2.155   4.157   6.619
 7542SOL     OW23524   6.082   5.810   4.842
 7542SOL    HW123525   6.020   5.731   4.842
 7542SOL    HW223526   6.077   5.857   4.754
 7543SOL     OW23527   2.360   1.048   0.604
 7543SOL    HW123528   2.445   1.014   0.644
 7543SOL    HW223529   2.364   1.038   0.504
 7544SOL     OW23530   5.954   1.392   4.705
 7544SOL    HW123531   5.907   1.311   4.669
 7544SOL    HW223532   6.051   1.388   4.679
 7545SOL     OW23533   1.395   5.609   5.061
 7545SOL    HW123534   1.431   5.517   5.047
 7545SOL    HW223535   1.434   5.648   5.144
 7546SOL     OW23536   2.300   2.801   1.968
 7546SOL    HW123537   2.301   2.772   2.064
 7546SOL    HW223538   2.248   2.886   1.960
 7547SOL     OW23539   4.354   0.192   2.234
 7547SOL    HW123540   4.300   0.258   2.183
 7547SOL    HW223541   4.300   0.110   2.251
 7548SOL     OW23542   2.920   2.258   6.257
 7548SOL    HW123543   2.876   2.246   6.167
 7548SOL    HW223544   2.850   2.254   6.328
 7549SOL     OW23545   5.502   0.738   4.481
 7549SOL    HW123546   5.454   0.660   4.442
 7549SOL    HW223547   5.535   0.715   4.573
 7550SOL     OW23548   2.102   5.963   4.699
 7550SOL    HW123549   2.057   5.878   4.671
 7550SOL    HW223550   2.131   5.956   4.795
 7551SOL     OW23551   6.019   3.411   6.404
 7551SOL    HW123552   6.042   3.474   6.330
 7551SOL    HW223553   5.979   3.328   6.366
 7552SOL     OW23554   2.738   6.078   4.692
 7552SOL    HW123555   2.786   6.137   4.757
 7552SOL    HW223556   2.666   6.028   4.739
 7553SOL     OW23557   6.077   6.567   5.963
 7553SOL    HW123558   6.123   6.527   5.885
 7553SOL    HW223559   5.985   6.528   5.971
 7554SOL     OW23560   4.897   1.816   1.488
 7554SOL    HW123561   4.990   1.810   1.524
 7554SOL    HW223562   4.898   1.798   1.390
 7555SOL     OW23563   4.283   5.524   4.203
 7555SOL    HW123564   4.376   5.514   4.168
 7555SOL    HW223565   4.259   5.444   4.257
 7556SOL     OW23566   1.431   5.856   0.828
 7556SOL    HW123567   1.512   5.828   0.776
 7556SOL    HW223568   1.459   5.892   0.917
 7557SOL     OW23569   4.493   6.488   1.197
 7557SOL    HW123570   4.485   6.573   1.250
 7557SOL    HW223571   4.403   6.463   1.160
 7558SOL     OW23572   0.602   1.864   3.781
 7558SOL    HW123573   0.637   1.856   3.687
 7558SOL    HW223574   0.543   1.945   3.787
 7559SOL     OW23575   2.568   0.348   5.167
 7559SOL    HW123576   2.500   0.393   5.225
 7559SOL    HW223577   2.657   0.392   5.180
 7560SOL     OW23578   1.310   0.955   5.763
 7560SOL    HW123579   1.277   1.001   5.680
 7560SOL    HW223580   1.386   0.895   5.739
 7561SOL     OW23581   5.287   1.029   5.190
 7561SOL    HW123582   5.247   0.961   5.251
 7561SOL    HW223583   5.386   1.020   5.190
 7562SOL     OW23584   1.987   5.600   3.449
 7562SOL    HW123585   1.911   5.609   3.385
 7562SOL    HW223586   1.958   5.545   3.527
 7563SOL     OW23587   2.804   6.253   3.409
 7563SOL    HW123588   2.859   6.337   3.408
 7563SOL    HW223589   2.862   6.175   3.387
 7564SOL     OW23590   4.847   2.607   5.476
 7564SOL    HW123591   4.860   2.616   5.377
 7564SOL    HW223592   4.889   2.685   5.523
 7565SOL     OW23593   6.495   3.042   5.679
 7565SOL    HW123594   6.498   3.021   5.776
 7565SOL    HW223595   6.448   3.129   5.665
 7566SOL     OW23596   4.642   4.843   1.033
 7566SOL    HW123597   4.669   4.753   1.000
 7566SOL    HW223598   4.585   4.833   1.115
 7567SOL     OW23599   1.742   0.424   3.843
 7567SOL    HW123600   1.650   0.386   3.840
 7567SOL    HW223601   1.809   0.350   3.832
 7568SOL     OW23602   6.471   4.212   1.240
 7568SOL    HW123603   6.379   4.252   1.246
 7568SOL    HW223604   6.496   4.175   1.329
 7569SOL     OW23605   4.569   3.398   1.004
 7569SOL    HW123606   4.571   3.383   0.905
 7569SOL    HW223607   4.629   3.475   1.027
 7570SOL     OW23608   0.789   3.166   2.312
 7570SOL    HW123609   0.831   3.152   2.401
 7570SOL    HW223610   0.729   3.089   2.290
 7571SOL     OW23611   4.859   1.476   2.821
 7571SOL    HW123612   4.790   1.502   2.888
 7571SOL    HW223613   4.819   1.476   2.730
 7572SOL     OW23614   4.214   6.686   3.134
 7572SOL    HW123615   4.255   6.626   3.065
 7572SOL    HW223616   4.259   6.670   3.222
 7573SOL     OW23617   4.603   6.593   6.695
 7573SOL    HW123618   4.504   6.590   6.683
 7573SOL    HW223619   4.648   6.554   6.615
 7574SOL     OW23620   0.683   2.978   4.030
 7574SOL    HW123621   0.631   3.057   4.061
 7574SOL    HW223622   0.647   2.946   3.942
 7575SOL     OW23623   0.063   6.925   0.784
 7575SOL    HW123624   0.031   7.003   0.837
 7575SOL    HW223625   0.142   6.952   0.729
 7576SOL     OW23626   4.438   2.740   0.200
 7576SOL    HW123627   4.439   2.838   0.216
 7576SOL    HW223628   4.424   2.722   0.102
 7577SOL     OW23629   0.034   0.490   6.255
 7577SOL    HW123630   0.093   0.508   6.334
 7577SOL    HW223631   0.081   0.517   6.171
 7578SOL     OW23632   6.162   6.144   2.632
 7578SOL    HW123633   6.087   6.079   2.624
 7578SOL    HW223634   6.146   6.204   2.711
 7579SOL     OW23635   1.191   1.725   6.821
 7579SOL    HW123636   1.172   1.678   6.734
 7579SOL    HW223637   1.112   1.714   6.881
 7580SOL     OW23638   2.146   4.952   2.920
 7580SOL    HW123639   2.152   4.928   2.824
 7580SOL    HW223640   2.178   5.046   2.933
 7581SOL     OW23641   0.331   0.004   0.636
 7581SOL    HW123642   0.363   7.011   0.543
 7581SOL    HW223643   0.406   0.038   0.692
 7582SOL     OW23644   2.222   1.078   6.129
 7582SOL    HW123645   2.166   1.034   6.199
 7582SOL    HW223646   2.252   1.168   6.162
 7583SOL     OW23647   5.503   3.598   2.174
 7583SOL    HW123648   5.423   3.577   2.231
 7583SOL    HW223649   5.482   3.574   2.079
 7584SOL     OW23650   0.096   1.009   3.351
 7584SOL    HW123651   0.002   1.029   3.322
 7584SOL    HW223652   0.098   0.921   3.398
 7585SOL     OW23653   1.396   1.348   5.607
 7585SOL    HW123654   1.449   1.277   5.653
 7585SOL    HW223655   1.400   1.334   5.508
 7586SOL     OW23656   1.727   6.634   4.004
 7586SOL    HW123657   1.790   6.557   4.018
 7586SOL    HW223658   1.758   6.689   3.926
 7587SOL     OW23659   4.899   0.030   1.927
 7587SOL    HW123660   4.863   0.073   1.844
 7587SOL    HW223661   4.926   6.959   1.906
 7588SOL     OW23662   1.959   3.465   4.920
 7588SOL    HW123663   1.897   3.434   4.992
 7588SOL    HW223664   1.988   3.558   4.941
 7589SOL     OW23665   6.554   0.097   2.139
 7589SOL    HW123666   6.553   0.042   2.056
 7589SOL    HW223667   6.562   0.194   2.114
 7590SOL     OW23668   6.045   1.319   0.621
 7590SOL    HW123669   6.051   1.308   0.720
 7590SOL    HW223670   6.016   1.412   0.599
 7591SOL     OW23671   3.185   4.030   4.859
 7591SOL    HW123672   3.272   4.050   4.905
 7591SOL    HW223673   3.110   4.040   4.925
 7592SOL     OW23674   0.772   6.613   3.690
 7592SOL    HW123675   0.784   6.686   3.623
 7592SOL    HW223676   0.710   6.644   3.762
 7593SOL     OW23677   6.509   1.271   6.303
 7593SOL    HW123678   6.578   1.200   6.294
 7593SOL    HW223679   6.531   1.347   6.242
 7594SOL     OW23680   7.012   3.544   5.691
 7594SOL    HW123681   7.018   3.610   5.617
 7594SOL    HW223682   6.938   3.569   5.753
 7595SOL     OW23683   0.672   3.269   6.845
 7595SOL    HW123684   0.622   3.222   6.773
 7595SOL    HW223685   0.710   3.202   6.909
 7596SOL     OW23686   2.783   1.514   0.599
 7596SOL    HW123687   2.820   1.426   0.569
 7596SOL    HW223688   2.692   1.528   0.561
 7597SOL     OW23689   2.367   4.467   0.968
 7597SOL    HW123690   2.354   4.565   0.952
 7597SOL    HW223691   2.362   4.448   1.066
 7598SOL     OW23692   5.395   0.847   2.186
 7598SOL    HW123693   5.350   0.778   2.129
 7598SOL    HW223694   5.352   0.848   2.277
 7599SOL     OW23695   3.434   3.394   0.217
 7599SOL    HW123696   3.510   3.447   0.257
 7599SOL    HW223697   3.422   3.309   0.268
 7600SOL     OW23698   0.907   0.151   3.656
 7600SOL    HW123699   0.892   0.246   3.630
 7600SOL    HW223700   0.968   0.107   3.591
 7601SOL     OW23701   3.074   6.401   1.115
 7601SOL    HW123702   3.011   6.433   1.185
 7601SOL    HW223703   3.167   6.400   1.151
 7602SOL     OW23704   0.896   1.798   1.023
 7602SOL    HW123705   0.979   1.751   0.993
 7602SOL    HW223706   0.919   1.870   1.088
 7603SOL     OW23707   4.354   0.895   6.388
 7603SOL    HW123708   4.441   0.847   6.375
 7603SOL    HW223709   4.341   0.913   6.486
 7604SOL     OW23710   2.156   2.593   5.413
 7604SOL    HW123711   2.233   2.616   5.354
 7604SOL    HW223712   2.135   2.495   5.404
 7605SOL     OW23713   3.056   5.798   0.152
 7605SOL    HW123714   3.039   5.874   0.214
 7605SOL    HW223715   3.125   5.824   0.085
 7606SOL     OW23716   6.449   0.695   3.183
 7606SOL    HW123717   6.445   0.639   3.266
 7606SOL    HW223718   6.501   0.778   3.201
 7607SOL     OW23719   1.770   5.810   5.509
 7607SOL    HW123720   1.748   5.904   5.535
 7607SOL    HW223721   1.868   5.794   5.519
 7608SOL     OW23722   0.032   2.341   6.412
 7608SOL    HW123723   0.031   2.440   6.401
 7608SOL    HW223724   6.962   2.307   6.416
 7609SOL     OW23725   3.679   0.636   4.912
 7609SOL    HW123726   3.694   0.696   4.990
 7609SOL    HW223727   3.587   0.598   4.916
 7610SOL     OW23728   4.068   4.836   4.669
 7610SOL    HW123729   4.089   4.808   4.763
 7610SOL    HW223730   4.152   4.836   4.614
 7611SOL     OW23731   4.558   1.996   6.853
 7611SOL    HW123732   4.520   2.077   6.897
 7611SOL    HW223733   4.506   1.976   6.770
 7612SOL     OW23734   4.594   1.788   2.778
 7612SOL    HW123735   4.637   1.802   2.867
 7612SOL    HW223736   4.665   1.775   2.708
 7613SOL     OW23737   0.152   0.795   6.419
 7613SOL    HW123738   0.198   0.865   6.364
 7613SOL    HW223739   0.214   0.717   6.432
 7614SOL     OW23740   5.968   4.901   0.008
 7614SOL    HW123741   5.995   4.964   6.959
 7614SOL    HW223742   6.039   4.831   0.020
 7615SOL     OW23743   5.640   3.041   6.417
 7615SOL    HW123744   5.602   3.133   6.417
 7615SOL    HW223745   5.593   2.986   6.348
 7616SOL     OW23746   6.823   6.537   2.491
 7616SOL    HW123747   6.759   6.480   2.542
 7616SOL    HW223748   6.782   6.562   2.403
 7617SOL     OW23749   6.110   3.970   2.601
 7617SOL    HW123750   6.071   4.014   2.520
 7617SOL    HW223751   6.049   3.897   2.632
 7618SOL     OW23752   2.535   1.796   7.021
 7618SOL    HW123753   2.467   1.869   0.007
 7618SOL    HW223754   2.625   1.836   7.008
 7619SOL     OW23755   0.800   0.735   5.617
 7619SOL    HW123756   0.758   0.659   5.567
 7619SOL    HW223757   0.894   0.710   5.641
 7620SOL     OW23758   3.077   3.754   0.186
 7620SOL    HW123759   3.086   3.811   0.267
 7620SOL    HW223760   3.161   3.700   0.173
 7621SOL     OW23761   6.342   5.315   0.432
 7621SOL    HW123762   6.310   5.401   0.472
 7621SOL    HW223763   6.376   5.256   0.505
 7622SOL     OW23764   3.211   3.864   1.635
 7622SOL    HW123765   3.192   3.926   1.559
 7622SOL    HW223766   3.133   3.862   1.697
 7623SOL     OW23767   5.402   4.679   2.310
 7623SOL    HW123768   5.423   4.582   2.297
 7623SOL    HW223769   5.334   4.688   2.382
 7624SOL     OW23770   0.359   2.882   2.811
 7624SOL    HW123771   0.414   2.965   2.808
 7624SOL    HW223772   0.419   2.803   2.825
 7625SOL     OW23773   5.295   0.431   1.767
 7625SOL    HW123774   5.258   0.507   1.821
 7625SOL    HW223775   5.315   0.463   1.675
 7626SOL     OW23776   4.698   6.885   0.203
 7626SOL    HW123777   4.772   6.822   0.178
 7626SOL    HW223778   4.691   6.958   0.136
 7627SOL     OW23779   4.276   2.343   6.050
 7627SOL    HW123780   4.248   2.408   6.120
 7627SOL    HW223781   4.198   2.323   5.990
 7628SOL     OW23782   3.166   2.743   0.569
 7628SOL    HW123783   3.082   2.700   0.604
 7628SOL    HW223784   3.147   2.786   0.481
 7629SOL     OW23785   5.683   2.357   3.374
 7629SOL    HW123786   5.605   2.316   3.421
 7629SOL    HW223787   5.717   2.435   3.426
 7630SOL     OW23788   1.228   6.299   3.972
 7630SOL    HW123789   1.271   6.389   3.980
 7630SOL    HW223790   1.131   6.306   3.996
 7631SOL     OW23791   1.651   1.063   6.103
 7631SOL    HW123792   1.746   1.096   6.108
 7631SOL    HW223793   1.607   1.077   6.192
 7632SOL     OW23794   4.181   5.668   0.900
 7632SOL    HW123795   4.117   5.663   0.824
 7632SOL    HW223796   4.178   5.760   0.940
 7633SOL     OW23797   5.445   0.919   1.678
 7633SOL    HW123798   5.451   0.873   1.589
 7633SOL    HW223799   5.349   0.943   1.696
 7634SOL     OW23800   0.361   2.116   6.638
 7634SOL    HW123801   0.385   2.024   6.607
 7634SOL    HW223802   0.443   2.160   6.675
 7635SOL     OW23803   1.428   3.422   5.796
 7635SOL    HW123804   1.500   3.485   5.826
 7635SOL    HW223805   1.429   3.416   5.696
 7636SOL     OW23806   6.898   3.380   3.452
 7636SOL    HW123807   6.819   3.336   3.411
 7636SOL    HW223808   6.875   3.411   3.545
 7637SOL     OW23809   1.200   4.079   5.477
 7637SOL    HW123810   1.150   4.104   5.559
 7637SOL    HW223811   1.181   4.145   5.404
 7638SOL     OW23812   0.473   6.224   1.275
 7638SOL    HW123813   0.444   6.287   1.348
 7638SOL    HW223814   0.566   6.192   1.294
 7639SOL     OW23815   2.711   6.299   0.420
 7639SOL    HW123816   2.618   6.264   0.408
 7639SOL    HW223817   2.718   6.344   0.509
 7640SOL     OW23818   3.035   0.628   1.011
 7640SOL    HW123819   3.009   0.587   1.099
 7640SOL    HW223820   3.122   0.676   1.022
 7641SOL     OW23821   6.441   5.033   5.104
 7641SOL    HW123822   6.488   5.103   5.157
 7641SOL    HW223823   6.386   5.076   5.032
 7642SOL     OW23824   6.101   0.922   4.050
 7642SOL    HW123825   6.095   0.998   3.985
 7642SOL    HW223826   6.072   0.837   4.006
 7643SOL     OW23827   5.409   2.632   4.867
 7643SOL    HW123828   5.344   2.637   4.943
 7643SOL    HW223829   5.359   2.634   4.781
 7644SOL     OW23830   5.412   4.126   0.742
 7644SOL    HW123831   5.415   4.224   0.723
 7644SOL    HW223832   5.501   4.085   0.721
 7645SOL     OW23833   4.542   4.943   6.643
 7645SOL    HW123834   4.494   4.860   6.615
 7645SOL    HW223835   4.633   4.945   6.600
 7646SOL     OW23836   6.781   1.814   1.909
 7646SOL    HW123837   6.843   1.789   1.983
 7646SOL    HW223838   6.815   1.778   1.823
 7647SOL     OW23839   6.642   1.836   3.805
 7647SOL    HW123840   6.684   1.873   3.722
 7647SOL    HW223841   6.695   1.867   3.885
 7648SOL     OW23842   1.698   2.193   1.289
 7648SOL    HW123843   1.611   2.241   1.295
 7648SOL    HW223844   1.762   2.231   1.356
 7649SOL     OW23845   4.105   0.745   0.101
 7649SOL    HW123846   4.167   0.721   0.027
 7649SOL    HW223847   4.141   0.825   0.150
 7650SOL     OW23848   3.429   2.259   0.546
 7650SOL    HW123849   3.428   2.350   0.504
 7650SOL    HW223850   3.338   2.219   0.539
 7651SOL     OW23851   3.720   5.491   6.706
 7651SOL    HW123852   3.702   5.585   6.735
 7651SOL    HW223853   3.666   5.469   6.625
 7652SOL     OW23854   0.123   0.579   5.283
 7652SOL    HW123855   0.198   0.607   5.343
 7652SOL    HW223856   0.076   0.500   5.322
 7653SOL     OW23857   1.697   6.675   6.926
 7653SOL    HW123858   1.785   6.627   6.931
 7653SOL    HW223859   1.695   6.748   6.994
 7654SOL     OW23860   6.794   2.364   5.599
 7654SOL    HW123861   6.890   2.365   5.574
 7654SOL    HW223862   6.738   2.373   5.517
 7655SOL     OW23863   3.513   1.834   5.009
 7655SOL    HW123864   3.587   1.789   4.960
 7655SOL    HW223865   3.490   1.920   4.964
 7656SOL     OW23866   6.114   3.858   6.849
 7656SOL    HW123867   6.042   3.911   6.894
 7656SOL    HW223868   6.115   3.879   6.751
 7657SOL     OW23869   1.140   3.820   4.889
 7657SOL    HW123870   1.106   3.822   4.795
 7657SOL    HW223871   1.064   3.801   4.951
 7658SOL     OW23872   2.337   0.727   1.489
 7658SOL    HW123873   2.324   0.712   1.391
 7658SOL    HW223874   2.312   0.821   1.512
 7659SOL     OW23875   5.488   4.476   5.872
 7659SOL    HW123876   5.402   4.510   5.910
 7659SOL    HW223877   5.501   4.513   5.780
 7660SOL     OW23878   6.805   6.447   5.522
 7660SOL    HW123879   6.847   6.477   5.436
 7660SOL    HW223880   6.709   6.426   5.506
 7661SOL     OW23881   2.192   0.831   5.325
 7661SOL    HW123882   2.271   0.772   5.308
 7661SOL    HW223883   2.221   0.914   5.372
 7662SOL     OW23884   0.101   6.282   1.466
 7662SOL    HW123885   0.022   6.342   1.476
 7662SOL    HW223886   0.096   6.235   1.378
 7663SOL     OW23887   1.012   6.107   4.488
 7663SOL    HW123888   0.912   6.114   4.480
 7663SOL    HW223889   1.035   6.066   4.576
 7664SOL     OW23890   5.536   2.453   2.405
 7664SOL    HW123891   5.617   2.394   2.406
 7664SOL    HW223892   5.543   2.520   2.479
 7665SOL     OW23893   3.031   0.693   5.504
 7665SOL    HW123894   3.091   0.628   5.551
 7665SOL    HW223895   2.979   0.745   5.572
 7666SOL     OW23896   6.121   5.510   4.050
 7666SOL    HW123897   6.169   5.456   4.119
 7666SOL    HW223898   6.149   5.480   3.959
 7667SOL     OW23899   4.394   5.456   1.653
 7667SOL    HW123900   4.487   5.428   1.680
 7667SOL    HW223901   4.374   5.545   1.693
 7668SOL     OW23902   1.771   5.613   0.224
 7668SOL    HW123903   1.801   5.574   0.311
 7668SOL    HW223904   1.724   5.699   0.241
 7669SOL     OW23905   3.029   1.853   6.503
 7669SOL    HW123906   2.957   1.790   6.472
 7669SOL    HW223907   3.105   1.801   6.542
 7670SOL     OW23908   1.076   0.477   0.869
 7670SOL    HW123909   1.052   0.407   0.936
 7670SOL    HW223910   1.004   0.547   0.867
 7671SOL     OW23911   3.711   0.101   1.456
 7671SOL    HW123912   3.772   0.033   1.415
 7671SOL    HW223913   3.676   0.066   1.543
 7672SOL     OW23914   5.527   3.401   1.950
 7672SOL    HW123915   5.494   3.317   1.908
 7672SOL    HW223916   5.609   3.381   2.004
 7673SOL     OW23917   2.059   6.255   5.227
 7673SOL    HW123918   2.050   6.174   5.285
 7673SOL    HW223919   2.115   6.323   5.275
 7674SOL     OW23920   3.350   5.488   3.868
 7674SOL    HW123921   3.358   5.409   3.928
 7674SOL    HW223922   3.437   5.504   3.821
 7675SOL     OW23923   3.781   6.116   3.312
 7675SOL    HW123924   3.711   6.120   3.241
 7675SOL    HW223925   3.739   6.087   3.399
 7676SOL     OW23926   3.179   3.354   5.066
 7676SOL    HW123927   3.277   3.338   5.052
 7676SOL    HW223928   3.130   3.340   4.980
 7677SOL     OW23929   0.450   6.082   6.789
 7677SOL    HW123930   0.432   5.986   6.811
 7677SOL    HW223931   0.419   6.101   6.697
 7678SOL     OW23932   3.873   0.949   5.532
 7678SOL    HW123933   3.789   0.998   5.556
 7678SOL    HW223934   3.923   0.925   5.615
 7679SOL     OW23935   2.528   4.899   4.270
 7679SOL    HW123936   2.474   4.817   4.288
 7679SOL    HW223937   2.551   4.943   4.357
 7680SOL     OW23938   2.065   6.896   4.357
 7680SOL    HW123939   2.119   6.830   4.306
 7680SOL    HW223940   1.967   6.876   4.347
 7681SOL     OW23941   2.192   1.968   5.741
 7681SOL    HW123942   2.165   2.063   5.756
 7681SOL    HW223943   2.118   1.908   5.769
 7682SOL     OW23944   3.382   0.655   1.749
 7682SOL    HW123945   3.343   0.652   1.841
 7682SOL    HW223946   3.441   0.575   1.735
 7683SOL     OW23947   0.450   4.363   4.407
 7683SOL    HW123948   0.512   4.286   4.397
 7683SOL    HW223949   0.473   4.414   4.491
 7684SOL     OW23950   4.870   3.507   1.805
 7684SOL    HW123951   4.817   3.592   1.794
 7684SOL    HW223952   4.811   3.429   1.784
 7685SOL     OW23953   2.294   6.968   0.001
 7685SOL    HW123954   2.278   6.928   0.091
 7685SOL    HW223955   2.371   6.920   6.980
 7686SOL     OW23956   6.626   0.404   3.726
 7686SOL    HW123957   6.623   0.488   3.782
 7686SOL    HW223958   6.706   0.406   3.667
 7687SOL     OW23959   5.480   3.237   5.807
 7687SOL    HW123960   5.431   3.225   5.720
 7687SOL    HW223961   5.527   3.325   5.806
 7688SOL     OW23962   6.433   3.321   0.275
 7688SOL    HW123963   6.519   3.373   0.278
 7688SOL    HW223964   6.425   3.264   0.357
 7689SOL     OW23965   5.689   0.101   2.447
 7689SOL    HW123966   5.644   0.190   2.449
 7689SOL    HW223967   5.670   0.057   2.359
 7690SOL     OW23968   6.016   4.412   2.211
 7690SOL    HW123969   6.022   4.463   2.297
 7690SOL    HW223970   6.096   4.431   2.155
 7691SOL     OW23971   5.173   3.153   3.771
 7691SOL    HW123972   5.199   3.166   3.676
 7691SOL    HW223973   5.170   3.242   3.818
 7692SOL     OW23974   2.162   6.698   2.098
 7692SOL    HW123975   2.115   6.744   2.173
 7692SOL    HW223976   2.244   6.750   2.074
 7693SOL     OW23977   2.716   1.920   0.860
 7693SOL    HW123978   2.628   1.874   0.846
 7693SOL    HW223979   2.774   1.863   0.919
 7694SOL     OW23980   4.197   2.611   0.665
 7694SOL    HW123981   4.141   2.689   0.691
 7694SOL    HW223982   4.248   2.579   0.744
 7695SOL     OW23983   5.062   6.737   3.900
 7695SOL    HW123984   5.143   6.694   3.861
 7695SOL    HW223985   5.025   6.804   3.834
 7696SOL     OW23986   3.277   1.660   5.828
 7696SOL    HW123987   3.360   1.663   5.884
 7696SOL    HW223988   3.225   1.745   5.840
 7697SOL     OW23989   5.732   6.820   3.143
 7697SOL    HW123990   5.804   6.837   3.076
 7697SOL    HW223991   5.643   6.827   3.099
 7698SOL     OW23992   6.272   3.002   1.315
 7698SOL    HW123993   6.177   2.969   1.315
 7698SOL    HW223994   6.286   3.064   1.238
 7699SOL     OW23995   4.036   6.102   6.260
 7699SOL    HW123996   4.036   6.150   6.172
 7699SOL    HW223997   3.947   6.061   6.276
 7700SOL     OW23998   6.883   5.375   2.107
 7700SOL    HW123999   6.797   5.426   2.106
 7700SOL    HW224000   6.867   5.282   2.139
 7701SOL     OW24001   3.275   1.239   6.595
 7701SOL    HW124002   3.367   1.272   6.576
 7701SOL    HW224003   3.209   1.293   6.543
 7702SOL     OW24004   6.140   6.135   5.597
 7702SOL    HW124005   6.084   6.053   5.579
 7702SOL    HW224006   6.082   6.207   5.634
 7703SOL     OW24007   6.918   6.551   5.986
 7703SOL    HW124008   6.856   6.589   6.055
 7703SOL    HW224009   7.007   6.532   6.028
 7704SOL     OW24010   1.872   1.968   4.844
 7704SOL    HW124011   1.856   2.067   4.836
 7704SOL    HW224012   1.788   1.919   4.821
 7705SOL     OW24013   0.850   4.537   0.366
 7705SOL    HW124014   0.876   4.631   0.388
 7705SOL    HW224015   0.776   4.538   0.298
 7706SOL     OW24016   3.256   3.650   2.438
 7706SOL    HW124017   3.225   3.669   2.345
 7706SOL    HW224018   3.176   3.632   2.496
 7707SOL     OW24019   0.307   5.102   6.263
 7707SOL    HW124020   0.383   5.043   6.288
 7707SOL    HW224021   0.307   5.183   6.321
 7708SOL     OW24022   0.382   0.376   4.299
 7708SOL    HW124023   0.392   0.327   4.213
 7708SOL    HW224024   0.367   0.310   4.373
 7709SOL     OW24025   6.115   4.631   0.987
 7709SOL    HW124026   6.145   4.553   0.932
 7709SOL    HW224027   6.016   4.640   0.980
 7710SOL     OW24028   6.491   3.069   2.439
 7710SOL    HW124029   6.418   3.136   2.452
 7710SOL    HW224030   6.528   3.078   2.346
 7711SOL     OW24031   0.754   4.155   3.397
 7711SOL    HW124032   0.763   4.246   3.436
 7711SOL    HW224033   0.821   4.093   3.438
 7712SOL     OW24034   1.251   4.727   4.505
 7712SOL    HW124035   1.332   4.708   4.448
 7712SOL    HW224036   1.179   4.661   4.483
 7713SOL     OW24037   1.044   5.346   0.686
 7713SOL    HW124038   1.128   5.391   0.657
 7713SOL    HW224039   1.062   5.248   0.698
 7714SOL     OW24040   5.775   1.615   5.052
 7714SOL    HW124041   5.847   1.547   5.042
 7714SOL    HW224042   5.802   1.699   5.005
 7715SOL     OW24043   3.946   3.693   6.672
 7715SOL    HW124044   4.006   3.640   6.611
 7715SOL    HW224045   3.890   3.631   6.726
 7716SOL     OW24046   1.180   1.321   6.635
 7716SOL    HW124047   1.085   1.305   6.659
 7716SOL    HW224048   1.239   1.293   6.711
 7717SOL     OW24049   0.799   1.372   5.916
 7717SOL    HW124050   0.882   1.421   5.941
 7717SOL    HW224051   0.722   1.435   5.915
 7718SOL     OW24052   0.368   3.296   3.347
 7718SOL    HW124053   0.271   3.300   3.323
 7718SOL    HW224054   0.411   3.383   3.323
 7719SOL     OW24055   1.901   6.207   4.889
 7719SOL    HW124056   1.834   6.165   4.828
 7719SOL    HW224057   1.942   6.136   4.946
 7720SOL     OW24058   4.606   1.516   6.654
 7720SOL    HW124059   4.625   1.612   6.671
 7720SOL    HW224060   4.684   1.473   6.608
 7721SOL     OW24061   5.836   5.708   2.476
 7721SOL    HW124062   5.849   5.743   2.569
 7721SOL    HW224063   5.744   5.670   2.467
 7722SOL     OW24064   6.910   5.995   4.352
 7722SOL    HW124065   6.837   6.033   4.409
 7722SOL    HW224066   6.988   6.058   4.351
 7723SOL     OW24067   4.218   4.518   6.739
 7723SOL    HW124068   4.140   4.476   6.786
 7723SOL    HW224069   4.271   4.572   6.805
 7724SOL     OW24070   1.359   4.565   0.431
 7724SOL    HW124071   1.441   4.546   0.486
 7724SOL    HW224072   1.278   4.556   0.489
 7725SOL     OW24073   5.281   3.175   5.126
 7725SOL    HW124074   5.230   3.152   5.042
 7725SOL    HW224075   5.378   3.161   5.111
 7726SOL     OW24076   1.991   3.097   0.247
 7726SOL    HW124077   1.982   3.120   0.344
 7726SOL    HW224078   1.932   3.157   0.193
 7727SOL     OW24079   5.804   0.405   2.675
 7727SOL    HW124080   5.841   0.341   2.742
 7727SOL    HW224081   5.808   0.497   2.711
 7728SOL     OW24082   2.215   3.366   5.178
 7728SOL    HW124083   2.201   3.300   5.105
 7728SOL    HW224084   2.249   3.319   5.260
 7729SOL     OW24085   6.816   1.195   2.748
 7729SOL    HW124086   6.730   1.172   2.795
 7729SOL    HW224087   6.869   1.257   2.805
 7730SOL     OW24088   5.981   4.295   6.167
 7730SOL    HW124089   5.904   4.241   6.201
 7730SOL    HW224090   6.060   4.281   6.226
 7731SOL     OW24091   6.723   0.784   6.458
 7731SOL    HW124092   6.695   0.733   6.539
 7731SOL    HW224093   6.642   0.815   6.408
 7732SOL     OW24094   4.393   0.980   6.960
 7732SOL    HW124095   4.381   0.893   7.008
 7732SOL    HW224096   4.354   1.054   7.014
 7733SOL     OW24097   6.386   5.871   1.305
 7733SOL    HW124098   6.323   5.917   1.243
 7733SOL    HW224099   6.347   5.870   1.397
 7734SOL     OW24100   4.011   3.773   3.340
 7734SOL    HW124101   3.960   3.852   3.306
 7734SOL    HW224102   3.950   3.714   3.393
 7735SOL     OW24103   1.175   5.722   0.713
 7735SOL    HW124104   1.265   5.749   0.745
 7735SOL    HW224105   1.123   5.803   0.686
 7736SOL     OW24106   1.463   1.598   0.900
 7736SOL    HW124107   1.455   1.619   0.802
 7736SOL    HW224108   1.421   1.671   0.953
 7737SOL     OW24109   4.885   4.749   6.190
 7737SOL    HW124110   4.843   4.687   6.124
 7737SOL    HW224111   4.816   4.784   6.253
 7738SOL     OW24112   1.737   1.287   5.317
 7738SOL    HW124113   1.687   1.213   5.271
 7738SOL    HW224114   1.820   1.250   5.359
 7739SOL     OW24115   0.910   2.815   6.947
 7739SOL    HW124116   0.833   2.876   6.928
 7739SOL    HW224117   0.932   2.764   6.864
 7740SOL     OW24118   2.369   1.416   4.355
 7740SOL    HW124119   2.390   1.324   4.321
 7740SOL    HW224120   2.285   1.448   4.312
 7741SOL     OW24121   0.049   4.332   6.230
 7741SOL    HW124122   7.013   4.354   6.152
 7741SOL    HW224123   0.072   4.416   6.279
 7742SOL     OW24124   4.650   2.138   3.674
 7742SOL    HW124125   4.589   2.217   3.684
 7742SOL    HW224126   4.741   2.161   3.708
 7743SOL     OW24127   3.312   0.766   6.553
 7743SOL    HW124128   3.372   0.691   6.525
 7743SOL    HW224129   3.339   0.850   6.505
 7744SOL     OW24130   0.377   6.763   4.999
 7744SOL    HW124131   0.454   6.705   4.973
 7744SOL    HW224132   0.293   6.709   5.003
 7745SOL     OW24133   2.566   0.142   0.452
 7745SOL    HW124134   2.552   0.125   0.550
 7745SOL    HW224135   2.590   0.238   0.439
 7746SOL     OW24136   6.994   6.457   0.594
 7746SOL    HW124137   0.035   6.395   0.550
 7746SOL    HW224138   0.019   6.512   0.663
 7747SOL     OW24139   0.108   5.839   1.536
 7747SOL    HW124140   0.025   5.814   1.486
 7747SOL    HW224141   0.083   5.874   1.627
 7748SOL     OW24142   4.251   0.956   6.144
 7748SOL    HW124143   4.282   0.945   6.238
 7748SOL    HW224144   4.161   1.001   6.144
 7749SOL     OW24145   3.302   3.873   2.792
 7749SOL    HW124146   3.253   3.960   2.791
 7749SOL    HW224147   3.372   3.874   2.721
 7750SOL     OW24148   5.213   4.854   6.136
 7750SOL    HW124149   5.203   4.754   6.138
 7750SOL    HW224150   5.257   4.881   6.050
 7751SOL     OW24151   0.582   1.142   5.184
 7751SOL    HW124152   0.609   1.047   5.200
 7751SOL    HW224153   0.617   1.199   5.258
 7752SOL     OW24154   6.385   4.421   5.596
 7752SOL    HW124155   6.434   4.335   5.582
 7752SOL    HW224156   6.451   4.495   5.609
 7753SOL     OW24157   3.173   0.675   4.971
 7753SOL    HW124158   3.148   0.702   5.065
 7753SOL    HW224159   3.171   0.575   4.964
 7754SOL     OW24160   6.380   0.746   1.002
 7754SOL    HW124161   6.374   0.661   1.056
 7754SOL    HW224162   6.320   0.739   0.922
 7755SOL     OW24163   1.333   6.068   5.100
 7755SOL    HW124164   1.377   6.156   5.080
 7755SOL    HW224165   1.401   6.006   5.140
 7756SOL     OW24166   3.883   5.842   2.927
 7756SOL    HW124167   3.801   5.815   2.876
 7756SOL    HW224168   3.946   5.765   2.931
 7757SOL     OW24169   3.310   0.497   5.977
 7757SOL    HW124170   3.364   0.423   6.017
 7757SOL    HW224171   3.341   0.515   5.884
 7758SOL     OW24172   2.357   2.284   6.490
 7758SOL    HW124173   2.296   2.334   6.428
 7758SOL    HW224174   2.451   2.292   6.458
 7759SOL     OW24175   1.880   0.711   4.421
 7759SOL    HW124176   1.901   0.631   4.477
 7759SOL    HW224177   1.928   0.791   4.458
 7760SOL     OW24178   5.254   2.231   3.114
 7760SOL    HW124179   5.202   2.151   3.082
 7760SOL    HW224180   5.326   2.252   3.048
 7761SOL     OW24181   4.426   1.408   6.837
 7761SOL    HW124182   4.356   1.478   6.852
 7761SOL    HW224183   4.502   1.447   6.785
 7762SOL     OW24184   0.949   2.324   0.721
 7762SOL    HW124185   0.950   2.224   0.725
 7762SOL    HW224186   1.042   2.358   0.705
 7763SOL     OW24187   2.468   2.617   0.885
 7763SOL    HW124188   2.517   2.609   0.972
 7763SOL    HW224189   2.472   2.529   0.837
 7764SOL     OW24190   3.264   3.159   1.990
 7764SOL    HW124191   3.216   3.212   1.920
 7764SOL    HW224192   3.198   3.101   2.037
 7765SOL     OW24193   6.702   1.548   2.068
 7765SOL    HW124194   6.790   1.536   2.113
 7765SOL    HW224195   6.653   1.624   2.112
 7766SOL     OW24196   0.073   2.847   6.593
 7766SOL    HW124197   0.003   2.917   6.582
 7766SOL    HW224198   0.063   2.803   6.683
 7767SOL     OW24199   5.634   4.049   5.113
 7767SOL    HW124200   5.653   4.143   5.143
 7767SOL    HW224201   5.540   4.044   5.079
 7768SOL     OW24202   3.731   5.356   1.474
 7768SOL    HW124203   3.803   5.362   1.545
 7768SOL    HW224204   3.772   5.372   1.384
 7769SOL     OW24205   5.792   2.164   2.765
 7769SOL    HW124206   5.760   2.251   2.729
 7769SOL    HW224207   5.868   2.130   2.710
 7770SOL     OW24208   3.347   6.369   0.903
 7770SOL    HW124209   3.351   6.462   0.864
 7770SOL    HW224210   3.438   6.341   0.931
 7771SOL     OW24211   1.424   1.319   4.620
 7771SOL    HW124212   1.409   1.415   4.645
 7771SOL    HW224213   1.448   1.314   4.523
 7772SOL     OW24214   5.565   0.359   5.439
 7772SOL    HW124215   5.627   0.432   5.468
 7772SOL    HW224216   5.606   0.309   5.362
 7773SOL     OW24217   3.999   4.511   6.024
 7773SOL    HW124218   3.925   4.468   6.076
 7773SOL    HW224219   3.966   4.536   5.934
 7774SOL     OW24220   5.323   1.758   6.682
 7774SOL    HW124221   5.264   1.837   6.666
 7774SOL    HW224222   5.418   1.783   6.662
 7775SOL     OW24223   1.753   6.843   2.648
 7775SOL    HW124224   1.787   6.919   2.593
 7775SOL    HW224225   1.822   6.818   2.716
 7776SOL     OW24226   3.403   4.400   0.594
 7776SOL    HW124227   3.365   4.343   0.522
 7776SOL    HW224228   3.496   4.429   0.568
 7777SOL     OW24229   0.637   0.720   6.396
 7777SOL    HW124230   0.685   0.638   6.363
 7777SOL    HW224231   0.616   0.709   6.494
 7778SOL     OW24232   4.379   1.710   1.913
 7778SOL    HW124233   4.471   1.682   1.887
 7778SOL    HW224234   4.380   1.806   1.942
 7779SOL     OW24235   4.236   3.084   0.385
 7779SOL    HW124236   4.262   3.158   0.323
 7779SOL    HW224237   4.255   2.996   0.342
 7780SOL     OW24238   0.833   0.373   4.653
 7780SOL    HW124239   0.837   0.276   4.629
 7780SOL    HW224240   0.838   0.428   4.570
 7781SOL     OW24241   1.966   3.715   5.641
 7781SOL    HW124242   1.940   3.809   5.617
 7781SOL    HW224243   1.979   3.709   5.740
 7782SOL     OW24244   4.634   4.681   7.004
 7782SOL    HW124245   4.566   4.751   6.982
 7782SOL    HW224246   4.595   4.617   0.048
 7783SOL     OW24247   3.052   6.142   0.194
 7783SOL    HW124248   3.117   6.136   0.270
 7783SOL    HW224249   2.981   6.209   0.217
 7784SOL     OW24250   6.309   4.063   0.414
 7784SOL    HW124251   6.391   4.006   0.420
 7784SOL    HW224252   6.228   4.007   0.430
 7785SOL     OW24253   1.680   6.246   6.160
 7785SOL    HW124254   1.662   6.202   6.248
 7785SOL    HW224255   1.682   6.177   6.088
 7786SOL     OW24256   3.817   4.304   5.191
 7786SOL    HW124257   3.864   4.219   5.168
 7786SOL    HW224258   3.856   4.342   5.275
 7787SOL     OW24259   3.177   2.234   5.433
 7787SOL    HW124260   3.189   2.287   5.349
 7787SOL    HW224261   3.253   2.171   5.444
 7788SOL     OW24262   6.648   2.317   1.277
 7788SOL    HW124263   6.604   2.250   1.336
 7788SOL    HW224264   6.668   2.276   1.188
 7789SOL     OW24265   1.577   0.228   1.776
 7789SOL    HW124266   1.564   0.270   1.866
 7789SOL    HW224267   1.505   0.260   1.714
 7790SOL     OW24268   7.010   3.057   2.533
 7790SOL    HW124269   6.919   3.098   2.527
 7790SOL    HW224270   0.002   2.999   2.453
 7791SOL     OW24271   6.987   5.323   5.567
 7791SOL    HW124272   6.983   5.342   5.665
 7791SOL    HW224273   0.048   5.360   5.529
 7792SOL     OW24274   1.730   5.644   6.233
 7792SOL    HW124275   1.678   5.631   6.149
 7792SOL    HW224276   1.823   5.610   6.220
 7793SOL     OW24277   2.345   0.600   6.625
 7793SOL    HW124278   2.317   0.685   6.581
 7793SOL    HW224279   2.419   0.557   6.573
 7794SOL     OW24280   5.517   5.042   2.894
 7794SOL    HW124281   5.503   5.134   2.931
 7794SOL    HW224282   5.571   4.988   2.958
 7795SOL     OW24283   1.016   4.133   6.654
 7795SOL    HW124284   0.996   4.063   6.723
 7795SOL    HW224285   1.040   4.218   6.700
 7796SOL     OW24286   4.149   3.558   4.819
 7796SOL    HW124287   4.136   3.467   4.780
 7796SOL    HW224288   4.169   3.550   4.917
 7797SOL     OW24289   1.184   6.718   3.533
 7797SOL    HW124290   1.160   6.621   3.522
 7797SOL    HW224291   1.284   6.726   3.542
 7798SOL     OW24292   4.324   5.842   6.530
 7798SOL    HW124293   4.242   5.786   6.514
 7798SOL    HW224294   4.344   5.846   6.628
 7799SOL     OW24295   6.144   6.165   2.238
 7799SOL    HW124296   6.150   6.210   2.148
 7799SOL    HW224297   6.075   6.093   2.234
 7800SOL     OW24298   1.000   5.874   1.899
 7800SOL    HW124299   0.904   5.895   1.881
 7800SOL    HW224300   1.030   5.925   1.980
 7801SOL     OW24301   4.256   2.069   5.104
 7801SOL    HW124302   4.286   1.980   5.140
 7801SOL    HW224303   4.260   2.068   5.004
 7802SOL     OW24304   5.761   2.731   6.922
 7802SOL    HW124305   5.762   2.631   6.919
 7802SOL    HW224306   5.825   2.763   6.991
 7803SOL     OW24307   3.353   3.713   5.984
 7803SOL    HW124308   3.351   3.735   5.887
 7803SOL    HW224309   3.318   3.620   5.998
 7804SOL     OW24310   5.157   0.637   6.379
 7804SOL    HW124311   5.175   0.726   6.337
 7804SOL    HW224312   5.058   0.626   6.392
 7805SOL     OW24313   5.421   3.100   1.347
 7805SOL    HW124314   5.454   3.007   1.330
 7805SOL    HW224315   5.361   3.128   1.272
 7806SOL     OW24316   5.072   2.817   0.283
 7806SOL    HW124317   5.003   2.881   0.315
 7806SOL    HW224318   5.144   2.866   0.234
 7807SOL     OW24319   0.744   3.976   0.047
 7807SOL    HW124320   0.755   3.887   0.091
 7807SOL    HW224321   0.662   4.021   0.081
 7808SOL     OW24322   0.209   1.108   5.369
 7808SOL    HW124323   0.153   1.154   5.438
 7808SOL    HW224324   0.162   1.109   5.281
 7809SOL     OW24325   1.597   5.681   5.332
 7809SOL    HW124326   1.616   5.587   5.304
 7809SOL    HW224327   1.678   5.719   5.378
 7810SOL     OW24328   2.788   1.603   6.922
 7810SOL    HW124329   2.834   1.558   6.999
 7810SOL    HW224330   2.693   1.571   6.918
 7811SOL     OW24331   6.559   4.748   5.086
 7811SOL    HW124332   6.520   4.825   5.136
 7811SOL    HW224333   6.607   4.688   5.149
 7812SOL     OW24334   0.184   1.788   3.536
 7812SOL    HW124335   0.088   1.794   3.562
 7812SOL    HW224336   0.240   1.776   3.618
 7813SOL     OW24337   6.298   2.148   0.942
 7813SOL    HW124338   6.305   2.073   1.007
 7813SOL    HW224339   6.275   2.232   0.990
 7814SOL     OW24340   2.012   3.015   5.105
 7814SOL    HW124341   1.954   3.081   5.152
 7814SOL    HW224342   2.040   3.053   5.016
 7815SOL     OW24343   6.987   1.942   5.452
 7815SOL    HW124344   6.901   1.903   5.485
 7815SOL    HW224345   6.968   2.021   5.393
 7816SOL     OW24346   0.561   5.010   5.170
 7816SOL    HW124347   0.619   5.018   5.089
 7816SOL    HW224348   0.583   4.926   5.219
 7817SOL     OW24349   5.679   3.036   5.710
 7817SOL    HW124350   5.607   3.087   5.757
 7817SOL    HW224351   5.678   3.060   5.613
 7818SOL     OW24352   5.562   3.362   3.428
 7818SOL    HW124353   5.522   3.403   3.511
 7818SOL    HW224354   5.499   3.292   3.393
 7819SOL     OW24355   1.010   1.209   1.299
 7819SOL    HW124356   0.961   1.131   1.259
 7819SOL    HW224357   0.997   1.289   1.240
 7820SOL     OW24358   2.908   6.749   6.394
 7820SOL    HW124359   2.939   6.676   6.333
 7820SOL    HW224360   2.808   6.758   6.386
 7821SOL     OW24361   3.049   5.733   0.980
 7821SOL    HW124362   3.132   5.787   0.993
 7821SOL    HW224363   2.972   5.794   0.961
 7822SOL     OW24364   1.404   6.481   5.497
 7822SOL    HW124365   1.453   6.546   5.439
 7822SOL    HW224366   1.371   6.527   5.579
 7823SOL     OW24367   2.187   3.541   5.551
 7823SOL    HW124368   2.112   3.592   5.593
 7823SOL    HW224369   2.221   3.473   5.616
 7824SOL     OW24370   0.841   3.055   5.346
 7824SOL    HW124371   0.781   3.126   5.382
 7824SOL    HW224372   0.929   3.059   5.393
 7825SOL     OW24373   2.570   0.488   0.077
 7825SOL    HW124374   2.507   0.549   0.126
 7825SOL    HW224375   2.517   0.415   0.034
 7826SOL     OW24376   0.891   3.973   6.082
 7826SOL    HW124377   0.803   4.010   6.111
 7826SOL    HW224378   0.897   3.876   6.106
 7827SOL     OW24379   6.090   4.889   4.090
 7827SOL    HW124380   6.155   4.825   4.050
 7827SOL    HW224381   6.077   4.867   4.187
 7828SOL     OW24382   1.258   5.777   6.142
 7828SOL    HW124383   1.269   5.871   6.110
 7828SOL    HW224384   1.238   5.777   6.240
 7829SOL     OW24385   4.636   4.818   0.747
 7829SOL    HW124386   4.615   4.843   0.842
 7829SOL    HW224387   4.557   4.772   0.707
 7830SOL     OW24388   1.904   5.400   3.646
 7830SOL    HW124389   1.902   5.463   3.723
 7830SOL    HW224390   1.818   5.348   3.643
 7831SOL     OW24391   1.801   0.228   6.467
 7831SOL    HW124392   1.730   0.170   6.428
 7831SOL    HW224393   1.773   0.324   6.464
 7832SOL     OW24394   6.593   1.283   5.548
 7832SOL    HW124395   6.537   1.302   5.468
 7832SOL    HW224396   6.610   1.185   5.555
 7833SOL     OW24397   0.980   0.206   3.119
 7833SOL    HW124398   1.036   0.288   3.104
 7833SOL    HW224399   0.943   0.208   3.212
 7834SOL     OW24400   6.801   3.533   5.077
 7834SOL    HW124401   6.761   3.469   5.142
 7834SOL    HW224402   6.747   3.532   4.993
 7835SOL     OW24403   3.342   2.419   5.733
 7835SOL    HW124404   3.375   2.326   5.721
 7835SOL    HW224405   3.343   2.466   5.645
 7836SOL     OW24406   2.942   3.621   5.039
 7836SOL    HW124407   3.022   3.591   5.090
 7836SOL    HW224408   2.938   3.721   5.038
 7837SOL     OW24409   1.115   5.614   6.631
 7837SOL    HW124410   1.054   5.628   6.709
 7837SOL    HW224411   1.122   5.516   6.612
 7838SOL     OW24412   4.169   4.928   1.641
 7838SOL    HW124413   4.082   4.889   1.608
 7838SOL    HW224414   4.224   4.956   1.562
 7839SOL     OW24415   6.185   3.971   4.767
 7839SOL    HW124416   6.113   4.022   4.720
 7839SOL    HW224417   6.167   3.873   4.759
 7840SOL     OW24418   1.964   2.539   3.447
 7840SOL    HW124419   2.017   2.616   3.482
 7840SOL    HW224420   2.025   2.473   3.403
 7841SOL     OW24421   4.472   1.717   5.608
 7841SOL    HW124422   4.530   1.796   5.587
 7841SOL    HW224423   4.442   1.723   5.703
 7842SOL     OW24424   1.224   0.813   0.987
 7842SOL    HW124425   1.250   0.732   1.039
 7842SOL    HW224426   1.304   0.869   0.969
 7843SOL     OW24427   6.789   6.507   2.064
 7843SOL    HW124428   6.853   6.444   2.108
 7843SOL    HW224429   6.699   6.462   2.055
 7844SOL     OW24430   4.137   0.153   2.626
 7844SOL    HW124431   4.058   0.098   2.653
 7844SOL    HW224432   4.197   0.097   2.568
 7845SOL     OW24433   6.528   3.051   1.400
 7845SOL    HW124434   6.445   3.027   1.350
 7845SOL    HW224435   6.570   3.132   1.358
 7846SOL     OW24436   0.726   1.792   0.423
 7846SOL    HW124437   0.639   1.831   0.393
 7846SOL    HW224438   0.725   1.781   0.522
 7847SOL     OW24439   5.653   4.339   6.101
 7847SOL    HW124440   5.562   4.357   6.140
 7847SOL    HW224441   5.698   4.425   6.081
 7848SOL     OW24442   4.152   4.815   0.453
 7848SOL    HW124443   4.082   4.873   0.493
 7848SOL    HW224444   4.119   4.721   0.448
 7849SOL     OW24445   4.389   5.163   6.698
 7849SOL    HW124446   4.436   5.077   6.678
 7849SOL    HW224447   4.315   5.176   6.632
 7850SOL     OW24448   6.828   0.903   3.464
 7850SOL    HW124449   6.903   0.844   3.435
 7850SOL    HW224450   6.819   0.900   3.563
 7851SOL     OW24451   0.299   4.861   0.455
 7851SOL    HW124452   0.314   4.932   0.386
 7851SOL    HW224453   0.332   4.894   0.543
 7852SOL     OW24454   1.070   3.277   6.123
 7852SOL    HW124455   1.128   3.305   6.046
 7852SOL    HW224456   0.984   3.327   6.119
 7853SOL     OW24457   3.998   3.022   1.717
 7853SOL    HW124458   4.055   2.940   1.720
 7853SOL    HW224459   4.000   3.060   1.625
 7854SOL     OW24460   3.871   0.947   1.090
 7854SOL    HW124461   3.771   0.950   1.090
 7854SOL    HW224462   3.902   0.854   1.112
 7855SOL     OW24463   5.127   6.390   3.923
 7855SOL    HW124464   5.169   6.305   3.890
 7855SOL    HW224465   5.157   6.466   3.866
 7856SOL     OW24466   2.227   6.295   5.982
 7856SOL    HW124467   2.294   6.229   6.017
 7856SOL    HW224468   2.268   6.346   5.906
 7857SOL     OW24469   6.435   5.093   0.589
 7857SOL    HW124470   6.404   5.159   0.657
 7857SOL    HW224471   6.483   5.018   0.635
 7858SOL     OW24472   0.616   3.977   6.167
 7858SOL    HW124473   0.620   3.878   6.154
 7858SOL    HW224474   0.528   4.012   6.135
 7859SOL     OW24475   4.671   2.192   1.153
 7859SOL    HW124476   4.706   2.107   1.115
 7859SOL    HW224477   4.578   2.178   1.187
 7860SOL     OW24478   2.126   1.844   3.528
 7860SOL    HW124479   2.215   1.799   3.519
 7860SOL    HW224480   2.137   1.943   3.515
 7861SOL     OW24481   1.847   5.832   0.827
 7861SOL    HW124482   1.815   5.863   0.738
 7861SOL    HW224483   1.938   5.869   0.844
 7862SOL     OW24484   1.306   6.604   0.068
 7862SOL    HW124485   1.268   6.603   6.999
 7862SOL    HW224486   1.241   6.562   0.131
 7863SOL     OW24487   0.125   3.822   3.772
 7863SOL    HW124488   0.034   3.785   3.793
 7863SOL    HW224489   0.184   3.813   3.852
 7864SOL     OW24490   3.265   5.176   5.128
 7864SOL    HW124491   3.345   5.165   5.069
 7864SOL    HW224492   3.264   5.268   5.167
 7865SOL     OW24493   6.260   5.193   3.930
 7865SOL    HW124494   6.165   5.162   3.939
 7865SOL    HW224495   6.265   5.269   3.866
 7866SOL     OW24496   1.313   1.059   5.459
 7866SOL    HW124497   1.348   1.012   5.378
 7866SOL    HW224498   1.273   1.147   5.433
 7867SOL     OW24499   4.056   4.757   3.261
 7867SOL    HW124500   4.124   4.824   3.231
 7867SOL    HW224501   4.033   4.773   3.357
 7868SOL     OW24502   3.589   6.168   1.268
 7868SOL    HW124503   3.627   6.083   1.305
 7868SOL    HW224504   3.497   6.182   1.304
 7869SOL     OW24505   5.706   4.750   0.021
 7869SOL    HW124506   5.784   4.811   0.034
 7869SOL    HW224507   5.712   4.705   6.956
 7870SOL     OW24508   6.829   0.040   3.648
 7870SOL    HW124509   6.778   0.070   3.568
 7870SOL    HW224510   6.913   0.094   3.655
 7871SOL     OW24511   4.677   1.087   0.565
 7871SOL    HW124512   4.591   1.054   0.527
 7871SOL    HW224513   4.744   1.013   0.564
 7872SOL     OW24514   6.874   4.500   3.910
 7872SOL    HW124515   6.943   4.462   3.848
 7872SOL    HW224516   6.797   4.437   3.917
 7873SOL     OW24517   4.040   2.593   6.855
 7873SOL    HW124518   3.988   2.678   6.855
 7873SOL    HW224519   3.998   2.528   6.791
 7874SOL     OW24520   6.357   2.732   6.936
 7874SOL    HW124521   6.281   2.794   6.920
 7874SOL    HW224522   6.391   2.698   6.848
 7875SOL     OW24523   7.016   4.801   6.988
 7875SOL    HW124524   7.011   4.701   6.980
 7875SOL    HW224525   0.056   4.825   0.038
 7876SOL     OW24526   1.203   6.582   3.171
 7876SOL    HW124527   1.216   6.569   3.073
 7876SOL    HW224528   1.253   6.512   3.221
 7877SOL     OW24529   0.708   2.916   1.932
 7877SOL    HW124530   0.743   2.826   1.905
 7877SOL    HW224531   0.762   2.987   1.887
 7878SOL     OW24532   3.853   0.498   2.381
 7878SOL    HW124533   3.929   0.434   2.370
 7878SOL    HW224534   3.825   0.500   2.478
 7879SOL     OW24535   2.636   5.944   2.289
 7879SOL    HW124536   2.706   5.988   2.233
 7879SOL    HW224537   2.669   5.854   2.318
 7880SOL     OW24538   0.806   4.585   2.173
 7880SOL    HW124539   0.829   4.586   2.075
 7880SOL    HW224540   0.746   4.663   2.194
 7881SOL     OW24541   5.025   2.620   3.459
 7881SOL    HW124542   5.052   2.686   3.389
 7881SOL    HW224543   5.079   2.635   3.542
 7882SOL     OW24544   0.055   2.742   6.832
 7882SOL    HW124545   0.031   2.822   6.887
 7882SOL    HW224546   7.009   2.671   6.844
 7883SOL     OW24547   0.739   6.896   4.676
 7883SOL    HW124548   0.647   6.866   4.702
 7883SOL    HW224549   0.776   6.833   4.608
 7884SOL     OW24550   1.627   2.804   4.189
 7884SOL    HW124551   1.627   2.831   4.093
 7884SOL    HW224552   1.583   2.876   4.244
 7885SOL     OW24553   6.998   6.076   6.885
 7885SOL    HW124554   6.918   6.022   6.860
 7885SOL    HW224555   6.975   6.173   6.883
 7886SOL     OW24556   4.751   4.249   0.360
 7886SOL    HW124557   4.795   4.314   0.298
 7886SOL    HW224558   4.772   4.156   0.331
 7887SOL     OW24559   4.581   2.098   6.245
 7887SOL    HW124560   4.622   2.061   6.329
 7887SOL    HW224561   4.551   2.022   6.187
 7888SOL     OW24562   3.662   5.780   4.418
 7888SOL    HW124563   3.631   5.854   4.358
 7888SOL    HW224564   3.736   5.731   4.374
 7889SOL     OW24565   6.398   4.989   3.845
 7889SOL    HW124566   6.403   4.919   3.916
 7889SOL    HW224567   6.348   5.069   3.879
 7890SOL     OW24568   1.939   3.823   2.825
 7890SOL    HW124569   1.846   3.850   2.851
 7890SOL    HW224570   1.945   3.811   2.726
 7891SOL     OW24571   0.817   4.223   3.117
 7891SOL    HW124572   0.805   4.167   3.199
 7891SOL    HW224573   0.737   4.284   3.107
 7892SOL     OW24574   2.385   2.179   4.861
 7892SOL    HW124575   2.359   2.252   4.924
 7892SOL    HW224576   2.338   2.192   4.773
 7893SOL     OW24577   5.178   6.755   1.178
 7893SOL    HW124578   5.232   6.802   1.108
 7893SOL    HW224579   5.091   6.802   1.190
 7894SOL     OW24580   2.885   0.160   1.337
 7894SOL    HW124581   2.951   0.120   1.401
 7894SOL    HW224582   2.931   0.230   1.282
 7895SOL     OW24583   0.596   1.619   4.346
 7895SOL    HW124584   0.595   1.681   4.425
 7895SOL    HW224585   0.541   1.538   4.366
 7896SOL     OW24586   3.726   2.193   6.687
 7896SOL    HW124587   3.683   2.109   6.655
 7896SOL    HW224588   3.671   2.233   6.761
 7897SOL     OW24589   2.962   3.586   0.013
 7897SOL    HW124590   3.018   3.653   0.061
 7897SOL    HW224591   2.978   3.495   0.051
 7898SOL     OW24592   5.175   1.428   4.236
 7898SOL    HW124593   5.148   1.333   4.246
 7898SOL    HW224594   5.108   1.487   4.280
 7899SOL     OW24595   4.394   1.110   2.127
 7899SOL    HW124596   4.456   1.123   2.050
 7899SOL    HW224597   4.347   1.197   2.146
 7900SOL     OW24598   0.736   5.915   1.848
 7900SOL    HW124599   0.650   5.874   1.816
 7900SOL    HW224600   0.730   5.934   1.946
 7901SOL     OW24601   5.967   4.760   1.503
 7901SOL    HW124602   6.048   4.702   1.518
 7901SOL    HW224603   5.956   4.778   1.405
 7902SOL     OW24604   4.984   4.332   6.272
 7902SOL    HW124605   4.897   4.379   6.258
 7902SOL    HW224606   4.992   4.257   6.207
 7903SOL     OW24607   0.315   2.776   1.603
 7903SOL    HW124608   0.411   2.772   1.575
 7903SOL    HW224609   0.309   2.810   1.697
 7904SOL     OW24610   5.646   2.573   3.564
 7904SOL    HW124611   5.589   2.596   3.642
 7904SOL    HW224612   5.637   2.643   3.494
 7905SOL     OW24613   1.880   1.504   2.259
 7905SOL    HW124614   1.973   1.476   2.282
 7905SOL    HW224615   1.846   1.568   2.327
 7906SOL     OW24616   0.975   4.867   6.948
 7906SOL    HW124617   1.031   4.949   6.941
 7906SOL    HW224618   0.906   4.867   6.876
 7907SOL     OW24619   0.683   2.652   2.435
 7907SOL    HW124620   0.687   2.707   2.352
 7907SOL    HW224621   0.703   2.557   2.412
 7908SOL     OW24622   0.357   1.431   2.929
 7908SOL    HW124623   0.341   1.333   2.939
 7908SOL    HW224624   0.282   1.473   2.877
 7909SOL     OW24625   4.361   6.400   4.847
 7909SOL    HW124626   4.404   6.482   4.885
 7909SOL    HW224627   4.347   6.333   4.920
 7910SOL     OW24628   6.444   2.999   5.934
 7910SOL    HW124629   6.359   2.970   5.979
 7910SOL    HW224630   6.519   2.939   5.962
 7911SOL     OW24631   0.238   5.613   6.292
 7911SOL    HW124632   0.217   5.683   6.224
 7911SOL    HW224633   0.232   5.523   6.250
 7912SOL     OW24634   6.956   5.852   5.158
 7912SOL    HW124635   6.961   5.899   5.070
 7912SOL    HW224636   6.912   5.763   5.145
 7913SOL     OW24637   1.553   6.476   6.783
 7913SOL    HW124638   1.589   6.554   6.833
 7913SOL    HW224639   1.598   6.471   6.693
 7914SOL     OW24640   6.052   4.773   0.561
 7914SOL    HW124641   6.088   4.799   0.650
 7914SOL    HW224642   6.126   4.738   0.504
 7915SOL     OW24643   2.948   1.009   3.015
 7915SOL    HW124644   2.959   0.975   2.921
 7915SOL    HW224645   2.859   0.981   3.050
 7916SOL     OW24646   4.333   3.708   5.268
 7916SOL    HW124647   4.266   3.657   5.214
 7916SOL    HW224648   4.391   3.643   5.318
 7917SOL     OW24649   3.698   4.042   3.841
 7917SOL    HW124650   3.781   4.023   3.894
 7917SOL    HW224651   3.618   4.035   3.901
 7918SOL     OW24652   5.457   1.881   1.884
 7918SOL    HW124653   5.522   1.939   1.933
 7918SOL    HW224654   5.364   1.914   1.902
 7919SOL     OW24655   5.251   3.869   2.786
 7919SOL    HW124656   5.312   3.891   2.710
 7919SOL    HW224657   5.270   3.930   2.863
 7920SOL     OW24658   0.111   6.470   0.974
 7920SOL    HW124659   0.192   6.418   1.002
 7920SOL    HW224660   0.048   6.478   1.051
 7921SOL     OW24661   3.360   5.284   2.213
 7921SOL    HW124662   3.387   5.248   2.302
 7921SOL    HW224663   3.406   5.232   2.141
 7922SOL     OW24664   0.944   4.450   5.148
 7922SOL    HW124665   0.970   4.513   5.221
 7922SOL    HW224666   0.847   4.427   5.156
 7923SOL     OW24667   0.990   2.177   3.427
 7923SOL    HW124668   1.080   2.213   3.450
 7923SOL    HW224669   0.947   2.238   3.359
 7924SOL     OW24670   2.421   1.128   3.411
 7924SOL    HW124671   2.364   1.094   3.486
 7924SOL    HW224672   2.455   1.219   3.433
 7925SOL     OW24673   0.874   1.251   0.454
 7925SOL    HW124674   0.881   1.152   0.443
 7925SOL    HW224675   0.889   1.296   0.365
 7926SOL     OW24676   3.075   0.547   1.732
 7926SOL    HW124677   3.083   0.595   1.645
 7926SOL    HW224678   3.155   0.568   1.789
 7927SOL     OW24679   4.489   5.473   4.625
 7927SOL    HW124680   4.391   5.477   4.641
 7927SOL    HW224681   4.535   5.436   4.706
 7928SOL     OW24682   0.533   4.027   0.259
 7928SOL    HW124683   0.529   3.963   0.336
 7928SOL    HW224684   0.446   4.074   0.251
 7929SOL     OW24685   3.702   4.099   5.003
 7929SOL    HW124686   3.682   4.163   4.928
 7929SOL    HW224687   3.677   4.140   5.090
 7930SOL     OW24688   3.998   6.906   2.563
 7930SOL    HW124689   3.916   6.850   2.551
 7930SOL    HW224690   4.079   6.847   2.565
 7931SOL     OW24691   3.012   3.108   5.892
 7931SOL    HW124692   3.010   3.052   5.809
 7931SOL    HW224693   2.999   3.205   5.868
 7932SOL     OW24694   3.144   1.053   0.460
 7932SOL    HW124695   3.046   1.036   0.452
 7932SOL    HW224696   3.168   1.069   0.555
 7933SOL     OW24697   2.314   1.320   6.236
 7933SOL    HW124698   2.407   1.321   6.274
 7933SOL    HW224699   2.250   1.360   6.302
 7934SOL     OW24700   4.288   2.015   5.853
 7934SOL    HW124701   4.221   2.000   5.926
 7934SOL    HW224702   4.328   1.927   5.827
 7935SOL     OW24703   5.099   5.797   1.756
 7935SOL    HW124704   5.117   5.712   1.806
 7935SOL    HW224705   5.025   5.781   1.691
 7936SOL     OW24706   3.932   6.239   1.801
 7936SOL    HW124707   3.916   6.337   1.790
 7936SOL    HW224708   3.979   6.223   1.888
 7937SOL     OW24709   5.863   1.674   6.059
 7937SOL    HW124710   5.873   1.774   6.066
 7937SOL    HW224711   5.954   1.632   6.055
 7938SOL     OW24712   6.619   4.559   4.062
 7938SOL    HW124713   6.622   4.474   4.115
 7938SOL    HW224714   6.708   4.604   4.067
 7939SOL     OW24715   6.882   6.118   3.339
 7939SOL    HW124716   6.876   6.217   3.351
 7939SOL    HW224717   6.904   6.097   3.244
 7940SOL     OW24718   1.884   6.359   0.713
 7940SOL    HW124719   1.846   6.435   0.660
 7940SOL    HW224720   1.820   6.335   0.786
 7941SOL     OW24721   0.853   0.617   0.854
 7941SOL    HW124722   0.839   0.619   0.755
 7941SOL    HW224723   0.854   0.710   0.889
 7942SOL     OW24724   1.052   0.226   1.665
 7942SOL    HW124725   0.995   0.143   1.668
 7942SOL    HW224726   1.032   0.283   1.745
 7943SOL     OW24727   6.030   1.938   0.263
 7943SOL    HW124728   5.947   1.993   0.258
 7943SOL    HW224729   6.079   1.958   0.347
 7944SOL     OW24730   6.852   4.287   2.044
 7944SOL    HW124731   6.757   4.279   2.074
 7944SOL    HW224732   6.913   4.268   2.120
 7945SOL     OW24733   5.233   0.132   1.437
 7945SOL    HW124734   5.207   0.150   1.532
 7945SOL    HW224735   5.332   0.139   1.428
 7946SOL     OW24736   2.339   1.562   5.516
 7946SOL    HW124737   2.422   1.618   5.510
 7946SOL    HW224738   2.265   1.606   5.465
 7947SOL     OW24739   4.570   5.295   6.277
 7947SOL    HW124740   4.648   5.246   6.316
 7947SOL    HW224741   4.584   5.393   6.288
 7948SOL     OW24742   0.901   5.403   5.373
 7948SOL    HW124743   0.998   5.381   5.367
 7948SOL    HW224744   0.864   5.366   5.459
 7949SOL     OW24745   6.878   3.125   4.483
 7949SOL    HW124746   6.790   3.157   4.449
 7949SOL    HW224747   6.893   3.162   4.575
 7950SOL     OW24748   3.033   5.087   4.034
 7950SOL    HW124749   3.067   5.180   4.047
 7950SOL    HW224750   2.951   5.089   3.976
 7951SOL     OW24751   2.236   3.448   0.514
 7951SOL    HW124752   2.218   3.420   0.419
 7951SOL    HW224753   2.322   3.499   0.518
 7952SOL     OW24754   5.772   4.331   0.706
 7952SOL    HW124755   5.771   4.253   0.643
 7952SOL    HW224756   5.810   4.410   0.659
 7953SOL     OW24757   2.140   4.181   1.714
 7953SOL    HW124758   2.101   4.106   1.766
 7953SOL    HW224759   2.214   4.224   1.767
 7954SOL     OW24760   5.850   4.780   3.928
 7954SOL    HW124761   5.765   4.828   3.952
 7954SOL    HW224762   5.927   4.823   3.974
 7955SOL     OW24763   1.868   6.413   6.211
 7955SOL    HW124764   1.924   6.417   6.128
 7955SOL    HW224765   1.798   6.342   6.201
 7956SOL     OW24766   5.564   5.797   2.846
 7956SOL    HW124767   5.466   5.780   2.846
 7956SOL    HW224768   5.610   5.730   2.787
 7957SOL     OW24769   1.823   2.296   0.906
 7957SOL    HW124770   1.838   2.210   0.955
 7957SOL    HW224771   1.911   2.340   0.887
 7958SOL     OW24772   2.397   5.541   3.645
 7958SOL    HW124773   2.413   5.542   3.546
 7958SOL    HW224774   2.478   5.507   3.692
 7959SOL     OW24775   4.725   5.583   1.779
 7959SOL    HW124776   4.787   5.602   1.703
 7959SOL    HW224777   4.690   5.490   1.771
 7960SOL     OW24778   1.831   2.313   1.497
 7960SOL    HW124779   1.838   2.408   1.525
 7960SOL    HW224780   1.904   2.260   1.540
 7961SOL     OW24781   0.694   5.831   0.422
 7961SOL    HW124782   0.774   5.787   0.382
 7961SOL    HW224783   0.636   5.761   0.466
 7962SOL     OW24784   1.519   7.017   2.543
 7962SOL    HW124785   1.601   0.038   2.580
 7962SOL    HW224786   1.537   6.984   2.450
 7963SOL     OW24787   0.292   6.282   6.067
 7963SOL    HW124788   0.262   6.225   6.144
 7963SOL    HW224789   0.390   6.298   6.073
 7964SOL     OW24790   6.165   5.462   3.327
 7964SOL    HW124791   6.136   5.384   3.383
 7964SOL    HW224792   6.248   5.439   3.278
 7965SOL     OW24793   4.162   1.383   0.349
 7965SOL    HW124794   4.090   1.390   0.280
 7965SOL    HW224795   4.125   1.341   0.432
 7966SOL     OW24796   0.117   1.156   3.881
 7966SOL    HW124797   0.087   1.181   3.974
 7966SOL    HW224798   0.117   1.237   3.823
 7967SOL     OW24799   3.176   0.622   3.529
 7967SOL    HW124800   3.134   0.696   3.582
 7967SOL    HW224801   3.110   0.586   3.463
 7968SOL     OW24802   2.409   0.970   0.949
 7968SOL    HW124803   2.416   0.903   1.022
 7968SOL    HW224804   2.344   0.937   0.880
 7969SOL     OW24805   3.627   1.459   3.716
 7969SOL    HW124806   3.645   1.549   3.677
 7969SOL    HW224807   3.547   1.464   3.776
 7970SOL     OW24808   0.611   4.438   3.198
 7970SOL    HW124809   0.639   4.522   3.151
 7970SOL    HW224810   0.619   4.452   3.297
 7971SOL     OW24811   3.122   1.937   2.217
 7971SOL    HW124812   3.078   1.858   2.175
 7971SOL    HW224813   3.164   1.994   2.146
 7972SOL     OW24814   5.955   6.181   1.923
 7972SOL    HW124815   5.961   6.083   1.905
 7972SOL    HW224816   5.937   6.230   1.838
 7973SOL     OW24817   5.303   1.825   3.047
 7973SOL    HW124818   5.253   1.910   3.034
 7973SOL    HW224819   5.299   1.798   3.143
 7974SOL     OW24820   4.999   6.090   4.551
 7974SOL    HW124821   5.063   6.124   4.481
 7974SOL    HW224822   4.905   6.099   4.518
 7975SOL     OW24823   1.639   1.754   2.239
 7975SOL    HW124824   1.634   1.792   2.331
 7975SOL    HW224825   1.620   1.826   2.172
 7976SOL     OW24826   1.192   6.984   6.805
 7976SOL    HW124827   1.244   6.958   6.724
 7976SOL    HW224828   1.168   6.902   6.857
 7977SOL     OW24829   5.032   6.301   1.282
 7977SOL    HW124830   4.967   6.378   1.280
 7977SOL    HW224831   5.099   6.313   1.209
 7978SOL     OW24832   3.134   1.898   5.912
 7978SOL    HW124833   3.139   1.958   5.832
 7978SOL    HW224834   3.172   1.946   5.991
 7979SOL     OW24835   4.767   5.980   4.113
 7979SOL    HW124836   4.842   5.939   4.164
 7979SOL    HW224837   4.737   6.064   4.159
 7980SOL     OW24838   2.736   0.667   2.083
 7980SOL    HW124839   2.770   0.695   1.993
 7980SOL    HW224840   2.761   0.572   2.100
 7981SOL     OW24841   0.769   6.450   2.208
 7981SOL    HW124842   0.799   6.382   2.141
 7981SOL    HW224843   0.792   6.419   2.300
 7982SOL     OW24844   0.190   3.001   0.712
 7982SOL    HW124845   0.121   2.941   0.752
 7982SOL    HW224846   0.152   3.093   0.699
 7983SOL     OW24847   5.641   2.447   0.873
 7983SOL    HW124848   5.549   2.423   0.845
 7983SOL    HW224849   5.680   2.373   0.927
 7984SOL     OW24850   6.314   0.517   0.662
 7984SOL    HW124851   6.376   0.583   0.619
 7984SOL    HW224852   6.357   0.479   0.744
 7985SOL     OW24853   1.010   1.377   1.045
 7985SOL    HW124854   0.971   1.313   0.978
 7985SOL    HW224855   1.039   1.460   0.998
 7986SOL     OW24856   4.629   3.837   0.611
 7986SOL    HW124857   4.668   3.833   0.519
 7986SOL    HW224858   4.530   3.835   0.606
 7987SOL     OW24859   0.521   3.442   4.948
 7987SOL    HW124860   0.560   3.472   4.861
 7987SOL    HW224861   0.422   3.431   4.938
 7988SOL     OW24862   2.817   1.145   5.450
 7988SOL    HW124863   2.734   1.094   5.429
 7988SOL    HW224864   2.896   1.084   5.451
 7989SOL     OW24865   3.575   3.455   6.668
 7989SOL    HW124866   3.488   3.422   6.706
 7989SOL    HW224867   3.557   3.525   6.599
 7990SOL     OW24868   2.261   2.621   4.798
 7990SOL    HW124869   2.270   2.718   4.775
 7990SOL    HW224870   2.338   2.570   4.759
 7991SOL     OW24871   2.465   3.333   5.940
 7991SOL    HW124872   2.553   3.292   5.917
 7991SOL    HW224873   2.428   3.288   6.022
 7992SOL     OW24874   2.980   1.464   0.848
 7992SOL    HW124875   2.935   1.519   0.777
 7992SOL    HW224876   2.958   1.367   0.834
 7993SOL     OW24877   2.806   5.491   6.202
 7993SOL    HW124878   2.862   5.555   6.255
 7993SOL    HW224879   2.729   5.460   6.256
 7994SOL     OW24880   5.659   0.409   4.738
 7994SOL    HW124881   5.742   0.426   4.685
 7994SOL    HW224882   5.584   0.466   4.702
 7995SOL     OW24883   4.197   5.385   2.493
 7995SOL    HW124884   4.144   5.470   2.491
 7995SOL    HW224885   4.152   5.316   2.437
 7996SOL     OW24886   4.393   1.481   5.519
 7996SOL    HW124887   4.473   1.427   5.492
 7996SOL    HW224888   4.421   1.573   5.543
 7997SOL     OW24889   5.426   2.974   0.898
 7997SOL    HW124890   5.343   2.948   0.948
 7997SOL    HW224891   5.497   3.002   0.962
 7998SOL     OW24892   6.754   5.023   6.108
 7998SOL    HW124893   6.775   5.116   6.136
 7998SOL    HW224894   6.659   5.017   6.077
 7999SOL     OW24895   2.581   2.613   5.617
 7999SOL    HW124896   2.625   2.691   5.571
 7999SOL    HW224897   2.544   2.551   5.548
 8000SOL     OW24898   4.747   0.384   5.738
 8000SOL    HW124899   4.735   0.364   5.835
 8000SOL    HW224900   4.775   0.479   5.727
 8001SOL     OW24901   2.388   4.874   0.259
 8001SOL    HW124902   2.477   4.887   0.301
 8001SOL    HW224903   2.321   4.935   0.301
 8002SOL     OW24904   4.742   2.279   5.885
 8002SOL    HW124905   4.683   2.241   5.957
 8002SOL    HW224906   4.685   2.311   5.809
 8003SOL     OW24907   5.014   5.456   3.193
 8003SOL    HW124908   5.099   5.414   3.160
 8003SOL    HW224909   4.945   5.450   3.121
 8004SOL     OW24910   0.977   3.972   3.464
 8004SOL    HW124911   0.960   3.873   3.457
 8004SOL    HW224912   1.049   3.998   3.400
 8005SOL     OW24913   2.059   0.739   2.397
 8005SOL    HW124914   2.139   0.737   2.336
 8005SOL    HW224915   2.090   0.742   2.492
 8006SOL     OW24916   4.171   5.842   1.972
 8006SOL    HW124917   4.140   5.815   1.881
 8006SOL    HW224918   4.263   5.882   1.965
 8007SOL     OW24919   0.234   1.472   4.161
 8007SOL    HW124920   0.159   1.469   4.095
 8007SOL    HW224921   0.223   1.551   4.222
 8008SOL     OW24922   5.850   5.679   1.455
 8008SOL    HW124923   5.936   5.674   1.403
 8008SOL    HW224924   5.785   5.737   1.408
 8009SOL     OW24925   6.737   6.724   3.061
 8009SOL    HW124926   6.656   6.677   3.026
 8009SOL    HW224927   6.779   6.778   2.988
 8010SOL     OW24928   1.923   2.035   6.794
 8010SOL    HW124929   1.948   2.114   6.850
 8010SOL    HW224930   1.978   2.035   6.711
 8011SOL     OW24931   2.250   3.033   0.107
 8011SOL    HW124932   2.321   2.985   0.057
 8011SOL    HW224933   2.160   2.996   0.081
 8012SOL     OW24934   2.314   6.521   3.305
 8012SOL    HW124935   2.358   6.609   3.293
 8012SOL    HW224936   2.356   6.473   3.382
 8013SOL     OW24937   6.420   5.305   4.807
 8013SOL    HW124938   6.496   5.266   4.859
 8013SOL    HW224939   6.432   5.283   4.710
 8014SOL     OW24940   2.502   6.845   6.926
 8014SOL    HW124941   2.553   6.897   6.857
 8014SOL    HW224942   2.493   6.749   6.896
 8015SOL     OW24943   1.349   1.967   0.640
 8015SOL    HW124944   1.425   1.938   0.582
 8015SOL    HW224945   1.277   2.007   0.583
 8016SOL     OW24946   4.041   6.193   2.037
 8016SOL    HW124947   4.138   6.190   2.014
 8016SOL    HW224948   4.026   6.262   2.108
 8017SOL     OW24949   6.512   3.678   5.475
 8017SOL    HW124950   6.560   3.677   5.563
 8017SOL    HW224951   6.501   3.585   5.442
 8018SOL     OW24952   4.840   3.176   3.702
 8018SOL    HW124953   4.825   3.257   3.645
 8018SOL    HW224954   4.876   3.102   3.646
 8019SOL     OW24955   3.379   5.095   1.050
 8019SOL    HW124956   3.288   5.133   1.064
 8019SOL    HW224957   3.389   5.010   1.102
 8020SOL     OW24958   5.777   0.377   6.342
 8020SOL    HW124959   5.766   0.303   6.275
 8020SOL    HW224960   5.745   0.345   6.431
 8021SOL     OW24961   6.371   1.204   1.343
 8021SOL    HW124962   6.384   1.245   1.433
 8021SOL    HW224963   6.277   1.218   1.313
 8022SOL     OW24964   5.119   5.180   3.889
 8022SOL    HW124965   5.154   5.159   3.980
 8022SOL    HW224966   5.078   5.271   3.889
 8023SOL     OW24967   0.349   5.769   3.707
 8023SOL    HW124968   0.326   5.861   3.674
 8023SOL    HW224969   0.272   5.732   3.759
 8024SOL     OW24970   4.264   5.715   4.396
 8024SOL    HW124971   4.238   5.660   4.476
 8024SOL    HW224972   4.264   5.658   4.314
 8025SOL     OW24973   3.392   6.002   0.596
 8025SOL    HW124974   3.428   5.975   0.506
 8025SOL    HW224975   3.437   5.948   0.667
 8026SOL     OW24976   2.183   1.902   6.331
 8026SOL    HW124977   2.261   1.938   6.381
 8026SOL    HW224978   2.214   1.833   6.265
 8027SOL     OW24979   4.284   3.134   5.317
 8027SOL    HW124980   4.360   3.191   5.350
 8027SOL    HW224981   4.309   3.038   5.324
 8028SOL     OW24982   6.171   5.196   0.689
 8028SOL    HW124983   6.090   5.234   0.645
 8028SOL    HW224984   6.204   5.117   0.637
 8029SOL     OW24985   3.335   4.065   6.299
 8029SOL    HW124986   3.335   4.152   6.250
 8029SOL    HW224987   3.319   4.081   6.396
 8030SOL     OW24988   6.733   3.492   0.935
 8030SOL    HW124989   6.796   3.433   0.884
 8030SOL    HW224990   6.640   3.457   0.925
 8031SOL     OW24991   3.982   6.418   1.063
 8031SOL    HW124992   3.947   6.351   1.129
 8031SOL    HW224993   3.909   6.444   1.000
 8032SOL     OW24994   4.828   3.610   5.663
 8032SOL    HW124995   4.871   3.648   5.745
 8032SOL    HW224996   4.873   3.523   5.640
 8033SOL     OW24997   6.230   1.611   1.659
 8033SOL    HW124998   6.262   1.672   1.732
 8033SOL    HW224999   6.309   1.576   1.608
 8034SOL     OW25000   6.549   1.979   5.691
 8034SOL    HW125001   6.485   2.047   5.728
 8034SOL    HW225002   6.500   1.894   5.672
 8035SOL     OW25003   5.425   6.095   5.888
 8035SOL    HW125004   5.401   6.003   5.859
 8035SOL    HW225005   5.469   6.091   5.978
 8036SOL     OW25006   1.647   4.513   1.706
 8036SOL    HW125007   1.707   4.465   1.769
 8036SOL    HW225008   1.606   4.448   1.643
 8037SOL     OW25009   2.227   3.205   1.756
 8037SOL    HW125010   2.279   3.288   1.777
 8037SOL    HW225011   2.277   3.152   1.687
 8038SOL     OW25012   5.558   1.111   4.253
 8038SOL    HW125013   5.653   1.089   4.232
 8038SOL    HW225014   5.500   1.033   4.230
 8039SOL     OW25015   1.992   5.931   3.856
 8039SOL    HW125016   2.014   5.943   3.953
 8039SOL    HW225017   2.048   5.993   3.802
 8040SOL     OW25018   5.830   6.023   6.771
 8040SOL    HW125019   5.928   6.040   6.785
 8040SOL    HW225020   5.816   5.981   6.681
 8041SOL     OW25021   3.123   2.332   1.205
 8041SOL    HW125022   3.198   2.265   1.211
 8041SOL    HW225023   3.121   2.388   1.288
 8042SOL     OW25024   1.979   5.078   6.696
 8042SOL    HW125025   2.033   5.022   6.759
 8042SOL    HW225026   1.970   5.171   6.733
 8043SOL     OW25027   2.957   0.537   1.255
 8043SOL    HW125028   3.038   0.479   1.251
 8043SOL    HW225029   2.915   0.528   1.345
 8044SOL     OW25030   3.140   2.991   2.163
 8044SOL    HW125031   3.118   3.011   2.259
 8044SOL    HW225032   3.114   2.897   2.142
 8045SOL     OW25033   6.127   2.769   3.774
 8045SOL    HW125034   6.191   2.697   3.746
 8045SOL    HW225035   6.037   2.728   3.789
 8046SOL     OW25036   6.731   5.384   5.063
 8046SOL    HW125037   6.766   5.330   5.140
 8046SOL    HW225038   6.792   5.462   5.048
 8047SOL     OW25039   2.431   6.902   4.210
 8047SOL    HW125040   2.388   6.989   4.234
 8047SOL    HW225041   2.507   6.918   4.148
 8048SOL     OW25042   5.208   0.142   5.226
 8048SOL    HW125043   5.259   0.200   5.162
 8048SOL    HW225044   5.131   0.194   5.264
 8049SOL     OW25045   1.725   0.052   0.044
 8049SOL    HW125046   1.639   0.043   7.017
 8049SOL    HW225047   1.730   7.005   0.115
 8050SOL     OW25048   0.352   3.187   1.734
 8050SOL    HW125049   0.337   3.284   1.717
 8050SOL    HW225050   0.447   3.163   1.711
 8051SOL     OW25051   2.570   1.666   3.712
 8051SOL    HW125052   2.543   1.579   3.753
 8051SOL    HW225053   2.589   1.733   3.784
 8052SOL     OW25054   3.838   1.734   2.747
 8052SOL    HW125055   3.757   1.703   2.697
 8052SOL    HW225056   3.828   1.831   2.768
 8053SOL     OW25057   4.330   3.535   1.591
 8053SOL    HW125058   4.307   3.544   1.494
 8053SOL    HW225059   4.306   3.443   1.622
 8054SOL     OW25060   4.732   6.176   4.473
 8054SOL    HW125061   4.709   6.165   4.376
 8054SOL    HW225062   4.716   6.271   4.500
 8055SOL     OW25063   1.695   7.009   5.337
 8055SOL    HW125064   1.745   6.999   5.423
 8055SOL    HW225065   1.739   6.955   5.266
 8056SOL     OW25066   4.499   1.150   2.427
 8056SOL    HW125067   4.478   1.242   2.393
 8056SOL    HW225068   4.469   1.141   2.522
 8057SOL     OW25069   3.412   7.020   3.903
 8057SOL    HW125070   3.490   0.028   3.957
 8057SOL    HW225071   3.377   6.934   3.941
 8058SOL     OW25072   1.949   0.108   3.029
 8058SOL    HW125073   1.978   0.084   2.936
 8058SOL    HW225074   1.986   0.197   3.054
 8059SOL     OW25075   1.515   1.293   4.106
 8059SOL    HW125076   1.487   1.313   4.012
 8059SOL    HW225077   1.607   1.329   4.121
 8060SOL     OW25078   0.468   2.759   5.223
 8060SOL    HW125079   0.546   2.714   5.266
 8060SOL    HW225080   0.450   2.717   5.134
 8061SOL     OW25081   5.820   6.669   3.381
 8061SOL    HW125082   5.736   6.646   3.429
 8061SOL    HW225083   5.800   6.732   3.307
 8062SOL     OW25084   1.229   3.110   1.809
 8062SOL    HW125085   1.147   3.134   1.756
 8062SOL    HW225086   1.306   3.096   1.747
 8063SOL     OW25087   2.385   3.052   5.717
 8063SOL    HW125088   2.339   3.054   5.806
 8063SOL    HW225089   2.326   3.008   5.650
 8064SOL     OW25090   6.014   2.448   5.853
 8064SOL    HW125091   5.975   2.370   5.803
 8064SOL    HW225092   5.943   2.515   5.872
 8065SOL     OW25093   4.397   7.006   6.633
 8065SOL    HW125094   4.342   0.065   6.626
 8065SOL    HW225095   4.339   6.926   6.619
 8066SOL     OW25096   1.746   0.064   1.474
 8066SOL    HW125097   1.662   0.096   1.431
 8066SOL    HW225098   1.825   0.109   1.432
 8067SOL     OW25099   4.474   2.524   2.380
 8067SOL    HW125100   4.533   2.605   2.377
 8067SOL    HW225101   4.476   2.485   2.472
 8068SOL     OW25102   6.753   4.603   4.421
 8068SOL    HW125103   6.765   4.613   4.322
 8068SOL    HW225104   6.842   4.587   4.464
 8069SOL     OW25105   0.981   6.637   2.223
 8069SOL    HW125106   0.975   6.673   2.316
 8069SOL    HW225107   0.896   6.590   2.199
 8070SOL     OW25108   3.496   0.601   2.139
 8070SOL    HW125109   3.468   0.527   2.200
 8070SOL    HW225110   3.561   0.661   2.186
 8071SOL     OW25111   5.385   4.744   0.424
 8071SOL    HW125112   5.362   4.767   0.329
 8071SOL    HW225113   5.409   4.828   0.473
 8072SOL     OW25114   3.984   0.852   3.157
 8072SOL    HW125115   3.940   0.847   3.068
 8072SOL    HW225116   3.915   0.865   3.228
 8073SOL     OW25117   4.769   0.226   5.962
 8073SOL    HW125118   4.781   0.133   5.927
 8073SOL    HW225119   4.703   0.226   6.037
 8074SOL     OW25120   2.788   3.978   0.109
 8074SOL    HW125121   2.696   3.985   0.147
 8074SOL    HW225122   2.828   4.069   0.101
 8075SOL     OW25123   6.142   1.616   4.058
 8075SOL    HW125124   6.210   1.597   3.987
 8075SOL    HW225125   6.096   1.532   4.084
 8076SOL     OW25126   4.694   3.172   6.540
 8076SOL    HW125127   4.666   3.091   6.488
 8076SOL    HW225128   4.765   3.221   6.490
 8077SOL     OW25129   0.769   0.719   0.077
 8077SOL    HW125130   0.824   0.694   0.157
 8077SOL    HW225131   0.779   0.817   0.059
 8078SOL     OW25132   5.945   3.491   1.066
 8078SOL    HW125133   5.863   3.502   1.011
 8078SOL    HW225134   6.024   3.528   1.017
 8079SOL     OW25135   1.266   2.544   0.891
 8079SOL    HW125136   1.356   2.557   0.849
 8079SOL    HW225137   1.221   2.632   0.903
 8080SOL     OW25138   4.141   5.437   6.823
 8080SOL    HW125139   4.126   5.383   6.906
 8080SOL    HW225140   4.073   5.412   6.754
 8081SOL     OW25141   5.724   2.351   4.762
 8081SOL    HW125142   5.711   2.416   4.837
 8081SOL    HW225143   5.721   2.258   4.798
 8082SOL     OW25144   6.625   3.535   4.827
 8082SOL    HW125145   6.540   3.483   4.818
 8082SOL    HW225146   6.689   3.508   4.755
 8083SOL     OW25147   5.506   1.628   5.048
 8083SOL    HW125148   5.602   1.625   5.074
 8083SOL    HW225149   5.496   1.599   4.953
 8084SOL     OW25150   6.251   0.342   0.339
 8084SOL    HW125151   6.154   0.368   0.346
 8084SOL    HW225152   6.262   0.249   0.376
 8085SOL     OW25153   4.694   2.306   0.885
 8085SOL    HW125154   4.674   2.235   0.952
 8085SOL    HW225155   4.780   2.287   0.839
 8086SOL     OW25156   2.641   5.268   5.740
 8086SOL    HW125157   2.683   5.324   5.812
 8086SOL    HW225158   2.542   5.281   5.740
 8087SOL     OW25159   2.595   3.431   0.749
 8087SOL    HW125160   2.508   3.420   0.795
 8087SOL    HW225161   2.609   3.356   0.684
 8088SOL     OW25162   4.582   0.430   3.494
 8088SOL    HW125163   4.518   0.506   3.495
 8088SOL    HW225164   4.533   0.344   3.504
 8089SOL     OW25165   6.613   2.866   0.733
 8089SOL    HW125166   6.634   2.769   0.733
 8089SOL    HW225167   6.611   2.900   0.639
 8090SOL     OW25168   4.683   1.399   5.051
 8090SOL    HW125169   4.669   1.411   4.952
 8090SOL    HW225170   4.616   1.333   5.086
 8091SOL     OW25171   1.900   3.547   5.420
 8091SOL    HW125172   1.965   3.598   5.364
 8091SOL    HW225173   1.889   3.591   5.509
 8092SOL     OW25174   6.320   1.744   4.252
 8092SOL    HW125175   6.261   1.698   4.186
 8092SOL    HW225176   6.306   1.843   4.247
 8093SOL     OW25177   6.008   5.406   0.933
 8093SOL    HW125178   5.967   5.487   0.974
 8093SOL    HW225179   5.944   5.365   0.868
 8094SOL     OW25180   0.260   3.279   3.990
 8094SOL    HW125181   0.219   3.284   3.899
 8094SOL    HW225182   0.357   3.300   3.984
 8095SOL     OW25183   6.467   3.240   4.762
 8095SOL    HW125184   6.563   3.256   4.739
 8095SOL    HW225185   6.451   3.142   4.772
 8096SOL     OW25186   4.664   0.315   0.656
 8096SOL    HW125187   4.722   0.396   0.650
 8096SOL    HW225188   4.569   0.341   0.646
 8097SOL     OW25189   4.461   1.703   3.974
 8097SOL    HW125190   4.506   1.745   3.895
 8097SOL    HW225191   4.529   1.662   4.034
 8098SOL     OW25192   2.154   2.160   4.441
 8098SOL    HW125193   2.120   2.117   4.524
 8098SOL    HW225194   2.079   2.168   4.375
 8099SOL     OW25195   3.778   6.338   4.281
 8099SOL    HW125196   3.783   6.369   4.186
 8099SOL    HW225197   3.825   6.404   4.340
 8100SOL     OW25198   6.313   6.145   1.555
 8100SOL    HW125199   6.275   6.145   1.462
 8100SOL    HW225200   6.409   6.120   1.552
 8101SOL     OW25201   0.724   4.828   1.888
 8101SOL    HW125202   0.783   4.750   1.867
 8101SOL    HW225203   0.679   4.858   1.804
 8102SOL     OW25204   6.564   6.812   5.701
 8102SOL    HW125205   6.652   6.843   5.736
 8102SOL    HW225206   6.538   6.868   5.622
 8103SOL     OW25207   2.500   2.567   2.253
 8103SOL    HW125208   2.505   2.526   2.344
 8103SOL    HW225209   2.557   2.514   2.189
 8104SOL     OW25210   2.606   6.958   5.968
 8104SOL    HW125211   2.627   6.926   6.061
 8104SOL    HW225212   2.571   0.028   5.973
 8105SOL     OW25213   2.101   2.604   3.072
 8105SOL    HW125214   2.025   2.570   3.018
 8105SOL    HW225215   2.089   2.701   3.089
 8106SOL     OW25216   0.850   3.866   5.551
 8106SOL    HW125217   0.779   3.922   5.508
 8106SOL    HW225218   0.856   3.889   5.648
 8107SOL     OW25219   1.115   5.333   6.607
 8107SOL    HW125220   1.148   5.238   6.607
 8107SOL    HW225221   1.062   5.350   6.690
 8108SOL     OW25222   2.446   2.752   6.301
 8108SOL    HW125223   2.476   2.847   6.303
 8108SOL    HW225224   2.405   2.731   6.212
 8109SOL     OW25225   0.214   5.485   5.553
 8109SOL    HW125226   0.216   5.584   5.568
 8109SOL    HW225227   0.256   5.463   5.464
 8110SOL     OW25228   1.398   4.871   0.442
 8110SOL    HW125229   1.390   4.782   0.398
 8110SOL    HW225230   1.364   4.942   0.381
 8111SOL     OW25231   3.106   5.998   4.110
 8111SOL    HW125232   3.114   6.046   4.197
 8111SOL    HW225233   3.014   6.012   4.073
 8112SOL     OW25234   3.884   1.488   3.990
 8112SOL    HW125235   3.791   1.452   3.984
 8112SOL    HW225236   3.884   1.569   4.050
 8113SOL     OW25237   3.010   2.393   5.589
 8113SOL    HW125238   3.046   2.486   5.581
 8113SOL    HW225239   3.045   2.337   5.514
 8114SOL     OW25240   3.282   3.740   1.386
 8114SOL    HW125241   3.248   3.722   1.478
 8114SOL    HW225242   3.374   3.703   1.377
 8115SOL     OW25243   3.910   2.677   1.130
 8115SOL    HW125244   3.846   2.629   1.071
 8115SOL    HW225245   3.969   2.736   1.075
 8116SOL     OW25246   5.259   1.542   5.728
 8116SOL    HW125247   5.198   1.619   5.709
 8116SOL    HW225248   5.242   1.469   5.662
 8117SOL     OW25249   2.998   2.678   5.757
 8117SOL    HW125250   2.966   2.592   5.717
 8117SOL    HW225251   3.057   2.658   5.836
 8118SOL     OW25252   1.004   1.913   4.342
 8118SOL    HW125253   1.066   1.989   4.325
 8118SOL    HW225254   0.982   1.867   4.256
 8119SOL     OW25255   1.446   6.761   2.474
 8119SOL    HW125256   1.435   6.858   2.496
 8119SOL    HW225257   1.375   6.733   2.409
 8120SOL     OW25258   4.661   4.307   2.486
 8120SOL    HW125259   4.687   4.277   2.577
 8120SOL    HW225260   4.640   4.405   2.488
 8121SOL     OW25261   6.833   5.799   3.229
 8121SOL    HW125262   6.851   5.785   3.131
 8121SOL    HW225263   6.833   5.711   3.276
 8122SOL     OW25264   6.967   5.432   1.813
 8122SOL    HW125265   6.924   5.405   1.899
 8122SOL    HW225266   0.041   5.451   1.829
 8123SOL     OW25267   1.411   5.436   6.650
 8123SOL    HW125268   1.388   5.506   6.718
 8123SOL    HW225269   1.360   5.352   6.670
 8124SOL     OW25270   1.469   6.060   2.866
 8124SOL    HW125271   1.483   6.116   2.784
 8124SOL    HW225272   1.434   5.970   2.839
 8125SOL     OW25273   5.192   5.219   3.149
 8125SOL    HW125274   5.236   5.154   3.086
 8125SOL    HW225275   5.125   5.170   3.205
 8126SOL     OW25276   0.112   4.732   1.527
 8126SOL    HW125277   0.206   4.748   1.497
 8126SOL    HW225278   0.076   4.650   1.482
 8127SOL     OW25279   4.446   5.628   0.895
 8127SOL    HW125280   4.347   5.634   0.885
 8127SOL    HW225281   4.483   5.569   0.823
 8128SOL     OW25282   4.018   2.050   5.301
 8128SOL    HW125283   4.102   2.003   5.274
 8128SOL    HW225284   3.964   1.991   5.361
 8129SOL     OW25285   4.592   6.092   6.788
 8129SOL    HW125286   4.674   6.049   6.824
 8129SOL    HW225287   4.616   6.177   6.740
 8130SOL     OW25288   0.708   0.467   6.350
 8130SOL    HW125289   0.626   0.434   6.303
 8130SOL    HW225290   0.760   0.389   6.386
 8131SOL     OW25291   2.392   1.719   1.641
 8131SOL    HW125292   2.399   1.624   1.610
 8131SOL    HW225293   2.310   1.761   1.602
 8132SOL     OW25294   5.859   4.388   3.116
 8132SOL    HW125295   5.911   4.346   3.042
 8132SOL    HW225296   5.905   4.372   3.203
 8133SOL     OW25297   0.349   5.476   2.506
 8133SOL    HW125298   0.386   5.538   2.436
 8133SOL    HW225299   0.419   5.408   2.530
 8134SOL     OW25300   2.716   3.146   1.671
 8134SOL    HW125301   2.651   3.084   1.627
 8134SOL    HW225302   2.708   3.138   1.770
 8135SOL     OW25303   3.808   6.362   2.473
 8135SOL    HW125304   3.786   6.440   2.414
 8135SOL    HW225305   3.835   6.284   2.416
 8136SOL     OW25306   2.241   5.824   1.868
 8136SOL    HW125307   2.207   5.799   1.959
 8136SOL    HW225308   2.332   5.785   1.855
 8137SOL     OW25309   2.990   3.615   5.500
 8137SOL    HW125310   2.942   3.618   5.588
 8137SOL    HW225311   2.923   3.606   5.426
 8138SOL     OW25312   4.455   1.060   3.664
 8138SOL    HW125313   4.537   1.102   3.624
 8138SOL    HW225314   4.380   1.126   3.663
 8139SOL     OW25315   1.717   2.992   5.928
 8139SOL    HW125316   1.662   3.067   5.891
 8139SOL    HW225317   1.735   2.925   5.856
 8140SOL     OW25318   4.910   1.734   1.225
 8140SOL    HW125319   4.889   1.639   1.200
 8140SOL    HW225320   5.004   1.754   1.198
 8141SOL     OW25321   5.810   0.663   5.288
 8141SOL    HW125322   5.782   0.751   5.250
 8141SOL    HW225323   5.771   0.652   5.379
 8142SOL     OW25324   3.731   5.940   0.521
 8142SOL    HW125325   3.683   5.887   0.452
 8142SOL    HW225326   3.805   5.991   0.478
 8143SOL     OW25327   5.594   5.114   6.916
 8143SOL    HW125328   5.495   5.120   6.933
 8143SOL    HW225329   5.610   5.094   6.819
 8144SOL     OW25330   1.678   5.412   6.714
 8144SOL    HW125331   1.581   5.389   6.710
 8144SOL    HW225332   1.717   5.406   6.622
 8145SOL     OW25333   5.321   5.775   5.557
 8145SOL    HW125334   5.377   5.785   5.639
 8145SOL    HW225335   5.272   5.860   5.539
 8146SOL     OW25336   6.893   6.219   5.128
 8146SOL    HW125337   6.963   6.280   5.090
 8146SOL    HW225338   6.930   6.172   5.208
 8147SOL     OW25339   2.377   0.038   4.572
 8147SOL    HW125340   2.321   0.121   4.562
 8147SOL    HW225341   2.340   6.989   4.515
 8148SOL     OW25342   5.402   4.487   0.502
 8148SOL    HW125343   5.391   4.579   0.466
 8148SOL    HW225344   5.317   4.436   0.492
 8149SOL     OW25345   1.822   6.735   5.266
 8149SOL    HW125346   1.820   6.806   5.196
 8149SOL    HW225347   1.914   6.729   5.305
 8150SOL     OW25348   0.268   4.377   0.790
 8150SOL    HW125349   0.196   4.425   0.740
 8150SOL    HW225350   0.336   4.342   0.725
 8151SOL     OW25351   6.266   4.057   1.986
 8151SOL    HW125352   6.331   4.113   1.934
 8151SOL    HW225353   6.312   4.019   2.066
 8152SOL     OW25354   5.003   2.059   3.899
 8152SOL    HW125355   4.940   2.129   3.931
 8152SOL    HW225356   4.970   1.969   3.926
 8153SOL     OW25357   0.352   1.735   1.159
 8153SOL    HW125358   0.360   1.816   1.218
 8153SOL    HW225359   0.256   1.707   1.154
 8154SOL     OW25360   0.689   0.863   3.615
 8154SOL    HW125361   0.754   0.907   3.553
 8154SOL    HW225362   0.600   0.857   3.570
 8155SOL     OW25363   0.974   4.657   4.405
 8155SOL    HW125364   1.048   4.630   4.344
 8155SOL    HW225365   0.889   4.612   4.376
 8156SOL     OW25366   1.470   3.998   0.528
 8156SOL    HW125367   1.566   3.971   0.533
 8156SOL    HW225368   1.419   3.954   0.603
 8157SOL     OW25369   6.008   4.449   4.599
 8157SOL    HW125370   5.933   4.484   4.655
 8157SOL    HW225371   6.088   4.508   4.612
 8158SOL     OW25372   6.334   5.194   6.150
 8158SOL    HW125373   6.277   5.142   6.213
 8158SOL    HW225374   6.395   5.132   6.101
 8159SOL     OW25375   2.336   6.772   5.395
 8159SOL    HW125376   2.382   6.775   5.306
 8159SOL    HW225377   2.400   6.741   5.465
 8160SOL     OW25378   5.333   2.871   3.051
 8160SOL    HW125379   5.276   2.856   2.970
 8160SOL    HW225380   5.398   2.795   3.060
 8161SOL     OW25381   0.507   2.372   1.530
 8161SOL    HW125382   0.450   2.290   1.532
 8161SOL    HW225383   0.595   2.350   1.488
 8162SOL     OW25384   0.266   5.951   5.331
 8162SOL    HW125385   0.214   6.026   5.373
 8162SOL    HW225386   0.279   5.969   5.234
 8163SOL     OW25387   3.171   5.032   5.729
 8163SOL    HW125388   3.094   4.973   5.753
 8163SOL    HW225389   3.216   4.997   5.647
 8164SOL     OW25390   5.259   1.983   0.426
 8164SOL    HW125391   5.178   1.924   0.420
 8164SOL    HW225392   5.254   2.054   0.355
 8165SOL     OW25393   0.761   2.547   6.309
 8165SOL    HW125394   0.767   2.483   6.233
 8165SOL    HW225395   0.666   2.575   6.322
 8166SOL     OW25396   3.107   2.167   4.416
 8166SOL    HW125397   3.129   2.247   4.470
 8166SOL    HW225398   3.017   2.133   4.442
 8167SOL     OW25399   1.712   2.938   3.275
 8167SOL    HW125400   1.632   2.895   3.317
 8167SOL    HW225401   1.714   3.035   3.297
 8168SOL     OW25402   1.373   6.385   2.645
 8168SOL    HW125403   1.414   6.401   2.735
 8168SOL    HW225404   1.403   6.296   2.609
 8169SOL     OW25405   4.996   4.759   0.179
 8169SOL    HW125406   4.906   4.799   0.163
 8169SOL    HW225407   5.058   4.784   0.105
 8170SOL     OW25408   0.003   4.517   3.506
 8170SOL    HW125409   6.950   4.565   3.549
 8170SOL    HW225410   0.061   4.584   3.459
 8171SOL     OW25411   1.771   1.488   1.739
 8171SOL    HW125412   1.747   1.573   1.695
 8171SOL    HW225413   1.825   1.507   1.822
 8172SOL     OW25414   1.543   4.885   0.666
 8172SOL    HW125415   1.576   4.791   0.671
 8172SOL    HW225416   1.482   4.895   0.587
 8173SOL     OW25417   5.656   6.635   1.625
 8173SOL    HW125418   5.602   6.551   1.628
 8173SOL    HW225419   5.704   6.640   1.537
 8174SOL     OW25420   2.623   6.417   3.921
 8174SOL    HW125421   2.705   6.394   3.974
 8174SOL    HW225422   2.562   6.472   3.977
 8175SOL     OW25423   0.467   2.019   5.808
 8175SOL    HW125424   0.391   2.066   5.764
 8175SOL    HW225425   0.433   1.959   5.880
 8176SOL     OW25426   3.037   4.789   6.873
 8176SOL    HW125427   2.977   4.745   6.939
 8176SOL    HW225428   2.984   4.816   6.792
 8177SOL     OW25429   3.402   0.775   2.423
 8177SOL    HW125430   3.379   0.871   2.440
 8177SOL    HW225431   3.501   0.764   2.414
 8178SOL     OW25432   2.465   6.080   1.287
 8178SOL    HW125433   2.514   6.041   1.209
 8178SOL    HW225434   2.500   6.171   1.306
 8179SOL     OW25435   6.762   6.826   3.795
 8179SOL    HW125436   6.702   6.791   3.723
 8179SOL    HW225437   6.798   6.915   3.769
 8180SOL     OW25438   4.895   5.303   0.639
 8180SOL    HW125439   4.858   5.213   0.661
 8180SOL    HW225440   4.972   5.292   0.576
 8181SOL     OW25441   6.291   0.752   6.584
 8181SOL    HW125442   6.317   0.663   6.621
 8181SOL    HW225443   6.206   0.783   6.628
 8182SOL     OW25444   3.401   3.840   3.045
 8182SOL    HW125445   3.488   3.888   3.051
 8182SOL    HW225446   3.363   3.852   2.953
 8183SOL     OW25447   0.438   0.187   5.449
 8183SOL    HW125448   0.511   0.194   5.517
 8183SOL    HW225449   0.350   0.181   5.495
 8184SOL     OW25450   6.955   6.001   4.929
 8184SOL    HW125451   6.927   5.964   4.840
 8184SOL    HW225452   6.874   6.033   4.978
 8185SOL     OW25453   0.037   6.245   4.712
 8185SOL    HW125454   0.027   6.147   4.692
 8185SOL    HW225455   0.065   6.257   4.807
 8186SOL     OW25456   1.409   5.593   0.308
 8186SOL    HW125457   1.433   5.690   0.301
 8186SOL    HW225458   1.468   5.549   0.376
 8187SOL     OW25459   1.355   6.548   4.894
 8187SOL    HW125460   1.422   6.518   4.826
 8187SOL    HW225461   1.395   6.621   4.949
 8188SOL     OW25462   1.405   2.761   2.623
 8188SOL    HW125463   1.328   2.763   2.559
 8188SOL    HW225464   1.424   2.853   2.657
 8189SOL     OW25465   6.687   5.402   4.228
 8189SOL    HW125466   6.659   5.328   4.167
 8189SOL    HW225467   6.769   5.446   4.192
 8190SOL     OW25468   5.689   3.676   2.728
 8190SOL    HW125469   5.674   3.691   2.826
 8190SOL    HW225470   5.629   3.736   2.676
 8191SOL     OW25471   5.028   5.277   0.925
 8191SOL    HW125472   5.072   5.271   0.835
 8191SOL    HW225473   4.962   5.352   0.925
 8192SOL     OW25474   0.092   5.801   3.211
 8192SOL    HW125475   7.017   5.793   3.226
 8192SOL    HW225476   0.135   5.711   3.222
 8193SOL     OW25477   0.491   4.619   4.155
 8193SOL    HW125478   0.578   4.605   4.202
 8193SOL    HW225479   0.466   4.715   4.158
 8194SOL     OW25480   5.186   0.277   2.074
 8194SOL    HW125481   5.223   0.352   2.129
 8194SOL    HW225482   5.103   0.242   2.116
 8195SOL     OW25483   6.672   6.566   3.343
 8195SOL    HW125484   6.627   6.496   3.286
 8195SOL    HW225485   6.711   6.637   3.284
 8196SOL     OW25486   4.938   0.032   2.897
 8196SOL    HW125487   5.031   0.063   2.877
 8196SOL    HW225488   4.928   6.960   2.870
 8197SOL     OW25489   4.012   1.272   3.333
 8197SOL    HW125490   4.056   1.182   3.337
 8197SOL    HW225491   4.066   1.338   3.385
 8198SOL     OW25492   2.164   5.376   0.441
 8198SOL    HW125493   2.088   5.339   0.494
 8198SOL    HW225494   2.183   5.470   0.470
 8199SOL     OW25495   6.111   2.558   0.400
 8199SOL    HW125496   6.128   2.611   0.317
 8199SOL    HW225497   6.099   2.621   0.477
 8200SOL     OW25498   6.153   4.720   0.072
 8200SOL    HW125499   6.102   4.642   0.036
 8200SOL    HW225500   6.241   4.727   0.024
 8201SOL     OW25501   5.487   0.667   5.268
 8201SOL    HW125502   5.523   0.599   5.332
 8201SOL    HW225503   5.528   0.653   5.178
 8202SOL     OW25504   0.546   5.627   1.784
 8202SOL    HW125505   0.518   5.711   1.737
 8202SOL    HW225506   0.544   5.642   1.883
 8203SOL     OW25507   1.475   3.239   0.405
 8203SOL    HW125508   1.379   3.212   0.409
 8203SOL    HW225509   1.482   3.334   0.374
 8204SOL     OW25510   1.718   3.461   0.491
 8204SOL    HW125511   1.756   3.536   0.544
 8204SOL    HW225512   1.672   3.397   0.553
 8205SOL     OW25513   0.181   4.065   6.208
 8205SOL    HW125514   0.141   3.997   6.270
 8205SOL    HW225515   0.108   4.117   6.164
 8206SOL     OW25516   3.326   0.684   1.357
 8206SOL    HW125517   3.309   0.731   1.270
 8206SOL    HW225518   3.393   0.611   1.342
 8207SOL     OW25519   4.097   3.701   4.308
 8207SOL    HW125520   4.073   3.791   4.345
 8207SOL    HW225521   4.144   3.647   4.378
 8208SOL     OW25522   2.653   6.954   6.728
 8208SOL    HW125523   2.658   0.010   6.667
 8208SOL    HW225524   2.720   6.885   6.699
 8209SOL     OW25525   5.933   2.355   4.092
 8209SOL    HW125526   5.927   2.351   4.192
 8209SOL    HW225527   6.006   2.294   4.061
 8210SOL     OW25528   2.113   2.632   6.193
 8210SOL    HW125529   2.034   2.674   6.148
 8210SOL    HW225530   2.156   2.567   6.131
 8211SOL     OW25531   3.931   4.852   1.068
 8211SOL    HW125532   3.899   4.763   1.037
 8211SOL    HW225533   4.008   4.840   1.131
 8212SOL     OW25534   1.940   3.385   2.732
 8212SOL    HW125535   1.843   3.390   2.706
 8212SOL    HW225536   1.996   3.426   2.660
 8213SOL     OW25537   6.489   4.851   0.706
 8213SOL    HW125538   6.527   4.762   0.683
 8213SOL    HW225539   6.391   4.844   0.719
 8214SOL     OW25540   4.872   3.362   3.434
 8214SOL    HW125541   4.847   3.372   3.337
 8214SOL    HW225542   4.905   3.450   3.469
 8215SOL     OW25543   3.779   5.027   1.727
 8215SOL    HW125544   3.829   4.961   1.783
 8215SOL    HW225545   3.842   5.073   1.665
 8216SOL     OW25546   5.466   3.577   3.920
 8216SOL    HW125547   5.512   3.490   3.932
 8216SOL    HW225548   5.512   3.629   3.848
 8217SOL     OW25549   2.337   5.549   0.157
 8217SOL    HW125550   2.427   5.548   0.202
 8217SOL    HW225551   2.305   5.643   0.150
 8218SOL     OW25552   4.747   2.190   6.638
 8218SOL    HW125553   4.667   2.248   6.657
 8218SOL    HW225554   4.817   2.208   6.707
 8219SOL     OW25555   5.202   2.087   0.165
 8219SOL    HW125556   5.116   2.139   0.168
 8219SOL    HW225557   5.183   1.992   0.142
 8220SOL     OW25558   4.003   3.658   1.644
 8220SOL    HW125559   3.977   3.561   1.638
 8220SOL    HW225560   3.990   3.690   1.738
 8221SOL     OW25561   5.857   4.052   3.567
 8221SOL    HW125562   5.921   4.076   3.494
 8221SOL    HW225563   5.764   4.059   3.533
 8222SOL     OW25564   6.166   1.033   2.978
 8222SOL    HW125565   6.227   1.002   2.905
 8222SOL    HW225566   6.071   1.030   2.945
 8223SOL     OW25567   0.545   5.017   0.087
 8223SOL    HW125568   0.510   5.024   7.017
 8223SOL    HW225569   0.491   4.949   0.137
 8224SOL     OW25570   0.764   4.069   2.414
 8224SOL    HW125571   0.819   3.999   2.460
 8224SOL    HW225572   0.697   4.024   2.355
 8225SOL     OW25573   5.176   1.329   1.445
 8225SOL    HW125574   5.139   1.248   1.399
 8225SOL    HW225575   5.202   1.397   1.376
 8226SOL     OW25576   3.736   0.560   6.868
 8226SOL    HW125577   3.643   0.528   6.888
 8226SOL    HW225578   3.786   0.488   6.820
 8227SOL     OW25579   6.322   4.169   3.237
 8227SOL    HW125580   6.249   4.137   3.297
 8227SOL    HW225581   6.302   4.142   3.143
 8228SOL     OW25582   0.032   1.479   3.978
 8228SOL    HW125583   0.031   1.413   3.903
 8228SOL    HW225584   6.974   1.537   3.973
 8229SOL     OW25585   5.508   5.536   0.368
 8229SOL    HW125586   5.462   5.520   0.280
 8229SOL    HW225587   5.574   5.463   0.385
 8230SOL     OW25588   5.372   0.121   3.038
 8230SOL    HW125589   5.299   0.141   3.104
 8230SOL    HW225590   5.410   0.030   3.056
 8231SOL     OW25591   4.008   5.855   1.132
 8231SOL    HW125592   3.980   5.911   1.210
 8231SOL    HW225593   4.097   5.814   1.150
 8232SOL     OW25594   2.610   1.634   0.210
 8232SOL    HW125595   2.546   1.558   0.199
 8232SOL    HW225596   2.585   1.707   0.147
 8233SOL     OW25597   0.657   5.669   5.849
 8233SOL    HW125598   0.741   5.695   5.898
 8233SOL    HW225599   0.589   5.637   5.915
 8234SOL     OW25600   2.267   3.188   6.745
 8234SOL    HW125601   2.322   3.228   6.818
 8234SOL    HW225602   2.272   3.088   6.749
 8235SOL     OW25603   4.768   2.326   6.377
 8235SOL    HW125604   4.770   2.293   6.472
 8235SOL    HW225605   4.718   2.261   6.321
 8236SOL     OW25606   6.224   2.569   1.545
 8236SOL    HW125607   6.131   2.593   1.519
 8236SOL    HW225608   6.230   2.559   1.645
 8237SOL     OW25609   3.847   6.178   5.669
 8237SOL    HW125610   3.794   6.191   5.754
 8237SOL    HW225611   3.862   6.267   5.626
 8238SOL     OW25612   1.010   1.000   6.439
 8238SOL    HW125613   1.075   0.934   6.474
 8238SOL    HW225614   0.948   0.955   6.374
 8239SOL     OW25615   5.845   1.352   0.004
 8239SOL    HW125616   5.852   1.437   6.974
 8239SOL    HW225617   5.787   1.368   0.084
 8240SOL     OW25618   3.728   3.398   2.976
 8240SOL    HW125619   3.721   3.407   3.075
 8240SOL    HW225620   3.677   3.318   2.945
 8241SOL     OW25621   4.802   6.219   1.409
 8241SOL    HW125622   4.712   6.175   1.417
 8241SOL    HW225623   4.822   6.235   1.312
 8242SOL     OW25624   1.418   4.061   5.240
 8242SOL    HW125625   1.433   4.119   5.320
 8242SOL    HW225626   1.319   4.052   5.223
 8243SOL     OW25627   0.209   3.171   4.946
 8243SOL    HW125628   0.243   3.264   4.933
 8243SOL    HW225629   0.270   3.121   5.008
 8244SOL     OW25630   2.598   5.495   5.055
 8244SOL    HW125631   2.515   5.514   5.107
 8244SOL    HW225632   2.632   5.404   5.080
 8245SOL     OW25633   4.416   3.856   1.373
 8245SOL    HW125634   4.477   3.792   1.326
 8245SOL    HW225635   4.323   3.819   1.372
 8246SOL     OW25636   5.237   3.502   5.069
 8246SOL    HW125637   5.174   3.459   5.005
 8246SOL    HW225638   5.213   3.599   5.080
 8247SOL     OW25639   1.089   6.363   6.664
 8247SOL    HW125640   1.186   6.386   6.651
 8247SOL    HW225641   1.079   6.263   6.660
 8248SOL     OW25642   0.211   4.019   3.609
 8248SOL    HW125643   0.180   3.946   3.670
 8248SOL    HW225644   0.213   3.984   3.515
 8249SOL     OW25645   1.097   5.513   2.984
 8249SOL    HW125646   1.152   5.523   3.067
 8249SOL    HW225647   1.040   5.595   2.971
 8250SOL     OW25648   3.392   3.424   2.351
 8250SOL    HW125649   3.416   3.338   2.395
 8250SOL    HW225650   3.377   3.494   2.421
 8251SOL     OW25651   5.903   0.664   4.917
 8251SOL    HW125652   5.968   0.599   4.878
 8251SOL    HW225653   5.866   0.626   5.002
 8252SOL     OW25654   0.775   3.684   4.351
 8252SOL    HW125655   0.679   3.691   4.321
 8252SOL    HW225656   0.830   3.752   4.303
 8253SOL     OW25657   3.034   3.438   5.910
 8253SOL    HW125658   3.015   3.417   5.815
 8253SOL    HW225659   3.012   3.534   5.928
 8254SOL     OW25660   4.966   5.544   2.680
 8254SOL    HW125661   4.915   5.620   2.721
 8254SOL    HW225662   5.034   5.580   2.617
 8255SOL     OW25663   4.032   4.835   3.809
 8255SOL    HW125664   4.007   4.859   3.903
 8255SOL    HW225665   3.955   4.854   3.748
 8256SOL     OW25666   5.342   2.515   3.620
 8256SOL    HW125667   5.385   2.460   3.548
 8256SOL    HW225668   5.295   2.455   3.685
 8257SOL     OW25669   6.291   4.508   4.217
 8257SOL    HW125670   6.287   4.495   4.118
 8257SOL    HW225671   6.373   4.464   4.254
 8258SOL     OW25672   5.356   2.102   6.884
 8258SOL    HW125673   5.278   2.069   6.936
 8258SOL    HW225674   5.440   2.090   6.937
 8259SOL     OW25675   4.579   1.096   0.850
 8259SOL    HW125676   4.554   1.006   0.813
 8259SOL    HW225677   4.574   1.164   0.777
 8260SOL     OW25678   3.553   5.741   6.590
 8260SOL    HW125679   3.642   5.754   6.545
 8260SOL    HW225680   3.517   5.829   6.619
 8261SOL     OW25681   5.055   1.410   1.653
 8261SOL    HW125682   5.090   1.368   1.569
 8261SOL    HW225683   5.129   1.419   1.720
 8262SOL     OW25684   6.684   2.225   1.604
 8262SOL    HW125685   6.637   2.193   1.686
 8262SOL    HW225686   6.696   2.324   1.610
 8263SOL     OW25687   5.488   1.712   0.749
 8263SOL    HW125688   5.412   1.769   0.781
 8263SOL    HW225689   5.526   1.662   0.826
 8264SOL     OW25690   1.768   4.341   1.451
 8264SOL    HW125691   1.731   4.428   1.417
 8264SOL    HW225692   1.826   4.300   1.381
 8265SOL     OW25693   1.796   0.396   2.808
 8265SOL    HW125694   1.800   0.456   2.727
 8265SOL    HW225695   1.737   0.438   2.877
 8266SOL     OW25696   3.458   0.720   2.968
 8266SOL    HW125697   3.437   0.781   3.045
 8266SOL    HW225698   3.466   0.774   2.884
 8267SOL     OW25699   0.097   3.980   0.567
 8267SOL    HW125700   0.057   3.912   0.505
 8267SOL    HW225701   0.081   4.072   0.531
 8268SOL     OW25702   3.184   5.127   6.710
 8268SOL    HW125703   3.177   5.061   6.785
 8268SOL    HW225704   3.245   5.202   6.736
 8269SOL     OW25705   6.242   2.133   0.134
 8269SOL    HW125706   6.167   2.155   0.197
 8269SOL    HW225707   6.292   2.054   0.169
 8270SOL     OW25708   2.525   6.118   4.403
 8270SOL    HW125709   2.434   6.124   4.444
 8270SOL    HW225710   2.526   6.046   4.334
 8271SOL     OW25711   0.008   2.141   2.959
 8271SOL    HW125712   0.080   2.202   2.992
 8271SOL    HW225713   0.050   2.065   2.908
 8272SOL     OW25714   3.366   1.376   4.208
 8272SOL    HW125715   3.417   1.303   4.255
 8272SOL    HW225716   3.397   1.465   4.242
 8273SOL     OW25717   1.717   6.431   2.123
 8273SOL    HW125718   1.717   6.531   2.115
 8273SOL    HW225719   1.681   6.405   2.213
 8274SOL     OW25720   5.442   3.977   3.742
 8274SOL    HW125721   5.377   3.965   3.817
 8274SOL    HW225722   5.476   4.071   3.741
 8275SOL     OW25723   5.648   2.173   0.348
 8275SOL    HW125724   5.690   2.253   0.390
 8275SOL    HW225725   5.610   2.198   0.259
 8276SOL     OW25726   0.396   1.477   2.507
 8276SOL    HW125727   0.347   1.402   2.552
 8276SOL    HW225728   0.415   1.549   2.574
 8277SOL     OW25729   0.512   1.580   6.997
 8277SOL    HW125730   0.562   1.502   0.012
 8277SOL    HW225731   0.494   1.563   6.900
 8278SOL     OW25732   1.051   2.677   0.666
 8278SOL    HW125733   1.089   2.769   0.654
 8278SOL    HW225734   1.106   2.611   0.614
 8279SOL     OW25735   0.343   6.049   3.593
 8279SOL    HW125736   0.380   6.133   3.631
 8279SOL    HW225737   0.251   6.066   3.556
 8280SOL     OW25738   3.568   2.493   5.882
 8280SOL    HW125739   3.493   2.466   5.821
 8280SOL    HW225740   3.547   2.582   5.923
 8281SOL     OW25741   4.712   5.300   2.536
 8281SOL    HW125742   4.759   5.258   2.614
 8281SOL    HW225743   4.626   5.341   2.567
 8282SOL     OW25744   6.218   3.136   6.197
 8282SOL    HW125745   6.191   3.175   6.286
 8282SOL    HW225746   6.136   3.104   6.149
 8283SOL     OW25747   1.937   2.855   6.059
 8283SOL    HW125748   1.885   2.916   6.000
 8283SOL    HW225749   1.993   2.909   6.122
 8284SOL     OW25750   6.158   4.420   1.977
 8284SOL    HW125751   6.224   4.403   1.904
 8284SOL    HW225752   6.135   4.334   2.022
 8285SOL     OW25753   4.072   3.310   3.720
 8285SOL    HW125754   4.099   3.333   3.814
 8285SOL    HW225755   4.149   3.265   3.674
 8286SOL     OW25756   0.638   2.546   6.795
 8286SOL    HW125757   0.571   2.575   6.727
 8286SOL    HW225758   0.591   2.522   6.880
 8287SOL     OW25759   1.435   6.863   4.177
 8287SOL    HW125760   1.459   6.936   4.112
 8287SOL    HW225761   1.487   6.781   4.156
 8288SOL     OW25762   2.729   1.687   3.341
 8288SOL    HW125763   2.777   1.762   3.386
 8288SOL    HW225764   2.737   1.604   3.397
 8289SOL     OW25765   0.398   6.155   0.018
 8289SOL    HW125766   0.443   6.242   0.035
 8289SOL    HW225767   0.400   6.134   6.943
 8290SOL     OW25768   6.229   2.344   1.128
 8290SOL    HW125769   6.222   2.419   1.063
 8290SOL    HW225770   6.279   2.374   1.209
 8291SOL     OW25771   4.165   0.897   0.547
 8291SOL    HW125772   4.091   0.933   0.489
 8291SOL    HW225773   4.125   0.845   0.623
 8292SOL     OW25774   3.074   0.308   5.882
 8292SOL    HW125775   3.097   0.379   5.816
 8292SOL    HW225776   2.979   0.282   5.871
 8293SOL     OW25777   6.023   5.346   5.016
 8293SOL    HW125778   6.098   5.412   5.020
 8293SOL    HW225779   6.000   5.327   4.921
 8294SOL     OW25780   6.179   3.253   0.171
 8294SOL    HW125781   6.155   3.301   0.087
 8294SOL    HW225782   6.264   3.290   0.208
 8295SOL     OW25783   5.030   3.047   6.709
 8295SOL    HW125784   4.941   3.035   6.664
 8295SOL    HW225785   5.022   3.021   6.806
 8296SOL     OW25786   1.162   5.277   5.944
 8296SOL    HW125787   1.096   5.328   5.888
 8296SOL    HW225788   1.175   5.186   5.904
 8297SOL     OW25789   1.630   2.950   3.955
 8297SOL    HW125790   1.559   3.021   3.964
 8297SOL    HW225791   1.720   2.993   3.948
 8298SOL     OW25792   4.643   1.687   1.799
 8298SOL    HW125793   4.573   1.739   1.750
 8298SOL    HW225794   4.685   1.621   1.736
 8299SOL     OW25795   5.933   2.414   1.781
 8299SOL    HW125796   5.970   2.503   1.809
 8299SOL    HW225797   6.008   2.355   1.749
 8300SOL     OW25798   1.476   5.442   3.245
 8300SOL    HW125799   1.511   5.496   3.322
 8300SOL    HW225800   1.535   5.363   3.231
 8301SOL     OW25801   2.647   2.072   6.472
 8301SOL    HW125802   2.696   2.141   6.526
 8301SOL    HW225803   2.638   2.103   6.378
 8302SOL     OW25804   5.895   5.926   5.596
 8302SOL    HW125805   5.885   5.941   5.498
 8302SOL    HW225806   5.937   5.837   5.612
 8303SOL     OW25807   6.913   0.086   6.507
 8303SOL    HW125808   7.011   0.073   6.495
 8303SOL    HW225809   6.868   7.020   6.511
 8304SOL     OW25810   0.016   3.328   0.811
 8304SOL    HW125811   0.079   3.314   0.735
 8304SOL    HW225812   0.063   3.311   0.897
 8305SOL     OW25813   3.263   5.194   2.870
 8305SOL    HW125814   3.359   5.206   2.848
 8305SOL    HW225815   3.246   5.100   2.899
 8306SOL     OW25816   1.862   3.220   4.102
 8306SOL    HW125817   1.849   3.150   4.032
 8306SOL    HW225818   1.821   3.306   4.071
 8307SOL     OW25819   4.144   5.953   0.822
 8307SOL    HW125820   4.209   5.913   0.757
 8307SOL    HW225821   4.053   5.914   0.806
 8308SOL     OW25822   3.273   0.531   1.958
 8308SOL    HW125823   3.358   0.552   2.007
 8308SOL    HW225824   3.213   0.478   2.017
 8309SOL     OW25825   5.910   6.767   2.347
 8309SOL    HW125826   5.838   6.797   2.285
 8309SOL    HW225827   5.986   6.832   2.345
 8310SOL     OW25828   6.246   4.816   6.620
 8310SOL    HW125829   6.308   4.894   6.610
 8310SOL    HW225830   6.299   4.731   6.613
 8311SOL     OW25831   6.201   0.043   6.132
 8311SOL    HW125832   6.205   6.967   6.130
 8311SOL    HW225833   6.129   0.073   6.194
 8312SOL     OW25834   4.940   6.405   1.569
 8312SOL    HW125835   4.864   6.347   1.538
 8312SOL    HW225836   4.930   6.423   1.667
 8313SOL     OW25837   3.944   1.449   2.681
 8313SOL    HW125838   3.882   1.373   2.702
 8313SOL    HW225839   3.927   1.524   2.745
 8314SOL     OW25840   0.004   6.725   3.071
 8314SOL    HW125841   6.929   6.744   3.077
 8314SOL    HW225842   0.036   6.690   3.159
 8315SOL     OW25843   5.097   4.659   6.506
 8315SOL    HW125844   5.012   4.702   6.536
 8315SOL    HW225845   5.151   4.724   6.453
 8316SOL     OW25846   2.988   5.353   6.620
 8316SOL    HW125847   3.030   5.262   6.625
 8316SOL    HW225848   2.924   5.364   6.696
 8317SOL     OW25849   2.381   4.243   1.356
 8317SOL    HW125850   2.358   4.317   1.420
 8317SOL    HW225851   2.422   4.167   1.406
 8318SOL     OW25852   2.883   1.206   5.799
 8318SOL    HW125853   2.946   1.128   5.796
 8318SOL    HW225854   2.885   1.253   5.711
 8319SOL     OW25855   2.888   0.496   5.734
 8319SOL    HW125856   2.942   0.474   5.653
 8319SOL    HW225857   2.857   0.591   5.730
 8320SOL     OW25858   4.252   5.072   1.278
 8320SOL    HW125859   4.221   5.086   1.184
 8320SOL    HW225860   4.255   5.161   1.325
 8321SOL     OW25861   6.567   0.977   0.974
 8321SOL    HW125862   6.643   0.972   1.038
 8321SOL    HW225863   6.550   0.886   0.935
 8322SOL     OW25864   5.543   6.999   0.035
 8322SOL    HW125865   5.628   0.012   0.075
 8322SOL    HW225866   5.522   6.910   0.076
 8323SOL     OW25867   2.036   1.052   1.921
 8323SOL    HW125868   1.976   1.086   1.994
 8323SOL    HW225869   2.016   0.955   1.905
 8324SOL     OW25870   6.863   1.113   2.330
 8324SOL    HW125871   6.897   1.125   2.424
 8324SOL    HW225872   6.917   1.169   2.268
 8325SOL     OW25873   4.051   3.839   4.794
 8325SOL    HW125874   4.102   3.923   4.776
 8325SOL    HW225875   4.114   3.768   4.825
 8326SOL     OW25876   4.079   2.731   6.521
 8326SOL    HW125877   4.011   2.797   6.489
 8326SOL    HW225878   4.156   2.778   6.563
 8327SOL     OW25879   5.572   2.521   5.969
 8327SOL    HW125880   5.535   2.476   6.051
 8327SOL    HW225881   5.506   2.588   5.935
 8328SOL     OW25882   2.366   2.686   4.000
 8328SOL    HW125883   2.359   2.589   4.020
 8328SOL    HW225884   2.329   2.739   4.076
 8329SOL     OW25885   0.538   2.572   4.895
 8329SOL    HW125886   0.574   2.564   4.802
 8329SOL    HW225887   0.582   2.505   4.954
 8330SOL     OW25888   2.339   6.714   0.586
 8330SOL    HW125889   2.421   6.694   0.532
 8330SOL    HW225890   2.326   6.813   0.592
 8331SOL     OW25891   2.798   6.945   1.203
 8331SOL    HW125892   2.816   0.015   1.232
 8331SOL    HW225893   2.771   6.944   1.107
 8332SOL     OW25894   4.946   6.240   3.589
 8332SOL    HW125895   4.858   6.217   3.548
 8332SOL    HW225896   4.955   6.339   3.596
 8333SOL     OW25897   1.727   5.150   5.831
 8333SOL    HW125898   1.673   5.099   5.898
 8333SOL    HW225899   1.750   5.240   5.867
 8334SOL     OW25900   6.513   6.915   4.279
 8334SOL    HW125901   6.499   6.949   4.372
 8334SOL    HW225902   6.610   6.897   4.265
 8335SOL     OW25903   6.302   6.256   5.365
 8335SOL    HW125904   6.260   6.189   5.427
 8335SOL    HW225905   6.375   6.211   5.313
 8336SOL     OW25906   0.802   1.831   2.758
 8336SOL    HW125907   0.827   1.806   2.665
 8336SOL    HW225908   0.708   1.864   2.761
 8337SOL     OW25909   0.505   6.521   2.156
 8337SOL    HW125910   0.593   6.510   2.202
 8337SOL    HW225911   0.463   6.432   2.143
 8338SOL     OW25912   2.095   5.086   0.779
 8338SOL    HW125913   2.163   5.095   0.851
 8338SOL    HW225914   2.102   4.996   0.736
 8339SOL     OW25915   5.852   0.744   3.228
 8339SOL    HW125916   5.776   0.783   3.282
 8339SOL    HW225917   5.815   0.699   3.147
 8340SOL     OW25918   4.542   3.853   1.618
 8340SOL    HW125919   4.463   3.820   1.670
 8340SOL    HW225920   4.520   3.853   1.520
 8341SOL     OW25921   2.303   6.995   0.622
 8341SOL    HW125922   2.290   0.015   0.533
 8341SOL    HW225923   2.378   0.018   0.671
 8342SOL     OW25924   5.048   6.899   1.420
 8342SOL    HW125925   5.053   6.856   1.510
 8342SOL    HW225926   5.105   6.981   1.418
 8343SOL     OW25927   0.368   5.017   5.637
 8343SOL    HW125928   0.441   5.050   5.577
 8343SOL    HW225929   0.403   4.944   5.695
 8344SOL     OW25930   4.070   6.841   5.085
 8344SOL    HW125931   4.059   6.893   5.000
 8344SOL    HW225932   3.985   6.842   5.137
 8345SOL     OW25933   6.513   1.638   2.875
 8345SOL    HW125934   6.437   1.703   2.878
 8345SOL    HW225935   6.599   1.688   2.865
 8346SOL     OW25936   3.688   5.252   2.174
 8346SOL    HW125937   3.725   5.337   2.137
 8346SOL    HW225938   3.670   5.188   2.099
 8347SOL     OW25939   3.205   5.186   4.512
 8347SOL    HW125940   3.219   5.087   4.514
 8347SOL    HW225941   3.254   5.225   4.433
 8348SOL     OW25942   1.986   0.604   0.784
 8348SOL    HW125943   1.933   0.688   0.798
 8348SOL    HW225944   1.946   0.530   0.838
 8349SOL     OW25945   6.320   5.354   1.718
 8349SOL    HW125946   6.227   5.332   1.746
 8349SOL    HW225947   6.318   5.422   1.645
 8350SOL     OW25948   6.537   0.665   4.758
 8350SOL    HW125949   6.543   0.682   4.857
 8350SOL    HW225950   6.509   0.570   4.743
 8351SOL     OW25951   3.243   5.893   1.909
 8351SOL    HW125952   3.197   5.981   1.909
 8351SOL    HW225953   3.183   5.824   1.869
 8352SOL     OW25954   6.578   6.013   2.137
 8352SOL    HW125955   6.531   6.010   2.048
 8352SOL    HW225956   6.510   6.021   2.210
 8353SOL     OW25957   1.610   3.333   2.042
 8353SOL    HW125958   1.551   3.324   2.122
 8353SOL    HW225959   1.665   3.416   2.051
 8354SOL     OW25960   3.008   0.623   0.317
 8354SOL    HW125961   3.018   0.580   0.407
 8354SOL    HW225962   3.079   0.588   0.255
 8355SOL     OW25963   3.208   1.102   0.724
 8355SOL    HW125964   3.302   1.103   0.758
 8355SOL    HW225965   3.156   1.032   0.773
 8356SOL     OW25966   3.053   5.522   0.260
 8356SOL    HW125967   3.110   5.512   0.341
 8356SOL    HW225968   3.062   5.615   0.224
 8357SOL     OW25969   4.457   6.016   3.045
 8357SOL    HW125970   4.420   5.982   3.132
 8357SOL    HW225971   4.449   5.944   2.976
 8358SOL     OW25972   3.077   2.005   5.028
 8358SOL    HW125973   3.152   1.964   5.079
 8358SOL    HW225974   3.105   2.094   4.992
 8359SOL     OW25975   4.277   4.649   3.830
 8359SOL    HW125976   4.261   4.727   3.770
 8359SOL    HW225977   4.189   4.607   3.854
 8360SOL     OW25978   4.068   0.293   2.849
 8360SOL    HW125979   4.116   0.266   2.766
 8360SOL    HW225980   4.047   0.211   2.903
 8361SOL     OW25981   1.346   0.356   2.629
 8361SOL    HW125982   1.277   0.377   2.698
 8361SOL    HW225983   1.302   0.319   2.547
 8362SOL     OW25984   1.997   3.104   0.531
 8362SOL    HW125985   1.954   3.015   0.548
 8362SOL    HW225986   2.021   3.146   0.619
 8363SOL     OW25987   0.488   3.464   1.123
 8363SOL    HW125988   0.540   3.393   1.171
 8363SOL    HW225989   0.412   3.494   1.181
 8364SOL     OW25990   6.717   4.269   5.261
 8364SOL    HW125991   6.762   4.180   5.253
 8364SOL    HW225992   6.637   4.271   5.202
 8365SOL     OW25993   1.263   3.713   5.962
 8365SOL    HW125994   1.223   3.635   5.913
 8365SOL    HW225995   1.327   3.761   5.902
 8366SOL     OW25996   2.327   0.060   2.787
 8366SOL    HW125997   2.403   0.080   2.725
 8366SOL    HW225998   2.363   0.040   2.878
 8367SOL     OW25999   5.015   5.692   3.677
 8367SOL    HW126000   5.005   5.765   3.609
 8367SOL    HW226001   4.925   5.654   3.700
 8368SOL     OW26002   3.233   5.771   6.300
 8368SOL    HW126003   3.244   5.845   6.234
 8368SOL    HW226004   3.219   5.685   6.252
 8369SOL     OW26005   2.679   1.735   1.304
 8369SOL    HW126006   2.643   1.822   1.272
 8369SOL    HW226007   2.736   1.750   1.385
 8370SOL     OW26008   1.988   1.156   0.009
 8370SOL    HW126009   2.074   1.138   6.983
 8370SOL    HW226010   1.986   1.252   0.037
 8371SOL     OW26011   1.753   2.445   0.264
 8371SOL    HW126012   1.759   2.447   0.364
 8371SOL    HW226013   1.715   2.531   0.231
 8372SOL     OW26014   6.829   0.519   0.913
 8372SOL    HW126015   6.929   0.510   0.911
 8372SOL    HW226016   6.795   0.492   1.003
 8373SOL     OW26017   1.699   6.424   4.403
 8373SOL    HW126018   1.605   6.405   4.433
 8373SOL    HW226019   1.697   6.495   4.333
 8374SOL     OW26020   6.823   0.705   5.951
 8374SOL    HW126021   6.824   0.682   6.048
 8374SOL    HW226022   6.753   0.650   5.905
 8375SOL     OW26023   4.152   0.717   6.085
 8375SOL    HW126024   4.156   0.817   6.091
 8375SOL    HW226025   4.221   0.677   6.145
 8376SOL     OW26026   4.255   0.311   4.493
 8376SOL    HW126027   4.199   0.320   4.410
 8376SOL    HW226028   4.351   0.328   4.470
 8377SOL     OW26029   5.833   5.025   1.213
 8377SOL    HW126030   5.793   5.046   1.303
 8377SOL    HW226031   5.874   5.108   1.176
 8378SOL     OW26032   4.841   2.828   3.742
 8378SOL    HW126033   4.808   2.896   3.807
 8378SOL    HW226034   4.939   2.841   3.727
 8379SOL     OW26035   5.043   2.794   2.240
 8379SOL    HW126036   5.043   2.699   2.271
 8379SOL    HW226037   5.126   2.840   2.271
 8380SOL     OW26038   5.687   1.465   3.696
 8380SOL    HW126039   5.663   1.369   3.709
 8380SOL    HW226040   5.694   1.485   3.598
 8381SOL     OW26041   1.914   5.341   4.165
 8381SOL    HW126042   2.002   5.358   4.120
 8381SOL    HW226043   1.840   5.358   4.101
 8382SOL     OW26044   0.642   4.849   2.164
 8382SOL    HW126045   0.665   4.860   2.068
 8382SOL    HW226046   0.548   4.814   2.172
 8383SOL     OW26047   3.331   1.191   5.296
 8383SOL    HW126048   3.421   1.185   5.251
 8383SOL    HW226049   3.266   1.133   5.247
 8384SOL     OW26050   0.938   6.731   1.616
 8384SOL    HW126051   0.870   6.736   1.689
 8384SOL    HW226052   0.959   6.635   1.596
 8385SOL     OW26053   4.350   1.936   1.234
 8385SOL    HW126054   4.322   2.019   1.187
 8385SOL    HW226055   4.448   1.920   1.218
 8386SOL     OW26056   0.540   3.821   2.411
 8386SOL    HW126057   0.611   3.753   2.391
 8386SOL    HW226058   0.500   3.853   2.325
 8387SOL     OW26059   1.235   2.071   1.827
 8387SOL    HW126060   1.203   2.076   1.922
 8387SOL    HW226061   1.215   1.980   1.790
 8388SOL     OW26062   0.934   6.508   2.757
 8388SOL    HW126063   0.947   6.473   2.850
 8388SOL    HW226064   0.906   6.604   2.761
 8389SOL     OW26065   6.052   2.901   3.391
 8389SOL    HW126066   5.979   2.967   3.376
 8389SOL    HW226067   6.027   2.838   3.464
 8390SOL     OW26068   5.714   2.062   6.813
 8390SOL    HW126069   5.793   2.107   6.853
 8390SOL    HW226070   5.742   2.008   6.734
 8391SOL     OW26071   6.663   6.797   1.158
 8391SOL    HW126072   6.717   6.856   1.218
 8391SOL    HW226073   6.643   6.711   1.206
 8392SOL     OW26074   3.454   3.120   5.117
 8392SOL    HW126075   3.528   3.054   5.101
 8392SOL    HW226076   3.367   3.081   5.087
 8393SOL     OW26077   5.436   0.100   1.050
 8393SOL    HW126078   5.452   0.096   1.149
 8393SOL    HW226079   5.395   0.188   1.026
 8394SOL     OW26080   5.948   2.767   2.353
 8394SOL    HW126081   5.990   2.709   2.283
 8394SOL    HW226082   5.989   2.858   2.350
 8395SOL     OW26083   2.384   0.837   4.678
 8395SOL    HW126084   2.377   0.742   4.647
 8395SOL    HW226085   2.347   0.845   4.771
 8396SOL     OW26086   5.107   5.231   4.242
 8396SOL    HW126087   5.076   5.140   4.270
 8396SOL    HW226088   5.128   5.286   4.323
 8397SOL     OW26089   6.291   7.019   2.680
 8397SOL    HW126090   6.301   6.927   2.642
 8397SOL    HW226091   6.232   7.016   2.761
 8398SOL     OW26092   5.804   1.994   6.551
 8398SOL    HW126093   5.887   1.959   6.506
 8398SOL    HW226094   5.762   2.064   6.494
 8399SOL     OW26095   0.462   4.425   2.126
 8399SOL    HW126096   0.449   4.520   2.156
 8399SOL    HW226097   0.533   4.382   2.181
 8400SOL     OW26098   1.227   1.038   5.032
 8400SOL    HW126099   1.273   1.107   4.976
 8400SOL    HW226100   1.132   1.065   5.048
 8401SOL     OW26101   2.310   0.465   5.614
 8401SOL    HW126102   2.239   0.395   5.626
 8401SOL    HW226103   2.392   0.439   5.666
 8402SOL     OW26104   2.965   0.207   6.478
 8402SOL    HW126105   3.007   0.138   6.419
 8402SOL    HW226106   3.023   0.222   6.558
 8403SOL     OW26107   5.624   4.852   5.264
 8403SOL    HW126108   5.529   4.834   5.289
 8403SOL    HW226109   5.650   4.794   5.187
 8404SOL     OW26110   1.275   1.429   0.327
 8404SOL    HW126111   1.304   1.362   0.259
 8404SOL    HW226112   1.263   1.383   0.416
 8405SOL     OW26113   3.867   6.799   5.491
 8405SOL    HW126114   3.964   6.818   5.501
 8405SOL    HW226115   3.838   6.815   5.397
 8406SOL     OW26116   5.726   0.503   5.940
 8406SOL    HW126117   5.680   0.511   6.029
 8406SOL    HW226118   5.668   0.542   5.869
 8407SOL     OW26119   4.247   0.613   4.391
 8407SOL    HW126120   4.323   0.592   4.453
 8407SOL    HW226121   4.167   0.642   4.445
 8408SOL     OW26122   4.126   1.975   1.465
 8408SOL    HW126123   4.201   1.910   1.453
 8408SOL    HW226124   4.151   2.041   1.535
 8409SOL     OW26125   4.349   2.405   1.975
 8409SOL    HW126126   4.337   2.455   2.061
 8409SOL    HW226127   4.405   2.324   1.991
 8410SOL     OW26128   6.881   1.495   1.414
 8410SOL    HW126129   6.818   1.569   1.391
 8410SOL    HW226130   6.894   1.436   1.334
 8411SOL     OW26131   0.972   5.878   1.126
 8411SOL    HW126132   0.910   5.886   1.048
 8411SOL    HW226133   1.038   5.804   1.109
 8412SOL     OW26134   2.466   2.921   6.998
 8412SOL    HW126135   2.411   2.898   6.918
 8412SOL    HW226136   2.562   2.931   6.970
 8413SOL     OW26137   3.601   5.788   4.692
 8413SOL    HW126138   3.628   5.786   4.595
 8413SOL    HW226139   3.673   5.833   4.745
 8414SOL     OW26140   1.712   6.831   0.693
 8414SOL    HW126141   1.746   6.925   0.684
 8414SOL    HW226142   1.735   6.796   0.784
 8415SOL     OW26143   3.331   1.477   6.283
 8415SOL    HW126144   3.383   1.404   6.238
 8415SOL    HW226145   3.254   1.437   6.332
 8416SOL     OW26146   0.691   2.414   5.150
 8416SOL    HW126147   0.777   2.413   5.099
 8416SOL    HW226148   0.698   2.477   5.227
 8417SOL     OW26149   1.864   3.449   5.989
 8417SOL    HW126150   1.869   3.477   6.085
 8417SOL    HW226151   1.904   3.359   5.979
 8418SOL     OW26152   0.806   5.922   2.483
 8418SOL    HW126153   0.844   5.997   2.538
 8418SOL    HW226154   0.709   5.911   2.506
 8419SOL     OW26155   3.280   1.592   4.569
 8419SOL    HW126156   3.269   1.676   4.622
 8419SOL    HW226157   3.206   1.585   4.502
 8420SOL     OW26158   3.367   1.247   2.339
 8420SOL    HW126159   3.460   1.255   2.375
 8420SOL    HW226160   3.335   1.338   2.311
 8421SOL     OW26161   4.678   6.920   6.868
 8421SOL    HW126162   4.639   6.907   6.777
 8421SOL    HW226163   4.709   6.832   6.904
 8422SOL     OW26164   5.254   2.129   4.064
 8422SOL    HW126165   5.165   2.170   4.043
 8422SOL    HW226166   5.249   2.030   4.052
 8423SOL     OW26167   6.313   5.849   0.201
 8423SOL    HW126168   6.393   5.878   0.150
 8423SOL    HW226169   6.299   5.911   0.278
 8424SOL     OW26170   3.378   0.518   5.268
 8424SOL    HW126171   3.431   0.541   5.350
 8424SOL    HW226172   3.293   0.571   5.268
 8425SOL     OW26173   3.887   3.616   2.170
 8425SOL    HW126174   3.919   3.711   2.167
 8425SOL    HW226175   3.787   3.615   2.170
 8426SOL     OW26176   3.672   3.389   1.779
 8426SOL    HW126177   3.607   3.314   1.778
 8426SOL    HW226178   3.624   3.475   1.762
 8427SOL     OW26179   3.988   3.091   2.859
 8427SOL    HW126180   4.043   3.113   2.779
 8427SOL    HW226181   4.017   3.148   2.936
 8428SOL     OW26182   5.819   0.142   2.110
 8428SOL    HW126183   5.847   0.057   2.155
 8428SOL    HW226184   5.734   0.126   2.059
 8429SOL     OW26185   3.150   6.162   5.240
 8429SOL    HW126186   3.218   6.144   5.169
 8429SOL    HW226187   3.180   6.118   5.325
 8430SOL     OW26188   4.926   6.370   5.166
 8430SOL    HW126189   4.960   6.420   5.086
 8430SOL    HW226190   4.871   6.292   5.135
 8431SOL     OW26191   2.220   3.072   5.961
 8431SOL    HW126192   2.172   3.075   6.048
 8431SOL    HW226193   2.195   3.151   5.906
 8432SOL     OW26194   6.594   5.287   5.938
 8432SOL    HW126195   6.659   5.359   5.962
 8432SOL    HW226196   6.510   5.329   5.903
 8433SOL     OW26197   5.055   2.078   1.172
 8433SOL    HW126198   5.021   1.987   1.151
 8433SOL    HW226199   4.998   2.121   1.242
 8434SOL     OW26200   2.846   6.207   4.913
 8434SOL    HW126201   2.863   6.241   5.006
 8434SOL    HW226202   2.928   6.161   4.879
 8435SOL     OW26203   6.431   2.007   2.897
 8435SOL    HW126204   6.364   1.934   2.907
 8435SOL    HW226205   6.402   2.070   2.826
 8436SOL     OW26206   1.634   5.434   2.635
 8436SOL    HW126207   1.555   5.375   2.650
 8436SOL    HW226208   1.638   5.503   2.708
 8437SOL     OW26209   1.667   6.079   0.719
 8437SOL    HW126210   1.724   6.060   0.639
 8437SOL    HW226211   1.571   6.076   0.694
 8438SOL     OW26212   1.320   4.135   2.780
 8438SOL    HW126213   1.291   4.041   2.762
 8438SOL    HW226214   1.276   4.197   2.715
 8439SOL     OW26215   6.419   4.239   2.376
 8439SOL    HW126216   6.501   4.296   2.382
 8439SOL    HW226217   6.415   4.176   2.453
 8440SOL     OW26218   1.678   1.916   2.465
 8440SOL    HW126219   1.723   1.869   2.541
 8440SOL    HW226220   1.744   1.972   2.415
 8441SOL     OW26221   6.718   2.485   5.839
 8441SOL    HW126222   6.788   2.530   5.894
 8441SOL    HW226223   6.760   2.415   5.782
 8442SOL     OW26224   3.857   2.560   0.077
 8442SOL    HW126225   3.893   2.469   0.095
 8442SOL    HW226226   3.803   2.559   7.017
 8443SOL     OW26227   2.060   4.439   2.720
 8443SOL    HW126228   2.160   4.439   2.726
 8443SOL    HW226229   2.022   4.383   2.794
 8444SOL     OW26230   5.988   5.293   4.740
 8444SOL    HW126231   6.057   5.334   4.680
 8444SOL    HW226232   5.917   5.250   4.685
 8445SOL     OW26233   4.460   6.511   6.950
 8445SOL    HW126234   4.476   6.515   6.851
 8445SOL    HW226235   4.375   6.461   6.968
 8446SOL     OW26236   6.760   5.614   4.713
 8446SOL    HW126237   6.660   5.623   4.712
 8446SOL    HW226238   6.786   5.525   4.677
 8447SOL     OW26239   3.635   1.879   4.204
 8447SOL    HW126240   3.656   1.881   4.302
 8447SOL    HW226241   3.612   1.971   4.173
 8448SOL     OW26242   3.340   6.066   3.053
 8448SOL    HW126243   3.366   6.096   2.961
 8448SOL    HW226244   3.284   6.136   3.097
 8449SOL     OW26245   1.485   2.441   4.115
 8449SOL    HW126246   1.555   2.418   4.047
 8449SOL    HW226247   1.530   2.469   4.200
 8450SOL     OW26248   6.568   0.957   0.437
 8450SOL    HW126249   6.480   0.987   0.476
 8450SOL    HW226250   6.636   1.028   0.451
 8451SOL     OW26251   3.826   2.701   1.371
 8451SOL    HW126252   3.837   2.799   1.390
 8451SOL    HW226253   3.831   2.685   1.273
 8452SOL     OW26254   5.066   1.167   5.821
 8452SOL    HW126255   5.138   1.195   5.757
 8452SOL    HW226256   5.000   1.241   5.830
 8453SOL     OW26257   6.803   0.319   0.047
 8453SOL    HW126258   6.751   0.355   0.125
 8453SOL    HW226259   6.795   0.382   6.993
 8454SOL     OW26260   6.125   5.929   6.452
 8454SOL    HW126261   6.174   5.848   6.484
 8454SOL    HW226262   6.166   5.963   6.368
 8455SOL     OW26263   6.423   0.987   2.532
 8455SOL    HW126264   6.357   1.040   2.479
 8455SOL    HW226265   6.418   0.891   2.504
 8456SOL     OW26266   6.897   0.347   2.004
 8456SOL    HW126267   6.926   0.405   1.927
 8456SOL    HW226268   6.930   0.386   2.090
 8457SOL     OW26269   6.968   0.394   4.853
 8457SOL    HW126270   0.015   0.441   4.905
 8457SOL    HW226271   6.934   0.316   4.905
 8458SOL     OW26272   0.897   6.748   6.775
 8458SOL    HW126273   0.832   6.766   6.702
 8458SOL    HW226274   0.904   6.828   6.834
 8459SOL     OW26275   0.923   5.962   3.173
 8459SOL    HW126276   1.003   5.959   3.232
 8459SOL    HW226277   0.856   6.027   3.209
 8460SOL     OW26278   4.059   3.605   3.051
 8460SOL    HW126279   4.044   3.701   3.074
 8460SOL    HW226280   4.038   3.589   2.955
 8461SOL     OW26281   6.254   3.365   3.680
 8461SOL    HW126282   6.194   3.396   3.753
 8461SOL    HW226283   6.235   3.268   3.660
 8462SOL     OW26284   2.772   2.654   1.741
 8462SOL    HW126285   2.802   2.565   1.777
 8462SOL    HW226286   2.674   2.665   1.757
 8463SOL     OW26287   6.089   0.678   1.546
 8463SOL    HW126288   6.114   0.645   1.637
 8463SOL    HW226289   6.131   0.767   1.530
 8464SOL     OW26290   6.791   1.208   4.501
 8464SOL    HW126291   6.728   1.261   4.557
 8464SOL    HW226292   6.878   1.257   4.492
 8465SOL     OW26293   1.844   1.728   0.450
 8465SOL    HW126294   1.769   1.794   0.461
 8465SOL    HW226295   1.862   1.682   0.537
 8466SOL     OW26296   0.846   0.118   4.589
 8466SOL    HW126297   0.821   0.027   4.623
 8466SOL    HW226298   0.819   0.126   4.493
 8467SOL     OW26299   4.244   5.594   0.593
 8467SOL    HW126300   4.307   5.535   0.543
 8467SOL    HW226301   4.296   5.654   0.655
 8468SOL     OW26302   3.527   2.519   0.116
 8468SOL    HW126303   3.431   2.505   0.091
 8468SOL    HW226304   3.581   2.532   0.033
 8469SOL     OW26305   4.442   2.237   5.849
 8469SOL    HW126306   4.412   2.283   5.933
 8469SOL    HW226307   4.390   2.152   5.837
 8470SOL     OW26308   1.745   2.916   6.979
 8470SOL    HW126309   1.722   2.819   6.983
 8470SOL    HW226310   1.671   2.969   7.021
 8471SOL     OW26311   4.633   1.778   4.626
 8471SOL    HW126312   4.535   1.777   4.648
 8471SOL    HW226313   4.645   1.798   4.529
 8472SOL     OW26314   1.293   6.600   2.914
 8472SOL    HW126315   1.320   6.674   2.851
 8472SOL    HW226316   1.369   6.536   2.923
 8473SOL     OW26317   6.452   6.069   6.462
 8473SOL    HW126318   6.443   6.168   6.449
 8473SOL    HW226319   6.433   6.022   6.376
 8474SOL     OW26320   4.233   5.723   0.360
 8474SOL    HW126321   4.214   5.666   0.440
 8474SOL    HW226322   4.230   5.819   0.385
 8475SOL     OW26323   4.657   2.183   2.667
 8475SOL    HW126324   4.643   2.115   2.595
 8475SOL    HW226325   4.700   2.139   2.746
 8476SOL     OW26326   4.674   0.249   2.896
 8476SOL    HW126327   4.769   0.249   2.927
 8476SOL    HW226328   4.633   0.338   2.917
 8477SOL     OW26329   3.387   6.881   3.021
 8477SOL    HW126330   3.291   6.851   3.017
 8477SOL    HW226331   3.395   6.971   2.979
 8478SOL     OW26332   1.375   0.276   5.797
 8478SOL    HW126333   1.461   0.327   5.791
 8478SOL    HW226334   1.304   0.336   5.835
 8479SOL     OW26335   5.463   0.594   2.563
 8479SOL    HW126336   5.452   0.541   2.647
 8479SOL    HW226337   5.502   0.536   2.492
 8480SOL     OW26338   1.997   1.262   1.302
 8480SOL    HW126339   1.925   1.235   1.238
 8480SOL    HW226340   1.999   1.199   1.379
 8481SOL     OW26341   4.214   0.252   5.823
 8481SOL    HW126342   4.214   0.313   5.744
 8481SOL    HW226343   4.191   0.159   5.795
 8482SOL     OW26344   0.155   0.523   1.597
 8482SOL    HW126345   0.082   0.509   1.531
 8482SOL    HW226346   0.227   0.580   1.556
 8483SOL     OW26347   5.294   6.360   1.966
 8483SOL    HW126348   5.216   6.418   1.940
 8483SOL    HW226349   5.377   6.415   1.968
 8484SOL     OW26350   6.774   4.661   5.690
 8484SOL    HW126351   6.838   4.593   5.656
 8484SOL    HW226352   6.798   4.684   5.785
 8485SOL     OW26353   1.881   3.592   6.227
 8485SOL    HW126354   1.833   3.594   6.315
 8485SOL    HW226355   1.979   3.608   6.242
 8486SOL     OW26356   4.401   0.853   2.522
 8486SOL    HW126357   4.401   0.753   2.512
 8486SOL    HW226358   4.356   0.894   2.443
 8487SOL     OW26359   4.429   0.882   0.755
 8487SOL    HW126360   4.346   0.828   0.764
 8487SOL    HW226361   4.424   0.938   0.673
 8488SOL     OW26362   6.406   3.836   5.267
 8488SOL    HW126363   6.483   3.852   5.205
 8488SOL    HW226364   6.440   3.794   5.351
 8489SOL     OW26365   3.149   6.675   3.196
 8489SOL    HW126366   3.161   6.758   3.141
 8489SOL    HW226367   3.052   6.660   3.213
 8490SOL     OW26368   4.094   5.096   2.482
 8490SOL    HW126369   4.106   4.996   2.487
 8490SOL    HW226370   4.006   5.116   2.440
 8491SOL     OW26371   1.189   1.032   1.426
 8491SOL    HW126372   1.110   1.085   1.394
 8491SOL    HW226373   1.270   1.091   1.428
 8492SOL     OW26374   5.727   3.977   4.574
 8492SOL    HW126375   5.729   3.878   4.588
 8492SOL    HW226376   5.714   3.995   4.476
 8493SOL     OW26377   3.528   2.764   1.249
 8493SOL    HW126378   3.458   2.798   1.312
 8493SOL    HW226379   3.533   2.664   1.256
 8494SOL     OW26380   3.583   6.209   6.635
 8494SOL    HW126381   3.526   6.284   6.670
 8494SOL    HW226382   3.639   6.243   6.559
 8495SOL     OW26383   0.876   2.624   6.745
 8495SOL    HW126384   0.863   2.665   6.655
 8495SOL    HW226385   0.790   2.582   6.775
 8496SOL     OW26386   0.866   2.128   3.669
 8496SOL    HW126387   0.869   2.033   3.701
 8496SOL    HW226388   0.924   2.138   3.588
 8497SOL     OW26389   5.616   3.819   3.297
 8497SOL    HW126390   5.678   3.892   3.270
 8497SOL    HW226391   5.542   3.857   3.353
 8498SOL     OW26392   6.751   0.695   1.333
 8498SOL    HW126393   6.714   0.770   1.278
 8498SOL    HW226394   6.840   0.722   1.371
 8499SOL     OW26395   0.295   4.214   0.254
 8499SOL    HW126396   0.248   4.295   0.220
 8499SOL    HW226397   0.316   4.226   0.351
 8500SOL     OW26398   2.679   0.492   5.489
 8500SOL    HW126399   2.741   0.459   5.561
 8500SOL    HW226400   2.585   0.487   5.521
 8501SOL     OW26401   2.537   3.755   6.002
 8501SOL    HW126402   2.487   3.692   5.943
 8501SOL    HW226403   2.479   3.833   6.025
 8502SOL     OW26404   0.590   6.757   1.482
 8502SOL    HW126405   0.637   6.701   1.550
 8502SOL    HW226406   0.622   6.732   1.390
 8503SOL     OW26407   3.718   5.671   3.525
 8503SOL    HW126408   3.698   5.747   3.587
 8503SOL    HW226409   3.743   5.707   3.435
 8504SOL     OW26410   1.312   5.152   3.057
 8504SOL    HW126411   1.267   5.127   3.143
 8504SOL    HW226412   1.404   5.113   3.055
 8505SOL     OW26413   4.538   2.153   3.369
 8505SOL    HW126414   4.594   2.196   3.298
 8505SOL    HW226415   4.593   2.143   3.452
 8506SOL     OW26416   0.859   5.776   6.808
 8506SOL    HW126417   0.896   5.808   6.895
 8506SOL    HW226418   0.825   5.855   6.756
 8507SOL     OW26419   1.614   0.353   4.689
 8507SOL    HW126420   1.540   0.420   4.693
 8507SOL    HW226421   1.580   0.265   4.722
 8508SOL     OW26422   0.429   3.414   5.502
 8508SOL    HW126423   0.461   3.322   5.525
 8508SOL    HW226424   0.375   3.411   5.418
 8509SOL     OW26425   6.028   2.018   4.957
 8509SOL    HW126426   6.093   1.974   4.895
 8509SOL    HW226427   5.944   1.964   4.960
 8510SOL     OW26428   5.169   0.181   2.514
 8510SOL    HW126429   5.102   0.252   2.492
 8510SOL    HW226430   5.155   0.103   2.453
 8511SOL     OW26431   6.583   5.275   1.799
 8511SOL    HW126432   6.632   5.330   1.732
 8511SOL    HW226433   6.486   5.272   1.776
 8512SOL     OW26434   3.798   3.095   0.985
 8512SOL    HW126435   3.754   3.017   1.030
 8512SOL    HW226436   3.730   3.143   0.930
 8513SOL     OW26437   0.990   3.075   0.548
 8513SOL    HW126438   1.001   3.117   0.639
 8513SOL    HW226439   0.898   3.036   0.540
 8514SOL     OW26440   2.287   2.753   5.082
 8514SOL    HW126441   2.290   2.709   4.992
 8514SOL    HW226442   2.322   2.847   5.074
 8515SOL     OW26443   2.757   0.648   0.393
 8515SOL    HW126444   2.840   0.635   0.339
 8515SOL    HW226445   2.780   0.660   0.489
 8516SOL     OW26446   5.995   3.282   4.833
 8516SOL    HW126447   5.932   3.315   4.762
 8516SOL    HW226448   6.087   3.318   4.815
 8517SOL     OW26449   1.626   1.932   5.950
 8517SOL    HW126450   1.531   1.933   5.920
 8517SOL    HW226451   1.653   2.025   5.977
 8518SOL     OW26452   5.440   4.799   0.141
 8518SOL    HW126453   5.384   4.731   0.095
 8518SOL    HW226454   5.534   4.767   0.147
 8519SOL     OW26455   0.788   3.642   0.546
 8519SOL    HW126456   0.805   3.545   0.565
 8519SOL    HW226457   0.844   3.671   0.469
 8520SOL     OW26458   3.215   3.937   6.102
 8520SOL    HW126459   3.264   3.966   6.184
 8520SOL    HW226460   3.274   3.877   6.047
 8521SOL     OW26461   2.199   6.645   4.814
 8521SOL    HW126462   2.161   6.555   4.793
 8521SOL    HW226463   2.286   6.634   4.863
 8522SOL     OW26464   0.435   0.530   6.846
 8522SOL    HW126465   0.370   0.454   6.856
 8522SOL    HW226466   0.492   0.536   6.928
 8523SOL     OW26467   4.004   1.639   1.195
 8523SOL    HW126468   4.003   1.671   1.290
 8523SOL    HW226469   3.960   1.707   1.136
 8524SOL     OW26470   3.009   6.380   5.091
 8524SOL    HW126471   3.020   6.460   5.150
 8524SOL    HW226472   3.063   6.304   5.126
 8525SOL     OW26473   6.123   3.002   2.416
 8525SOL    HW126474   6.194   2.991   2.486
 8525SOL    HW226475   6.115   3.098   2.391
 8526SOL     OW26476   0.379   4.822   6.549
 8526SOL    HW126477   0.432   4.854   6.627
 8526SOL    HW226478   0.432   4.754   6.499
 8527SOL     OW26479   2.973   0.489   6.193
 8527SOL    HW126480   3.001   0.397   6.218
 8527SOL    HW226481   3.053   0.542   6.165
 8528SOL     OW26482   5.617   0.858   0.959
 8528SOL    HW126483   5.520   0.832   0.961
 8528SOL    HW226484   5.655   0.853   1.051
 8529SOL     OW26485   0.802   6.421   6.163
 8529SOL    HW126486   0.832   6.424   6.067
 8529SOL    HW226487   0.837   6.502   6.211
 8530SOL     OW26488   3.834   3.545   2.495
 8530SOL    HW126489   3.934   3.545   2.485
 8530SOL    HW226490   3.805   3.466   2.548
 8531SOL     OW26491   6.449   5.543   2.875
 8531SOL    HW126492   6.482   5.637   2.882
 8531SOL    HW226493   6.350   5.544   2.863
 8532SOL     OW26494   3.327   5.394   0.253
 8532SOL    HW126495   3.364   5.312   0.208
 8532SOL    HW226496   3.313   5.375   0.350
 8533SOL     OW26497   2.237   6.118   5.032
 8533SOL    HW126498   2.147   6.080   5.010
 8533SOL    HW226499   2.228   6.185   5.105
 8534SOL     OW26500   1.859   3.149   2.047
 8534SOL    HW126501   1.901   3.161   1.957
 8534SOL    HW226502   1.773   3.201   2.050
 8535SOL     OW26503   6.175   0.257   2.213
 8535SOL    HW126504   6.258   0.300   2.249
 8535SOL    HW226505   6.095   0.310   2.243
 8536SOL     OW26506   1.498   0.998   3.805
 8536SOL    HW126507   1.443   1.003   3.722
 8536SOL    HW226508   1.488   0.907   3.847
 8537SOL     OW26509   6.014   1.214   3.278
 8537SOL    HW126510   5.954   1.206   3.198
 8537SOL    HW226511   6.062   1.127   3.292
 8538SOL     OW26512   0.974   2.256   6.897
 8538SOL    HW126513   0.964   2.316   6.817
 8538SOL    HW226514   0.901   2.276   6.963
 8539SOL     OW26515   5.134   3.073   1.915
 8539SOL    HW126516   5.096   3.102   1.827
 8539SOL    HW226517   5.088   2.989   1.945
 8540SOL     OW26518   4.003   0.558   1.367
 8540SOL    HW126519   4.086   0.573   1.313
 8540SOL    HW226520   3.967   0.467   1.348
 8541SOL     OW26521   2.200   3.142   3.381
 8541SOL    HW126522   2.233   3.047   3.375
 8541SOL    HW226523   2.205   3.173   3.476
 8542SOL     OW26524   2.866   4.646   6.579
 8542SOL    HW126525   2.917   4.575   6.627
 8542SOL    HW226526   2.768   4.627   6.586
 8543SOL     OW26527   3.893   1.962   6.520
 8543SOL    HW126528   3.810   1.960   6.575
 8543SOL    HW226529   3.912   2.056   6.491
 8544SOL     OW26530   6.389   1.593   4.493
 8544SOL    HW126531   6.473   1.554   4.456
 8544SOL    HW226532   6.350   1.657   4.426
 8545SOL     OW26533   4.417   6.640   5.426
 8545SOL    HW126534   4.462   6.629   5.514
 8545SOL    HW226535   4.354   6.563   5.411
 8546SOL     OW26536   3.783   2.141   0.118
 8546SOL    HW126537   3.879   2.170   0.121
 8546SOL    HW226538   3.737   2.173   0.201
 8547SOL     OW26539   1.708   4.362   1.941
 8547SOL    HW126540   1.755   4.430   1.997
 8547SOL    HW226541   1.611   4.383   1.937
 8548SOL     OW26542   6.168   2.108   5.713
 8548SOL    HW126543   6.119   2.044   5.771
 8548SOL    HW226544   6.233   2.161   5.768
 8549SOL     OW26545   5.334   3.006   5.326
 8549SOL    HW126546   5.411   2.963   5.280
 8549SOL    HW226547   5.306   3.088   5.276
 8550SOL     OW26548   1.399   4.571   5.538
 8550SOL    HW126549   1.353   4.636   5.478
 8550SOL    HW226550   1.498   4.583   5.530
 8551SOL     OW26551   2.405   4.072   1.105
 8551SOL    HW126552   2.352   4.029   1.178
 8551SOL    HW226553   2.452   4.152   1.143
 8552SOL     OW26554   2.927   6.425   4.529
 8552SOL    HW126555   2.853   6.465   4.583
 8552SOL    HW226556   2.960   6.491   4.462
 8553SOL     OW26557   6.273   5.665   6.867
 8553SOL    HW126558   6.250   5.613   6.950
 8553SOL    HW226559   6.365   5.702   6.876
 8554SOL     OW26560   6.113   3.897   0.411
 8554SOL    HW126561   6.121   3.913   0.312
 8554SOL    HW226562   6.105   3.798   0.427
 8555SOL     OW26563   2.352   6.790   4.453
 8555SOL    HW126564   2.392   6.828   4.370
 8555SOL    HW226565   2.256   6.819   4.461
 8556SOL     OW26566   5.954   6.938   4.496
 8556SOL    HW126567   5.929   6.867   4.429
 8556SOL    HW226568   5.967   0.002   4.448
 8557SOL     OW26569   6.832   1.953   1.009
 8557SOL    HW126570   6.916   1.998   0.981
 8557SOL    HW226571   6.795   1.901   0.932
 8558SOL     OW26572   1.519   4.242   2.284
 8558SOL    HW126573   1.493   4.179   2.357
 8558SOL    HW226574   1.601   4.292   2.310
 8559SOL     OW26575   0.939   1.534   5.305
 8559SOL    HW126576   0.927   1.633   5.300
 8559SOL    HW226577   0.932   1.505   5.401
 8560SOL     OW26578   6.614   2.638   6.769
 8560SOL    HW126579   6.635   2.639   6.672
 8560SOL    HW226580   6.623   2.731   6.806
 8561SOL     OW26581   4.728   6.063   6.432
 8561SOL    HW126582   4.681   6.138   6.479
 8561SOL    HW226583   4.805   6.100   6.380
 8562SOL     OW26584   3.926   0.139   4.377
 8562SOL    HW126585   3.859   0.197   4.422
 8562SOL    HW226586   3.972   0.192   4.305
 8563SOL     OW26587   2.754   2.799   6.671
 8563SOL    HW126588   2.790   2.710   6.642
 8563SOL    HW226589   2.799   2.826   6.757
 8564SOL     OW26590   0.942   6.299   3.263
 8564SOL    HW126591   1.025   6.248   3.284
 8564SOL    HW226592   0.865   6.237   3.256
 8565SOL     OW26593   3.512   1.063   1.470
 8565SOL    HW126594   3.557   1.124   1.535
 8565SOL    HW226595   3.469   0.987   1.519
 8566SOL     OW26596   1.761   3.828   4.067
 8566SOL    HW126597   1.803   3.906   4.113
 8566SOL    HW226598   1.784   3.829   3.970
 8567SOL     OW26599   5.355   6.405   6.226
 8567SOL    HW126600   5.356   6.431   6.129
 8567SOL    HW226601   5.449   6.390   6.258
 8568SOL     OW26602   5.477   0.334   0.492
 8568SOL    HW126603   5.489   0.351   0.590
 8568SOL    HW226604   5.380   0.338   0.469
 8569SOL     OW26605   3.501   0.656   5.470
 8569SOL    HW126606   3.496   0.628   5.566
 8569SOL    HW226607   3.596   0.658   5.440
 8570SOL     OW26608   6.479   3.403   6.541
 8570SOL    HW126609   6.454   3.386   6.445
 8570SOL    HW226610   6.483   3.316   6.590
 8571SOL     OW26611   0.002   4.459   5.739
 8571SOL    HW126612   0.056   4.472   5.656
 8571SOL    HW226613   0.060   4.419   5.811
 8572SOL     OW26614   2.737   5.084   5.951
 8572SOL    HW126615   2.713   5.119   5.861
 8572SOL    HW226616   2.800   5.148   5.996
 8573SOL     OW26617   3.295   5.891   3.973
 8573SOL    HW126618   3.385   5.861   4.004
 8573SOL    HW226619   3.246   5.931   4.050
 8574SOL     OW26620   0.622   4.119   4.319
 8574SOL    HW126621   0.566   4.036   4.320
 8574SOL    HW226622   0.656   4.135   4.226
 8575SOL     OW26623   2.852   3.261   6.538
 8575SOL    HW126624   2.898   3.324   6.476
 8575SOL    HW226625   2.774   3.219   6.490
 8576SOL     OW26626   2.051   6.965   0.700
 8576SOL    HW126627   2.147   6.975   0.673
 8576SOL    HW226628   1.992   6.989   0.622
 8577SOL     OW26629   6.498   5.605   4.564
 8577SOL    HW126630   6.555   5.673   4.518
 8577SOL    HW226631   6.402   5.622   4.543
 8578SOL     OW26632   4.368   0.638   3.427
 8578SOL    HW126633   4.319   0.620   3.341
 8578SOL    HW226634   4.403   0.731   3.426
 8579SOL     OW26635   0.853   4.921   2.360
 8579SOL    HW126636   0.792   4.876   2.295
 8579SOL    HW226637   0.800   4.984   2.417
 8580SOL     OW26638   2.640   5.533   5.900
 8580SOL    HW126639   2.541   5.542   5.908
 8580SOL    HW226640   2.682   5.547   5.990
 8581SOL     OW26641   3.433   3.261   0.494
 8581SOL    HW126642   3.391   3.197   0.558
 8581SOL    HW226643   3.430   3.353   0.531
 8582SOL     OW26644   3.721   4.803   0.049
 8582SOL    HW126645   3.740   4.775   6.978
 8582SOL    HW226646   3.762   4.893   0.065
 8583SOL     OW26647   5.542   6.821   4.623
 8583SOL    HW126648   5.558   6.741   4.564
 8583SOL    HW226649   5.630   6.860   4.650
 8584SOL     OW26650   0.283   5.314   6.429
 8584SOL    HW126651   0.203   5.360   6.391
 8584SOL    HW226652   0.365   5.368   6.408
 8585SOL     OW26653   1.518   1.989   1.012
 8585SOL    HW126654   1.598   1.970   0.955
 8585SOL    HW226655   1.476   2.075   0.984
 8586SOL     OW26656   4.032   5.127   4.093
 8586SOL    HW126657   4.004   5.044   4.141
 8586SOL    HW226658   3.981   5.205   4.128
 8587SOL     OW26659   6.389   1.748   1.299
 8587SOL    HW126660   6.431   1.819   1.243
 8587SOL    HW226661   6.350   1.789   1.382
 8588SOL     OW26662   3.698   2.805   6.197
 8588SOL    HW126663   3.653   2.771   6.115
 8588SOL    HW226664   3.795   2.781   6.194
 8589SOL     OW26665   2.735   1.605   4.615
 8589SOL    HW126666   2.646   1.562   4.605
 8589SOL    HW226667   2.786   1.598   4.529
 8590SOL     OW26668   5.456   5.175   5.306
 8590SOL    HW126669   5.472   5.107   5.377
 8590SOL    HW226670   5.419   5.130   5.224
 8591SOL     OW26671   0.770   2.859   0.501
 8591SOL    HW126672   0.727   2.838   0.589
 8591SOL    HW226673   0.823   2.780   0.470
 8592SOL     OW26674   6.273   6.353   6.750
 8592SOL    HW126675   6.347   6.420   6.748
 8592SOL    HW226676   6.302   6.273   6.802
 8593SOL     OW26677   0.604   5.533   3.326
 8593SOL    HW126678   0.634   5.627   3.310
 8593SOL    HW226679   0.545   5.530   3.406
 8594SOL     OW26680   3.969   3.980   2.797
 8594SOL    HW126681   4.047   4.040   2.785
 8594SOL    HW226682   3.999   3.884   2.792
 8595SOL     OW26683   1.379   2.765   1.629
 8595SOL    HW126684   1.428   2.716   1.701
 8595SOL    HW226685   1.404   2.726   1.540
 8596SOL     OW26686   6.855   4.129   2.352
 8596SOL    HW126687   6.850   4.149   2.449
 8596SOL    HW226688   6.929   4.182   2.310
 8597SOL     OW26689   1.916   1.462   0.766
 8597SOL    HW126690   1.988   1.412   0.813
 8597SOL    HW226691   1.946   1.486   0.674
 8598SOL     OW26692   6.267   3.089   1.708
 8598SOL    HW126693   6.187   3.136   1.670
 8598SOL    HW226694   6.264   2.993   1.683
 8599SOL     OW26695   0.817   2.750   0.798
 8599SOL    HW126696   0.883   2.703   0.739
 8599SOL    HW226697   0.813   2.705   0.887
 8600SOL     OW26698   6.644   2.432   6.117
 8600SOL    HW126699   6.664   2.456   6.022
 8600SOL    HW226700   6.547   2.445   6.135
 8601SOL     OW26701   0.588   0.375   4.815
 8601SOL    HW126702   0.535   0.449   4.773
 8601SOL    HW226703   0.676   0.366   4.768
 8602SOL     OW26704   1.529   6.523   1.777
 8602SOL    HW126705   1.505   6.428   1.758
 8602SOL    HW226706   1.445   6.575   1.798
 8603SOL     OW26707   4.872   3.736   1.532
 8603SOL    HW126708   4.791   3.692   1.573
 8603SOL    HW226709   4.882   3.828   1.569
 8604SOL     OW26710   6.210   2.692   2.954
 8604SOL    HW126711   6.129   2.692   3.014
 8604SOL    HW226712   6.282   2.749   2.994
 8605SOL     OW26713   3.068   5.160   1.636
 8605SOL    HW126714   3.056   5.072   1.589
 8605SOL    HW226715   3.166   5.180   1.642
 8606SOL     OW26716   4.156   5.169   4.620
 8606SOL    HW126717   4.226   5.141   4.555
 8606SOL    HW226718   4.195   5.234   4.685
 8607SOL     OW26719   2.670   6.360   0.684
 8607SOL    HW126720   2.606   6.360   0.761
 8607SOL    HW226721   2.741   6.291   0.698
 8608SOL     OW26722   5.705   6.643   2.531
 8608SOL    HW126723   5.783   6.667   2.474
 8608SOL    HW226724   5.656   6.566   2.490
 8609SOL     OW26725   5.352   0.378   5.740
 8609SOL    HW126726   5.408   0.460   5.753
 8609SOL    HW226727   5.264   0.389   5.785
 8610SOL     OW26728   6.548   6.316   5.469
 8610SOL    HW126729   6.453   6.309   5.438
 8610SOL    HW226730   6.570   6.237   5.527
 8611SOL     OW26731   1.573   2.115   3.089
 8611SOL    HW126732   1.483   2.159   3.088
 8611SOL    HW226733   1.643   2.182   3.064
 8612SOL     OW26734   5.185   3.152   4.515
 8612SOL    HW126735   5.090   3.146   4.548
 8612SOL    HW226736   5.186   3.197   4.426
 8613SOL     OW26737   1.182   0.438   0.406
 8613SOL    HW126738   1.252   0.431   0.477
 8613SOL    HW226739   1.092   0.437   0.448
 8614SOL     OW26740   1.627   2.276   3.422
 8614SOL    HW126741   1.643   2.357   3.480
 8614SOL    HW226742   1.593   2.201   3.479
 8615SOL     OW26743   4.948   1.669   5.861
 8615SOL    HW126744   4.883   1.742   5.885
 8615SOL    HW226745   4.992   1.691   5.774
 8616SOL     OW26746   0.774   3.047   0.282
 8616SOL    HW126747   0.773   2.968   0.344
 8616SOL    HW226748   0.865   3.088   0.281
 8617SOL     OW26749   5.903   3.301   0.446
 8617SOL    HW126750   5.823   3.277   0.500
 8617SOL    HW226751   5.956   3.218   0.428
 8618SOL     OW26752   3.478   1.433   2.737
 8618SOL    HW126753   3.556   1.383   2.775
 8618SOL    HW226754   3.397   1.417   2.793
 8619SOL     OW26755   3.852   6.914   0.738
 8619SOL    HW126756   3.860   6.884   0.833
 8619SOL    HW226757   3.932   6.968   0.713
 8620SOL     OW26758   6.145   5.894   3.797
 8620SOL    HW126759   6.102   5.914   3.709
 8620SOL    HW226760   6.080   5.845   3.855
 8621SOL     OW26761   5.141   1.083   3.735
 8621SOL    HW126762   5.103   1.111   3.823
 8621SOL    HW226763   5.067   1.074   3.668
 8622SOL     OW26764   4.887   5.544   6.349
 8622SOL    HW126765   4.797   5.565   6.311
 8622SOL    HW226766   4.918   5.455   6.315
 8623SOL     OW26767   6.276   1.776   3.625
 8623SOL    HW126768   6.361   1.758   3.675
 8623SOL    HW226769   6.198   1.756   3.684
 8624SOL     OW26770   6.209   3.113   3.646
 8624SOL    HW126771   6.111   3.110   3.664
 8624SOL    HW226772   6.235   3.035   3.589
 8625SOL     OW26773   3.729   1.265   6.105
 8625SOL    HW126774   3.713   1.166   6.103
 8625SOL    HW226775   3.821   1.283   6.141
 8626SOL     OW26776   2.969   3.732   2.282
 8626SOL    HW126777   2.943   3.637   2.266
 8626SOL    HW226778   2.940   3.788   2.205
 8627SOL     OW26779   2.778   0.266   6.884
 8627SOL    HW126780   2.789   0.354   6.838
 8627SOL    HW226781   2.790   0.278   6.983
 8628SOL     OW26782   6.035   1.703   1.008
 8628SOL    HW126783   6.118   1.654   0.980
 8628SOL    HW226784   5.965   1.693   0.937
 8629SOL     OW26785   1.585   5.945   3.357
 8629SOL    HW126786   1.507   5.923   3.299
 8629SOL    HW226787   1.635   6.022   3.318
 8630SOL     OW26788   5.309   4.877   4.041
 8630SOL    HW126789   5.340   4.929   4.121
 8630SOL    HW226790   5.209   4.872   4.042
 8631SOL     OW26791   4.282   6.393   3.435
 8631SOL    HW126792   4.377   6.425   3.431
 8631SOL    HW226793   4.263   6.334   3.357
 8632SOL     OW26794   3.396   1.114   3.017
 8632SOL    HW126795   3.323   1.181   3.014
 8632SOL    HW226796   3.371   1.039   3.077
 8633SOL     OW26797   6.581   6.376   2.585
 8633SOL    HW126798   6.528   6.428   2.651
 8633SOL    HW226799   6.546   6.394   2.493
 8634SOL     OW26800   6.427   6.051   1.921
 8634SOL    HW126801   6.380   5.964   1.911
 8634SOL    HW226802   6.364   6.126   1.900
 8635SOL     OW26803   6.120   3.641   5.725
 8635SOL    HW126804   6.202   3.610   5.773
 8635SOL    HW226805   6.045   3.654   5.791
 8636SOL     OW26806   6.195   5.101   0.956
 8636SOL    HW126807   6.194   5.156   1.039
 8636SOL    HW226808   6.173   5.158   0.877
 8637SOL     OW26809   1.308   0.839   1.583
 8637SOL    HW126810   1.407   0.838   1.571
 8637SOL    HW226811   1.268   0.916   1.534
 8638SOL     OW26812   5.618   4.680   1.281
 8638SOL    HW126813   5.612   4.754   1.214
 8638SOL    HW226814   5.632   4.719   1.373
 8639SOL     OW26815   5.918   2.721   1.917
 8639SOL    HW126816   5.890   2.781   1.842
 8639SOL    HW226817   5.844   2.714   1.983
 8640SOL     OW26818   4.948   6.103   1.593
 8640SOL    HW126819   4.885   6.128   1.519
 8640SOL    HW226820   4.896   6.090   1.678
 8641SOL     OW26821   5.083   4.761   3.586
 8641SOL    HW126822   5.161   4.819   3.560
 8641SOL    HW226823   4.999   4.813   3.575
 8642SOL     OW26824   4.164   1.230   2.078
 8642SOL    HW126825   4.123   1.246   1.988
 8642SOL    HW226826   4.187   1.133   2.086
 8643SOL     OW26827   4.657   0.116   0.076
 8643SOL    HW126828   4.700   0.146   0.162
 8643SOL    HW226829   4.726   0.110   0.005
 8644SOL     OW26830   6.499   3.403   5.426
 8644SOL    HW126831   6.414   3.381   5.379
 8644SOL    HW226832   6.503   3.353   5.513
 8645SOL     OW26833   6.501   3.612   1.706
 8645SOL    HW126834   6.517   3.515   1.690
 8645SOL    HW226835   6.448   3.623   1.791
 8646SOL     OW26836   4.975   6.489   0.762
 8646SOL    HW126837   5.066   6.449   0.774
 8646SOL    HW226838   4.980   6.587   0.781
 8647SOL     OW26839   4.634   5.040   2.275
 8647SOL    HW126840   4.726   5.013   2.249
 8647SOL    HW226841   4.569   5.008   2.205
 8648SOL     OW26842   5.990   0.664   3.958
 8648SOL    HW126843   5.997   0.583   4.016
 8648SOL    HW226844   5.934   0.644   3.878
 8649SOL     OW26845   6.121   4.428   5.717
 8649SOL    HW126846   6.120   4.354   5.783
 8649SOL    HW226847   6.209   4.430   5.670
 8650SOL     OW26848   0.335   5.779   1.418
 8650SOL    HW126849   0.339   5.681   1.441
 8650SOL    HW226850   0.247   5.816   1.448
 8651SOL     OW26851   4.233   3.160   1.107
 8651SOL    HW126852   4.298   3.193   1.175
 8651SOL    HW226853   4.161   3.228   1.093
 8652SOL     OW26854   0.688   2.764   4.206
 8652SOL    HW126855   0.744   2.772   4.289
 8652SOL    HW226856   0.687   2.852   4.158
 8653SOL     OW26857   5.315   2.760   6.484
 8653SOL    HW126858   5.404   2.783   6.442
 8653SOL    HW226859   5.330   2.729   6.578
 8654SOL     OW26860   1.424   4.981   1.511
 8654SOL    HW126861   1.367   4.966   1.430
 8654SOL    HW226862   1.494   4.909   1.515
 8655SOL     OW26863   5.590   6.080   2.765
 8655SOL    HW126864   5.518   6.015   2.742
 8655SOL    HW226865   5.564   6.132   2.847
 8656SOL     OW26866   6.434   2.421   1.986
 8656SOL    HW126867   6.409   2.324   1.981
 8656SOL    HW226868   6.414   2.455   2.078
 8657SOL     OW26869   3.080   4.868   0.954
 8657SOL    HW126870   3.154   4.888   0.889
 8657SOL    HW226871   3.080   4.771   0.975
 8658SOL     OW26872   1.438   5.578   6.110
 8658SOL    HW126873   1.446   5.536   6.201
 8658SOL    HW226874   1.371   5.652   6.113
 8659SOL     OW26875   4.228   6.847   4.661
 8659SOL    HW126876   4.193   6.881   4.748
 8659SOL    HW226877   4.327   6.837   4.666
 8660SOL     OW26878   5.290   4.598   0.007
 8660SOL    HW126879   5.309   4.634   6.939
 8660SOL    HW226880   5.335   4.509   0.018
 8661SOL     OW26881   6.217   3.382   1.745
 8661SOL    HW126882   6.204   3.420   1.837
 8661SOL    HW226883   6.256   3.290   1.751
 8662SOL     OW26884   0.298   0.930   6.757
 8662SOL    HW126885   0.220   0.993   6.757
 8662SOL    HW226886   0.380   0.979   6.786
 8663SOL     OW26887   2.641   5.164   1.065
 8663SOL    HW126888   2.726   5.162   1.116
 8663SOL    HW226889   2.660   5.154   0.967
 8664SOL     OW26890   4.607   5.078   1.532
 8664SOL    HW126891   4.671   5.148   1.563
 8664SOL    HW226892   4.659   4.999   1.498
 8665SOL     OW26893   5.150   5.110   4.698
 8665SOL    HW126894   5.216   5.062   4.756
 8665SOL    HW226895   5.057   5.079   4.720
 8666SOL     OW26896   6.555   4.460   4.325
 8666SOL    HW126897   6.600   4.542   4.362
 8666SOL    HW226898   6.593   4.379   4.369
 8667SOL     OW26899   5.585   2.125   3.206
 8667SOL    HW126900   5.530   2.204   3.178
 8667SOL    HW226901   5.647   2.152   3.279
 8668SOL     OW26902   3.344   0.846   4.856
 8668SOL    HW126903   3.284   0.925   4.867
 8668SOL    HW226904   3.301   0.766   4.898
 8669SOL     OW26905   4.255   6.749   6.547
 8669SOL    HW126906   4.193   6.760   6.625
 8669SOL    HW226907   4.202   6.735   6.464
 8670SOL     OW26908   4.286   4.697   2.683
 8670SOL    HW126909   4.244   4.698   2.592
 8670SOL    HW226910   4.217   4.721   2.751
 8671SOL     OW26911   6.319   6.324   2.450
 8671SOL    HW126912   6.286   6.280   2.533
 8671SOL    HW226913   6.284   6.276   2.370
 8672SOL     OW26914   3.657   5.344   4.783
 8672SOL    HW126915   3.747   5.326   4.743
 8672SOL    HW226916   3.616   5.424   4.740
 8673SOL     OW26917   4.967   2.301   6.998
 8673SOL    HW126918   4.910   2.382   6.982
 8673SOL    HW226919   4.910   2.224   0.003
 8674SOL     OW26920   0.738   0.037   3.210
 8674SOL    HW126921   0.733   6.961   3.209
 8674SOL    HW226922   0.722   0.072   3.117
 8675SOL     OW26923   2.757   1.682   3.066
 8675SOL    HW126924   2.782   1.779   3.063
 8675SOL    HW226925   2.746   1.653   3.161
 8676SOL     OW26926   4.549   1.081   4.397
 8676SOL    HW126927   4.479   1.123   4.339
 8676SOL    HW226928   4.632   1.137   4.393
 8677SOL     OW26929   2.215   3.898   5.912
 8677SOL    HW126930   2.209   3.897   5.812
 8677SOL    HW226931   2.145   3.838   5.951
 8678SOL     OW26932   1.738   0.652   6.116
 8678SOL    HW126933   1.657   0.702   6.085
 8678SOL    HW226934   1.715   0.556   6.131
 8679SOL     OW26935   6.080   1.768   4.722
 8679SOL    HW126936   6.108   1.816   4.639
 8679SOL    HW226937   5.982   1.747   4.716
 8680SOL     OW26938   0.972   3.709   0.355
 8680SOL    HW126939   1.026   3.663   0.285
 8680SOL    HW226940   0.995   3.806   0.356
 8681SOL     OW26941   4.144   3.753   1.430
 8681SOL    HW126942   4.144   3.688   1.354
 8681SOL    HW226943   4.089   3.717   1.505
 8682SOL     OW26944   1.364   5.746   2.668
 8682SOL    HW126945   1.348   5.838   2.631
 8682SOL    HW226946   1.290   5.686   2.639
 8683SOL     OW26947   4.901   2.897   6.494
 8683SOL    HW126948   4.973   2.914   6.427
 8683SOL    HW226949   4.908   2.804   6.529
 8684SOL     OW26950   6.274   3.037   3.313
 8684SOL    HW126951   6.354   2.978   3.326
 8684SOL    HW226952   6.191   2.986   3.335
 8685SOL     OW26953   0.065   1.501   5.609
 8685SOL    HW126954   0.066   1.411   5.566
 8685SOL    HW226955   0.000   1.561   5.560
 8686SOL     OW26956   6.385   1.616   3.913
 8686SOL    HW126957   6.445   1.686   3.954
 8686SOL    HW226958   6.410   1.526   3.947
 8687SOL     OW26959   3.389   0.988   2.767
 8687SOL    HW126960   3.327   1.042   2.711
 8687SOL    HW226961   3.396   1.029   2.858
 8688SOL     OW26962   1.261   6.942   2.047
 8688SOL    HW126963   1.356   6.910   2.045
 8688SOL    HW226964   1.213   6.908   1.966
 8689SOL     OW26965   4.976   4.608   1.198
 8689SOL    HW126966   4.889   4.564   1.218
 8689SOL    HW226967   4.987   4.618   1.099
 8690SOL     OW26968   1.578   1.014   2.444
 8690SOL    HW126969   1.526   1.093   2.410
 8690SOL    HW226970   1.519   0.934   2.447
 8691SOL     OW26971   5.990   1.606   0.544
 8691SOL    HW126972   6.067   1.594   0.481
 8691SOL    HW226973   5.985   1.701   0.574
 8692SOL     OW26974   1.748   1.256   3.828
 8692SOL    HW126975   1.656   1.294   3.837
 8692SOL    HW226976   1.768   1.199   3.907
 8693SOL     OW26977   5.212   2.224   6.600
 8693SOL    HW126978   5.159   2.221   6.515
 8693SOL    HW226979   5.310   2.222   6.578
 8694SOL     OW26980   3.917   6.971   6.940
 8694SOL    HW126981   3.898   6.881   6.979
 8694SOL    HW226982   3.861   6.984   6.858
 8695SOL     OW26983   4.613   4.342   5.629
 8695SOL    HW126984   4.607   4.286   5.547
 8695SOL    HW226985   4.574   4.293   5.706
 8696SOL     OW26986   2.480   5.330   0.577
 8696SOL    HW126987   2.547   5.307   0.506
 8696SOL    HW226988   2.465   5.250   0.635
 8697SOL     OW26989   4.984   5.011   6.674
 8697SOL    HW126990   4.940   5.084   6.725
 8697SOL    HW226991   5.056   5.049   6.616
 8698SOL     OW26992   5.839   5.980   5.074
 8698SOL    HW126993   5.774   5.998   5.148
 8698SOL    HW226994   5.788   5.965   4.988
 8699SOL     OW26995   1.550   1.471   5.100
 8699SOL    HW126996   1.518   1.430   5.185
 8699SOL    HW226997   1.635   1.520   5.116
 8700SOL     OW26998   2.872   2.324   5.967
 8700SOL    HW126999   2.838   2.315   5.873
 8700SOL    HW227000   2.971   2.308   5.968
 8701SOL     OW27001   1.323   1.143   3.630
 8701SOL    HW127002   1.334   1.219   3.566
 8701SOL    HW227003   1.339   1.057   3.582
 8702SOL     OW27004   5.229   6.421   6.973
 8702SOL    HW127005   5.297   6.441   6.902
 8702SOL    HW227006   5.205   6.324   6.970
 8703SOL     OW27007   1.590   5.268   1.421
 8703SOL    HW127008   1.528   5.302   1.350
 8703SOL    HW227009   1.540   5.207   1.483
 8704SOL     OW27010   1.071   4.294   1.810
 8704SOL    HW127011   1.083   4.383   1.854
 8704SOL    HW227012   0.981   4.256   1.833
 8705SOL     OW27013   4.675   6.675   4.292
 8705SOL    HW127014   4.724   6.605   4.343
 8705SOL    HW227015   4.739   6.727   4.235
 8706SOL     OW27016   4.878   0.996   5.664
 8706SOL    HW127017   4.919   1.044   5.741
 8706SOL    HW227018   4.948   0.974   5.596
 8707SOL     OW27019   4.249   1.847   5.411
 8707SOL    HW127020   4.235   1.761   5.461
 8707SOL    HW227021   4.284   1.917   5.474
 8708SOL     OW27022   4.157   1.658   0.431
 8708SOL    HW127023   4.157   1.645   0.530
 8708SOL    HW227024   4.149   1.570   0.385
 8709SOL     OW27025   5.342   3.327   0.533
 8709SOL    HW127026   5.366   3.247   0.588
 8709SOL    HW227027   5.393   3.325   0.447
 8710SOL     OW27028   6.252   2.983   3.943
 8710SOL    HW127029   6.210   2.982   3.852
 8710SOL    HW227030   6.294   3.072   3.960
 8711SOL     OW27031   1.181   1.170   4.610
 8711SOL    HW127032   1.266   1.219   4.591
 8711SOL    HW227033   1.202   1.078   4.642
 8712SOL     OW27034   3.456   0.513   6.946
 8712SOL    HW127035   3.387   0.571   6.903
 8712SOL    HW227036   3.426   0.488   0.015
 8713SOL     OW27037   6.100   4.777   2.650
 8713SOL    HW127038   6.117   4.829   2.565
 8713SOL    HW227039   6.184   4.728   2.675
 8714SOL     OW27040   1.666   1.499   4.421
 8714SOL    HW127041   1.583   1.454   4.387
 8714SOL    HW227042   1.736   1.430   4.437
 8715SOL     OW27043   5.765   0.976   2.628
 8715SOL    HW127044   5.758   1.075   2.642
 8715SOL    HW227045   5.682   0.943   2.584
 8716SOL     OW27046   0.460   1.245   2.134
 8716SOL    HW127047   0.460   1.344   2.143
 8716SOL    HW227048   0.488   1.203   2.220
 8717SOL     OW27049   4.320   3.448   0.749
 8717SOL    HW127050   4.290   3.357   0.776
 8717SOL    HW227051   4.418   3.458   0.768
 8718SOL     OW27052   6.811   2.917   5.844
 8718SOL    HW127053   6.860   2.865   5.774
 8718SOL    HW227054   6.776   3.002   5.803
 8719SOL     OW27055   5.975   0.952   5.986
 8719SOL    HW127056   5.991   0.860   5.948
 8719SOL    HW227057   5.914   1.002   5.926
 8720SOL     OW27058   4.979   3.410   5.561
 8720SOL    HW127059   5.018   3.421   5.470
 8720SOL    HW227060   5.044   3.361   5.619
 8721SOL     OW27061   6.744   0.929   5.202
 8721SOL    HW127062   6.704   0.877   5.278
 8721SOL    HW227063   6.843   0.913   5.200
 8722SOL     OW27064   3.343   2.832   0.922
 8722SOL    HW127065   3.337   2.759   0.990
 8722SOL    HW227066   3.363   2.793   0.832
 8723SOL     OW27067   0.058   5.817   0.469
 8723SOL    HW127068   0.156   5.837   0.474
 8723SOL    HW227069   0.013   5.888   0.414
 8724SOL     OW27070   5.020   5.979   6.781
 8724SOL    HW127071   4.933   5.932   6.767
 8724SOL    HW227072   5.030   6.052   6.714
 8725SOL     OW27073   2.248   6.186   1.152
 8725SOL    HW127074   2.310   6.157   1.226
 8725SOL    HW227075   2.205   6.273   1.177
 8726SOL     OW27076   0.007   0.945   1.243
 8726SOL    HW127077   0.066   0.943   1.324
 8726SOL    HW227078   0.013   0.857   1.195
 8727SOL     OW27079   5.709   6.482   1.127
 8727SOL    HW127080   5.632   6.464   1.188
 8727SOL    HW227081   5.675   6.497   1.034
 8728SOL     OW27082   2.515   6.005   5.362
 8728SOL    HW127083   2.596   5.993   5.305
 8728SOL    HW227084   2.442   5.945   5.330
 8729SOL     OW27085   4.656   6.011   4.724
 8729SOL    HW127086   4.596   5.937   4.691
 8729SOL    HW227087   4.724   6.033   4.654
 8730SOL     OW27088   6.240   5.911   0.935
 8730SOL    HW127089   6.291   5.829   0.962
 8730SOL    HW227090   6.291   5.959   0.864
 8731SOL     OW27091   0.429   1.512   2.235
 8731SOL    HW127092   0.367   1.577   2.192
 8731SOL    HW227093   0.411   1.509   2.334
 8732SOL     OW27094   6.654   6.239   2.272
 8732SOL    HW127095   6.622   6.163   2.216
 8732SOL    HW227096   6.581   6.306   2.283
 8733SOL     OW27097   0.028   0.172   0.875
 8733SOL    HW127098   0.061   0.152   0.967
 8733SOL    HW227099   6.957   0.207   0.881
 8734SOL     OW27100   6.562   6.448   0.775
 8734SOL    HW127101   6.484   6.449   0.713
 8734SOL    HW227102   6.543   6.505   0.855
 8735SOL     OW27103   0.586   2.905   6.524
 8735SOL    HW127104   0.614   2.950   6.439
 8735SOL    HW227105   0.534   2.971   6.580
 8736SOL     OW27106   0.167   4.944   6.030
 8736SOL    HW127107   0.202   4.985   6.114
 8736SOL    HW227108   0.091   4.883   6.052
 8737SOL     OW27109   3.885   6.355   6.870
 8737SOL    HW127110   3.983   6.343   6.885
 8737SOL    HW227111   3.841   6.382   6.956
 8738SOL     OW27112   0.764   3.944   5.795
 8738SOL    HW127113   0.716   4.030   5.776
 8738SOL    HW227114   0.774   3.933   5.894
 8739SOL     OW27115   1.418   3.916   5.849
 8739SOL    HW127116   1.444   3.906   5.753
 8739SOL    HW227117   1.371   4.003   5.862
 8740SOL     OW27118   1.549   6.403   0.647
 8740SOL    HW127119   1.485   6.450   0.587
 8740SOL    HW227120   1.501   6.372   0.729
 8741SOL     OW27121   1.764   3.567   2.092
 8741SOL    HW127122   1.755   3.656   2.048
 8741SOL    HW227123   1.844   3.519   2.055
 8742SOL     OW27124   4.550   5.666   2.264
 8742SOL    HW127125   4.620   5.728   2.229
 8742SOL    HW227126   4.586   5.573   2.267
 8743SOL     OW27127   2.403   4.982   2.297
 8743SOL    HW127128   2.457   4.952   2.375
 8743SOL    HW227129   2.460   4.982   2.215
 8744SOL     OW27130   3.050   3.373   5.625
 8744SOL    HW127131   3.126   3.334   5.574
 8744SOL    HW227132   3.030   3.465   5.591
 8745SOL     OW27133   6.007   1.728   6.815
 8745SOL    HW127134   5.987   1.789   6.892
 8745SOL    HW227135   6.104   1.705   6.815
 8746SOL     OW27136   5.263   3.446   4.744
 8746SOL    HW127137   5.264   3.353   4.781
 8746SOL    HW227138   5.357   3.475   4.724
 8747SOL     OW27139   0.429   2.197   4.012
 8747SOL    HW127140   0.495   2.123   4.010
 8747SOL    HW227141   0.437   2.247   4.098
 8748SOL     OW27142   2.934   0.024   0.024
 8748SOL    HW127143   2.918   0.121   0.040
 8748SOL    HW227144   2.855   6.995   0.056
 8749SOL     OW27145   3.805   1.593   3.506
 8749SOL    HW127146   3.767   1.538   3.432
 8749SOL    HW227147   3.893   1.553   3.534
 8750SOL     OW27148   2.004   0.818   4.973
 8750SOL    HW127149   1.964   0.838   5.062
 8750SOL    HW227150   1.931   0.803   4.906
 8751SOL     OW27151   1.676   6.433   3.145
 8751SOL    HW127152   1.694   6.380   3.227
 8751SOL    HW227153   1.613   6.507   3.166
 8752SOL     OW27154   2.494   0.883   5.881
 8752SOL    HW127155   2.487   0.932   5.968
 8752SOL    HW227156   2.430   0.921   5.815
 8753SOL     OW27157   5.571   1.125   5.148
 8753SOL    HW127158   5.608   1.174   5.070
 8753SOL    HW227159   5.567   1.186   5.227
 8754SOL     OW27160   1.933   1.116   5.554
 8754SOL    HW127161   1.853   1.072   5.514
 8754SOL    HW227162   2.011   1.053   5.553
 8755SOL     OW27163   2.333   2.083   0.211
 8755SOL    HW127164   2.406   2.078   0.279
 8755SOL    HW227165   2.368   2.049   0.123
 8756SOL     OW27166   2.003   4.570   4.250
 8756SOL    HW127167   1.980   4.603   4.341
 8756SOL    HW227168   2.002   4.646   4.185
 8757SOL     OW27169   3.425   5.291   4.080
 8757SOL    HW127170   3.493   5.350   4.124
 8757SOL    HW227171   3.336   5.304   4.124
 8758SOL     OW27172   4.996   6.510   2.604
 8758SOL    HW127173   4.900   6.531   2.584
 8758SOL    HW227174   5.055   6.570   2.549
 8759SOL     OW27175   5.518   0.438   6.194
 8759SOL    HW127176   5.431   0.393   6.174
 8759SOL    HW227177   5.583   0.371   6.231
 8760SOL     OW27178   2.246   3.037   3.677
 8760SOL    HW127179   2.219   3.071   3.767
 8760SOL    HW227180   2.292   2.949   3.687
 8761SOL     OW27181   5.274   6.308   1.563
 8761SOL    HW127182   5.237   6.230   1.612
 8761SOL    HW227183   5.361   6.283   1.520
 8762SOL     OW27184   1.099   5.012   1.106
 8762SOL    HW127185   1.088   5.017   1.205
 8762SOL    HW227186   1.161   5.084   1.075
 8763SOL     OW27187   0.347   6.247   6.564
 8763SOL    HW127188   0.314   6.333   6.525
 8763SOL    HW227189   0.269   6.195   6.600
 8764SOL     OW27190   3.413   1.792   6.208
 8764SOL    HW127191   3.346   1.755   6.272
 8764SOL    HW227192   3.422   1.731   6.130
 8765SOL     OW27193   6.498   0.416   4.596
 8765SOL    HW127194   6.584   0.366   4.605
 8765SOL    HW227195   6.422   0.357   4.625
 8766SOL     OW27196   2.226   4.407   2.101
 8766SOL    HW127197   2.150   4.406   2.036
 8766SOL    HW227198   2.202   4.462   2.180
 8767SOL     OW27199   4.830   0.499   5.379
 8767SOL    HW127200   4.809   0.532   5.287
 8767SOL    HW227201   4.745   0.475   5.426
 8768SOL     OW27202   0.939   4.308   6.976
 8768SOL    HW127203   0.978   4.354   0.033
 8768SOL    HW227204   0.922   4.212   6.997
 8769SOL     OW27205   1.891   0.751   6.308
 8769SOL    HW127206   1.818   0.746   6.376
 8769SOL    HW227207   1.858   0.717   6.220
 8770SOL     OW27208   5.693   1.470   3.094
 8770SOL    HW127209   5.698   1.457   3.193
 8770SOL    HW227210   5.670   1.566   3.074
 8771SOL     OW27211   2.954   2.929   5.409
 8771SOL    HW127212   3.033   2.895   5.357
 8771SOL    HW227213   2.920   3.013   5.367
 8772SOL     OW27214   6.735   6.709   6.698
 8772SOL    HW127215   6.663   6.734   6.763
 8772SOL    HW227216   6.728   6.768   6.618
 8773SOL     OW27217   2.551   2.114   2.864
 8773SOL    HW127218   2.455   2.122   2.835
 8773SOL    HW227219   2.602   2.062   2.796
 8774SOL     OW27220   1.232   0.914   6.741
 8774SOL    HW127221   1.302   0.873   6.798
 8774SOL    HW227222   1.157   0.947   6.799
 8775SOL     OW27223   6.360   5.941   4.182
 8775SOL    HW127224   6.407   5.854   4.196
 8775SOL    HW227225   6.353   5.960   4.084
 8776SOL     OW27226   3.292   3.997   5.395
 8776SOL    HW127227   3.368   3.971   5.336
 8776SOL    HW227228   3.251   3.915   5.436
 8777SOL     OW27229   6.006   5.899   2.807
 8777SOL    HW127230   5.930   5.947   2.763
 8777SOL    HW227231   5.989   5.893   2.905
 8778SOL     OW27232   1.184   3.134   2.878
 8778SOL    HW127233   1.201   3.173   2.787
 8778SOL    HW227234   1.123   3.055   2.870
 8779SOL     OW27235   1.652   4.586   1.314
 8779SOL    HW127236   1.723   4.657   1.314
 8779SOL    HW227237   1.586   4.606   1.386
 8780SOL     OW27238   1.760   5.611   5.056
 8780SOL    HW127239   1.743   5.558   4.973
 8780SOL    HW227240   1.812   5.555   5.121
 8781SOL     OW27241   1.019   2.243   2.671
 8781SOL    HW127242   1.025   2.237   2.770
 8781SOL    HW227243   0.925   2.266   2.644
 8782SOL     OW27244   5.236   1.389   3.667
 8782SOL    HW127245   5.185   1.361   3.748
 8782SOL    HW227246   5.283   1.475   3.686
 8783SOL     OW27247   6.150   2.816   5.572
 8783SOL    HW127248   6.151   2.822   5.472
 8783SOL    HW227249   6.090   2.885   5.610
 8784SOL     OW27250   6.028   4.215   5.899
 8784SOL    HW127251   6.032   4.253   5.991
 8784SOL    HW227252   5.932   4.210   5.869
 8785SOL     OW27253   5.334   4.137   6.000
 8785SOL    HW127254   5.406   4.153   5.932
 8785SOL    HW227255   5.249   4.114   5.952
 8786SOL     OW27256   1.770   6.060   6.974
 8786SOL    HW127257   1.697   6.112   6.929
 8786SOL    HW227258   1.761   6.071   0.050
 8787SOL     OW27259   1.225   2.867   6.737
 8787SOL    HW127260   1.270   2.867   6.648
 8787SOL    HW227261   1.199   2.774   6.761
 8788SOL     OW27262   1.231   2.103   5.371
 8788SOL    HW127263   1.152   2.146   5.328
 8788SOL    HW227264   1.315   2.142   5.332
 8789SOL     OW27265   0.162   0.963   0.500
 8789SOL    HW127266   0.147   0.941   0.404
 8789SOL    HW227267   0.094   1.029   0.531
 8790SOL     OW27268   4.027   1.156   6.216
 8790SOL    HW127269   4.012   1.234   6.156
 8790SOL    HW227270   4.099   1.178   6.282
 8791SOL     OW27271   4.981   5.973   5.305
 8791SOL    HW127272   4.962   6.061   5.347
 8791SOL    HW227273   5.080   5.957   5.303
 8792SOL     OW27274   5.287   6.764   2.671
 8792SOL    HW127275   5.370   6.819   2.670
 8792SOL    HW227276   5.212   6.816   2.631
 8793SOL     OW27277   0.986   4.348   3.337
 8793SOL    HW127278   0.928   4.345   3.255
 8793SOL    HW227279   0.941   4.402   3.408
 8794SOL     OW27280   2.777   5.889   2.728
 8794SOL    HW127281   2.721   5.807   2.739
 8794SOL    HW227282   2.727   5.969   2.761
 8795SOL     OW27283   3.153   6.237   4.588
 8795SOL    HW127284   3.084   6.306   4.569
 8795SOL    HW227285   3.136   6.196   4.678
 8796SOL     OW27286   4.855   2.136   4.647
 8796SOL    HW127287   4.881   2.213   4.705
 8796SOL    HW227288   4.900   2.143   4.558
 8797SOL     OW27289   0.626   5.763   6.625
 8797SOL    HW127290   0.555   5.766   6.555
 8797SOL    HW227291   0.587   5.728   6.710
 8798SOL     OW27292   3.175   3.300   5.338
 8798SOL    HW127293   3.247   3.231   5.343
 8798SOL    HW227294   3.164   3.331   5.244
 8799SOL     OW27295   3.240   0.871   2.047
 8799SOL    HW127296   3.296   0.796   2.012
 8799SOL    HW227297   3.200   0.845   2.135
 8800SOL     OW27298   3.971   3.876   0.635
 8800SOL    HW127299   3.890   3.919   0.676
 8800SOL    HW227300   3.966   3.777   0.646
 8801SOL     OW27301   3.296   6.608   5.745
 8801SOL    HW127302   3.328   6.652   5.661
 8801SOL    HW227303   3.259   6.518   5.722
 8802SOL     OW27304   2.008   6.051   1.469
 8802SOL    HW127305   2.034   6.002   1.552
 8802SOL    HW227306   1.962   6.136   1.493
 8803SOL     OW27307   3.886   5.979   1.935
 8803SOL    HW127308   3.951   6.034   1.988
 8803SOL    HW227309   3.842   6.037   1.866
 8804SOL     OW27310   2.693   0.936   1.859
 8804SOL    HW127311   2.755   0.859   1.848
 8804SOL    HW227312   2.605   0.903   1.894
 8805SOL     OW27313   0.721   0.177   3.861
 8805SOL    HW127314   0.774   0.161   3.777
 8805SOL    HW227315   0.665   0.096   3.881
 8806SOL     OW27316   1.693   4.780   6.899
 8806SOL    HW127317   1.633   4.773   6.978
 8806SOL    HW227318   1.780   4.821   6.927
 8807SOL     OW27319   2.534   5.225   6.399
 8807SOL    HW127320   2.585   5.260   6.477
 8807SOL    HW227321   2.547   5.286   6.320
 8808SOL     OW27322   5.713   2.668   0.733
 8808SOL    HW127323   5.627   2.715   0.752
 8808SOL    HW227324   5.716   2.581   0.782
 8809SOL     OW27325   6.285   4.998   7.014
 8809SOL    HW127326   6.290   5.051   0.075
 8809SOL    HW227327   6.368   5.013   6.960
 8810SOL     OW27328   4.939   1.485   3.760
 8810SOL    HW127329   4.926   1.496   3.858
 8810SOL    HW227330   4.947   1.575   3.717
 8811SOL     OW27331   0.954   0.816   3.457
 8811SOL    HW127332   0.928   0.912   3.471
 8811SOL    HW227333   0.968   0.798   3.360
 8812SOL     OW27334   2.697   0.980   0.114
 8812SOL    HW127335   2.774   0.917   0.110
 8812SOL    HW227336   2.729   1.072   0.137
 8813SOL     OW27337   1.112   5.651   1.048
 8813SOL    HW127338   1.065   5.647   0.960
 8813SOL    HW227339   1.063   5.595   1.115
 8814SOL     OW27340   5.451   6.884   5.396
 8814SOL    HW127341   5.546   6.876   5.365
 8814SOL    HW227342   5.432   6.980   5.420
 8815SOL     OW27343   5.836   5.252   2.933
 8815SOL    HW127344   5.860   5.192   2.857
 8815SOL    HW227345   5.775   5.324   2.901
 8816SOL     OW27346   0.620   5.339   2.381
 8816SOL    HW127347   0.635   5.324   2.283
 8816SOL    HW227348   0.694   5.395   2.418
 8817SOL     OW27349   2.151   3.921   5.251
 8817SOL    HW127350   2.231   3.966   5.212
 8817SOL    HW227351   2.169   3.823   5.261
 8818SOL     OW27352   6.973   4.632   5.471
 8818SOL    HW127353   6.988   4.652   5.374
 8818SOL    HW227354   6.939   4.714   5.517
 8819SOL     OW27355   6.836   0.532   4.098
 8819SOL    HW127356   6.838   0.631   4.085
 8819SOL    HW227357   6.907   0.506   4.164
 8820SOL     OW27358   0.972   2.484   3.008
 8820SOL    HW127359   0.905   2.430   3.058
 8820SOL    HW227360   1.059   2.484   3.057
 8821SOL     OW27361   1.295   6.932   6.558
 8821SOL    HW127362   1.364   6.860   6.569
 8821SOL    HW227363   1.233   6.908   6.484
 8822SOL     OW27364   1.493   2.739   3.856
 8822SOL    HW127365   1.528   2.832   3.866
 8822SOL    HW227366   1.538   2.695   3.778
 8823SOL     OW27367   2.420   5.109   1.211
 8823SOL    HW127368   2.442   5.169   1.288
 8823SOL    HW227369   2.503   5.092   1.157
 8824SOL     OW27370   4.795   4.403   1.127
 8824SOL    HW127371   4.727   4.336   1.155
 8824SOL    HW227372   4.887   4.366   1.140
 8825SOL     OW27373   2.484   2.056   7.003
 8825SOL    HW127374   2.391   2.067   6.967
 8825SOL    HW227375   2.528   2.145   7.010
 8826SOL     OW27376   5.486   0.289   1.930
 8826SOL    HW127377   5.398   0.313   1.891
 8826SOL    HW227378   5.501   0.340   2.014
 8827SOL     OW27379   6.249   1.612   3.406
 8827SOL    HW127380   6.273   1.626   3.310
 8827SOL    HW227381   6.262   1.697   3.457
 8828SOL     OW27382   1.450   6.134   3.796
 8828SOL    HW127383   1.407   6.062   3.850
 8828SOL    HW227384   1.480   6.208   3.857
 8829SOL     OW27385   1.603   0.799   1.557
 8829SOL    HW127386   1.601   0.699   1.557
 8829SOL    HW227387   1.643   0.831   1.471
 8830SOL     OW27388   1.407   1.234   0.555
 8830SOL    HW127389   1.409   1.146   0.507
 8830SOL    HW227390   1.317   1.248   0.595
 8831SOL     OW27391   6.469   0.699   1.762
 8831SOL    HW127392   6.487   0.676   1.667
 8831SOL    HW227393   6.457   0.797   1.772
 8832SOL     OW27394   5.953   1.587   2.199
 8832SOL    HW127395   5.918   1.576   2.292
 8832SOL    HW227396   5.876   1.588   2.134
 8833SOL     OW27397   1.113   5.402   2.296
 8833SOL    HW127398   1.197   5.443   2.260
 8833SOL    HW227399   1.052   5.379   2.221
 8834SOL     OW27400   6.190   4.209   3.647
 8834SOL    HW127401   6.207   4.122   3.601
 8834SOL    HW227402   6.134   4.193   3.729
 8835SOL     OW27403   0.500   1.462   0.737
 8835SOL    HW127404   0.543   1.475   0.826
 8835SOL    HW227405   0.569   1.437   0.670
 8836SOL     OW27406   4.770   1.570   2.044
 8836SOL    HW127407   4.732   1.612   1.962
 8836SOL    HW227408   4.870   1.567   2.036
 8837SOL     OW27409   0.162   2.410   2.442
 8837SOL    HW127410   0.154   2.486   2.506
 8837SOL    HW227411   0.209   2.441   2.359
 8838SOL     OW27412   1.338   6.488   4.182
 8838SOL    HW127413   1.320   6.397   4.219
 8838SOL    HW227414   1.251   6.536   4.167
 8839SOL     OW27415   5.466   5.610   4.664
 8839SOL    HW127416   5.544   5.664   4.632
 8839SOL    HW227417   5.496   5.550   4.739
 8840SOL     OW27418   3.929   0.890   2.024
 8840SOL    HW127419   3.844   0.942   2.027
 8840SOL    HW227420   3.998   0.935   2.082
 8841SOL     OW27421   3.958   6.957   3.712
 8841SOL    HW127422   3.938   6.950   3.810
 8841SOL    HW227423   3.882   7.002   3.665
 8842SOL     OW27424   1.397   2.291   1.952
 8842SOL    HW127425   1.404   2.312   1.854
 8842SOL    HW227426   1.447   2.207   1.973
 8843SOL     OW27427   6.829   2.946   4.212
 8843SOL    HW127428   6.821   2.846   4.222
 8843SOL    HW227429   6.912   2.977   4.260
 8844SOL     OW27430   6.080   1.591   0.287
 8844SOL    HW127431   6.031   1.678   0.302
 8844SOL    HW227432   6.137   1.598   0.206
 8845SOL     OW27433   5.195   2.435   0.017
 8845SOL    HW127434   5.115   2.377   0.030
 8845SOL    HW227435   5.223   2.474   0.105
 8846SOL     OW27436   3.006   4.836   4.103
 8846SOL    HW127437   3.022   4.802   4.196
 8846SOL    HW227438   3.016   4.935   4.102
 8847SOL     OW27439   1.264   1.363   3.464
 8847SOL    HW127440   1.220   1.447   3.433
 8847SOL    HW227441   1.215   1.284   3.426
 8848SOL     OW27442   0.471   1.137   3.771
 8848SOL    HW127443   0.426   1.215   3.727
 8848SOL    HW227444   0.478   1.062   3.706
 8849SOL     OW27445   3.037   6.840   1.171
 8849SOL    HW127446   2.946   6.876   1.188
 8849SOL    HW227447   3.105   6.911   1.187
 8850SOL     OW27448   3.268   2.238   6.951
 8850SOL    HW127449   3.305   2.196   0.011
 8850SOL    HW227450   3.189   2.295   6.975
 8851SOL     OW27451   2.073   3.533   2.267
 8851SOL    HW127452   2.001   3.484   2.217
 8851SOL    HW227453   2.153   3.544   2.208
 8852SOL     OW27454   0.896   2.305   4.638
 8852SOL    HW127455   0.835   2.249   4.581
 8852SOL    HW227456   0.859   2.397   4.645
 8853SOL     OW27457   4.494   0.812   1.805
 8853SOL    HW127458   4.506   0.789   1.709
 8853SOL    HW227459   4.531   0.738   1.862
 8854SOL     OW27460   6.861   2.620   5.015
 8854SOL    HW127461   6.903   2.609   5.105
 8854SOL    HW227462   6.932   2.628   4.946
 8855SOL     OW27463   4.861   4.954   1.172
 8855SOL    HW127464   4.772   4.930   1.133
 8855SOL    HW227465   4.924   4.978   1.099
 8856SOL     OW27466   5.738   0.549   5.533
 8856SOL    HW127467   5.762   0.624   5.596
 8856SOL    HW227468   5.786   0.466   5.560
 8857SOL     OW27469   6.565   2.194   6.589
 8857SOL    HW127470   6.505   2.237   6.521
 8857SOL    HW227471   6.515   2.124   6.639
 8858SOL     OW27472   6.657   5.182   4.889
 8858SOL    HW127473   6.699   5.245   4.955
 8858SOL    HW227474   6.706   5.188   4.802
 8859SOL     OW27475   0.783   5.487   3.126
 8859SOL    HW127476   0.856   5.441   3.178
 8859SOL    HW227477   0.705   5.505   3.187
 8860SOL     OW27478   6.335   2.782   2.106
 8860SOL    HW127479   6.388   2.789   2.191
 8860SOL    HW227480   6.397   2.784   2.028
 8861SOL     OW27481   3.121   2.490   1.404
 8861SOL    HW127482   3.106   2.568   1.344
 8861SOL    HW227483   3.181   2.517   1.479
 8862SOL     OW27484   4.485   4.673   4.880
 8862SOL    HW127485   4.410   4.643   4.939
 8862SOL    HW227486   4.456   4.755   4.830
 8863SOL     OW27487   1.450   3.606   1.792
 8863SOL    HW127488   1.481   3.700   1.779
 8863SOL    HW227489   1.522   3.542   1.764
 8864SOL     OW27490   6.153   1.641   4.953
 8864SOL    HW127491   6.151   1.684   4.862
 8864SOL    HW227492   6.099   1.557   4.951
 8865SOL     OW27493   2.951   1.179   0.786
 8865SOL    HW127494   2.909   1.118   0.853
 8865SOL    HW227495   3.048   1.157   0.777
 8866SOL     OW27496   6.098   7.011   1.754
 8866SOL    HW127497   6.021   7.019   1.691
 8866SOL    HW227498   6.085   0.050   1.831
 8867SOL     OW27499   5.992   2.702   3.177
 8867SOL    HW127500   5.905   2.655   3.168
 8867SOL    HW227501   5.991   2.760   3.258
 8868SOL     OW27502   0.291   2.853   3.366
 8868SOL    HW127503   0.264   2.809   3.280
 8868SOL    HW227504   0.215   2.910   3.398
 8869SOL     OW27505   4.500   6.955   3.511
 8869SOL    HW127506   4.525   0.027   3.525
 8869SOL    HW227507   4.411   6.937   3.554
 8870SOL     OW27508   0.888   0.624   1.819
 8870SOL    HW127509   0.901   0.679   1.902
 8870SOL    HW227510   0.882   0.527   1.844
 8871SOL     OW27511   0.128   6.636   1.301
 8871SOL    HW127512   0.041   6.662   1.342
 8871SOL    HW227513   0.193   6.610   1.372
 8872SOL     OW27514   6.831   4.660   3.622
 8872SOL    HW127515   6.870   4.743   3.663
 8872SOL    HW227516   6.773   4.614   3.690
 8873SOL     OW27517   1.870   1.496   3.732
 8873SOL    HW127518   1.853   1.522   3.637
 8873SOL    HW227519   1.836   1.403   3.748
 8874SOL     OW27520   2.736   5.883   0.423
 8874SOL    HW127521   2.836   5.878   0.423
 8874SOL    HW227522   2.704   5.915   0.513
 8875SOL     OW27523   6.186   2.949   4.336
 8875SOL    HW127524   6.179   2.857   4.374
 8875SOL    HW227525   6.152   2.950   4.242
 8876SOL     OW27526   4.537   0.625   0.726
 8876SOL    HW127527   4.603   0.614   0.651
 8876SOL    HW227528   4.513   0.721   0.734
 8877SOL     OW27529   0.809   4.546   1.320
 8877SOL    HW127530   0.848   4.555   1.229
 8877SOL    HW227531   0.845   4.464   1.364
 8878SOL     OW27532   4.857   3.717   2.117
 8878SOL    HW127533   4.757   3.719   2.110
 8878SOL    HW227534   4.886   3.628   2.149
 8879SOL     OW27535   6.962   4.021   4.049
 8879SOL    HW127536   6.995   3.928   4.061
 8879SOL    HW227537   0.017   4.082   4.035
 8880SOL     OW27538   4.327   1.903   2.809
 8880SOL    HW127539   4.394   1.828   2.809
 8880SOL    HW227540   4.289   1.914   2.717
 8881SOL     OW27541   3.918   5.139   3.056
 8881SOL    HW127542   3.903   5.042   3.072
 8881SOL    HW227543   4.016   5.160   3.064
 8882SOL     OW27544   3.951   1.391   0.175
 8882SOL    HW127545   4.003   1.324   0.122
 8882SOL    HW227546   3.853   1.370   0.171
 8883SOL     OW27547   0.640   6.328   2.964
 8883SOL    HW127548   0.719   6.388   2.983
 8883SOL    HW227549   0.669   6.253   2.906
 8884SOL     OW27550   4.546   2.344   6.134
 8884SOL    HW127551   4.454   2.363   6.099
 8884SOL    HW227552   4.545   2.254   6.179
 8885SOL     OW27553   5.987   4.807   1.248
 8885SOL    HW127554   5.920   4.869   1.208
 8885SOL    HW227555   6.008   4.734   1.183
 8886SOL     OW27556   5.007   6.564   0.384
 8886SOL    HW127557   4.921   6.563   0.435
 8886SOL    HW227558   5.034   6.471   0.361
 8887SOL     OW27559   3.942   0.435   1.889
 8887SOL    HW127560   3.964   0.486   1.973
 8887SOL    HW227561   3.897   0.496   1.824
 8888SOL     OW27562   3.891   2.144   2.193
 8888SOL    HW127563   3.831   2.088   2.251
 8888SOL    HW227564   3.839   2.177   2.114
 8889SOL     OW27565   1.546   4.643   6.539
 8889SOL    HW127566   1.631   4.617   6.494
 8889SOL    HW227567   1.472   4.583   6.508
 8890SOL     OW27568   1.638   5.855   0.299
 8890SOL    HW127569   1.541   5.866   0.278
 8890SOL    HW227570   1.688   5.938   0.271
 8891SOL     OW27571   6.123   3.516   5.507
 8891SOL    HW127572   6.191   3.444   5.517
 8891SOL    HW227573   6.127   3.577   5.585
 8892SOL     OW27574   2.215   5.407   4.613
 8892SOL    HW127575   2.230   5.330   4.676
 8892SOL    HW227576   2.182   5.373   4.525
 8893SOL     OW27577   0.635   4.793   5.299
 8893SOL    HW127578   0.601   4.756   5.212
 8893SOL    HW227579   0.597   4.740   5.375
 8894SOL     OW27580   5.377   2.293   1.581
 8894SOL    HW127581   5.308   2.220   1.574
 8894SOL    HW227582   5.451   2.263   1.642
 8895SOL     OW27583   0.088   3.578   1.499
 8895SOL    HW127584   0.047   3.633   1.427
 8895SOL    HW227585   0.075   3.623   1.587
 8896SOL     OW27586   0.806   1.225   3.737
 8896SOL    HW127587   0.809   1.146   3.798
 8896SOL    HW227588   0.712   1.257   3.730
 8897SOL     OW27589   1.563   5.321   4.235
 8897SOL    HW127590   1.544   5.414   4.267
 8897SOL    HW227591   1.599   5.267   4.310
 8898SOL     OW27592   5.656   5.019   2.639
 8898SOL    HW127593   5.635   4.935   2.588
 8898SOL    HW227594   5.589   5.030   2.713
 8899SOL     OW27595   2.265   4.405   1.547
 8899SOL    HW127596   2.199   4.335   1.575
 8899SOL    HW227597   2.314   4.439   1.628
 8900SOL     OW27598   3.804   1.693   4.569
 8900SOL    HW127599   3.748   1.770   4.539
 8900SOL    HW227600   3.770   1.659   4.657
 8901SOL     OW27601   1.474   4.834   5.026
 8901SOL    HW127602   1.402   4.778   4.984
 8901SOL    HW227603   1.472   4.821   5.126
 8902SOL     OW27604   0.578   5.179   6.687
 8902SOL    HW127605   0.601   5.263   6.737
 8902SOL    HW227606   0.480   5.179   6.666
 8903SOL     OW27607   0.553   0.542   4.589
 8903SOL    HW127608   0.491   0.620   4.587
 8903SOL    HW227609   0.588   0.524   4.497
 8904SOL     OW27610   0.088   1.314   3.088
 8904SOL    HW127611   0.092   1.390   3.154
 8904SOL    HW227612   0.004   1.262   3.103
 8905SOL     OW27613   2.051   4.835   1.525
 8905SOL    HW127614   2.108   4.870   1.450
 8905SOL    HW227615   2.026   4.740   1.506
 8906SOL     OW27616   6.074   0.775   6.793
 8906SOL    HW127617   5.975   0.780   6.778
 8906SOL    HW227618   6.098   0.685   6.829
 8907SOL     OW27619   2.769   3.115   5.321
 8907SOL    HW127620   2.691   3.118   5.259
 8907SOL    HW227621   2.736   3.108   5.415
 8908SOL     OW27622   1.600   5.684   5.687
 8908SOL    HW127623   1.512   5.732   5.695
 8908SOL    HW227624   1.643   5.707   5.601
 8909SOL     OW27625   2.448   6.256   2.008
 8909SOL    HW127626   2.522   6.241   2.074
 8909SOL    HW227627   2.425   6.169   1.964
 8910SOL     OW27628   1.167   1.080   3.870
 8910SOL    HW127629   1.116   1.019   3.808
 8910SOL    HW227630   1.243   1.121   3.820
 8911SOL     OW27631   5.342   2.943   4.173
 8911SOL    HW127632   5.340   2.865   4.111
 8911SOL    HW227633   5.249   2.973   4.192
 8912SOL     OW27634   3.793   2.931   3.625
 8912SOL    HW127635   3.830   2.963   3.539
 8912SOL    HW227636   3.694   2.915   3.616
 8913SOL     OW27637   5.120   5.690   1.044
 8913SOL    HW127638   5.027   5.669   1.075
 8913SOL    HW227639   5.165   5.749   1.112
 8914SOL     OW27640   5.005   5.504   5.392
 8914SOL    HW127641   4.995   5.533   5.488
 8914SOL    HW227642   5.046   5.413   5.389
 8915SOL     OW27643   2.470   0.907   3.729
 8915SOL    HW127644   2.538   0.927   3.659
 8915SOL    HW227645   2.384   0.951   3.706
 8916SOL     OW27646   5.803   0.817   2.342
 8916SOL    HW127647   5.895   0.809   2.380
 8916SOL    HW227648   5.804   0.883   2.267
 8917SOL     OW27649   5.870   2.306   0.537
 8917SOL    HW127650   5.919   2.315   0.624
 8917SOL    HW227651   5.807   2.383   0.526
 8918SOL     OW27652   1.455   3.329   2.779
 8918SOL    HW127653   1.536   3.329   2.721
 8918SOL    HW227654   1.478   3.295   2.870
 8919SOL     OW27655   6.294   2.941   2.693
 8919SOL    HW127656   6.298   2.842   2.681
 8919SOL    HW227657   6.208   2.966   2.737
 8920SOL     OW27658   0.695   2.041   0.681
 8920SOL    HW127659   0.648   2.090   0.607
 8920SOL    HW227660   0.639   1.963   0.709
 8921SOL     OW27661   0.949   2.374   1.215
 8921SOL    HW127662   0.941   2.346   1.311
 8921SOL    HW227663   1.042   2.356   1.183
 8922SOL     OW27664   3.105   4.898   3.508
 8922SOL    HW127665   3.172   4.866   3.575
 8922SOL    HW227666   3.016   4.857   3.528
 8923SOL     OW27667   2.573   1.459   3.503
 8923SOL    HW127668   2.530   1.474   3.592
 8923SOL    HW227669   2.523   1.510   3.433
 8924SOL     OW27670   6.158   4.909   4.881
 8924SOL    HW127671   6.193   5.000   4.906
 8924SOL    HW227672   6.097   4.918   4.802
 8925SOL     OW27673   0.565   6.713   3.906
 8925SOL    HW127674   0.499   6.704   3.831
 8925SOL    HW227675   0.563   6.630   3.962
 8926SOL     OW27676   5.831   2.333   6.996
 8926SOL    HW127677   5.887   2.404   6.955
 8926SOL    HW227678   5.876   2.245   6.987
 8927SOL     OW27679   1.102   1.597   6.572
 8927SOL    HW127680   1.129   1.505   6.542
 8927SOL    HW227681   1.011   1.593   6.613
 8928SOL     OW27682   1.227   6.919   5.475
 8928SOL    HW127683   1.312   6.915   5.421
 8928SOL    HW227684   1.244   6.970   5.559
 8929SOL     OW27685   6.844   1.490   3.449
 8929SOL    HW127686   6.867   1.535   3.535
 8929SOL    HW227687   6.756   1.524   3.416
 8930SOL     OW27688   2.337   5.563   2.771
 8930SOL    HW127689   2.368   5.469   2.758
 8930SOL    HW227690   2.261   5.582   2.708
 8931SOL     OW27691   4.370   2.959   6.904
 8931SOL    HW127692   4.435   2.998   6.970
 8931SOL    HW227693   4.280   3.000   6.919
 8932SOL     OW27694   0.282   3.835   2.546
 8932SOL    HW127695   0.306   3.919   2.595
 8932SOL    HW227696   0.361   3.801   2.497
 8933SOL     OW27697   5.173   1.872   6.064
 8933SOL    HW127698   5.168   1.801   6.134
 8933SOL    HW227699   5.269   1.894   6.046
 8934SOL     OW27700   2.320   6.259   2.960
 8934SOL    HW127701   2.369   6.337   2.920
 8934SOL    HW227702   2.287   6.285   3.051
 8935SOL     OW27703   6.935   5.595   6.748
 8935SOL    HW127704   6.947   5.525   6.818
 8935SOL    HW227705   6.973   5.563   6.661
 8936SOL     OW27706   4.530   2.964   1.089
 8936SOL    HW127707   4.538   2.905   1.169
 8936SOL    HW227708   4.461   2.926   1.027
 8937SOL     OW27709   6.854   1.321   6.374
 8937SOL    HW127710   6.940   1.330   6.423
 8937SOL    HW227711   6.841   1.225   6.347
 8938SOL     OW27712   4.645   5.848   1.762
 8938SOL    HW127713   4.651   5.752   1.786
 8938SOL    HW227714   4.644   5.858   1.662
 8939SOL     OW27715   5.680   2.061   4.275
 8939SOL    HW127716   5.599   2.117   4.260
 8939SOL    HW227717   5.705   2.063   4.372
 8940SOL     OW27718   5.555   6.854   2.663
 8940SOL    HW127719   5.547   6.929   2.597
 8940SOL    HW227720   5.615   6.783   2.625
 8941SOL     OW27721   3.666   1.854   6.905
 8941SOL    HW127722   3.675   1.946   6.942
 8941SOL    HW227723   3.709   1.850   6.815
 8942SOL     OW27724   1.204   2.302   5.839
 8942SOL    HW127725   1.134   2.237   5.870
 8942SOL    HW227726   1.168   2.355   5.763
 8943SOL     OW27727   5.123   3.787   0.836
 8943SOL    HW127728   5.047   3.754   0.780
 8943SOL    HW227729   5.123   3.887   0.835
 8944SOL     OW27730   4.226   5.762   1.349
 8944SOL    HW127731   4.248   5.828   1.420
 8944SOL    HW227732   4.305   5.702   1.334
 8945SOL     OW27733   2.408   1.171   3.994
 8945SOL    HW127734   2.397   1.209   4.086
 8945SOL    HW227735   2.338   1.210   3.934
 8946SOL     OW27736   3.725   1.051   4.659
 8946SOL    HW127737   3.691   1.118   4.726
 8946SOL    HW227738   3.796   0.996   4.702
 8947SOL     OW27739   3.798   3.358   5.222
 8947SOL    HW127740   3.803   3.458   5.226
 8947SOL    HW227741   3.862   3.324   5.154
 8948SOL     OW27742   5.504   4.819   3.352
 8948SOL    HW127743   5.601   4.831   3.331
 8948SOL    HW227744   5.452   4.811   3.266
 8949SOL     OW27745   1.626   5.692   5.966
 8949SOL    HW127746   1.626   5.653   5.875
 8949SOL    HW227747   1.549   5.656   6.018
 8950SOL     OW27748   4.623   2.638   4.551
 8950SOL    HW127749   4.533   2.612   4.516
 8950SOL    HW227750   4.613   2.673   4.644
 8951SOL     OW27751   2.923   2.059   5.510
 8951SOL    HW127752   2.911   1.966   5.476
 8951SOL    HW227753   3.021   2.079   5.517
 8952SOL     OW27754   6.327   6.662   3.457
 8952SOL    HW127755   6.289   6.681   3.366
 8952SOL    HW227756   6.359   6.568   3.461
 8953SOL     OW27757   1.343   5.224   5.606
 8953SOL    HW127758   1.286   5.159   5.656
 8953SOL    HW227759   1.411   5.174   5.553
 8954SOL     OW27760   2.681   6.249   6.019
 8954SOL    HW127761   2.772   6.267   5.981
 8954SOL    HW227762   2.684   6.258   6.119
 8955SOL     OW27763   6.992   3.675   4.379
 8955SOL    HW127764   0.017   3.655   4.464
 8955SOL    HW227765   6.927   3.602   4.359
 8956SOL     OW27766   0.787   0.662   4.727
 8956SOL    HW127767   0.872   0.620   4.759
 8956SOL    HW227768   0.718   0.592   4.713
 8957SOL     OW27769   3.471   6.070   1.873
 8957SOL    HW127770   3.411   6.001   1.833
 8957SOL    HW227771   3.435   6.099   1.961
 8958SOL     OW27772   3.341   0.478   4.412
 8958SOL    HW127773   3.305   0.384   4.410
 8958SOL    HW227774   3.316   0.521   4.498
 8959SOL     OW27775   3.825   5.058   0.036
 8959SOL    HW127776   3.830   5.090   0.131
 8959SOL    HW227777   3.796   5.134   7.000
 8960SOL     OW27778   4.389   5.903   0.652
 8960SOL    HW127779   4.474   5.852   0.643
 8960SOL    HW227780   4.363   5.942   0.563
 8961SOL     OW27781   0.958   3.049   4.080
 8961SOL    HW127782   0.942   3.117   4.151
 8961SOL    HW227783   0.872   3.004   4.057
 8962SOL     OW27784   4.991   0.419   3.919
 8962SOL    HW127785   5.036   0.472   3.847
 8962SOL    HW227786   5.013   0.322   3.909
 8963SOL     OW27787   0.900   1.308   4.306
 8963SOL    HW127788   0.939   1.293   4.216
 8963SOL    HW227789   0.896   1.406   4.325
 8964SOL     OW27790   0.268   2.819   3.089
 8964SOL    HW127791   0.315   2.895   3.132
 8964SOL    HW227792   0.258   2.837   2.991
 8965SOL     OW27793   1.956   5.046   1.224
 8965SOL    HW127794   1.934   5.085   1.135
 8965SOL    HW227795   1.934   5.112   1.296
 8966SOL     OW27796   3.904   1.970   4.864
 8966SOL    HW127797   3.956   2.038   4.916
 8966SOL    HW227798   3.879   2.008   4.775
 8967SOL     OW27799   5.357   6.516   0.580
 8967SOL    HW127800   5.282   6.450   0.584
 8967SOL    HW227801   5.419   6.492   0.505
 8968SOL     OW27802   5.573   4.105   3.433
 8968SOL    HW127803   5.489   4.051   3.437
 8968SOL    HW227804   5.558   4.185   3.375
 8969SOL     OW27805   6.934   6.811   4.000
 8969SOL    HW127806   6.876   6.804   3.918
 8969SOL    HW227807   7.015   6.753   3.988
 8970SOL     OW27808   3.071   2.736   1.297
 8970SOL    HW127809   2.989   2.765   1.247
 8970SOL    HW227810   3.114   2.817   1.338
 8971SOL     OW27811   3.623   6.182   2.791
 8971SOL    HW127812   3.535   6.229   2.796
 8971SOL    HW227813   3.677   6.205   2.873
 8972SOL     OW27814   4.875   0.270   4.713
 8972SOL    HW127815   4.798   0.224   4.670
 8972SOL    HW227816   4.940   0.203   4.747
 8973SOL     OW27817   1.976   4.746   6.495
 8973SOL    HW127818   1.915   4.825   6.492
 8973SOL    HW227819   2.071   4.776   6.499
 8974SOL     OW27820   0.309   2.817   4.016
 8974SOL    HW127821   0.313   2.816   3.916
 8974SOL    HW227822   0.378   2.754   4.052
 8975SOL     OW27823   3.566   0.830   5.887
 8975SOL    HW127824   3.661   0.800   5.887
 8975SOL    HW227825   3.561   0.924   5.854
 8976SOL     OW27826   1.522   5.698   4.075
 8976SOL    HW127827   1.605   5.719   4.126
 8976SOL    HW227828   1.541   5.694   3.977
 8977SOL     OW27829   5.460   1.779   0.102
 8977SOL    HW127830   5.481   1.862   0.049
 8977SOL    HW227831   5.415   1.712   0.043
 8978SOL     OW27832   5.680   5.455   1.165
 8978SOL    HW127833   5.619   5.380   1.188
 8978SOL    HW227834   5.774   5.431   1.188
 8979SOL     OW27835   0.992   4.640   4.943
 8979SOL    HW127836   0.905   4.593   4.926
 8979SOL    HW227837   1.066   4.589   4.900
 8980SOL     OW27838   3.294   3.215   4.073
 8980SOL    HW127839   3.391   3.189   4.067
 8980SOL    HW227840   3.242   3.140   4.114
 8981SOL     OW27841   2.878   1.796   5.384
 8981SOL    HW127842   2.886   1.698   5.366
 8981SOL    HW227843   2.866   1.844   5.298
 8982SOL     OW27844   3.385   4.875   0.353
 8982SOL    HW127845   3.456   4.804   0.358
 8982SOL    HW227846   3.418   4.952   0.298
 8983SOL     OW27847   4.687   4.577   0.972
 8983SOL    HW127848   4.647   4.522   0.898
 8983SOL    HW227849   4.726   4.517   1.041
 8984SOL     OW27850   1.459   6.700   3.529
 8984SOL    HW127851   1.492   6.605   3.530
 8984SOL    HW227852   1.533   6.761   3.504
 8985SOL     OW27853   3.284   3.118   6.242
 8985SOL    HW127854   3.185   3.134   6.239
 8985SOL    HW227855   3.312   3.107   6.337
 8986SOL     OW27856   2.719   6.241   2.150
 8986SOL    HW127857   2.729   6.323   2.094
 8986SOL    HW227858   2.809   6.208   2.178
 8987SOL     OW27859   5.138   6.784   2.229
 8987SOL    HW127860   5.134   6.740   2.319
 8987SOL    HW227861   5.131   6.883   2.240
 8988SOL     OW27862   0.754   4.452   4.606
 8988SOL    HW127863   0.683   4.429   4.673
 8988SOL    HW227864   0.732   4.539   4.562
 8989SOL     OW27865   2.297   2.217   6.752
 8989SOL    HW127866   2.303   2.212   6.652
 8989SOL    HW227867   2.320   2.309   6.782
 8990SOL     OW27868   0.104   4.859   4.111
 8990SOL    HW127869   0.188   4.807   4.121
 8990SOL    HW227870   0.121   4.941   4.056
 8991SOL     OW27871   1.392   2.418   5.465
 8991SOL    HW127872   1.390   2.498   5.405
 8991SOL    HW227873   1.419   2.337   5.412
 8992SOL     OW27874   6.127   2.254   1.679
 8992SOL    HW127875   6.139   2.193   1.757
 8992SOL    HW227876   6.205   2.316   1.673
 8993SOL     OW27877   4.357   2.189   0.880
 8993SOL    HW127878   4.389   2.261   0.818
 8993SOL    HW227879   4.407   2.105   0.862
 8994SOL     OW27880   1.533   5.669   2.475
 8994SOL    HW127881   1.459   5.702   2.533
 8994SOL    HW227882   1.611   5.643   2.532
 8995SOL     OW27883   0.659   0.229   1.775
 8995SOL    HW127884   0.675   0.137   1.810
 8995SOL    HW227885   0.611   0.284   1.844
 8996SOL     OW27886   4.283   5.928   5.671
 8996SOL    HW127887   4.217   5.924   5.746
 8996SOL    HW227888   4.275   5.846   5.615
 8997SOL     OW27889   6.299   0.205   4.879
 8997SOL    HW127890   6.240   0.126   4.863
 8997SOL    HW227891   6.287   0.238   4.973
 8998SOL     OW27892   6.972   4.424   4.880
 8998SOL    HW127893   6.940   4.350   4.822
 8998SOL    HW227894   6.895   4.464   4.930
 8999SOL     OW27895   4.312   6.061   6.342
 8999SOL    HW127896   4.320   5.983   6.405
 8999SOL    HW227897   4.223   6.057   6.297
 9000SOL     OW27898   0.844   4.183   1.108
 9000SOL    HW127899   0.827   4.122   1.031
 9000SOL    HW227900   0.803   4.144   1.191
 9001SOL     OW27901   1.664   5.653   0.771
 9001SOL    HW127902   1.610   5.633   0.852
 9001SOL    HW227903   1.740   5.714   0.795
 9002SOL     OW27904   6.877   5.425   5.987
 9002SOL    HW127905   6.847   5.512   5.948
 9002SOL    HW227906   6.929   5.374   5.920
 9003SOL     OW27907   5.192   0.031   0.731
 9003SOL    HW127908   5.165   7.005   0.648
 9003SOL    HW227909   5.192   6.991   0.809
 9004SOL     OW27910   6.077   5.207   1.454
 9004SOL    HW127911   6.119   5.120   1.427
 9004SOL    HW227912   5.981   5.207   1.427
 9005SOL     OW27913   4.928   0.908   4.921
 9005SOL    HW127914   5.014   0.957   4.931
 9005SOL    HW227915   4.946   0.816   4.886
 9006SOL     OW27916   3.861   6.302   0.625
 9006SOL    HW127917   3.952   6.330   0.594
 9006SOL    HW227918   3.803   6.282   0.546
 9007SOL     OW27919   0.751   1.117   3.290
 9007SOL    HW127920   0.700   1.166   3.361
 9007SOL    HW227921   0.750   1.172   3.206
 9008SOL     OW27922   0.350   5.078   2.598
 9008SOL    HW127923   0.291   5.064   2.518
 9008SOL    HW227924   0.299   5.122   2.671
 9009SOL     OW27925   3.034   6.515   2.071
 9009SOL    HW127926   2.938   6.487   2.079
 9009SOL    HW227927   3.040   6.614   2.084
 9010SOL     OW27928   1.346   5.772   4.405
 9010SOL    HW127929   1.409   5.694   4.400
 9010SOL    HW227930   1.254   5.739   4.428
 9011SOL     OW27931   1.811   2.114   2.300
 9011SOL    HW127932   1.901   2.150   2.323
 9011SOL    HW227933   1.761   2.180   2.245
 9012SOL     OW27934   2.497   5.760   6.847
 9012SOL    HW127935   2.579   5.816   6.857
 9012SOL    HW227936   2.421   5.804   6.895
 9013SOL     OW27937   1.999   0.578   4.634
 9013SOL    HW127938   1.971   0.483   4.644
 9013SOL    HW227939   2.099   0.584   4.643
 9014SOL     OW27940   5.195   3.202   3.493
 9014SOL    HW127941   5.264   3.208   3.421
 9014SOL    HW227942   5.136   3.123   3.477
 9015SOL     OW27943   4.591   6.936   6.134
 9015SOL    HW127944   4.493   6.949   6.121
 9015SOL    HW227945   4.640   6.978   6.058
 9016SOL     OW27946   5.257   4.580   5.913
 9016SOL    HW127947   5.240   4.661   5.857
 9016SOL    HW227948   5.198   4.583   5.994
 9017SOL     OW27949   2.934   0.331   5.240
 9017SOL    HW127950   2.989   0.357   5.161
 9017SOL    HW227951   2.932   0.231   5.248
 9018SOL     OW27952   3.867   4.784   0.477
 9018SOL    HW127953   3.930   4.706   0.479
 9018SOL    HW227954   3.778   4.754   0.442
 9019SOL     OW27955   0.663   3.213   4.223
 9019SOL    HW127956   0.755   3.246   4.241
 9019SOL    HW227957   0.659   3.115   4.242
 9020SOL     OW27958   5.802   4.880   3.272
 9020SOL    HW127959   5.815   4.873   3.173
 9020SOL    HW227960   5.881   4.840   3.319
 9021SOL     OW27961   6.950   1.505   4.357
 9021SOL    HW127962   6.899   1.543   4.435
 9021SOL    HW227963   0.021   1.538   4.360
 9022SOL     OW27964   4.633   3.554   6.783
 9022SOL    HW127965   4.600   3.461   6.765
 9022SOL    HW227966   4.732   3.555   6.788
 9023SOL     OW27967   7.016   4.863   0.678
 9023SOL    HW127968   0.075   4.810   0.700
 9023SOL    HW227969   6.935   4.816   0.712
 9024SOL     OW27970   2.253   4.830   6.370
 9024SOL    HW127971   2.201   4.865   6.292
 9024SOL    HW227972   2.350   4.844   6.355
 9025SOL     OW27973   0.752   6.215   0.965
 9025SOL    HW127974   0.689   6.232   0.889
 9025SOL    HW227975   0.705   6.162   1.035
 9026SOL     OW27976   5.827   0.902   0.410
 9026SOL    HW127977   5.910   0.848   0.399
 9026SOL    HW227978   5.851   0.999   0.413
 9027SOL     OW27979   0.178   3.766   2.843
 9027SOL    HW127980   0.188   3.850   2.789
 9027SOL    HW227981   0.251   3.702   2.819
 9028SOL     OW27982   3.189   4.729   6.531
 9028SOL    HW127983   3.201   4.686   6.621
 9028SOL    HW227984   3.091   4.731   6.509
 9029SOL     OW27985   4.381   6.342   4.585
 9029SOL    HW127986   4.373   6.352   4.684
 9029SOL    HW227987   4.473   6.311   4.562
 9030SOL     OW27988   2.820   2.253   2.264
 9030SOL    HW127989   2.773   2.167   2.242
 9030SOL    HW227990   2.816   2.313   2.184
 9031SOL     OW27991   4.935   0.037   4.925
 9031SOL    HW127992   4.913   0.116   4.982
 9031SOL    HW227993   4.883   6.981   4.957
 9032SOL     OW27994   5.412   2.632   1.202
 9032SOL    HW127995   5.337   2.648   1.267
 9032SOL    HW227996   5.379   2.576   1.126
 9033SOL     OW27997   1.531   6.434   2.893
 9033SOL    HW127998   1.611   6.393   2.849
 9033SOL    HW227999   1.561   6.490   2.970
 9034SOL     OW28000   4.666   6.435   4.537
 9034SOL    HW128001   4.744   6.451   4.477
 9034SOL    HW228002   4.651   6.515   4.595
 9035SOL     OW28003   3.262   5.028   5.986
 9035SOL    HW128004   3.197   5.048   5.912
 9035SOL    HW228005   3.354   5.054   5.957
 9036SOL     OW28006   0.695   5.088   5.663
 9036SOL    HW128007   0.662   5.147   5.737
 9036SOL    HW228008   0.670   5.128   5.575
 9037SOL     OW28009   0.128   0.656   2.065
 9037SOL    HW128010   0.071   0.582   2.101
 9037SOL    HW228011   0.165   0.629   1.976
 9038SOL     OW28012   4.039   3.272   5.807
 9038SOL    HW128013   4.006   3.352   5.857
 9038SOL    HW228014   4.074   3.300   5.717
 9039SOL     OW28015   4.173   6.395   6.883
 9039SOL    HW128016   4.215   6.449   6.810
 9039SOL    HW228017   4.205   6.300   6.876
 9040SOL     OW28018   2.011   2.095   1.595
 9040SOL    HW128019   1.990   2.035   1.672
 9040SOL    HW228020   2.106   2.081   1.566
 9041SOL     OW28021   6.126   2.371   2.587
 9041SOL    HW128022   6.181   2.411   2.513
 9041SOL    HW228023   6.155   2.409   2.674
 9042SOL     OW28024   5.252   5.687   6.669
 9042SOL    HW128025   5.347   5.655   6.666
 9042SOL    HW228026   5.242   5.756   6.741
 9043SOL     OW28027   2.980   3.077   1.674
 9043SOL    HW128028   2.895   3.129   1.668
 9043SOL    HW228029   2.962   2.980   1.661
 9044SOL     OW28030   1.565   0.580   0.012
 9044SOL    HW128031   1.535   0.676   0.015
 9044SOL    HW228032   1.546   0.543   6.944
 9045SOL     OW28033   3.777   0.605   3.727
 9045SOL    HW128034   3.811   0.567   3.813
 9045SOL    HW228035   3.683   0.636   3.739
 9046SOL     OW28036   4.102   3.460   2.263
 9046SOL    HW128037   4.129   3.374   2.220
 9046SOL    HW228038   4.019   3.495   2.219
 9047SOL     OW28039   0.523   4.548   5.857
 9047SOL    HW128040   0.541   4.619   5.925
 9047SOL    HW228041   0.602   4.487   5.850
 9048SOL     OW28042   6.796   1.703   5.237
 9048SOL    HW128043   6.795   1.802   5.231
 9048SOL    HW228044   6.869   1.666   5.179
 9049SOL     OW28045   2.066   6.715   5.391
 9049SOL    HW128046   2.164   6.697   5.395
 9049SOL    HW228047   2.047   6.807   5.425
 9050SOL     OW28048   1.199   4.293   0.601
 9050SOL    HW128049   1.156   4.203   0.605
 9050SOL    HW228050   1.132   4.364   0.622
 9051SOL     OW28051   2.301   1.091   1.792
 9051SOL    HW128052   2.265   1.139   1.712
 9051SOL    HW228053   2.235   1.095   1.866
 9052SOL     OW28054   2.161   3.639   6.330
 9052SOL    HW128055   2.230   3.602   6.268
 9052SOL    HW228056   2.167   3.593   6.418
 9053SOL     OW28057   0.427   1.247   6.959
 9053SOL    HW128058   0.454   1.259   6.864
 9053SOL    HW228059   0.498   1.284   7.019
 9054SOL     OW28060   1.548   5.512   2.979
 9054SOL    HW128061   1.518   5.472   3.065
 9054SOL    HW228062   1.474   5.503   2.911
 9055SOL     OW28063   0.428   2.530   6.005
 9055SOL    HW128064   0.508   2.556   5.951
 9055SOL    HW228065   0.430   2.432   6.021
 9056SOL     OW28066   5.554   1.606   4.089
 9056SOL    HW128067   5.606   1.522   4.074
 9056SOL    HW228068   5.609   1.670   4.143
 9057SOL     OW28069   4.978   1.687   3.574
 9057SOL    HW128070   4.886   1.649   3.584
 9057SOL    HW228071   4.997   1.703   3.477
 9058SOL     OW28072   2.486   0.221   5.911
 9058SOL    HW128073   2.489   0.279   5.993
 9058SOL    HW228074   2.400   0.170   5.909
 9059SOL     OW28075   1.244   2.224   3.769
 9059SOL    HW128076   1.211   2.295   3.832
 9059SOL    HW228077   1.178   2.149   3.767
 9060SOL     OW28078   5.253   2.552   5.080
 9060SOL    HW128079   5.192   2.624   5.111
 9060SOL    HW228080   5.290   2.504   5.160
 9061SOL     OW28081   1.643   4.810   3.489
 9061SOL    HW128082   1.560   4.792   3.436
 9061SOL    HW228083   1.721   4.818   3.427
 9062SOL     OW28084   1.638   5.904   1.607
 9062SOL    HW128085   1.639   5.805   1.591
 9062SOL    HW228086   1.555   5.943   1.566
 9063SOL     OW28087   2.930   1.738   2.431
 9063SOL    HW128088   3.028   1.758   2.431
 9063SOL    HW228089   2.910   1.669   2.362
 9064SOL     OW28090   4.986   4.174   6.793
 9064SOL    HW128091   4.964   4.169   6.695
 9064SOL    HW228092   4.993   4.270   6.820
 9065SOL     OW28093   2.735   0.896   1.575
 9065SOL    HW128094   2.691   0.808   1.558
 9065SOL    HW228095   2.709   0.930   1.665
 9066SOL     OW28096   5.198   6.979   0.080
 9066SOL    HW128097   5.273   6.937   0.132
 9066SOL    HW228098   5.167   6.915   0.010
 9067SOL     OW28099   1.077   0.346   1.398
 9067SOL    HW128100   1.036   0.310   1.482
 9067SOL    HW228101   1.150   0.410   1.421
 9068SOL     OW28102   1.180   6.296   6.203
 9068SOL    HW128103   1.104   6.232   6.211
 9068SOL    HW228104   1.217   6.292   6.110
 9069SOL     OW28105   1.268   2.354   6.098
 9069SOL    HW128106   1.250   2.324   6.004
 9069SOL    HW228107   1.192   2.325   6.156
 9070SOL     OW28108   1.569   4.558   4.147
 9070SOL    HW128109   1.556   4.605   4.059
 9070SOL    HW228110   1.657   4.512   4.147
 9071SOL     OW28111   5.062   5.426   7.023
 9071SOL    HW128112   5.062   5.402   0.096
 9071SOL    HW228113   5.006   5.508   7.009
 9072SOL     OW28114   4.845   4.652   0.676
 9072SOL    HW128115   4.789   4.719   0.725
 9072SOL    HW228116   4.786   4.583   0.634
 9073SOL     OW28117   2.261   0.197   1.381
 9073SOL    HW128118   2.352   0.172   1.347
 9073SOL    HW228119   2.221   0.119   1.428
 9074SOL     OW28120   0.411   0.343   2.025
 9074SOL    HW128121   0.369   0.408   1.962
 9074SOL    HW228122   0.340   0.296   2.077
 9075SOL     OW28123   0.057   0.209   1.450
 9075SOL    HW128124   0.099   0.299   1.446
 9075SOL    HW228125   7.009   0.202   1.381
 9076SOL     OW28126   1.157   2.383   5.594
 9076SOL    HW128127   1.089   2.342   5.533
 9076SOL    HW228128   1.247   2.376   5.553
 9077SOL     OW28129   5.878   6.407   2.443
 9077SOL    HW128130   5.885   6.308   2.457
 9077SOL    HW228131   5.798   6.427   2.386
 9078SOL     OW28132   4.505   3.291   5.433
 9078SOL    HW128133   4.580   3.237   5.394
 9078SOL    HW228134   4.516   3.297   5.532
 9079SOL     OW28135   2.745   0.141   5.383
 9079SOL    HW128136   2.738   0.239   5.365
 9079SOL    HW228137   2.657   0.106   5.415
 9080SOL     OW28138   4.623   0.783   0.116
 9080SOL    HW128139   4.688   0.791   0.192
 9080SOL    HW228140   4.577   0.871   0.103
 9081SOL     OW28141   5.431   0.079   3.354
 9081SOL    HW128142   5.401   0.019   3.428
 9081SOL    HW228143   5.394   0.171   3.369
 9082SOL     OW28144   2.262   0.737   2.147
 9082SOL    HW128145   2.220   0.748   2.057
 9082SOL    HW228146   2.274   0.640   2.168
 9083SOL     OW28147   4.408   4.960   3.780
 9083SOL    HW128148   4.422   5.007   3.867
 9083SOL    HW228149   4.312   4.966   3.753
 9084SOL     OW28150   3.691   3.737   2.359
 9084SOL    HW128151   3.635   3.803   2.410
 9084SOL    HW228152   3.738   3.677   2.423
 9085SOL     OW28153   0.987   2.119   0.964
 9085SOL    HW128154   1.029   2.207   0.988
 9085SOL    HW228155   1.010   2.096   0.870
 9086SOL     OW28156   6.753   3.638   6.910
 9086SOL    HW128157   6.654   3.641   6.902
 9086SOL    HW228158   6.794   3.713   6.859
 9087SOL     OW28159   5.327   3.568   1.973
 9087SOL    HW128160   5.266   3.538   2.047
 9087SOL    HW228161   5.393   3.496   1.953
 9088SOL     OW28162   5.448   4.899   2.170
 9088SOL    HW128163   5.519   4.906   2.240
 9088SOL    HW228164   5.381   4.831   2.198
 9089SOL     OW28165   4.028   0.930   5.756
 9089SOL    HW128166   4.122   0.897   5.756
 9089SOL    HW228167   4.026   1.023   5.793
 9090SOL     OW28168   6.578   1.818   3.440
 9090SOL    HW128169   6.549   1.764   3.518
 9090SOL    HW228170   6.498   1.852   3.391
 9091SOL     OW28171   4.190   2.816   5.620
 9091SOL    HW128172   4.092   2.800   5.606
 9091SOL    HW228173   4.203   2.904   5.665
 9092SOL     OW28174   6.778   3.505   6.345
 9092SOL    HW128175   6.849   3.459   6.398
 9092SOL    HW228176   6.741   3.582   6.397
 9093SOL     OW28177   2.461   6.201   4.850
 9093SOL    HW128178   2.500   6.242   4.932
 9093SOL    HW228179   2.390   6.136   4.877
 9094SOL     OW28180   1.877   3.651   0.639
 9094SOL    HW128181   1.907   3.714   0.711
 9094SOL    HW228182   1.942   3.653   0.563
 9095SOL     OW28183   0.516   0.114   6.074
 9095SOL    HW128184   0.493   0.205   6.040
 9095SOL    HW228185   0.616   0.102   6.073
 9096SOL     OW28186   6.562   5.316   3.706
 9096SOL    HW128187   6.516   5.297   3.619
 9096SOL    HW228188   6.608   5.234   3.738
 9097SOL     OW28189   1.224   3.847   6.880
 9097SOL    HW128190   1.164   3.775   6.843
 9097SOL    HW228191   1.307   3.852   6.825
 9098SOL     OW28192   1.903   5.055   3.790
 9098SOL    HW128193   1.900   5.045   3.890
 9098SOL    HW228194   1.822   5.104   3.758
 9099SOL     OW28195   2.460   1.659   6.349
 9099SOL    HW128196   2.494   1.704   6.432
 9099SOL    HW228197   2.458   1.560   6.363
 9100SOL     OW28198   1.616   4.908   4.299
 9100SOL    HW128199   1.600   4.821   4.345
 9100SOL    HW228200   1.571   4.909   4.211
 9101SOL     OW28201   0.080   2.057   0.940
 9101SOL    HW128202   0.067   2.121   0.865
 9101SOL    HW228203   0.110   2.107   1.022
 9102SOL     OW28204   3.892   0.855   2.899
 9102SOL    HW128205   3.854   0.782   2.843
 9102SOL    HW228206   3.957   0.909   2.846
 9103SOL     OW28207   6.602   0.316   1.327
 9103SOL    HW128208   6.605   0.323   1.426
 9103SOL    HW228209   6.557   0.230   1.300
 9104SOL     OW28210   5.746   2.280   5.941
 9104SOL    HW128211   5.686   2.359   5.950
 9104SOL    HW228212   5.775   2.270   5.846
 9105SOL     OW28213   2.721   0.678   6.951
 9105SOL    HW128214   2.771   0.739   7.012
 9105SOL    HW228215   2.668   0.613   7.005
 9106SOL     OW28216   2.490   3.021   6.208
 9106SOL    HW128217   2.419   2.971   6.159
 9106SOL    HW228218   2.577   3.014   6.159
 9107SOL     OW28219   3.550   0.736   1.045
 9107SOL    HW128220   3.623   0.675   1.076
 9107SOL    HW228221   3.559   0.824   1.092
 9108SOL     OW28222   6.395   6.130   5.735
 9108SOL    HW128223   6.388   6.191   5.814
 9108SOL    HW228224   6.313   6.140   5.679
 9109SOL     OW28225   5.616   4.332   3.263
 9109SOL    HW128226   5.604   4.424   3.301
 9109SOL    HW228227   5.708   4.324   3.224
 9110SOL     OW28228   1.571   7.005   2.277
 9110SOL    HW128229   1.571   0.069   2.229
 9110SOL    HW228230   1.534   6.934   2.218
 9111SOL     OW28231   4.343   2.865   5.394
 9111SOL    HW128232   4.426   2.897   5.440
 9111SOL    HW228233   4.278   2.832   5.463
 9112SOL     OW28234   0.593   4.389   1.667
 9112SOL    HW128235   0.514   4.373   1.725
 9112SOL    HW228236   0.603   4.488   1.651
 9113SOL     OW28237   5.557   0.125   4.244
 9113SOL    HW128238   5.564   0.098   4.148
 9113SOL    HW228239   5.537   0.045   4.300
 9114SOL     OW28240   0.639   1.477   6.198
 9114SOL    HW128241   0.568   1.517   6.256
 9114SOL    HW228242   0.719   1.537   6.197
 9115SOL     OW28243   5.163   3.696   4.501
 9115SOL    HW128244   5.138   3.599   4.497
 9115SOL    HW228245   5.207   3.716   4.588
 9116SOL     OW28246   0.594   5.142   3.735
 9116SOL    HW128247   0.622   5.203   3.809
 9116SOL    HW228248   0.581   5.050   3.772
 9117SOL     OW28249   2.002   6.787   0.191
 9117SOL    HW128250   1.981   6.735   0.274
 9117SOL    HW228251   2.091   6.831   0.201
 9118SOL     OW28252   6.945   5.239   1.370
 9118SOL    HW128253   6.912   5.169   1.307
 9118SOL    HW228254   6.909   5.328   1.342
 9119SOL     OW28255   3.455   1.203   0.972
 9119SOL    HW128256   3.413   1.294   0.975
 9119SOL    HW228257   3.497   1.188   0.883
 9120SOL     OW28258   6.321   4.264   4.975
 9120SOL    HW128259   6.360   4.203   4.906
 9120SOL    HW228260   6.373   4.254   5.060
 9121SOL     OW28261   4.253   1.152   4.541
 9121SOL    HW128262   4.292   1.170   4.451
 9121SOL    HW228263   4.166   1.201   4.550
 9122SOL     OW28264   0.013   1.535   1.915
 9122SOL    HW128265   0.029   1.598   1.840
 9122SOL    HW228266   6.952   1.560   1.963
 9123SOL     OW28267   0.612   6.615   5.008
 9123SOL    HW128268   0.636   6.591   5.102
 9123SOL    HW228269   0.695   6.632   4.955
 9124SOL     OW28270   3.404   5.963   0.297
 9124SOL    HW128271   3.450   6.027   0.236
 9124SOL    HW228272   3.382   5.879   0.248
 9125SOL     OW28273   5.195   6.563   1.693
 9125SOL    HW128274   5.261   6.490   1.674
 9125SOL    HW228275   5.169   6.560   1.790
 9126SOL     OW28276   3.796   5.508   0.396
 9126SOL    HW128277   3.701   5.531   0.417
 9126SOL    HW228278   3.842   5.589   0.359
 9127SOL     OW28279   6.593   4.533   5.276
 9127SOL    HW128280   6.497   4.513   5.298
 9127SOL    HW228281   6.645   4.448   5.270
 9128SOL     OW28282   5.371   3.651   6.897
 9128SOL    HW128283   5.319   3.715   6.841
 9128SOL    HW228284   5.401   3.575   6.840
 9129SOL     OW28285   0.403   2.895   1.148
 9129SOL    HW128286   0.383   2.955   1.070
 9129SOL    HW228287   0.350   2.925   1.228
 9130SOL     OW28288   2.788   3.321   6.218
 9130SOL    HW128289   2.882   3.288   6.228
 9130SOL    HW228290   2.754   3.297   6.127
 9131SOL     OW28291   6.306   3.203   0.707
 9131SOL    HW128292   6.326   3.110   0.738
 9131SOL    HW228293   6.223   3.235   0.751
 9132SOL     OW28294   1.007   4.107   3.706
 9132SOL    HW128295   1.005   4.091   3.608
 9132SOL    HW228296   0.944   4.045   3.752
 9133SOL     OW28297   5.112   0.309   0.723
 9133SOL    HW128298   5.063   0.309   0.635
 9133SOL    HW228299   5.138   0.216   0.747
 9134SOL     OW28300   4.990   4.420   6.561
 9134SOL    HW128301   5.068   4.480   6.545
 9134SOL    HW228302   5.019   4.338   6.609
 9135SOL     OW28303   6.908   5.515   2.606
 9135SOL    HW128304   6.969   5.478   2.536
 9135SOL    HW228305   6.957   5.525   2.692
 9136SOL     OW28306   0.807   5.516   6.742
 9136SOL    HW128307   0.883   5.462   6.779
 9136SOL    HW228308   0.813   5.610   6.775
 9137SOL     OW28309   5.824   5.446   6.085
 9137SOL    HW128310   5.893   5.393   6.134
 9137SOL    HW228311   5.817   5.415   5.991
 9138SOL     OW28312   1.528   4.243   6.305
 9138SOL    HW128313   1.552   4.188   6.384
 9138SOL    HW228314   1.607   4.298   6.277
 9139SOL     OW28315   0.260   6.701   1.070
 9139SOL    HW128316   0.219   6.692   1.161
 9139SOL    HW228317   0.202   6.654   1.003
 9140SOL     OW28318   0.926   4.198   2.876
 9140SOL    HW128319   0.897   4.118   2.825
 9140SOL    HW228320   0.878   4.200   2.964
 9141SOL     OW28321   0.351   6.035   4.470
 9141SOL    HW128322   0.311   6.127   4.470
 9141SOL    HW228323   0.304   5.978   4.536
 9142SOL     OW28324   0.955   5.174   3.579
 9142SOL    HW128325   0.896   5.254   3.584
 9142SOL    HW228326   1.030   5.184   3.645
 9143SOL     OW28327   5.664   3.325   2.268
 9143SOL    HW128328   5.699   3.321   2.174
 9143SOL    HW228329   5.663   3.421   2.298
 9144SOL     OW28330   2.671   4.396   5.322
 9144SOL    HW128331   2.680   4.408   5.421
 9144SOL    HW228332   2.730   4.462   5.275
 9145SOL     OW28333   3.029   6.267   6.345
 9145SOL    HW128334   3.084   6.272   6.428
 9145SOL    HW228335   3.036   6.175   6.305
 9146SOL     OW28336   5.556   1.778   4.621
 9146SOL    HW128337   5.604   1.865   4.620
 9146SOL    HW228338   5.500   1.769   4.539
 9147SOL     OW28339   4.356   0.607   6.229
 9147SOL    HW128340   4.322   0.541   6.296
 9147SOL    HW228341   4.432   0.658   6.269
 9148SOL     OW28342   3.863   5.804   2.274
 9148SOL    HW128343   3.763   5.801   2.283
 9148SOL    HW228344   3.889   5.779   2.181
 9149SOL     OW28345   1.062   4.038   1.482
 9149SOL    HW128346   1.099   4.054   1.573
 9149SOL    HW228347   1.133   4.056   1.414
 9150SOL     OW28348   3.779   3.538   6.811
 9150SOL    HW128349   3.687   3.526   6.775
 9150SOL    HW228350   3.779   3.516   6.909
 9151SOL     OW28351   2.086   3.504   4.155
 9151SOL    HW128352   2.084   3.598   4.191
 9151SOL    HW228353   2.065   3.505   4.058
 9152SOL     OW28354   2.117   5.068   1.728
 9152SOL    HW128355   2.091   5.141   1.664
 9152SOL    HW228356   2.062   4.987   1.710
 9153SOL     OW28357   0.745   4.085   0.484
 9153SOL    HW128358   0.664   4.043   0.443
 9153SOL    HW228359   0.761   4.044   0.574
 9154SOL     OW28360   4.796   5.637   2.965
 9154SOL    HW128361   4.717   5.659   3.023
 9154SOL    HW228362   4.800   5.700   2.888
 9155SOL     OW28363   1.065   6.352   2.455
 9155SOL    HW128364   1.058   6.451   2.449
 9155SOL    HW228365   0.980   6.315   2.493
 9156SOL     OW28366   6.641   4.332   5.719
 9156SOL    HW128367   6.678   4.373   5.802
 9156SOL    HW228368   6.695   4.361   5.640
 9157SOL     OW28369   1.825   4.723   5.020
 9157SOL    HW128370   1.811   4.710   5.118
 9157SOL    HW228371   1.914   4.686   4.993
 9158SOL     OW28372   6.692   2.252   3.888
 9158SOL    HW128373   6.594   2.274   3.892
 9158SOL    HW228374   6.726   2.237   3.981
 9159SOL     OW28375   2.147   0.751   3.612
 9159SOL    HW128376   2.218   0.715   3.551
 9159SOL    HW228377   2.119   0.680   3.676
 9160SOL     OW28378   0.721   3.626   6.590
 9160SOL    HW128379   0.758   3.699   6.533
 9160SOL    HW228380   0.744   3.643   6.686
 9161SOL     OW28381   5.840   3.214   2.515
 9161SOL    HW128382   5.915   3.160   2.478
 9161SOL    HW228383   5.759   3.203   2.457
 9162SOL     OW28384   5.000   1.813   2.106
 9162SOL    HW128385   4.955   1.872   2.173
 9162SOL    HW228386   4.987   1.851   2.014
 9163SOL     OW28387   2.120   3.537   3.082
 9163SOL    HW128388   2.160   3.570   2.997
 9163SOL    HW228389   2.166   3.580   3.160
 9164SOL     OW28390   3.499   0.540   0.516
 9164SOL    HW128391   3.412   0.582   0.540
 9164SOL    HW228392   3.570   0.610   0.510
 9165SOL     OW28393   6.124   0.733   6.357
 9165SOL    HW128394   6.068   0.654   6.332
 9165SOL    HW228395   6.165   0.718   6.447
 9166SOL     OW28396   4.312   5.991   1.491
 9166SOL    HW128397   4.393   6.031   1.535
 9166SOL    HW228398   4.231   6.011   1.546
 9167SOL     OW28399   1.182   2.840   4.885
 9167SOL    HW128400   1.154   2.935   4.874
 9167SOL    HW228401   1.102   2.781   4.884
 9168SOL     OW28402   6.082   5.902   4.570
 9168SOL    HW128403   6.168   5.903   4.520
 9168SOL    HW228404   6.040   5.993   4.566
 9169SOL     OW28405   6.019   5.958   0.384
 9169SOL    HW128406   6.107   5.966   0.430
 9169SOL    HW228407   6.022   5.880   0.321
 9170SOL     OW28408   1.561   0.236   5.389
 9170SOL    HW128409   1.599   0.152   5.352
 9170SOL    HW228410   1.635   0.293   5.425
 9171SOL     OW28411   4.548   5.911   0.072
 9171SOL    HW128412   4.536   5.819   0.034
 9171SOL    HW228413   4.460   5.956   0.078
 9172SOL     OW28414   5.319   0.714   6.026
 9172SOL    HW128415   5.233   0.747   6.067
 9172SOL    HW228416   5.358   0.643   6.085
 9173SOL     OW28417   5.879   4.546   6.073
 9173SOL    HW128418   5.951   4.592   6.021
 9173SOL    HW228419   5.911   4.455   6.101
 9174SOL     OW28420   6.091   5.067   6.840
 9174SOL    HW128421   6.121   5.108   6.754
 9174SOL    HW228422   6.170   5.046   6.897
 9175SOL     OW28423   2.241   1.000   1.428
 9175SOL    HW128424   2.225   0.942   1.348
 9175SOL    HW228425   2.288   1.084   1.399
 9176SOL     OW28426   1.533   0.240   2.155
 9176SOL    HW128427   1.619   0.269   2.113
 9176SOL    HW228428   1.457   0.288   2.111
 9177SOL     OW28429   0.452   5.559   3.550
 9177SOL    HW128430   0.408   5.632   3.602
 9177SOL    HW228431   0.412   5.471   3.575
 9178SOL     OW28432   0.890   3.429   0.858
 9178SOL    HW128433   0.811   3.388   0.813
 9178SOL    HW228434   0.915   3.514   0.811
 9179SOL     OW28435   3.953   5.543   2.652
 9179SOL    HW128436   3.991   5.588   2.572
 9179SOL    HW228437   3.858   5.518   2.635
 9180SOL     OW28438   0.059   1.079   5.137
 9180SOL    HW128439   0.003   1.139   5.080
 9180SOL    HW228440   0.038   0.984   5.115
 9181SOL     OW28441   3.040   2.178   3.223
 9181SOL    HW128442   3.089   2.159   3.308
 9181SOL    HW228443   3.093   2.143   3.146
 9182SOL     OW28444   6.707   1.445   3.003
 9182SOL    HW128445   6.670   1.511   2.938
 9182SOL    HW228446   6.697   1.481   3.096
 9183SOL     OW28447   3.319   1.739   5.569
 9183SOL    HW128448   3.412   1.760   5.599
 9183SOL    HW228449   3.266   1.705   5.647
 9184SOL     OW28450   2.977   5.473   0.996
 9184SOL    HW128451   2.886   5.454   1.032
 9184SOL    HW228452   2.996   5.571   1.001
 9185SOL     OW28453   0.402   0.852   5.379
 9185SOL    HW128454   0.460   0.853   5.297
 9185SOL    HW228455   0.333   0.923   5.371
 9186SOL     OW28456   5.320   6.687   5.806
 9186SOL    HW128457   5.293   6.603   5.854
 9186SOL    HW228458   5.340   6.665   5.711
 9187SOL     OW28459   5.342   3.581   1.194
 9187SOL    HW128460   5.266   3.547   1.249
 9187SOL    HW228461   5.343   3.534   1.106
 9188SOL     OW28462   1.164   0.965   2.881
 9188SOL    HW128463   1.148   0.873   2.846
 9188SOL    HW228464   1.206   1.021   2.810
 9189SOL     OW28465   2.792   0.503   6.745
 9189SOL    HW128466   2.743   0.572   6.798
 9189SOL    HW228467   2.758   0.503   6.651
 9190SOL     OW28468   3.838   0.766   5.900
 9190SOL    HW128469   3.889   0.813   5.828
 9190SOL    HW228470   3.873   0.673   5.911
 9191SOL     OW28471   5.139   0.228   1.680
 9191SOL    HW128472   5.187   0.305   1.723
 9191SOL    HW228473   5.064   0.262   1.624
 9192SOL     OW28474   4.390   4.902   4.217
 9192SOL    HW128475   4.453   4.828   4.243
 9192SOL    HW228476   4.296   4.868   4.220
 9193SOL     OW28477   4.039   3.178   2.379
 9193SOL    HW128478   3.953   3.127   2.369
 9193SOL    HW228479   4.088   3.179   2.292
 9194SOL     OW28480   2.978   5.135   3.515
 9194SOL    HW128481   3.026   5.049   3.531
 9194SOL    HW228482   2.920   5.127   3.433
 9195SOL     OW28483   0.042   3.054   3.721
 9195SOL    HW128484   0.038   3.153   3.733
 9195SOL    HW228485   7.016   3.010   3.796
 9196SOL     OW28486   5.448   5.569   3.543
 9196SOL    HW128487   5.348   5.565   3.537
 9196SOL    HW228488   5.487   5.480   3.519
 9197SOL     OW28489   4.493   2.204   6.997
 9197SOL    HW128490   4.416   2.172   0.029
 9197SOL    HW228491   4.488   2.303   6.987
 9198SOL     OW28492   6.156   2.704   4.790
 9198SOL    HW128493   6.204   2.712   4.702
 9198SOL    HW228494   6.216   2.738   4.862
 9199SOL     OW28495   1.053   3.647   6.757
 9199SOL    HW128496   0.961   3.675   6.783
 9199SOL    HW228497   1.060   3.547   6.761
 9200SOL     OW28498   4.437   5.927   1.966
 9200SOL    HW128499   4.495   5.898   1.891
 9200SOL    HW228500   4.478   5.900   2.053
 9201SOL     OW28501   6.848   2.789   2.451
 9201SOL    HW128502   6.850   2.839   2.537
 9201SOL    HW228503   6.818   2.695   2.468
 9202SOL     OW28504   1.723   5.826   3.571
 9202SOL    HW128505   1.817   5.840   3.540
 9202SOL    HW228506   1.661   5.840   3.494
 9203SOL     OW28507   5.131   2.226   0.933
 9203SOL    HW128508   5.115   2.157   0.863
 9203SOL    HW228509   5.099   2.192   1.021
 9204SOL     OW28510   4.664   4.752   1.794
 9204SOL    HW128511   4.585   4.813   1.788
 9204SOL    HW228512   4.633   4.658   1.786
 9205SOL     OW28513   4.240   2.192   1.124
 9205SOL    HW128514   4.265   2.208   1.029
 9205SOL    HW228515   4.168   2.256   1.151
 9206SOL     OW28516   0.014   0.064   5.360
 9206SOL    HW128517   0.029   7.021   5.286
 9206SOL    HW228518   6.947   0.050   5.399
 9207SOL     OW28519   5.718   6.625   0.296
 9207SOL    HW128520   5.745   6.658   0.387
 9207SOL    HW228521   5.654   6.548   0.307
 9208SOL     OW28522   5.690   4.756   1.536
 9208SOL    HW128523   5.676   4.675   1.594
 9208SOL    HW228524   5.779   4.796   1.556
 9209SOL     OW28525   5.236   0.512   4.490
 9209SOL    HW128526   5.272   0.433   4.441
 9209SOL    HW228527   5.143   0.491   4.522
 9210SOL     OW28528   1.371   6.560   0.487
 9210SOL    HW128529   1.309   6.487   0.455
 9210SOL    HW228530   1.318   6.629   0.536
 9211SOL     OW28531   5.391   1.328   6.267
 9211SOL    HW128532   5.311   1.306   6.212
 9211SOL    HW228533   5.405   1.427   6.269
 9212SOL     OW28534   6.216   3.722   6.378
 9212SOL    HW128535   6.165   3.697   6.460
 9212SOL    HW228536   6.151   3.736   6.302
 9213SOL     OW28537   0.093   5.524   3.214
 9213SOL    HW128538   7.017   5.522   3.221
 9213SOL    HW228539   0.119   5.526   3.117
 9214SOL     OW28540   2.036   0.865   5.828
 9214SOL    HW128541   2.116   0.925   5.831
 9214SOL    HW228542   1.983   0.885   5.746
 9215SOL     OW28543   6.707   3.666   3.640
 9215SOL    HW128544   6.749   3.737   3.696
 9215SOL    HW228545   6.733   3.679   3.544
 9216SOL     OW28546   1.908   6.771   3.844
 9216SOL    HW128547   1.969   6.817   3.908
 9216SOL    HW228548   1.936   6.676   3.834
 9217SOL     OW28549   3.223   2.575   0.311
 9217SOL    HW128550   3.185   2.665   0.335
 9217SOL    HW228551   3.248   2.574   0.215
 9218SOL     OW28552   4.832   5.773   5.742
 9218SOL    HW128553   4.820   5.755   5.840
 9218SOL    HW228554   4.840   5.871   5.726
 9219SOL     OW28555   3.947   2.941   6.432
 9219SOL    HW128556   3.931   2.994   6.349
 9219SOL    HW228557   3.905   2.988   6.510
 9220SOL     OW28558   0.773   6.813   3.504
 9220SOL    HW128559   0.761   6.906   3.539
 9220SOL    HW228560   0.851   6.810   3.442
 9221SOL     OW28561   2.674   1.605   1.985
 9221SOL    HW128562   2.654   1.692   2.030
 9221SOL    HW228563   2.675   1.532   2.054
 9222SOL     OW28564   1.969   5.968   3.537
 9222SOL    HW128565   2.011   5.971   3.628
 9222SOL    HW228566   2.017   6.031   3.476
 9223SOL     OW28567   6.214   2.253   4.612
 9223SOL    HW128568   6.143   2.315   4.645
 9223SOL    HW228569   6.283   2.241   4.684
 9224SOL     OW28570   1.771   5.639   2.822
 9224SOL    HW128571   1.856   5.599   2.854
 9224SOL    HW228572   1.695   5.603   2.875
 9225SOL     OW28573   0.316   5.744   5.574
 9225SOL    HW128574   0.365   5.745   5.661
 9225SOL    HW228575   0.375   5.780   5.502
 9226SOL     OW28576   0.839   6.686   4.874
 9226SOL    HW128577   0.923   6.688   4.928
 9226SOL    HW228578   0.832   6.770   4.820
 9227SOL     OW28579   4.269   3.214   0.828
 9227SOL    HW128580   4.284   3.137   0.766
 9227SOL    HW228581   4.284   3.184   0.923
 9228SOL     OW28582   3.883   3.507   4.435
 9228SOL    HW128583   3.888   3.412   4.404
 9228SOL    HW228584   3.965   3.555   4.404
 9229SOL     OW28585   0.279   5.769   1.162
 9229SOL    HW128586   0.246   5.675   1.150
 9229SOL    HW228587   0.304   5.784   1.258
 9230SOL     OW28588   3.482   6.601   6.356
 9230SOL    HW128589   3.517   6.686   6.315
 9230SOL    HW228590   3.402   6.570   6.305
 9231SOL     OW28591   6.092   6.646   1.749
 9231SOL    HW128592   6.114   6.743   1.757
 9231SOL    HW228593   6.024   6.621   1.817
 9232SOL     OW28594   0.927   5.290   1.748
 9232SOL    HW128595   0.889   5.368   1.798
 9232SOL    HW228596   1.013   5.316   1.706
 9233SOL     OW28597   1.364   0.029   6.030
 9233SOL    HW128598   1.374   0.118   5.985
 9233SOL    HW228599   1.437   6.991   5.999
 9234SOL     OW28600   3.277   3.811   6.634
 9234SOL    HW128601   3.212   3.777   6.566
 9234SOL    HW228602   3.260   3.766   6.721
 9235SOL     OW28603   1.994   2.224   3.081
 9235SOL    HW128604   2.066   2.280   3.122
 9235SOL    HW228605   1.937   2.185   3.153
 9236SOL     OW28606   1.773   4.345   6.301
 9236SOL    HW128607   1.869   4.350   6.275
 9236SOL    HW228608   1.743   4.433   6.337
 9237SOL     OW28609   6.943   5.307   3.842
 9237SOL    HW128610   7.006   5.335   3.915
 9237SOL    HW228611   6.868   5.373   3.836
 9238SOL     OW28612   1.710   2.587   5.441
 9238SOL    HW128613   1.750   2.546   5.522
 9238SOL    HW228614   1.773   2.655   5.403
 9239SOL     OW28615   1.833   5.993   6.209
 9239SOL    HW128616   1.919   6.038   6.184
 9239SOL    HW228617   1.848   5.935   6.288
 9240SOL     OW28618   4.004   1.214   4.610
 9240SOL    HW128619   4.016   1.236   4.706
 9240SOL    HW228620   3.968   1.294   4.561
 9241SOL     OW28621   5.861   6.365   0.417
 9241SOL    HW128622   5.905   6.373   0.506
 9241SOL    HW228623   5.819   6.452   0.392
 9242SOL     OW28624   2.743   2.435   6.828
 9242SOL    HW128625   2.690   2.520   6.820
 9242SOL    HW228626   2.710   2.382   6.906
 9243SOL     OW28627   1.958   0.139   0.191
 9243SOL    HW128628   2.032   0.144   0.123
 9243SOL    HW228629   1.870   0.133   0.144
 9244SOL     OW28630   2.849   6.227   6.823
 9244SOL    HW128631   2.915   6.261   6.756
 9244SOL    HW228632   2.803   6.304   6.867
 9245SOL     OW28633   0.816   3.989   2.780
 9245SOL    HW128634   0.843   3.927   2.707
 9245SOL    HW228635   0.758   3.940   2.846
 9246SOL     OW28636   4.889   0.592   6.494
 9246SOL    HW128637   4.905   0.608   6.591
 9246SOL    HW228638   4.835   0.667   6.456
 9247SOL     OW28639   2.850   6.278   2.811
 9247SOL    HW128640   2.836   6.327   2.725
 9247SOL    HW228641   2.771   6.220   2.830
 9248SOL     OW28642   2.860   6.776   6.687
 9248SOL    HW128643   2.920   6.854   6.702
 9248SOL    HW228644   2.859   6.754   6.589
 9249SOL     OW28645   3.775   1.153   0.581
 9249SOL    HW128646   3.775   1.253   0.581
 9249SOL    HW228647   3.728   1.121   0.664
 9250SOL     OW28648   0.603   3.460   1.978
 9250SOL    HW128649   0.587   3.363   1.957
 9250SOL    HW228650   0.658   3.501   1.905
 9251SOL     OW28651   4.370   1.368   0.748
 9251SOL    HW128652   4.308   1.304   0.793
 9251SOL    HW228653   4.379   1.343   0.652
 9252SOL     OW28654   5.546   1.549   4.748
 9252SOL    HW128655   5.556   1.637   4.701
 9252SOL    HW228656   5.488   1.488   4.694
 9253SOL     OW28657   2.720   5.002   3.787
 9253SOL    HW128658   2.765   5.088   3.811
 9253SOL    HW228659   2.670   4.967   3.866
 9254SOL     OW28660   6.596   6.083   2.648
 9254SOL    HW128661   6.662   6.043   2.585
 9254SOL    HW228662   6.589   6.181   2.631
 9255SOL     OW28663   0.098   3.060   1.049
 9255SOL    HW128664   0.149   3.110   1.119
 9255SOL    HW228665   0.000   3.068   1.066
 9256SOL     OW28666   1.937   6.325   1.382
 9256SOL    HW128667   1.886   6.386   1.442
 9256SOL    HW228668   2.034   6.331   1.403
 9257SOL     OW28669   6.356   5.990   5.327
 9257SOL    HW128670   6.412   5.948   5.255
 9257SOL    HW228671   6.281   5.930   5.351
 9258SOL     OW28672   5.279   3.572   2.894
 9258SOL    HW128673   5.280   3.667   2.866
 9258SOL    HW228674   5.349   3.557   2.965
 9259SOL     OW28675   1.001   2.964   6.433
 9259SOL    HW128676   1.085   2.992   6.479
 9259SOL    HW228677   0.980   2.869   6.456
 9260SOL     OW28678   5.059   4.476   4.915
 9260SOL    HW128679   5.086   4.384   4.889
 9260SOL    HW228680   5.003   4.472   4.998
 9261SOL     OW28681   1.655   3.136   1.297
 9261SOL    HW128682   1.625   3.041   1.296
 9261SOL    HW228683   1.626   3.181   1.212
 9262SOL     OW28684   6.733   6.704   6.145
 9262SOL    HW128685   6.690   6.646   6.213
 9262SOL    HW228686   6.662   6.747   6.089
 9263SOL     OW28687   2.655   4.659   2.952
 9263SOL    HW128688   2.733   4.711   2.919
 9263SOL    HW228689   2.630   4.589   2.885
 9264SOL     OW28690   5.912   3.637   5.186
 9264SOL    HW128691   5.987   3.678   5.135
 9264SOL    HW228692   5.913   3.538   5.175
 9265SOL     OW28693   4.522   0.577   1.951
 9265SOL    HW128694   4.573   0.494   1.926
 9265SOL    HW228695   4.485   0.566   2.043
 9266SOL     OW28696   0.605   4.604   0.923
 9266SOL    HW128697   0.603   4.599   0.823
 9266SOL    HW228698   0.658   4.528   0.960
 9267SOL     OW28699   6.890   1.236   3.302
 9267SOL    HW128700   6.868   1.293   3.381
 9267SOL    HW228701   6.807   1.194   3.267
 9268SOL     OW28702   0.151   0.164   1.141
 9268SOL    HW128703   0.209   0.084   1.127
 9268SOL    HW228704   0.131   0.174   1.239
 9269SOL     OW28705   3.161   6.163   0.941
 9269SOL    HW128706   3.128   6.215   1.020
 9269SOL    HW228707   3.218   6.221   0.884
 9270SOL     OW28708   2.280   1.250   5.024
 9270SOL    HW128709   2.293   1.326   5.087
 9270SOL    HW228710   2.195   1.202   5.047
 9271SOL     OW28711   1.594   5.130   5.514
 9271SOL    HW128712   1.593   5.045   5.460
 9271SOL    HW228713   1.619   5.207   5.455
 9272SOL     OW28714   6.157   6.895   5.746
 9272SOL    HW128715   6.151   6.810   5.693
 9272SOL    HW228716   6.100   6.887   5.828
 9273SOL     OW28717   6.522   3.563   3.357
 9273SOL    HW128718   6.616   3.593   3.341
 9273SOL    HW228719   6.485   3.522   3.274
 9274SOL     OW28720   6.794   3.289   0.738
 9274SOL    HW128721   6.776   3.322   0.646
 9274SOL    HW228722   6.891   3.300   0.760
 9275SOL     OW28723   4.762   1.662   0.624
 9275SOL    HW128724   4.681   1.616   0.660
 9275SOL    HW228725   4.802   1.606   0.551
 9276SOL     OW28726   1.897   4.091   0.295
 9276SOL    HW128727   1.878   4.071   0.392
 9276SOL    HW228728   1.932   4.184   0.286
 9277SOL     OW28729   3.219   5.850   2.758
 9277SOL    HW128730   3.319   5.852   2.758
 9277SOL    HW228731   3.184   5.893   2.675
 9278SOL     OW28732   1.941   6.685   4.931
 9278SOL    HW128733   2.036   6.654   4.922
 9278SOL    HW228734   1.879   6.610   4.907
 9279SOL     OW28735   3.571   6.378   1.821
 9279SOL    HW128736   3.572   6.286   1.860
 9279SOL    HW228737   3.545   6.444   1.891
 9280SOL     OW28738   1.420   4.594   1.473
 9280SOL    HW128739   1.399   4.510   1.522
 9280SOL    HW228740   1.432   4.669   1.538
 9281SOL     OW28741   1.262   5.479   0.616
 9281SOL    HW128742   1.355   5.491   0.582
 9281SOL    HW228743   1.230   5.565   0.655
 9282SOL     OW28744   1.983   0.675   3.817
 9282SOL    HW128745   1.898   0.673   3.763
 9282SOL    HW228746   1.997   0.766   3.854
 9283SOL     OW28747   5.488   5.026   6.505
 9283SOL    HW128748   5.435   5.058   6.584
 9283SOL    HW228749   5.533   4.940   6.528
 9284SOL     OW28750   3.871   6.461   1.457
 9284SOL    HW128751   3.879   6.551   1.414
 9284SOL    HW228752   3.893   6.468   1.554
 9285SOL     OW28753   6.709   5.480   3.469
 9285SOL    HW128754   6.728   5.388   3.437
 9285SOL    HW228755   6.640   5.477   3.542
 9286SOL     OW28756   5.596   6.135   1.629
 9286SOL    HW128757   5.545   6.137   1.714
 9286SOL    HW228758   5.563   6.061   1.571
 9287SOL     OW28759   4.284   4.496   0.317
 9287SOL    HW128760   4.379   4.500   0.350
 9287SOL    HW228761   4.273   4.415   0.259
 9288SOL     OW28762   4.119   1.022   3.330
 9288SOL    HW128763   4.068   0.989   3.251
 9288SOL    HW228764   4.082   0.982   3.414
 9289SOL     OW28765   4.283   6.295   2.303
 9289SOL    HW128766   4.193   6.270   2.339
 9289SOL    HW228767   4.354   6.267   2.367
 9290SOL     OW28768   5.615   0.456   3.660
 9290SOL    HW128769   5.522   0.495   3.659
 9290SOL    HW228770   5.630   0.405   3.575
 9291SOL     OW28771   0.309   4.565   5.645
 9291SOL    HW128772   0.239   4.621   5.689
 9291SOL    HW228773   0.383   4.548   5.710
 9292SOL     OW28774   1.779   2.348   7.021
 9292SOL    HW128775   1.745   2.380   0.086
 9292SOL    HW228776   1.866   2.300   0.011
 9293SOL     OW28777   4.343   0.925   5.866
 9293SOL    HW128778   4.303   0.962   5.950
 9293SOL    HW228779   4.341   0.825   5.869
 9294SOL     OW28780   5.508   6.112   6.157
 9294SOL    HW128781   5.583   6.178   6.161
 9294SOL    HW228782   5.511   6.054   6.238
 9295SOL     OW28783   6.285   0.452   3.074
 9295SOL    HW128784   6.190   0.472   3.048
 9295SOL    HW228785   6.326   0.533   3.115
 9296SOL     OW28786   2.241   3.329   5.757
 9296SOL    HW128787   2.214   3.414   5.803
 9296SOL    HW228788   2.335   3.307   5.782
 9297SOL     OW28789   6.782   5.644   2.029
 9297SOL    HW128790   6.702   5.584   2.027
 9297SOL    HW228791   6.813   5.662   1.936
 9298SOL     OW28792   6.805   4.923   6.869
 9298SOL    HW128793   6.784   5.009   6.917
 9298SOL    HW228794   6.887   4.882   6.908
 9299SOL     OW28795   3.390   2.110   3.979
 9299SOL    HW128796   3.362   2.162   4.060
 9299SOL    HW228797   3.348   2.019   3.983
 9300SOL     OW28798   2.702   5.886   6.243
 9300SOL    HW128799   2.683   5.971   6.293
 9300SOL    HW228800   2.756   5.907   6.161
 9301SOL     OW28801   0.210   3.407   4.599
 9301SOL    HW128802   0.226   3.311   4.575
 9301SOL    HW228803   0.224   3.464   4.518
 9302SOL     OW28804   2.739   5.757   3.758
 9302SOL    HW128805   2.804   5.829   3.733
 9302SOL    HW228806   2.782   5.668   3.742
 9303SOL     OW28807   2.789   4.353   6.643
 9303SOL    HW128808   2.851   4.333   6.567
 9303SOL    HW228809   2.715   4.412   6.611
 9304SOL     OW28810   5.854   6.028   6.457
 9304SOL    HW128811   5.799   5.945   6.459
 9304SOL    HW228812   5.951   6.004   6.457
 9305SOL     OW28813   2.072   1.731   0.871
 9305SOL    HW128814   1.975   1.705   0.876
 9305SOL    HW228815   2.112   1.692   0.789
 9306SOL     OW28816   6.766   5.887   4.111
 9306SOL    HW128817   6.702   5.938   4.054
 9306SOL    HW228818   6.784   5.938   4.196
 9307SOL     OW28819   1.978   4.486   1.239
 9307SOL    HW128820   1.931   4.574   1.239
 9307SOL    HW228821   1.914   4.414   1.209
 9308SOL     OW28822   2.518   3.210   0.991
 9308SOL    HW128823   2.500   3.308   0.989
 9308SOL    HW228824   2.439   3.160   0.957
 9309SOL     OW28825   3.757   4.981   5.750
 9309SOL    HW128826   3.735   4.945   5.659
 9309SOL    HW228827   3.713   4.925   5.819
 9310SOL     OW28828   6.305   6.303   5.944
 9310SOL    HW128829   6.315   6.335   6.038
 9310SOL    HW228830   6.322   6.380   5.881
 9311SOL     OW28831   5.783   4.573   6.819
 9311SOL    HW128832   5.882   4.564   6.824
 9311SOL    HW228833   5.756   4.588   6.724
 9312SOL     OW28834   5.887   3.468   3.909
 9312SOL    HW128835   5.857   3.548   3.960
 9312SOL    HW228836   5.833   3.389   3.937
 9313SOL     OW28837   0.293   0.552   1.858
 9313SOL    HW128838   0.262   0.523   1.767
 9313SOL    HW228839   0.384   0.591   1.851
 9314SOL     OW28840   5.113   5.025   1.456
 9314SOL    HW128841   5.130   4.935   1.418
 9314SOL    HW228842   5.036   5.068   1.409
 9315SOL     OW28843   5.658   5.567   5.726
 9315SOL    HW128844   5.578   5.616   5.761
 9315SOL    HW228845   5.650   5.557   5.626
 9316SOL     OW28846   5.336   5.543   0.153
 9316SOL    HW128847   5.251   5.580   0.190
 9316SOL    HW228848   5.368   5.602   0.079
 9317SOL     OW28849   2.881   6.884   3.360
 9317SOL    HW128850   2.856   6.956   3.425
 9317SOL    HW228851   2.954   6.917   3.300
 9318SOL     OW28852   3.076   0.209   3.299
 9318SOL    HW128853   2.992   0.251   3.266
 9318SOL    HW228854   3.077   0.211   3.399
 9319SOL     OW28855   3.848   2.445   0.996
 9319SOL    HW128856   3.749   2.431   1.002
 9319SOL    HW228857   3.880   2.419   0.905
 9320SOL     OW28858   6.508   0.036   6.895
 9320SOL    HW128859   6.605   0.060   6.892
 9320SOL    HW228860   6.458   0.104   6.949
 9321SOL     OW28861   1.145   2.149   4.373
 9321SOL    HW128862   1.146   2.209   4.453
 9321SOL    HW228863   1.219   2.175   4.311
 9322SOL     OW28864   5.142   3.544   0.144
 9322SOL    HW128865   5.055   3.589   0.128
 9322SOL    HW228866   5.195   3.597   0.210
 9323SOL     OW28867   0.916   2.708   4.849
 9323SOL    HW128868   0.920   2.616   4.890
 9323SOL    HW228869   0.868   2.770   4.911
 9324SOL     OW28870   0.941   4.438   1.109
 9324SOL    HW128871   1.031   4.413   1.071
 9324SOL    HW228872   0.889   4.355   1.128
 9325SOL     OW28873   0.357   4.361   3.177
 9325SOL    HW128874   0.330   4.381   3.083
 9325SOL    HW228875   0.455   4.340   3.180
 9326SOL     OW28876   4.291   4.787   1.149
 9326SOL    HW128877   4.365   4.759   1.209
 9326SOL    HW228878   4.235   4.857   1.194
 9327SOL     OW28879   1.822   1.557   3.466
 9327SOL    HW128880   1.853   1.646   3.433
 9327SOL    HW228881   1.802   1.498   3.388
 9328SOL     OW28882   1.436   0.256   3.757
 9328SOL    HW128883   1.446   0.165   3.718
 9328SOL    HW228884   1.451   0.252   3.856
 9329SOL     OW28885   1.569   5.103   6.048
 9329SOL    HW128886   1.549   5.198   6.021
 9329SOL    HW228887   1.547   5.091   6.144
 9330SOL     OW28888   0.948   6.375   0.967
 9330SOL    HW128889   0.878   6.308   0.993
 9330SOL    HW228890   1.023   6.373   1.032
 9331SOL     OW28891   2.130   4.959   4.581
 9331SOL    HW128892   2.037   4.938   4.549
 9331SOL    HW228893   2.160   4.888   4.644
 9332SOL     OW28894   6.315   5.658   0.564
 9332SOL    HW128895   6.335   5.605   0.646
 9332SOL    HW228896   6.393   5.654   0.502
 9333SOL     OW28897   1.664   5.235   0.550
 9333SOL    HW128898   1.565   5.240   0.562
 9333SOL    HW228899   1.702   5.171   0.616
 9334SOL     OW28900   6.875   5.631   0.437
 9334SOL    HW128901   6.895   5.554   0.497
 9334SOL    HW228902   6.951   5.697   0.440
 9335SOL     OW28903   0.129   3.826   0.786
 9335SOL    HW128904   0.060   3.754   0.783
 9335SOL    HW228905   0.110   3.894   0.715
 9336SOL     OW28906   4.429   4.991   5.487
 9336SOL    HW128907   4.490   4.943   5.550
 9336SOL    HW228908   4.425   5.088   5.511
 9337SOL     OW28909   3.238   1.811   4.707
 9337SOL    HW128910   3.243   1.772   4.799
 9337SOL    HW228911   3.142   1.820   4.680
 9338SOL     OW28912   4.231   6.967   1.722
 9338SOL    HW128913   4.183   6.935   1.804
 9338SOL    HW228914   4.171   0.005   1.670
 9339SOL     OW28915   0.017   3.595   4.973
 9339SOL    HW128916   6.954   3.558   5.008
 9339SOL    HW228917   0.007   3.693   4.956
 9340SOL     OW28918   2.481   4.566   2.141
 9340SOL    HW128919   2.433   4.481   2.164
 9340SOL    HW228920   2.458   4.593   2.047
 9341SOL     OW28921   6.095   5.618   1.295
 9341SOL    HW128922   6.132   5.583   1.209
 9341SOL    HW228923   6.124   5.559   1.371
 9342SOL     OW28924   2.992   0.239   4.551
 9342SOL    HW128925   2.954   0.147   4.564
 9342SOL    HW228926   3.077   0.233   4.500
 9343SOL     OW28927   5.436   3.884   1.513
 9343SOL    HW128928   5.357   3.907   1.569
 9343SOL    HW228929   5.519   3.919   1.555
 9344SOL     OW28930   5.769   6.593   4.845
 9344SOL    HW128931   5.771   6.669   4.780
 9344SOL    HW228932   5.712   6.617   4.923
 9345SOL     OW28933   0.074   4.576   6.391
 9345SOL    HW128934   0.025   4.611   6.471
 9345SOL    HW228935   0.163   4.541   6.418
 9346SOL     OW28936   5.165   1.043   2.082
 9346SOL    HW128937   5.257   1.014   2.109
 9346SOL    HW228938   5.146   1.133   2.121
 9347SOL     OW28939   4.705   6.887   2.036
 9347SOL    HW128940   4.719   6.950   2.112
 9347SOL    HW228941   4.701   6.938   1.950
 9348SOL     OW28942   2.528   5.097   1.708
 9348SOL    HW128943   2.461   5.069   1.776
 9348SOL    HW228944   2.567   5.017   1.664
 9349SOL     OW28945   0.167   5.259   1.472
 9349SOL    HW128946   0.167   5.220   1.564
 9349SOL    HW228947   0.079   5.240   1.429
 9350SOL     OW28948   6.367   0.572   6.792
 9350SOL    HW128949   6.317   0.499   6.838
 9350SOL    HW228950   6.386   0.646   6.857
 9351SOL     OW28951   4.620   4.220   6.258
 9351SOL    HW128952   4.674   4.301   6.279
 9351SOL    HW228953   4.579   4.185   6.343
 9352SOL     OW28954   2.807   1.765   6.699
 9352SOL    HW128955   2.846   1.856   6.715
 9352SOL    HW228956   2.808   1.712   6.784
 9353SOL     OW28957   1.003   2.913   2.283
 9353SOL    HW128958   1.010   2.954   2.373
 9353SOL    HW228959   1.077   2.947   2.225
 9354SOL     OW28960   6.011   2.126   2.603
 9354SOL    HW128961   6.004   2.076   2.517
 9354SOL    HW228962   6.040   2.220   2.584
 9355SOL     OW28963   0.225   1.650   2.082
 9355SOL    HW128964   0.134   1.691   2.085
 9355SOL    HW228965   0.225   1.573   2.019
 9356SOL     OW28966   4.748   2.349   2.236
 9356SOL    HW128967   4.845   2.327   2.249
 9356SOL    HW228968   4.724   2.429   2.292
 9357SOL     OW28969   2.672   4.888   6.748
 9357SOL    HW128970   2.680   4.840   6.835
 9357SOL    HW228971   2.576   4.900   6.724
 9358SOL     OW28972   5.416   4.053   2.654
 9358SOL    HW128973   5.363   4.099   2.726
 9358SOL    HW228974   5.374   4.070   2.566
 9359SOL     OW28975   4.700   5.013   5.831
 9359SOL    HW128976   4.719   5.101   5.874
 9359SOL    HW228977   4.777   4.951   5.848
 9360SOL     OW28978   1.164   0.498   5.437
 9360SOL    HW128979   1.217   0.413   5.431
 9360SOL    HW228980   1.139   0.528   5.345
 9361SOL     OW28981   1.666   1.317   2.496
 9361SOL    HW128982   1.583   1.307   2.441
 9361SOL    HW228983   1.649   1.282   2.588
 9362SOL     OW28984   1.402   1.694   3.178
 9362SOL    HW128985   1.349   1.686   3.093
 9362SOL    HW228986   1.487   1.743   3.159
 9363SOL     OW28987   1.338   6.320   2.041
 9363SOL    HW128988   1.343   6.347   2.137
 9363SOL    HW228989   1.425   6.280   2.012
 9364SOL     OW28990   5.423   4.135   1.315
 9364SOL    HW128991   5.477   4.051   1.310
 9364SOL    HW228992   5.460   4.195   1.387
 9365SOL     OW28993   2.115   1.716   3.951
 9365SOL    HW128994   2.030   1.697   4.000
 9365SOL    HW228995   2.117   1.663   3.866
 9366SOL     OW28996   2.625   1.336   1.611
 9366SOL    HW128997   2.651   1.312   1.517
 9366SOL    HW228998   2.680   1.414   1.641
 9367SOL     OW28999   5.534   6.590   3.823
 9367SOL    HW129000   5.571   6.535   3.897
 9367SOL    HW229001   5.547   6.687   3.844
 9368SOL     OW29002   5.442   3.097   0.655
 9368SOL    HW129003   5.414   3.041   0.578
 9368SOL    HW229004   5.433   3.045   0.740
 9369SOL     OW29005   0.265   1.736   5.059
 9369SOL    HW129006   0.362   1.741   5.035
 9369SOL    HW229007   0.254   1.677   5.140
 9370SOL     OW29008   5.878   5.279   2.376
 9370SOL    HW129009   5.962   5.316   2.416
 9370SOL    HW229010   5.799   5.313   2.427
 9371SOL     OW29011   1.938   6.697   0.436
 9371SOL    HW129012   1.963   6.791   0.456
 9371SOL    HW229013   1.851   6.675   0.478
 9372SOL     OW29014   5.666   5.784   0.376
 9372SOL    HW129015   5.706   5.780   0.285
 9372SOL    HW229016   5.590   5.720   0.382
 9373SOL     OW29017   5.093   3.029   4.236
 9373SOL    HW129018   5.045   2.952   4.278
 9373SOL    HW229019   5.069   3.034   4.139
 9374SOL     OW29020   5.252   3.846   6.727
 9374SOL    HW129021   5.219   3.876   6.637
 9374SOL    HW229022   5.334   3.898   6.752
 9375SOL     OW29023   6.235   0.186   4.215
 9375SOL    HW129024   6.236   0.274   4.261
 9375SOL    HW229025   6.284   0.193   4.128
 9376SOL     OW29026   2.553   3.491   1.718
 9376SOL    HW129027   2.624   3.439   1.766
 9376SOL    HW229028   2.466   3.480   1.767
 9377SOL     OW29029   6.639   4.317   3.549
 9377SOL    HW129030   6.683   4.406   3.536
 9377SOL    HW229031   6.661   4.283   3.641
 9378SOL     OW29032   4.253   6.398   1.091
 9378SOL    HW129033   4.156   6.416   1.074
 9378SOL    HW229034   4.261   6.328   1.163
 9379SOL     OW29035   4.791   4.685   5.527
 9379SOL    HW129036   4.802   4.608   5.589
 9379SOL    HW229037   4.857   4.678   5.452
 9380SOL     OW29038   6.485   5.744   5.544
 9380SOL    HW129039   6.552   5.677   5.513
 9380SOL    HW229040   6.521   5.836   5.529
 9381SOL     OW29041   0.838   0.973   0.052
 9381SOL    HW129042   0.843   1.064   0.009
 9381SOL    HW229043   0.851   0.982   0.151
 9382SOL     OW29044   5.564   1.709   2.978
 9382SOL    HW129045   5.478   1.756   2.994
 9382SOL    HW229046   5.639   1.775   2.973
 9383SOL     OW29047   6.778   5.297   6.206
 9383SOL    HW129048   6.812   5.353   6.130
 9383SOL    HW229049   6.687   5.330   6.234
 9384SOL     OW29050   3.608   6.996   2.589
 9384SOL    HW129051   3.594   6.936   2.510
 9384SOL    HW229052   3.584   6.946   2.673
 9385SOL     OW29053   3.973   6.895   3.423
 9385SOL    HW129054   3.880   6.930   3.420
 9385SOL    HW229055   4.004   6.890   3.519
 9386SOL     OW29056   3.765   0.286   5.311
 9386SOL    HW129057   3.834   0.289   5.384
 9386SOL    HW229058   3.738   0.379   5.287
 9387SOL     OW29059   4.793   5.534   0.732
 9387SOL    HW129060   4.846   5.454   0.704
 9387SOL    HW229061   4.769   5.527   0.828
 9388SOL     OW29062   6.905   0.123   1.639
 9388SOL    HW129063   6.855   0.053   1.588
 9388SOL    HW229064   6.981   0.157   1.584
 9389SOL     OW29065   2.819   0.659   0.652
 9389SOL    HW129066   2.753   0.730   0.676
 9389SOL    HW229067   2.816   0.586   0.720
 9390SOL     OW29068   3.841   5.621   1.066
 9390SOL    HW129069   3.890   5.703   1.095
 9390SOL    HW229070   3.830   5.623   0.967
 9391SOL     OW29071   6.065   1.123   3.842
 9391SOL    HW129072   6.022   1.213   3.844
 9391SOL    HW229073   6.131   1.119   3.767
 9392SOL     OW29074   0.788   6.848   5.270
 9392SOL    HW129075   0.790   6.749   5.283
 9392SOL    HW229076   0.870   6.888   5.312
 9393SOL     OW29077   4.755   1.568   5.573
 9393SOL    HW129078   4.726   1.483   5.530
 9393SOL    HW229079   4.729   1.645   5.515
 9394SOL     OW29080   6.196   1.719   2.260
 9394SOL    HW129081   6.223   1.761   2.347
 9394SOL    HW229082   6.101   1.691   2.265
 9395SOL     OW29083   2.013   2.818   6.384
 9395SOL    HW129084   1.944   2.772   6.440
 9395SOL    HW229085   2.052   2.752   6.319
 9396SOL     OW29086   0.196   1.000   6.225
 9396SOL    HW129087   0.249   1.055   6.291
 9396SOL    HW229088   0.202   1.042   6.135
 9397SOL     OW29089   1.931   1.881   0.251
 9397SOL    HW129090   1.924   1.812   0.323
 9397SOL    HW229091   1.936   1.972   0.293
 9398SOL     OW29092   2.772   1.564   1.701
 9398SOL    HW129093   2.728   1.600   1.783
 9398SOL    HW229094   2.797   1.639   1.641
 9399SOL     OW29095   0.252   0.651   6.145
 9399SOL    HW129096   0.200   0.701   6.076
 9399SOL    HW229097   0.342   0.694   6.156
 9400SOL     OW29098   3.888   1.708   3.790
 9400SOL    HW129099   3.947   1.745   3.719
 9400SOL    HW229100   3.921   1.617   3.817
 9401SOL     OW29101   4.462   6.282   4.109
 9401SOL    HW129102   4.450   6.314   4.015
 9401SOL    HW229103   4.430   6.352   4.173
 9402SOL     OW29104   2.871   4.841   6.386
 9402SOL    HW129105   2.840   4.749   6.410
 9402SOL    HW229106   2.805   4.908   6.422
 9403SOL     OW29107   6.162   6.840   4.149
 9403SOL    HW129108   6.203   6.932   4.150
 9403SOL    HW229109   6.076   6.842   4.099
 9404SOL     OW29110   1.677   4.371   5.240
 9404SOL    HW129111   1.735   4.294   5.215
 9404SOL    HW229112   1.734   4.452   5.254
 9405SOL     OW29113   0.607   0.570   0.988
 9405SOL    HW129114   0.619   0.640   1.058
 9405SOL    HW229115   0.693   0.558   0.937
 9406SOL     OW29116   6.578   1.192   5.186
 9406SOL    HW129117   6.661   1.248   5.196
 9406SOL    HW229118   6.604   1.098   5.167
 9407SOL     OW29119   3.666   5.461   3.176
 9407SOL    HW129120   3.613   5.445   3.259
 9407SOL    HW229121   3.616   5.524   3.116
 9408SOL     OW29122   3.794   2.147   6.304
 9408SOL    HW129123   3.701   2.178   6.321
 9408SOL    HW229124   3.793   2.051   6.276
 9409SOL     OW29125   6.189   3.798   3.374
 9409SOL    HW129126   6.158   3.809   3.280
 9409SOL    HW229127   6.191   3.701   3.398
 9410SOL     OW29128   4.256   6.550   1.823
 9410SOL    HW129129   4.308   6.466   1.837
 9410SOL    HW229130   4.318   6.628   1.825
 9411SOL     OW29131   4.964   5.332   2.158
 9411SOL    HW129132   5.018   5.289   2.231
 9411SOL    HW229133   5.011   5.321   2.071
 9412SOL     OW29134   6.270   2.441   2.854
 9412SOL    HW129135   6.369   2.433   2.858
 9412SOL    HW229136   6.242   2.531   2.889
 9413SOL     OW29137   4.122   5.526   3.340
 9413SOL    HW129138   4.045   5.476   3.299
 9413SOL    HW229139   4.185   5.462   3.382
 9414SOL     OW29140   2.354   0.373   2.389
 9414SOL    HW129141   2.381   0.279   2.367
 9414SOL    HW229142   2.314   0.416   2.308
 9415SOL     OW29143   1.912   0.587   1.886
 9415SOL    HW129144   1.880   0.600   1.980
 9415SOL    HW229145   1.840   0.541   1.833
 9416SOL     OW29146   1.330   2.291   1.422
 9416SOL    HW129147   1.293   2.212   1.471
 9416SOL    HW229148   1.334   2.369   1.484
 9417SOL     OW29149   1.335   0.450   4.922
 9417SOL    HW129150   1.351   0.427   5.018
 9417SOL    HW229151   1.256   0.399   4.888
 9418SOL     OW29152   4.429   4.425   1.101
 9418SOL    HW129153   4.371   4.455   1.025
 9418SOL    HW229154   4.373   4.403   1.180
 9419SOL     OW29155   2.848   5.507   3.742
 9419SOL    HW129156   2.916   5.479   3.810
 9419SOL    HW229157   2.771   5.444   3.745
 9420SOL     OW29158   1.913   0.513   3.389
 9420SOL    HW129159   1.875   0.562   3.467
 9420SOL    HW229160   1.934   0.579   3.316
 9421SOL     OW29161   1.710   5.160   4.904
 9421SOL    HW129162   1.750   5.251   4.905
 9421SOL    HW229163   1.719   5.118   4.995
 9422SOL     OW29164   3.998   1.254   2.934
 9422SOL    HW129165   4.022   1.181   2.871
 9422SOL    HW229166   4.076   1.316   2.944
 9423SOL     OW29167   4.076   0.132   4.618
 9423SOL    HW129168   4.148   0.195   4.590
 9423SOL    HW229169   4.004   0.130   4.548
 9424SOL     OW29170   3.274   5.717   3.525
 9424SOL    HW129171   3.233   5.675   3.444
 9424SOL    HW229172   3.297   5.646   3.591
 9425SOL     OW29173   0.963   5.340   2.773
 9425SOL    HW129174   1.002   5.329   2.682
 9425SOL    HW229175   1.024   5.396   2.829
 9426SOL     OW29176   3.768   6.199   0.851
 9426SOL    HW129177   3.842   6.145   0.891
 9426SOL    HW229178   3.799   6.239   0.765
 9427SOL     OW29179   2.559   4.975   4.005
 9427SOL    HW129180   2.471   4.971   3.959
 9427SOL    HW229181   2.551   4.934   4.096
 9428SOL     OW29182   4.790   6.462   2.308
 9428SOL    HW129183   4.705   6.473   2.360
 9428SOL    HW229184   4.807   6.545   2.255
 9429SOL     OW29185   0.630   3.420   2.591
 9429SOL    HW129186   0.539   3.423   2.549
 9429SOL    HW229187   0.626   3.463   2.681
 9430SOL     OW29188   6.485   6.489   1.633
 9430SOL    HW129189   6.438   6.467   1.719
 9430SOL    HW229190   6.420   6.527   1.568
 9431SOL     OW29191   6.892   4.403   0.313
 9431SOL    HW129192   6.853   4.457   0.387
 9431SOL    HW229193   6.819   4.377   0.249
 9432SOL     OW29194   6.894   6.781   4.304
 9432SOL    HW129195   6.927   6.697   4.345
 9432SOL    HW229196   6.914   6.780   4.206
 9433SOL     OW29197   2.329   5.809   3.877
 9433SOL    HW129198   2.301   5.806   3.973
 9433SOL    HW229199   2.272   5.749   3.823
 9434SOL     OW29200   6.200   4.505   3.404
 9434SOL    HW129201   6.280   4.467   3.451
 9434SOL    HW229202   6.163   4.581   3.458
 9435SOL     OW29203   2.464   2.020   5.380
 9435SOL    HW129204   2.518   2.076   5.317
 9435SOL    HW229205   2.491   2.041   5.474
 9436SOL     OW29206   3.607   1.708   5.529
 9436SOL    HW129207   3.584   1.615   5.499
 9436SOL    HW229208   3.666   1.704   5.609
 9437SOL     OW29209   0.148   5.939   4.657
 9437SOL    HW129210   0.057   5.925   4.697
 9437SOL    HW229211   0.212   5.873   4.696
 9438SOL     OW29212   0.550   6.153   1.963
 9438SOL    HW129213   0.636   6.203   1.951
 9438SOL    HW229214   0.513   6.128   1.874
 9439SOL     OW29215   2.059   3.347   1.113
 9439SOL    HW129216   1.965   3.374   1.094
 9439SOL    HW229217   2.092   3.288   1.039
 9440SOL     OW29218   3.122   5.676   4.020
 9440SOL    HW129219   3.141   5.770   3.993
 9440SOL    HW229220   3.195   5.616   3.987
 9441SOL     OW29221   1.640   5.405   5.362
 9441SOL    HW129222   1.556   5.420   5.415
 9441SOL    HW229223   1.719   5.422   5.421
 9442SOL     OW29224   0.503   3.729   0.960
 9442SOL    HW129225   0.576   3.751   1.024
 9442SOL    HW229226   0.494   3.629   0.953
 9443SOL     OW29227   1.331   2.464   1.619
 9443SOL    HW129228   1.338   2.520   1.536
 9443SOL    HW229229   1.390   2.502   1.690
 9444SOL     OW29230   1.326   4.197   5.865
 9444SOL    HW129231   1.256   4.208   5.794
 9444SOL    HW229232   1.285   4.216   5.955
 9445SOL     OW29233   6.240   2.549   1.849
 9445SOL    HW129234   6.307   2.498   1.903
 9445SOL    HW229235   6.260   2.647   1.855
 9446SOL     OW29236   5.652   4.315   6.836
 9446SOL    HW129237   5.586   4.310   6.911
 9446SOL    HW229238   5.702   4.402   6.841
 9447SOL     OW29239   5.880   1.103   1.840
 9447SOL    HW129240   5.806   1.143   1.785
 9447SOL    HW229241   5.841   1.060   1.921
 9448SOL     OW29242   5.998   6.341   0.648
 9448SOL    HW129243   6.074   6.325   0.585
 9448SOL    HW229244   5.960   6.253   0.676
 9449SOL     OW29245   5.789   5.787   5.266
 9449SOL    HW129246   5.878   5.833   5.275
 9449SOL    HW229247   5.799   5.706   5.209
 9450SOL     OW29248   2.211   6.209   4.058
 9450SOL    HW129249   2.222   6.111   4.075
 9450SOL    HW229250   2.135   6.223   3.994
 9451SOL     OW29251   3.859   3.731   5.554
 9451SOL    HW129252   3.892   3.680   5.474
 9451SOL    HW229253   3.780   3.683   5.592
 9452SOL     OW29254   3.426   3.940   0.828
 9452SOL    HW129255   3.478   3.855   0.841
 9452SOL    HW229256   3.479   4.017   0.863
 9453SOL     OW29257   3.521   5.709   1.271
 9453SOL    HW129258   3.547   5.651   1.349
 9453SOL    HW229259   3.502   5.651   1.192
 9454SOL     OW29260   2.287   2.422   6.072
 9454SOL    HW129261   2.339   2.346   6.032
 9454SOL    HW229262   2.255   2.397   6.163
 9455SOL     OW29263   1.509   2.088   2.606
 9455SOL    HW129264   1.543   2.176   2.640
 9455SOL    HW229265   1.580   2.044   2.551
 9456SOL     OW29266   1.173   3.200   0.404
 9456SOL    HW129267   1.159   3.260   0.325
 9456SOL    HW229268   1.084   3.168   0.437
 9457SOL     OW29269   6.062   3.842   0.136
 9457SOL    HW129270   6.146   3.859   0.084
 9457SOL    HW229271   5.985   3.887   0.091
 9458SOL     OW29272   1.215   6.289   4.363
 9458SOL    HW129273   1.143   6.229   4.396
 9458SOL    HW229274   1.202   6.381   4.399
 9459SOL     OW29275   4.511   6.147   0.816
 9459SOL    HW129276   4.597   6.199   0.815
 9459SOL    HW229277   4.519   6.068   0.756
 9460SOL     OW29278   1.451   4.003   5.555
 9460SOL    HW129279   1.467   3.906   5.540
 9460SOL    HW229280   1.358   4.027   5.526
 9461SOL     OW29281   1.581   0.271   2.432
 9461SOL    HW129282   1.613   0.255   2.338
 9461SOL    HW229283   1.481   0.272   2.433
 9462SOL     OW29284   0.505   2.828   3.528
 9462SOL    HW129285   0.596   2.835   3.487
 9462SOL    HW229286   0.437   2.863   3.464
 9463SOL     OW29287   5.777   2.431   6.548
 9463SOL    HW129288   5.752   2.343   6.507
 9463SOL    HW229289   5.863   2.421   6.598
 9464SOL     OW29290   4.452   6.370   6.093
 9464SOL    HW129291   4.511   6.446   6.066
 9464SOL    HW229292   4.383   6.354   6.023
 9465SOL     OW29293   4.865   6.469   4.362
 9465SOL    HW129294   4.908   6.398   4.308
 9465SOL    HW229295   4.934   6.516   4.418
 9466SOL     OW29296   3.466   1.660   6.932
 9466SOL    HW129297   3.548   1.713   6.911
 9466SOL    HW229298   3.491   1.571   6.969
 9467SOL     OW29299   1.708   2.955   2.470
 9467SOL    HW129300   1.806   2.936   2.465
 9467SOL    HW229301   1.678   2.996   2.384
 9468SOL     OW29302   0.692   2.199   5.877
 9468SOL    HW129303   0.754   2.160   5.809
 9468SOL    HW229304   0.607   2.146   5.879
 9469SOL     OW29305   0.022   4.077   2.723
 9469SOL    HW129306   0.061   4.079   2.815
 9469SOL    HW229307   0.050   4.159   2.673
 9470SOL     OW29308   0.009   3.359   1.140
 9470SOL    HW129309   0.071   3.356   1.218
 9470SOL    HW229310   6.974   3.278   1.140
 9471SOL     OW29311   0.151   2.509   6.050
 9471SOL    HW129312   0.250   2.510   6.037
 9471SOL    HW229313   0.121   2.597   6.086
 9472SOL     OW29314   6.631   2.249   5.143
 9472SOL    HW129315   6.553   2.287   5.093
 9472SOL    HW229316   6.602   2.168   5.195
 9473SOL     OW29317   2.920   5.221   5.347
 9473SOL    HW129318   2.873   5.163   5.280
 9473SOL    HW229319   3.013   5.187   5.362
 9474SOL     OW29320   3.577   5.517   3.690
 9474SOL    HW129321   3.561   5.428   3.649
 9474SOL    HW229322   3.643   5.568   3.634
 9475SOL     OW29323   2.172   3.236   1.378
 9475SOL    HW129324   2.116   3.253   1.296
 9475SOL    HW229325   2.130   3.164   1.433
 9476SOL     OW29326   2.499   4.152   5.565
 9476SOL    HW129327   2.545   4.118   5.483
 9476SOL    HW229328   2.414   4.197   5.540
 9477SOL     OW29329   0.522   2.160   0.484
 9477SOL    HW129330   0.522   2.227   0.409
 9477SOL    HW229331   0.445   2.178   0.545
 9478SOL     OW29332   5.674   4.070   6.066
 9478SOL    HW129333   5.736   4.045   6.140
 9478SOL    HW229334   5.665   4.170   6.063
 9479SOL     OW29335   5.210   5.016   5.168
 9479SOL    HW129336   5.149   5.055   5.099
 9479SOL    HW229337   5.175   5.040   5.259
 9480SOL     OW29338   6.442   3.807   6.505
 9480SOL    HW129339   6.361   3.803   6.448
 9480SOL    HW229340   6.428   3.752   6.588
 9481SOL     OW29341   0.257   2.482   2.862
 9481SOL    HW129342   0.244   2.421   2.940
 9481SOL    HW229343   0.334   2.449   2.807
 9482SOL     OW29344   4.815   0.427   2.118
 9482SOL    HW129345   4.729   0.422   2.066
 9482SOL    HW229346   4.800   0.476   2.203
 9483SOL     OW29347   1.133   1.288   0.574
 9483SOL    HW129348   1.040   1.258   0.551
 9483SOL    HW229349   1.130   1.381   0.609
 9484SOL     OW29350   5.883   0.321   3.650
 9484SOL    HW129351   5.938   0.308   3.567
 9484SOL    HW229352   5.879   0.418   3.673
 9485SOL     OW29353   0.800   0.110   2.643
 9485SOL    HW129354   0.852   0.192   2.667
 9485SOL    HW229355   0.831   0.077   2.554
 9486SOL     OW29356   2.423   6.836   2.073
 9486SOL    HW129357   2.443   6.933   2.086
 9486SOL    HW229358   2.487   6.782   2.128
 9487SOL     OW29359   3.538   3.549   3.649
 9487SOL    HW129360   3.566   3.633   3.695
 9487SOL    HW229361   3.441   3.556   3.623
 9488SOL     OW29362   1.837   0.906   1.703
 9488SOL    HW129363   1.769   0.863   1.644
 9488SOL    HW229364   1.808   0.999   1.726
 9489SOL     OW29365   2.845   4.575   0.389
 9489SOL    HW129366   2.838   4.636   0.467
 9489SOL    HW229367   2.766   4.514   0.387
 9490SOL     OW29368   4.813   1.391   6.919
 9490SOL    HW129369   4.911   1.413   6.923
 9490SOL    HW229370   4.779   1.410   6.827
 9491SOL     OW29371   5.852   5.918   6.149
 9491SOL    HW129372   5.913   5.847   6.117
 9491SOL    HW229373   5.808   5.889   6.234
 9492SOL     OW29374   2.563   4.760   1.317
 9492SOL    HW129375   2.590   4.673   1.358
 9492SOL    HW229376   2.483   4.796   1.364
 9493SOL     OW29377   5.162   6.288   2.613
 9493SOL    HW129378   5.252   6.328   2.629
 9493SOL    HW229379   5.094   6.361   2.603
 9494SOL     OW29380   3.752   3.304   6.487
 9494SOL    HW129381   3.663   3.266   6.508
 9494SOL    HW229382   3.784   3.360   6.564
 9495SOL     OW29383   5.247   2.555   4.350
 9495SOL    HW129384   5.303   2.486   4.304
 9495SOL    HW229385   5.304   2.633   4.374
 9496SOL     OW29386   6.350   4.406   0.309
 9496SOL    HW129387   6.424   4.458   0.266
 9496SOL    HW229388   6.313   4.340   0.243
 9497SOL     OW29389   0.804   5.894   6.191
 9497SOL    HW129390   0.839   5.849   6.108
 9497SOL    HW229391   0.736   5.835   6.234
 9498SOL     OW29392   4.100   0.029   6.565
 9498SOL    HW129393   4.061   6.993   6.636
 9498SOL    HW229394   4.113   6.998   6.482
 9499SOL     OW29395   4.557   3.694   5.682
 9499SOL    HW129396   4.538   3.785   5.720
 9499SOL    HW229397   4.656   3.681   5.674
 9500SOL     OW29398   4.811   5.636   1.180
 9500SOL    HW129399   4.812   5.735   1.197
 9500SOL    HW229400   4.821   5.587   1.266
 9501SOL     OW29401   3.462   2.120   4.872
 9501SOL    HW129402   3.442   2.143   4.776
 9501SOL    HW229403   3.413   2.184   4.932
 9502SOL     OW29404   3.627   3.269   5.721
 9502SOL    HW129405   3.622   3.293   5.624
 9502SOL    HW229406   3.632   3.353   5.775
 9503SOL     OW29407   1.305   6.963   1.358
 9503SOL    HW129408   1.226   6.907   1.383
 9503SOL    HW229409   1.389   6.917   1.386
 9504SOL     OW29410   0.504   3.234   0.538
 9504SOL    HW129411   0.500   3.187   0.450
 9504SOL    HW229412   0.491   3.332   0.524
 9505SOL     OW29413   5.200   3.215   2.804
 9505SOL    HW129414   5.109   3.231   2.767
 9505SOL    HW229415   5.264   3.281   2.765
 9506SOL     OW29416   6.691   2.035   1.426
 9506SOL    HW129417   6.752   1.961   1.454
 9506SOL    HW229418   6.684   2.102   1.500
 9507SOL     OW29419   1.191   2.811   5.274
 9507SOL    HW129420   1.154   2.867   5.200
 9507SOL    HW229421   1.290   2.802   5.263
 9508SOL     OW29422   4.960   0.990   6.038
 9508SOL    HW129423   4.921   1.052   6.106
 9508SOL    HW229424   4.995   1.043   5.961
 9509SOL     OW29425   3.665   6.801   6.245
 9509SOL    HW129426   3.693   6.883   6.194
 9509SOL    HW229427   3.676   6.721   6.187
 9510SOL     OW29428   6.058   3.976   2.860
 9510SOL    HW129429   5.965   4.010   2.847
 9510SOL    HW229430   6.112   3.995   2.777
 9511SOL     OW29431   2.259   1.632   1.206
 9511SOL    HW129432   2.175   1.650   1.257
 9511SOL    HW229433   2.253   1.542   1.162
 9512SOL     OW29434   1.385   3.718   5.218
 9512SOL    HW129435   1.318   3.790   5.204
 9512SOL    HW229436   1.470   3.757   5.255
 9513SOL     OW29437   2.323   4.343   4.587
 9513SOL    HW129438   2.397   4.317   4.525
 9513SOL    HW229439   2.259   4.268   4.596
 9514SOL     OW29440   3.253   2.904   5.788
 9514SOL    HW129441   3.332   2.958   5.761
 9514SOL    HW229442   3.268   2.808   5.763
 9515SOL     OW29443   2.097   5.712   5.870
 9515SOL    HW129444   2.190   5.675   5.878
 9515SOL    HW229445   2.043   5.682   5.948
 9516SOL     OW29446   5.608   4.680   4.827
 9516SOL    HW129447   5.597   4.758   4.766
 9516SOL    HW229448   5.525   4.625   4.826
 9517SOL     OW29449   0.613   5.210   3.014
 9517SOL    HW129450   0.535   5.250   3.062
 9517SOL    HW229451   0.679   5.282   2.991
 9518SOL     OW29452   0.835   2.841   5.764
 9518SOL    HW129453   0.801   2.908   5.697
 9518SOL    HW229454   0.889   2.888   5.833
 9519SOL     OW29455   3.274   3.191   3.425
 9519SOL    HW129456   3.339   3.262   3.398
 9519SOL    HW229457   3.184   3.233   3.443
 9520SOL     OW29458   5.499   0.682   6.908
 9520SOL    HW129459   5.521   0.695   6.811
 9520SOL    HW229460   5.402   0.700   6.924
 9521SOL     OW29461   3.544   0.989   1.160
 9521SOL    HW129462   3.550   1.036   1.247
 9521SOL    HW229463   3.506   1.050   1.091
 9522SOL     OW29464   3.839   6.262   1.256
 9522SOL    HW129465   3.849   6.321   1.337
 9522SOL    HW229466   3.743   6.236   1.246
 9523SOL     OW29467   2.426   4.859   4.927
 9523SOL    HW129468   2.486   4.935   4.903
 9523SOL    HW229469   2.475   4.793   4.983
 9524SOL     OW29470   2.052   4.339   0.300
 9524SOL    HW129471   2.106   4.330   0.383
 9524SOL    HW229472   2.103   4.393   0.233
 9525SOL     OW29473   2.336   3.320   6.414
 9525SOL    HW129474   2.381   3.408   6.395
 9525SOL    HW229475   2.406   3.248   6.421
 9526SOL     OW29476   5.338   5.287   6.199
 9526SOL    HW129477   5.260   5.251   6.251
 9526SOL    HW229478   5.419   5.233   6.220
 9527SOL     OW29479   3.801   6.846   4.590
 9527SOL    HW129480   3.853   6.765   4.617
 9527SOL    HW229481   3.768   6.893   4.672
 9528SOL     OW29482   4.948   2.242   0.284
 9528SOL    HW129483   4.854   2.220   0.310
 9528SOL    HW229484   4.965   2.339   0.302
 9529SOL     OW29485   5.622   0.809   1.845
 9529SOL    HW129486   5.561   0.873   1.799
 9529SOL    HW229487   5.664   0.853   1.924
 9530SOL     OW29488   0.681   5.783   3.923
 9530SOL    HW129489   0.759   5.832   3.960
 9530SOL    HW229490   0.653   5.823   3.836
 9531SOL     OW29491   3.313   5.450   1.820
 9531SOL    HW129492   3.380   5.384   1.787
 9531SOL    HW229493   3.237   5.402   1.864
 9532SOL     OW29494   0.025   4.887   4.376
 9532SOL    HW129495   0.049   4.814   4.440
 9532SOL    HW229496   0.064   4.866   4.286
 9533SOL     OW29497   1.258   3.831   3.593
 9533SOL    HW129498   1.320   3.810   3.669
 9533SOL    HW229499   1.177   3.879   3.628
 9534SOL     OW29500   4.447   5.951   4.353
 9534SOL    HW129501   4.387   5.871   4.355
 9534SOL    HW229502   4.396   6.032   4.382
 9535SOL     OW29503   0.390   1.452   4.471
 9535SOL    HW129504   0.403   1.391   4.549
 9535SOL    HW229505   0.407   1.403   4.386
 9536SOL     OW29506   3.633   3.628   5.652
 9536SOL    HW129507   3.540   3.644   5.683
 9536SOL    HW229508   3.631   3.574   5.567
 9537SOL     OW29509   6.952   1.188   4.093
 9537SOL    HW129510   6.880   1.120   4.078
 9537SOL    HW229511   6.911   1.279   4.103
 9538SOL     OW29512   5.609   0.357   4.994
 9538SOL    HW129513   5.681   0.341   5.062
 9538SOL    HW229514   5.646   0.345   4.902
 9539SOL     OW29515   3.704   4.037   2.737
 9539SOL    HW129516   3.795   4.015   2.771
 9539SOL    HW229517   3.711   4.084   2.649
 9540SOL     OW29518   4.242   4.795   3.541
 9540SOL    HW129519   4.144   4.814   3.533
 9540SOL    HW229520   4.294   4.875   3.510
 9541SOL     OW29521   1.341   5.825   5.721
 9541SOL    HW129522   1.277   5.749   5.720
 9541SOL    HW229523   1.327   5.882   5.639
 9542SOL     OW29524   6.249   4.098   2.996
 9542SOL    HW129525   6.221   4.191   2.971
 9542SOL    HW229526   6.186   4.032   2.955
 9543SOL     OW29527   2.510   0.634   5.934
 9543SOL    HW129528   2.602   0.623   5.970
 9543SOL    HW229529   2.498   0.727   5.900
 9544SOL     OW29530   6.180   3.431   4.417
 9544SOL    HW129531   6.202   3.339   4.451
 9544SOL    HW229532   6.082   3.448   4.429
 9545SOL     OW29533   6.617   4.230   2.135
 9545SOL    HW129534   6.616   4.325   2.167
 9545SOL    HW229535   6.568   4.172   2.201
 9546SOL     OW29536   2.837   2.856   1.185
 9546SOL    HW129537   2.775   2.880   1.259
 9546SOL    HW229538   2.796   2.879   1.097
 9547SOL     OW29539   4.090   0.391   3.636
 9547SOL    HW129540   4.172   0.420   3.588
 9547SOL    HW229541   4.067   0.459   3.706
 9548SOL     OW29542   0.816   5.336   6.206
 9548SOL    HW129543   0.883   5.400   6.168
 9548SOL    HW229544   0.799   5.360   6.302
 9549SOL     OW29545   3.856   1.643   1.645
 9549SOL    HW129546   3.914   1.589   1.706
 9549SOL    HW229547   3.831   1.729   1.691
 9550SOL     OW29548   6.691   2.511   1.649
 9550SOL    HW129549   6.679   2.474   1.741
 9550SOL    HW229550   6.785   2.544   1.639
 9551SOL     OW29551   5.856   2.836   6.689
 9551SOL    HW129552   5.807   2.808   6.772
 9551SOL    HW229553   5.949   2.800   6.691
 9552SOL     OW29554   2.888   1.653   0.220
 9552SOL    HW129555   2.792   1.629   0.234
 9552SOL    HW229556   2.933   1.581   0.167
 9553SOL     OW29557   5.688   1.469   0.209
 9553SOL    HW129558   5.641   1.482   0.296
 9553SOL    HW229559   5.723   1.558   0.177
 9554SOL     OW29560   2.906   1.054   4.377
 9554SOL    HW129561   2.812   1.022   4.390
 9554SOL    HW229562   2.906   1.142   4.330
 9555SOL     OW29563   0.074   6.173   3.504
 9555SOL    HW129564   7.017   6.148   3.450
 9555SOL    HW229565   0.105   6.264   3.477
 9556SOL     OW29566   2.362   4.561   6.317
 9556SOL    HW129567   2.442   4.578   6.259
 9556SOL    HW229568   2.289   4.624   6.292
 9557SOL     OW29569   5.760   0.763   1.206
 9557SOL    HW129570   5.789   0.798   1.296
 9557SOL    HW229571   5.767   0.663   1.205
 9558SOL     OW29572   4.942   6.191   6.321
 9558SOL    HW129573   5.035   6.162   6.347
 9558SOL    HW229574   4.946   6.280   6.277
 9559SOL     OW29575   2.261   4.951   0.028
 9559SOL    HW129576   2.310   4.930   0.112
 9559SOL    HW229577   2.287   5.042   7.019
 9560SOL     OW29578   2.545   0.127   2.663
 9560SOL    HW129579   2.606   0.148   2.740
 9560SOL    HW229580   2.564   0.190   2.587
 9561SOL     OW29581   7.015   0.594   6.876
 9561SOL    HW129582   0.066   0.650   6.913
 9561SOL    HW229583   0.027   0.504   6.851
 9562SOL     OW29584   1.785   5.936   2.781
 9562SOL    HW129585   1.833   5.965   2.864
 9562SOL    HW229586   1.769   5.838   2.785
 9563SOL     OW29587   1.304   6.060   6.438
 9563SOL    HW129588   1.386   6.062   6.381
 9563SOL    HW229589   1.235   6.123   6.400
 9564SOL     OW29590   1.586   1.215   0.767
 9564SOL    HW129591   1.519   1.224   0.693
 9564SOL    HW229592   1.673   1.184   0.729
 9565SOL     OW29593   2.689   1.861   4.616
 9565SOL    HW129594   2.644   1.893   4.532
 9565SOL    HW229595   2.721   1.767   4.603
 9566SOL     OW29596   3.179   0.113   0.172
 9566SOL    HW129597   3.109   0.061   0.123
 9566SOL    HW229598   3.172   0.093   0.270
 9567SOL     OW29599   0.146   4.410   1.097
 9567SOL    HW129600   0.096   4.415   1.010
 9567SOL    HW229601   0.231   4.359   1.083
 9568SOL     OW29602   4.467   1.851   6.109
 9568SOL    HW129603   4.395   1.879   6.173
 9568SOL    HW229604   4.536   1.798   6.158
 9569SOL     OW29605   5.639   6.939   2.231
 9569SOL    HW129606   5.638   6.954   2.132
 9569SOL    HW229607   5.555   6.890   2.258
 9570SOL     OW29608   0.933   3.564   1.697
 9570SOL    HW129609   0.967   3.485   1.647
 9570SOL    HW229610   1.004   3.634   1.704
 9571SOL     OW29611   1.449   1.370   6.630
 9571SOL    HW129612   1.529   1.330   6.585
 9571SOL    HW229613   1.366   1.345   6.579
 9572SOL     OW29614   1.986   4.754   4.050
 9572SOL    HW129615   1.977   4.709   3.961
 9572SOL    HW229616   1.929   4.836   4.052
 9573SOL     OW29617   5.964   0.127   4.319
 9573SOL    HW129618   6.061   0.136   4.295
 9573SOL    HW229619   5.934   0.209   4.368
 9574SOL     OW29620   4.489   2.976   0.293
 9574SOL    HW129621   4.506   2.957   0.390
 9574SOL    HW229622   4.560   3.037   0.258
 9575SOL     OW29623   5.401   6.856   2.302
 9575SOL    HW129624   5.314   6.807   2.314
 9575SOL    HW229625   5.382   6.951   2.278
 9576SOL     OW29626   1.280   1.271   6.402
 9576SOL    HW129627   1.234   1.304   6.484
 9576SOL    HW229628   1.218   1.276   6.324
 9577SOL     OW29629   6.447   4.770   3.471
 9577SOL    HW129630   6.496   4.708   3.409
 9577SOL    HW229631   6.511   4.805   3.540
 9578SOL     OW29632   1.760   3.379   2.355
 9578SOL    HW129633   1.806   3.292   2.338
 9578SOL    HW229634   1.804   3.451   2.302
 9579SOL     OW29635   6.251   5.918   2.499
 9579SOL    HW129636   6.322   5.859   2.538
 9579SOL    HW229637   6.248   6.004   2.550
 9580SOL     OW29638   4.859   4.161   3.372
 9580SOL    HW129639   4.805   4.242   3.397
 9580SOL    HW229640   4.825   4.081   3.420
 9581SOL     OW29641   5.438   2.013   6.366
 9581SOL    HW129642   5.480   2.035   6.454
 9581SOL    HW229643   5.442   2.094   6.307
 9582SOL     OW29644   4.919   6.776   4.598
 9582SOL    HW129645   4.972   6.696   4.570
 9582SOL    HW229646   4.970   6.829   4.666
 9583SOL     OW29647   3.436   4.752   1.628
 9583SOL    HW129648   3.416   4.838   1.675
 9583SOL    HW229649   3.453   4.680   1.695
 9584SOL     OW29650   2.424   5.162   4.229
 9584SOL    HW129651   2.443   5.064   4.230
 9584SOL    HW229652   2.473   5.206   4.304
 9585SOL     OW29653   4.657   6.703   0.784
 9585SOL    HW129654   4.601   6.780   0.813
 9585SOL    HW229655   4.656   6.632   0.854
 9586SOL     OW29656   3.078   5.364   2.752
 9586SOL    HW129657   3.140   5.292   2.781
 9586SOL    HW229658   3.040   5.410   2.832
 9587SOL     OW29659   3.382   6.462   0.568
 9587SOL    HW129660   3.285   6.465   0.591
 9587SOL    HW229661   3.395   6.498   0.476
 9588SOL     OW29662   6.644   6.157   6.999
 9588SOL    HW129663   6.644   6.066   0.016
 9588SOL    HW229664   6.728   6.205   0.002
 9589SOL     OW29665   1.666   2.118   6.405
 9589SOL    HW129666   1.735   2.114   6.332
 9589SOL    HW229667   1.585   2.166   6.370
 9590SOL     OW29668   6.365   0.518   1.156
 9590SOL    HW129669   6.311   0.542   1.237
 9590SOL    HW229670   6.436   0.453   1.182
 9591SOL     OW29671   5.290   1.171   0.631
 9591SOL    HW129672   5.316   1.198   0.538
 9591SOL    HW229673   5.327   1.080   0.651
 9592SOL     OW29674   2.485   6.179   5.565
 9592SOL    HW129675   2.535   6.152   5.648
 9592SOL    HW229676   2.503   6.113   5.492
 9593SOL     OW29677   2.263   2.459   4.193
 9593SOL    HW129678   2.191   2.512   4.147
 9593SOL    HW229679   2.227   2.423   4.279
 9594SOL     OW29680   0.135   6.476   3.440
 9594SOL    HW129681   0.098   6.559   3.400
 9594SOL    HW229682   0.213   6.444   3.386
 9595SOL     OW29683   0.439   3.547   3.725
 9595SOL    HW129684   0.359   3.540   3.666
 9595SOL    HW229685   0.442   3.467   3.786
 9596SOL     OW29686   1.436   6.865   0.709
 9596SOL    HW129687   1.390   6.810   0.778
 9596SOL    HW229688   1.533   6.843   0.707
 9597SOL     OW29689   1.223   3.507   1.883
 9597SOL    HW129690   1.212   3.499   1.784
 9597SOL    HW229691   1.311   3.551   1.903
 9598SOL     OW29692   2.192   4.148   4.299
 9598SOL    HW129693   2.114   4.208   4.317
 9598SOL    HW229694   2.264   4.200   4.251
 9599SOL     OW29695   4.556   0.055   4.554
 9599SOL    HW129696   4.558   0.148   4.591
 9599SOL    HW229697   4.585   0.057   4.459
 9600SOL     OW29698   3.961   1.158   1.231
 9600SOL    HW129699   3.919   1.088   1.173
 9600SOL    HW229700   3.987   1.117   1.319
 9601SOL     OW29701   1.099   3.448   0.622
 9601SOL    HW129702   1.100   3.513   0.697
 9601SOL    HW229703   1.173   3.468   0.558
 9602SOL     OW29704   4.250   4.462   5.521
 9602SOL    HW129705   4.229   4.403   5.600
 9602SOL    HW229706   4.262   4.405   5.440
 9603SOL     OW29707   4.959   7.010   5.527
 9603SOL    HW129708   5.019   7.016   5.606
 9603SOL    HW229709   4.865   0.009   5.555
 9604SOL     OW29710   4.575   6.860   1.470
 9604SOL    HW129711   4.540   6.954   1.465
 9604SOL    HW229712   4.516   6.800   1.416
 9605SOL     OW29713   5.305   5.401   1.585
 9605SOL    HW129714   5.363   5.331   1.627
 9605SOL    HW229715   5.271   5.368   1.497
 9606SOL     OW29716   0.920   1.318   6.644
 9606SOL    HW129717   0.856   1.261   6.592
 9606SOL    HW229718   0.876   1.405   6.666
 9607SOL     OW29719   1.730   2.329   6.643
 9607SOL    HW129720   1.646   2.378   6.666
 9607SOL    HW229721   1.712   2.265   6.568
 9608SOL     OW29722   5.988   2.417   4.749
 9608SOL    HW129723   5.892   2.389   4.748
 9608SOL    HW229724   5.995   2.513   4.774
 9609SOL     OW29725   4.917   2.995   0.429
 9609SOL    HW129726   4.895   3.090   0.410
 9609SOL    HW229727   4.836   2.948   0.463
 9610SOL     OW29728   1.034   4.618   2.661
 9610SOL    HW129729   1.092   4.699   2.652
 9610SOL    HW229730   1.091   4.537   2.673
 9611SOL     OW29731   2.086   0.824   0.359
 9611SOL    HW129732   2.104   0.743   0.304
 9611SOL    HW229733   2.088   0.800   0.456
 9612SOL     OW29734   0.364   2.097   3.636
 9612SOL    HW129735   0.349   2.167   3.568
 9612SOL    HW229736   0.290   2.098   3.703
 9613SOL     OW29737   6.337   4.610   3.739
 9613SOL    HW129738   6.258   4.658   3.703
 9613SOL    HW229739   6.370   4.544   3.671
 9614SOL     OW29740   4.541   2.210   3.005
 9614SOL    HW129741   4.593   2.251   3.079
 9614SOL    HW229742   4.467   2.273   2.977
 9615SOL     OW29743   1.904   4.370   1.703
 9615SOL    HW129744   1.860   4.349   1.615
 9615SOL    HW229745   1.979   4.306   1.719
 9616SOL     OW29746   4.244   3.472   6.298
 9616SOL    HW129747   4.160   3.506   6.256
 9616SOL    HW229748   4.244   3.372   6.297
 9617SOL     OW29749   1.674   3.300   2.623
 9617SOL    HW129750   1.680   3.355   2.540
 9617SOL    HW229751   1.722   3.213   2.609
 9618SOL     OW29752   2.538   2.078   0.414
 9618SOL    HW129753   2.625   2.123   0.392
 9618SOL    HW229754   2.512   2.100   0.508
 9619SOL     OW29755   2.388   0.480   6.844
 9619SOL    HW129756   2.414   0.387   6.818
 9619SOL    HW229757   2.369   0.533   6.763
 9620SOL     OW29758   5.240   0.677   5.164
 9620SOL    HW129759   5.183   0.665   5.245
 9620SOL    HW229760   5.335   0.690   5.191
 9621SOL     OW29761   1.743   3.770   3.084
 9621SOL    HW129762   1.809   3.819   3.140
 9621SOL    HW229763   1.791   3.702   3.028
 9622SOL     OW29764   4.853   0.205   0.287
 9622SOL    HW129765   4.937   0.179   0.239
 9622SOL    HW229766   4.852   0.304   0.301
 9623SOL     OW29767   2.252   4.024   6.920
 9623SOL    HW129768   2.215   4.066   6.837
 9623SOL    HW229769   2.212   3.934   6.932
 9624SOL     OW29770   6.466   2.815   4.045
 9624SOL    HW129771   6.392   2.875   4.014
 9624SOL    HW229772   6.461   2.803   4.144
 9625SOL     OW29773   5.717   6.239   1.407
 9625SOL    HW129774   5.814   6.216   1.397
 9625SOL    HW229775   5.680   6.192   1.487
 9626SOL     OW29776   3.445   0.286   0.614
 9626SOL    HW129777   3.541   0.268   0.638
 9626SOL    HW229778   3.436   0.380   0.582
 9627SOL     OW29779   0.781   0.291   6.948
 9627SOL    HW129780   0.808   0.210   6.897
 9627SOL    HW229781   0.857   0.356   6.952
 9628SOL     OW29782   3.106   6.938   1.890
 9628SOL    HW129783   3.107   6.957   1.988
 9628SOL    HW229784   3.062   7.013   1.842
 9629SOL     OW29785   2.468   0.151   1.188
 9629SOL    HW129786   2.524   0.189   1.114
 9629SOL    HW229787   2.458   0.053   1.175
 9630SOL     OW29788   6.782   2.246   6.449
 9630SOL    HW129789   6.789   2.173   6.381
 9630SOL    HW229790   6.713   2.222   6.517
 9631SOL     OW29791   6.827   6.292   0.127
 9631SOL    HW129792   6.919   6.273   0.162
 9631SOL    HW229793   6.782   6.359   0.186
 9632SOL     OW29794   1.159   5.575   2.645
 9632SOL    HW129795   1.064   5.603   2.662
 9632SOL    HW229796   1.161   5.478   2.622
 9633SOL     OW29797   6.922   5.323   6.429
 9633SOL    HW129798   6.891   5.292   6.339
 9633SOL    HW229799   6.962   5.246   6.479
 9634SOL     OW29800   0.658   5.990   5.975
 9634SOL    HW129801   0.616   6.079   5.956
 9634SOL    HW229802   0.723   6.000   6.050
 9635SOL     OW29803   0.114   6.296   5.292
 9635SOL    HW129804   0.187   6.279   5.225
 9635SOL    HW229805   0.077   6.209   5.323
 9636SOL     OW29806   4.204   1.810   0.145
 9636SOL    HW129807   4.186   1.783   0.240
 9636SOL    HW229808   4.298   1.787   0.121
 9637SOL     OW29809   2.419   0.672   6.243
 9637SOL    HW129810   2.423   0.742   6.171
 9637SOL    HW229811   2.324   0.645   6.258
 9638SOL     OW29812   6.823   2.513   6.915
 9638SOL    HW129813   6.756   2.581   6.886
 9638SOL    HW229814   6.793   2.422   6.886
 9639SOL     OW29815   3.392   0.207   2.518
 9639SOL    HW129816   3.422   0.298   2.545
 9639SOL    HW229817   3.467   0.142   2.530
 9640SOL     OW29818   0.894   1.174   2.771
 9640SOL    HW129819   0.981   1.194   2.816
 9640SOL    HW229820   0.887   1.075   2.753
 9641SOL     OW29821   5.486   5.956   6.377
 9641SOL    HW129822   5.409   5.892   6.377
 9641SOL    HW229823   5.511   5.978   6.472
 9642SOL     OW29824   3.490   6.776   3.710
 9642SOL    HW129825   3.558   6.813   3.774
 9642SOL    HW229826   3.470   6.843   3.639
 9643SOL     OW29827   4.224   4.674   3.008
 9643SOL    HW129828   4.303   4.732   2.988
 9643SOL    HW229829   4.184   4.701   3.095
 9644SOL     OW29830   2.902   1.275   0.474
 9644SOL    HW129831   2.987   1.325   0.492
 9644SOL    HW229832   2.916   1.178   0.492
 9645SOL     OW29833   2.555   5.321   4.731
 9645SOL    HW129834   2.639   5.297   4.778
 9645SOL    HW229835   2.477   5.277   4.775
 9646SOL     OW29836   3.745   5.416   4.143
 9646SOL    HW129837   3.803   5.452   4.216
 9646SOL    HW229838   3.721   5.321   4.163
 9647SOL     OW29839   6.604   3.161   6.107
 9647SOL    HW129840   6.549   3.132   6.029
 9647SOL    HW229841   6.701   3.155   6.085
 9648SOL     OW29842   4.335   3.828   0.957
 9648SOL    HW129843   4.325   3.891   0.880
 9648SOL    HW229844   4.383   3.874   1.032
 9649SOL     OW29845   2.344   5.340   2.055
 9649SOL    HW129846   2.421   5.346   2.118
 9649SOL    HW229847   2.258   5.338   2.106
 9650SOL     OW29848   1.482   0.525   1.203
 9650SOL    HW129849   1.415   0.589   1.239
 9650SOL    HW229850   1.506   0.458   1.272
 9651SOL     OW29851   0.399   1.855   6.952
 9651SOL    HW129852   0.439   1.774   6.994
 9651SOL    HW229853   0.345   1.829   6.872
 9652SOL     OW29854   1.055   4.854   1.556
 9652SOL    HW129855   1.111   4.861   1.639
 9652SOL    HW229856   0.996   4.773   1.563
 9653SOL     OW29857   5.772   6.181   4.492
 9653SOL    HW129858   5.788   6.146   4.585
 9653SOL    HW229859   5.843   6.249   4.470
 9654SOL     OW29860   2.091   3.294   2.522
 9654SOL    HW129861   2.164   3.249   2.470
 9654SOL    HW229862   2.132   3.358   2.587
 9655SOL     OW29863   5.983   2.104   6.875
 9655SOL    HW129864   6.014   2.014   6.908
 9655SOL    HW229865   6.048   2.174   6.905
 9656SOL     OW29866   2.512   1.866   3.299
 9656SOL    HW129867   2.583   1.805   3.263
 9656SOL    HW229868   2.507   1.948   3.242
 9657SOL     OW29869   0.016   0.712   4.851
 9657SOL    HW129870   6.953   0.718   4.803
 9657SOL    HW229871   0.068   0.633   4.819
 9658SOL     OW29872   5.881   1.729   2.805
 9658SOL    HW129873   5.943   1.808   2.808
 9658SOL    HW229874   5.933   1.645   2.814
 9659SOL     OW29875   1.158   5.074   6.918
 9659SOL    HW129876   1.218   5.154   6.916
 9659SOL    HW229877   1.209   4.994   6.885
 9660SOL     OW29878   0.932   5.426   0.261
 9660SOL    HW129879   0.896   5.364   0.192
 9660SOL    HW229880   1.018   5.390   0.297
 9661SOL     OW29881   4.055   0.599   0.588
 9661SOL    HW129882   4.113   0.649   0.652
 9661SOL    HW229883   4.102   0.590   0.500
 9662SOL     OW29884   5.737   1.764   4.333
 9662SOL    HW129885   5.717   1.850   4.381
 9662SOL    HW229886   5.811   1.780   4.268
 9663SOL     OW29887   2.245   5.789   3.135
 9663SOL    HW129888   2.283   5.741   3.214
 9663SOL    HW229889   2.153   5.821   3.156
 9664SOL     OW29890   2.610   5.913   1.534
 9664SOL    HW129891   2.599   5.971   1.454
 9664SOL    HW229892   2.576   5.821   1.514
 9665SOL     OW29893   5.296   4.351   3.602
 9665SOL    HW129894   5.273   4.430   3.658
 9665SOL    HW229895   5.212   4.301   3.579
 9666SOL     OW29896   5.651   4.820   4.578
 9666SOL    HW129897   5.694   4.786   4.494
 9666SOL    HW229898   5.700   4.901   4.610
 9667SOL     OW29899   2.956   3.276   3.834
 9667SOL    HW129900   2.933   3.229   3.749
 9667SOL    HW229901   2.929   3.220   3.912
 9668SOL     OW29902   0.062   1.687   5.394
 9668SOL    HW129903   7.003   1.648   5.353
 9668SOL    HW229904   0.047   1.785   5.411
 9669SOL     OW29905   1.684   6.446   0.267
 9669SOL    HW129906   1.634   6.449   0.181
 9669SOL    HW229907   1.687   6.538   0.307
 9670SOL     OW29908   5.877   4.315   6.498
 9670SOL    HW129909   5.883   4.275   6.590
 9670SOL    HW229910   5.823   4.399   6.502
 9671SOL     OW29911   6.890   0.869   0.002
 9671SOL    HW129912   6.866   0.845   0.097
 9671SOL    HW229913   6.973   0.819   6.999
 9672SOL     OW29914   1.164   6.320   5.434
 9672SOL    HW129915   1.256   6.342   5.401
 9672SOL    HW229916   1.143   6.377   5.514
 9673SOL     OW29917   2.254   2.617   6.427
 9673SOL    HW129918   2.209   2.588   6.342
 9673SOL    HW229919   2.334   2.673   6.405
 9674SOL     OW29920   2.649   6.572   2.401
 9674SOL    HW129921   2.584   6.633   2.445
 9674SOL    HW229922   2.612   6.479   2.401
 9675SOL     OW29923   0.234   2.109   2.756
 9675SOL    HW129924   0.268   2.193   2.715
 9675SOL    HW229925   0.225   2.039   2.684
 9676SOL     OW29926   6.863   2.329   4.522
 9676SOL    HW129927   6.836   2.248   4.574
 9676SOL    HW229928   6.796   2.345   4.450
 9677SOL     OW29929   1.644   3.217   5.785
 9677SOL    HW129930   1.729   3.251   5.827
 9677SOL    HW229931   1.566   3.258   5.831
 9678SOL     OW29932   3.455   3.677   3.273
 9678SOL    HW129933   3.554   3.682   3.263
 9678SOL    HW229934   3.412   3.736   3.205
 9679SOL     OW29935   0.851   3.998   0.910
 9679SOL    HW129936   0.808   3.940   0.979
 9679SOL    HW229937   0.784   4.021   0.839
 9680SOL     OW29938   4.813   5.014   2.822
 9680SOL    HW129939   4.745   5.059   2.879
 9680SOL    HW229940   4.786   5.022   2.726
 9681SOL     OW29941   0.812   0.775   4.456
 9681SOL    HW129942   0.820   0.739   4.548
 9681SOL    HW229943   0.740   0.727   4.407
 9682SOL     OW29944   0.479   4.338   2.741
 9682SOL    HW129945   0.549   4.276   2.705
 9682SOL    HW229946   0.466   4.414   2.677
 9683SOL     OW29947   4.666   6.893   5.375
 9683SOL    HW129948   4.734   6.948   5.326
 9683SOL    HW229949   4.682   6.796   5.357
 9684SOL     OW29950   0.903   4.344   3.762
 9684SOL    HW129951   0.821   4.323   3.814
 9684SOL    HW229952   0.952   4.259   3.742
 9685SOL     OW29953   2.258   1.753   6.611
 9685SOL    HW129954   2.300   1.816   6.547
 9685SOL    HW229955   2.211   1.680   6.560
 9686SOL     OW29956   5.649   2.884   1.954
 9686SOL    HW129957   5.618   2.847   1.867
 9686SOL    HW229958   5.608   2.832   2.029
 9687SOL     OW29959   3.430   1.112   4.329
 9687SOL    HW129960   3.429   1.013   4.320
 9687SOL    HW229961   3.403   1.137   4.422
 9688SOL     OW29962   5.964   1.688   4.462
 9688SOL    HW129963   5.930   1.704   4.555
 9688SOL    HW229964   5.888   1.696   4.397
 9689SOL     OW29965   2.522   5.236   5.286
 9689SOL    HW129966   2.563   5.145   5.294
 9689SOL    HW229967   2.441   5.231   5.228
 9690SOL     OW29968   6.480   3.865   0.497
 9690SOL    HW129969   6.429   3.779   0.490
 9690SOL    HW229970   6.468   3.903   0.589
 9691SOL     OW29971   1.625   4.607   0.612
 9691SOL    HW129972   1.698   4.650   0.559
 9691SOL    HW229973   1.649   4.512   0.632
 9692SOL     OW29974   2.888   5.308   0.584
 9692SOL    HW129975   2.955   5.312   0.659
 9692SOL    HW229976   2.822   5.382   0.595
 9693SOL     OW29977   6.063   5.911   1.775
 9693SOL    HW129978   6.162   5.903   1.776
 9693SOL    HW229979   6.032   5.944   1.686
 9694SOL     OW29980   1.069   1.567   0.652
 9694SOL    HW129981   1.103   1.634   0.586
 9694SOL    HW229982   0.973   1.585   0.671
 9695SOL     OW29983   6.758   4.697   0.281
 9695SOL    HW129984   6.795   4.787   0.302
 9695SOL    HW229985   6.833   4.636   0.253
 9696SOL     OW29986   3.841   4.321   0.209
 9696SOL    HW129987   3.755   4.271   0.194
 9696SOL    HW229988   3.824   4.419   0.196
 9697SOL     OW29989   0.216   6.146   6.284
 9697SOL    HW129990   0.301   6.120   6.330
 9697SOL    HW229991   0.140   6.138   6.348
 9698SOL     OW29992   4.910   1.206   5.282
 9698SOL    HW129993   4.875   1.299   5.293
 9698SOL    HW229994   4.837   1.147   5.248
 9699SOL     OW29995   1.568   2.509   6.395
 9699SOL    HW129996   1.499   2.535   6.463
 9699SOL    HW229997   1.654   2.558   6.416
 9700SOL     OW29998   4.045   3.467   3.297
 9700SOL    HW129999   4.101   3.538   3.254
 9700SOL    HW230000   4.048   3.478   3.396
 9701SOL     OW30001   4.519   4.653   4.295
 9701SOL    HW130002   4.566   4.582   4.347
 9701SOL    HW230003   4.512   4.625   4.199
 9702SOL     OW30004   5.441   0.368   1.087
 9702SOL    HW130005   5.499   0.392   1.009
 9702SOL    HW230006   5.388   0.447   1.116
 9703SOL     OW30007   2.245   5.823   4.141
 9703SOL    HW130008   2.255   5.767   4.223
 9703SOL    HW230009   2.328   5.877   4.128
 9704SOL     OW30010   2.163   1.254   3.854
 9704SOL    HW130011   2.173   1.348   3.820
 9704SOL    HW230012   2.099   1.204   3.796
 9705SOL     OW30013   3.690   4.006   0.670
 9705SOL    HW130014   3.676   4.042   0.762
 9705SOL    HW230015   3.607   3.958   0.640
 9706SOL     OW30016   6.833   2.510   3.854
 9706SOL    HW130017   6.922   2.544   3.824
 9706SOL    HW230018   6.841   2.413   3.879
 9707SOL     OW30019   2.589   5.599   2.163
 9707SOL    HW130020   2.676   5.647   2.168
 9707SOL    HW230021   2.605   5.501   2.163
 9708SOL     OW30022   1.947   1.935   1.819
 9708SOL    HW130023   2.007   1.898   1.891
 9708SOL    HW230024   1.897   1.860   1.776
 9709SOL     OW30025   1.545   6.423   3.544
 9709SOL    HW130026   1.540   6.421   3.644
 9709SOL    HW230027   1.587   6.339   3.511
 9710SOL     OW30028   1.014   6.951   4.126
 9710SOL    HW130029   1.024   6.917   4.033
 9710SOL    HW230030   1.063   0.015   4.136
 9711SOL     OW30031   1.526   3.286   6.418
 9711SOL    HW130032   1.596   3.250   6.357
 9711SOL    HW230033   1.435   3.270   6.378
 9712SOL     OW30034   4.877   3.653   4.714
 9712SOL    HW130035   4.848   3.636   4.808
 9712SOL    HW230036   4.930   3.574   4.682
 9713SOL     OW30037   6.935   4.826   3.025
 9713SOL    HW130038   6.835   4.823   3.028
 9713SOL    HW230039   6.971   4.734   3.038
 9714SOL     OW30040   2.082   1.839   2.460
 9714SOL    HW130041   2.021   1.833   2.381
 9714SOL    HW230042   2.170   1.877   2.430
 9715SOL     OW30043   5.916   5.697   6.010
 9715SOL    HW130044   5.830   5.727   5.969
 9715SOL    HW230045   5.902   5.608   6.054
 9716SOL     OW30046   3.169   1.207   6.006
 9716SOL    HW130047   3.147   1.151   6.086
 9716SOL    HW230048   3.120   1.294   6.012
 9717SOL     OW30049   5.502   5.111   3.176
 9717SOL    HW130050   5.594   5.127   3.210
 9717SOL    HW230051   5.461   5.199   3.150
 9718SOL     OW30052   5.099   2.784   1.683
 9718SOL    HW130053   5.033   2.835   1.627
 9718SOL    HW230054   5.064   2.778   1.777
 9719SOL     OW30055   7.001   1.315   0.081
 9719SOL    HW130056   0.073   1.300   0.110
 9719SOL    HW230057   6.985   1.413   0.070
 9720SOL     OW30058   0.665   0.260   0.624
 9720SOL    HW130059   0.656   0.194   0.699
 9720SOL    HW230060   0.631   0.349   0.654
 9721SOL     OW30061   0.337   2.464   3.269
 9721SOL    HW130062   0.325   2.440   3.365
 9721SOL    HW230063   0.253   2.507   3.235
 9722SOL     OW30064   0.337   0.229   4.520
 9722SOL    HW130065   0.270   0.219   4.593
 9722SOL    HW230066   0.429   0.219   4.558
 9723SOL     OW30067   6.971   0.093   3.991
 9723SOL    HW130068   6.880   0.085   4.029
 9723SOL    HW230069   7.002   0.003   3.960
 9724SOL     OW30070   4.004   2.711   1.571
 9724SOL    HW130071   3.937   2.720   1.645
 9724SOL    HW230072   3.956   2.702   1.483
 9725SOL     OW30073   3.839   3.064   5.724
 9725SOL    HW130074   3.755   3.112   5.697
 9725SOL    HW230075   3.900   3.127   5.771
 9726SOL     OW30076   5.367   6.101   4.734
 9726SOL    HW130077   5.415   6.182   4.768
 9726SOL    HW230078   5.344   6.041   4.810
 9727SOL     OW30079   1.098   0.348   6.726
 9727SOL    HW130080   1.175   0.393   6.680
 9727SOL    HW230081   1.084   0.257   6.687
 9728SOL     OW30082   3.722   6.103   6.204
 9728SOL    HW130083   3.626   6.076   6.190
 9728SOL    HW230084   3.726   6.199   6.232
 9729SOL     OW30085   3.086   5.245   2.476
 9729SOL    HW130086   3.047   5.187   2.547
 9729SOL    HW230087   3.072   5.203   2.387
 9730SOL     OW30088   5.836   3.692   3.090
 9730SOL    HW130089   5.739   3.717   3.088
 9730SOL    HW230090   5.850   3.619   3.156
 9731SOL     OW30091   5.225   5.283   1.101
 9731SOL    HW130092   5.307   5.259   1.050
 9731SOL    HW230093   5.145   5.277   1.041
 9732SOL     OW30094   4.687   6.647   4.682
 9732SOL    HW130095   4.771   6.694   4.654
 9732SOL    HW230096   4.683   6.643   4.782
 9733SOL     OW30097   5.401   4.618   5.195
 9733SOL    HW130098   5.357   4.600   5.282
 9733SOL    HW230099   5.488   4.567   5.191
 9734SOL     OW30100   6.101   1.686   5.778
 9734SOL    HW130101   6.156   1.615   5.823
 9734SOL    HW230102   6.087   1.662   5.682
 9735SOL     OW30103   3.209   4.611   0.962
 9735SOL    HW130104   3.261   4.645   0.883
 9735SOL    HW230105   3.179   4.518   0.944
 9736SOL     OW30106   2.983   1.738   2.098
 9736SOL    HW130107   2.917   1.778   2.034
 9736SOL    HW230108   2.942   1.658   2.143
 9737SOL     OW30109   4.276   1.864   4.447
 9737SOL    HW130110   4.269   1.771   4.483
 9737SOL    HW230111   4.290   1.861   4.348
 9738SOL     OW30112   2.374   1.226   2.115
 9738SOL    HW130113   2.467   1.188   2.112
 9738SOL    HW230114   2.313   1.160   2.159
 9739SOL     OW30115   5.480   4.439   2.157
 9739SOL    HW130116   5.579   4.438   2.168
 9739SOL    HW230117   5.444   4.347   2.171
 9740SOL     OW30118   6.618   2.595   2.677
 9740SOL    HW130119   6.622   2.694   2.658
 9740SOL    HW230120   6.711   2.559   2.686
 9741SOL     OW30121   3.878   2.004   2.536
 9741SOL    HW130122   3.797   2.011   2.478
 9741SOL    HW230123   3.851   2.002   2.632
 9742SOL     OW30124   4.047   1.488   3.638
 9742SOL    HW130125   4.118   1.466   3.705
 9742SOL    HW230126   3.970   1.426   3.651
 9743SOL     OW30127   1.716   1.132   4.972
 9743SOL    HW130128   1.795   1.187   4.998
 9743SOL    HW230129   1.669   1.100   5.055
 9744SOL     OW30130   2.628   0.147   1.392
 9744SOL    HW130131   2.723   0.161   1.363
 9744SOL    HW230132   2.569   0.150   1.312
 9745SOL     OW30133   0.374   0.764   4.572
 9745SOL    HW130134   0.443   0.831   4.544
 9745SOL    HW230135   0.350   0.778   4.668
 9746SOL     OW30136   6.213   0.466   4.273
 9746SOL    HW130137   6.196   0.546   4.215
 9746SOL    HW230138   6.272   0.492   4.349
 9747SOL     OW30139   0.330   0.115   6.270
 9747SOL    HW130140   0.334   0.214   6.275
 9747SOL    HW230141   0.402   0.081   6.210
 9748SOL     OW30142   1.274   4.021   4.404
 9748SOL    HW130143   1.330   3.999   4.324
 9748SOL    HW230144   1.268   3.941   4.463
 9749SOL     OW30145   0.440   4.897   4.636
 9749SOL    HW130146   0.439   4.836   4.557
 9749SOL    HW230147   0.520   4.958   4.630
 9750SOL     OW30148   2.344   5.743   2.516
 9750SOL    HW130149   2.334   5.701   2.427
 9750SOL    HW230150   2.255   5.775   2.548
 9751SOL     OW30151   1.218   2.516   0.509
 9751SOL    HW130152   1.311   2.525   0.545
 9751SOL    HW230153   1.211   2.564   0.421
 9752SOL     OW30154   3.688   0.051   6.166
 9752SOL    HW130155   3.755   0.063   6.239
 9752SOL    HW230156   3.608   0.109   6.185
 9753SOL     OW30157   6.918   6.720   0.094
 9753SOL    HW130158   6.920   6.661   0.013
 9753SOL    HW230159   6.966   6.676   0.169
 9754SOL     OW30160   0.136   3.225   6.704
 9754SOL    HW130161   0.145   3.303   6.766
 9754SOL    HW230162   0.182   3.146   6.743
 9755SOL     OW30163   3.843   5.777   5.175
 9755SOL    HW130164   3.903   5.742   5.247
 9755SOL    HW230165   3.837   5.709   5.101
 9756SOL     OW30166   5.064   2.789   6.297
 9756SOL    HW130167   5.046   2.775   6.200
 9756SOL    HW230168   5.162   2.783   6.314
 9757SOL     OW30169   6.465   0.988   3.890
 9757SOL    HW130170   6.401   0.954   3.822
 9757SOL    HW230171   6.437   1.079   3.920
 9758SOL     OW30172   3.432   0.959   0.511
 9758SOL    HW130173   3.463   0.924   0.423
 9758SOL    HW230174   3.358   0.902   0.546
 9759SOL     OW30175   2.750   5.854   1.774
 9759SOL    HW130176   2.705   5.873   1.687
 9759SOL    HW230177   2.811   5.775   1.763
 9760SOL     OW30178   5.490   4.214   5.805
 9760SOL    HW130179   5.501   4.306   5.844
 9760SOL    HW230180   5.530   4.212   5.713
 9761SOL     OW30181   5.480   5.317   2.981
 9761SOL    HW130182   5.390   5.358   2.968
 9761SOL    HW230183   5.545   5.359   2.916
 9762SOL     OW30184   3.340   0.401   2.270
 9762SOL    HW130185   3.379   0.330   2.328
 9762SOL    HW230186   3.265   0.363   2.215
 9763SOL     OW30187   2.284   2.109   1.521
 9763SOL    HW130188   2.285   2.009   1.517
 9763SOL    HW230189   2.339   2.140   1.598
 9764SOL     OW30190   0.952   2.699   3.701
 9764SOL    HW130191   1.029   2.716   3.762
 9764SOL    HW230192   0.959   2.607   3.663
 9765SOL     OW30193   0.460   0.380   6.024
 9765SOL    HW130194   0.550   0.415   5.998
 9765SOL    HW230195   0.432   0.419   6.111
 9766SOL     OW30196   2.531   0.788   2.484
 9766SOL    HW130197   2.608   0.730   2.511
 9766SOL    HW230198   2.475   0.809   2.564
 9767SOL     OW30199   4.757   0.618   5.137
 9767SOL    HW130200   4.658   0.620   5.149
 9767SOL    HW230201   4.781   0.569   5.054
 9768SOL     OW30202   4.629   1.873   3.799
 9768SOL    HW130203   4.682   1.864   3.883
 9768SOL    HW230204   4.638   1.966   3.764
 9769SOL     OW30205   0.330   1.934   0.924
 9769SOL    HW130206   0.371   1.944   1.015
 9769SOL    HW230207   0.240   1.891   0.932
 9770SOL     OW30208   0.643   2.681   5.625
 9770SOL    HW130209   0.657   2.586   5.655
 9770SOL    HW230210   0.718   2.738   5.658
 9771SOL     OW30211   2.586   6.161   3.860
 9771SOL    HW130212   2.651   6.142   3.786
 9771SOL    HW230213   2.582   6.259   3.877
 9772SOL     OW30214   5.887   6.651   1.200
 9772SOL    HW130215   5.814   6.583   1.190
 9772SOL    HW230216   5.883   6.717   1.125
 9773SOL     OW30217   4.785   5.595   3.723
 9773SOL    HW130218   4.758   5.665   3.789
 9773SOL    HW230219   4.714   5.525   3.717
 9774SOL     OW30220   0.052   5.100   4.585
 9774SOL    HW130221   0.128   5.087   4.650
 9774SOL    HW230222   0.040   5.018   4.531
 9775SOL     OW30223   2.947   1.532   5.316
 9775SOL    HW130224   2.879   1.493   5.378
 9775SOL    HW230225   2.928   1.502   5.222
 9776SOL     OW30226   0.362   4.676   4.424
 9776SOL    HW130227   0.369   4.586   4.380
 9776SOL    HW230228   0.269   4.691   4.455
 9777SOL     OW30229   5.240   6.167   6.355
 9777SOL    HW130230   5.315   6.208   6.303
 9777SOL    HW230231   5.274   6.088   6.407
 9778SOL     OW30232   3.970   0.692   4.539
 9778SOL    HW130233   3.954   0.790   4.551
 9778SOL    HW230234   3.922   0.641   4.611
 9779SOL     OW30235   3.259   2.445   6.753
 9779SOL    HW130236   3.286   2.363   6.804
 9779SOL    HW230237   3.303   2.444   6.663
 9780SOL     OW30238   2.166   3.649   1.144
 9780SOL    HW130239   2.144   3.605   1.057
 9780SOL    HW230240   2.118   3.602   1.218
 9781SOL     OW30241   1.078   6.864   4.666
 9781SOL    HW130242   1.025   6.848   4.583
 9781SOL    HW230243   1.116   6.777   4.698
 9782SOL     OW30244   6.002   0.044   1.176
 9782SOL    HW130245   5.956   0.018   1.092
 9782SOL    HW230246   5.984   6.998   1.247
 9783SOL     OW30247   6.167   6.796   3.671
 9783SOL    HW130248   6.205   6.727   3.610
 9783SOL    HW230249   6.212   6.789   3.760
 9784SOL     OW30250   5.355   0.285   4.443
 9784SOL    HW130251   5.442   0.314   4.401
 9784SOL    HW230252   5.374   0.241   4.530
 9785SOL     OW30253   0.995   2.416   1.504
 9785SOL    HW130254   1.010   2.514   1.504
 9785SOL    HW230255   1.041   2.375   1.583
 9786SOL     OW30256   2.090   0.101   4.173
 9786SOL    HW130257   2.077   0.189   4.219
 9786SOL    HW230258   2.055   0.028   4.231
 9787SOL     OW30259   5.409   4.421   1.486
 9787SOL    HW130260   5.314   4.440   1.465
 9787SOL    HW230261   5.416   4.334   1.534
 9788SOL     OW30262   6.614   0.450   6.107
 9788SOL    HW130263   6.675   0.508   6.162
 9788SOL    HW230264   6.668   0.399   6.040
 9789SOL     OW30265   1.718   4.293   4.741
 9789SOL    HW130266   1.809   4.329   4.719
 9789SOL    HW230267   1.713   4.196   4.716
 9790SOL     OW30268   0.069   1.371   3.719
 9790SOL    HW130269   0.072   1.309   3.641
 9790SOL    HW230270   0.030   1.458   3.691
 9791SOL     OW30271   1.404   2.823   0.990
 9791SOL    HW130272   1.443   2.732   0.976
 9791SOL    HW230273   1.305   2.816   1.002
 9792SOL     OW30274   3.932   5.691   2.014
 9792SOL    HW130275   3.950   5.776   1.963
 9792SOL    HW230276   4.018   5.641   2.027
 9793SOL     OW30277   5.431   6.279   2.394
 9793SOL    HW130278   5.343   6.312   2.360
 9793SOL    HW230279   5.431   6.285   2.494
 9794SOL     OW30280   3.698   3.110   6.842
 9794SOL    HW130281   3.662   3.202   6.858
 9794SOL    HW230282   3.719   3.066   6.929
 9795SOL     OW30283   1.706   4.772   2.798
 9795SOL    HW130284   1.721   4.817   2.709
 9795SOL    HW230285   1.736   4.833   2.871
 9796SOL     OW30286   3.803   5.060   6.729
 9796SOL    HW130287   3.750   4.985   6.691
 9796SOL    HW230288   3.805   5.053   6.829
 9797SOL     OW30289   5.913   3.133   5.200
 9797SOL    HW130290   5.855   3.062   5.240
 9797SOL    HW230291   6.005   3.125   5.238
 9798SOL     OW30292   2.893   1.508   2.236
 9798SOL    HW130293   2.876   1.458   2.321
 9798SOL    HW230294   2.927   1.445   2.166
 9799SOL     OW30295   3.646   3.688   3.062
 9799SOL    HW130296   3.693   3.604   3.037
 9799SOL    HW230297   3.554   3.689   3.022
 9800SOL     OW30298   3.442   6.656   0.359
 9800SOL    HW130299   3.349   6.671   0.326
 9800SOL    HW230300   3.479   6.742   0.394
 9801SOL     OW30301   5.482   4.954   1.480
 9801SOL    HW130302   5.573   4.924   1.508
 9801SOL    HW230303   5.419   4.877   1.482
 9802SOL     OW30304   0.763   5.550   2.132
 9802SOL    HW130305   0.834   5.607   2.172
 9802SOL    HW230306   0.790   5.454   2.135
 9803SOL     OW30307   5.422   0.072   6.489
 9803SOL    HW130308   5.449   0.057   6.584
 9803SOL    HW230309   5.401   0.168   6.474
 9804SOL     OW30310   4.566   5.259   4.512
 9804SOL    HW130311   4.583   5.196   4.588
 9804SOL    HW230312   4.534   5.347   4.548
 9805SOL     OW30313   3.683   3.794   0.897
 9805SOL    HW130314   3.681   3.844   0.984
 9805SOL    HW230315   3.774   3.753   0.885
 9806SOL     OW30316   6.914   1.542   2.274
 9806SOL    HW130317   7.009   1.548   2.305
 9806SOL    HW230318   6.863   1.479   2.333
 9807SOL     OW30319   2.038   3.061   0.960
 9807SOL    HW130320   2.133   3.037   0.939
 9807SOL    HW230321   1.976   3.000   0.911
 9808SOL     OW30322   2.118   2.370   3.621
 9808SOL    HW130323   2.109   2.382   3.720
 9808SOL    HW230324   2.052   2.428   3.574
 9809SOL     OW30325   0.696   0.396   4.243
 9809SOL    HW130326   0.736   0.439   4.323
 9809SOL    HW230327   0.597   0.412   4.243
 9810SOL     OW30328   4.460   1.801   2.318
 9810SOL    HW130329   4.511   1.740   2.257
 9810SOL    HW230330   4.405   1.747   2.381
 9811SOL     OW30331   1.466   0.862   3.102
 9811SOL    HW130332   1.499   0.945   3.057
 9811SOL    HW230333   1.527   0.838   3.177
 9812SOL     OW30334   5.808   3.356   6.627
 9812SOL    HW130335   5.740   3.386   6.560
 9812SOL    HW230336   5.835   3.262   6.607
 9813SOL     OW30337   6.291   4.853   0.279
 9813SOL    HW130338   6.259   4.797   0.202
 9813SOL    HW230339   6.286   4.800   0.363
 9814SOL     OW30340   6.237   0.938   5.791
 9814SOL    HW130341   6.204   1.028   5.761
 9814SOL    HW230342   6.326   0.948   5.835
 9815SOL     OW30343   0.185   4.796   2.020
 9815SOL    HW130344   0.099   4.814   2.068
 9815SOL    HW230345   0.172   4.809   1.922
 9816SOL     OW30346   6.363   1.741   5.069
 9816SOL    HW130347   6.284   1.712   5.014
 9816SOL    HW230348   6.441   1.680   5.049
 9817SOL     OW30349   2.628   1.147   0.705
 9817SOL    HW130350   2.550   1.206   0.686
 9817SOL    HW230351   2.682   1.185   0.779
 9818SOL     OW30352   0.780   0.286   2.365
 9818SOL    HW130353   0.695   0.279   2.417
 9818SOL    HW230354   0.826   0.197   2.363
 9819SOL     OW30355   5.685   1.417   4.402
 9819SOL    HW130356   5.723   1.508   4.419
 9819SOL    HW230357   5.585   1.422   4.400
 9820SOL     OW30358   3.539   0.366   6.693
 9820SOL    HW130359   3.496   0.367   6.783
 9820SOL    HW230360   3.533   0.457   6.652
 9821SOL     OW30361   4.767   4.029   6.797
 9821SOL    HW130362   4.839   4.093   6.822
 9821SOL    HW230363   4.806   3.953   6.745
 9822SOL     OW30364   3.081   5.417   3.870
 9822SOL    HW130365   3.068   5.413   3.969
 9822SOL    HW230366   3.126   5.503   3.847
 9823SOL     OW30367   4.654   6.099   3.246
 9823SOL    HW130368   4.707   6.020   3.276
 9823SOL    HW230369   4.598   6.073   3.167
 9824SOL     OW30370   1.276   5.536   5.761
 9824SOL    HW130371   1.338   5.492   5.825
 9824SOL    HW230372   1.190   5.485   5.757
 9825SOL     OW30373   0.988   6.324   4.894
 9825SOL    HW130374   1.045   6.246   4.867
 9825SOL    HW230375   1.024   6.363   4.979
 9826SOL     OW30376   1.745   5.940   5.961
 9826SOL    HW130377   1.703   5.850   5.959
 9826SOL    HW230378   1.772   5.963   6.054
 9827SOL     OW30379   1.988   4.741   1.988
 9827SOL    HW130380   1.898   4.782   1.971
 9827SOL    HW230381   2.046   4.755   1.908
 9828SOL     OW30382   5.038   2.224   4.418
 9828SOL    HW130383   5.009   2.318   4.436
 9828SOL    HW230384   4.991   2.190   4.337
 9829SOL     OW30385   5.591   4.378   5.382
 9829SOL    HW130386   5.668   4.325   5.416
 9829SOL    HW230387   5.598   4.389   5.282
 9830SOL     OW30388   6.167   1.311   2.737
 9830SOL    HW130389   6.091   1.297   2.675
 9830SOL    HW230390   6.205   1.223   2.764
 9831SOL     OW30391   0.894   5.170   1.515
 9831SOL    HW130392   0.977   5.136   1.473
 9831SOL    HW230393   0.915   5.204   1.607
 9832SOL     OW30394   5.094   5.646   5.147
 9832SOL    HW130395   5.052   5.604   5.228
 9832SOL    HW230396   5.053   5.606   5.064
 9833SOL     OW30397   3.711   2.891   4.267
 9833SOL    HW130398   3.644   2.844   4.208
 9833SOL    HW230399   3.680   2.887   4.362
 9834SOL     OW30400   3.838   5.846   6.166
 9834SOL    HW130401   3.767   5.915   6.177
 9834SOL    HW230402   3.820   5.791   6.085
 9835SOL     OW30403   3.774   3.325   3.552
 9835SOL    HW130404   3.732   3.409   3.585
 9835SOL    HW230405   3.866   3.315   3.591
 9836SOL     OW30406   6.231   2.828   6.035
 9836SOL    HW130407   6.214   2.777   5.950
 9836SOL    HW230408   6.153   2.817   6.096
 9837SOL     OW30409   6.565   0.803   4.088
 9837SOL    HW130410   6.636   0.848   4.143
 9837SOL    HW230411   6.532   0.867   4.019
 9838SOL     OW30412   0.635   5.969   1.041
 9838SOL    HW130413   0.549   5.977   0.990
 9838SOL    HW230414   0.615   5.943   1.136
 9839SOL     OW30415   4.125   6.346   3.673
 9839SOL    HW130416   4.206   6.351   3.614
 9839SOL    HW230417   4.046   6.321   3.618
 9840SOL     OW30418   6.315   2.278   6.475
 9840SOL    HW130419   6.241   2.244   6.534
 9840SOL    HW230420   6.335   2.374   6.498
 9841SOL     OW30421   0.165   5.729   2.399
 9841SOL    HW130422   0.257   5.720   2.361
 9841SOL    HW230423   0.101   5.675   2.344
 9842SOL     OW30424   3.850   0.282   0.460
 9842SOL    HW130425   3.801   0.290   0.372
 9842SOL    HW230426   3.947   0.297   0.445
 9843SOL     OW30427   0.637   0.134   0.350
 9843SOL    HW130428   0.642   0.144   0.450
 9843SOL    HW230429   0.710   0.188   0.308
 9844SOL     OW30430   5.024   0.946   4.649
 9844SOL    HW130431   5.084   1.009   4.698
 9844SOL    HW230432   5.014   0.861   4.701
 9845SOL     OW30433   1.061   3.515   2.262
 9845SOL    HW130434   1.129   3.449   2.229
 9845SOL    HW230435   0.970   3.473   2.259
 9846SOL     OW30436   5.753   2.282   2.473
 9846SOL    HW130437   5.829   2.274   2.409
 9846SOL    HW230438   5.779   2.342   2.549
 9847SOL     OW30439   4.096   4.365   6.951
 9847SOL    HW130440   4.126   4.273   6.925
 9847SOL    HW230441   4.120   4.382   0.023
 9848SOL     OW30442   3.002   3.726   5.845
 9848SOL    HW130443   3.027   3.809   5.895
 9848SOL    HW230444   2.911   3.737   5.805
 9849SOL     OW30445   1.605   1.983   2.095
 9849SOL    HW130446   1.536   2.046   2.131
 9849SOL    HW230447   1.653   2.025   2.018
 9850SOL     OW30448   1.690   0.794   4.111
 9850SOL    HW130449   1.612   0.814   4.053
 9850SOL    HW230450   1.771   0.840   4.075
 9851SOL     OW30451   3.454   5.425   3.363
 9851SOL    HW130452   3.358   5.452   3.349
 9851SOL    HW230453   3.478   5.438   3.459
 9852SOL     OW30454   2.416   0.264   0.088
 9852SOL    HW130455   2.321   0.236   0.081
 9852SOL    HW230456   2.468   0.227   0.011
 9853SOL     OW30457   0.171   3.504   4.150
 9853SOL    HW130458   0.075   3.531   4.147
 9853SOL    HW230459   0.180   3.410   4.118
 9854SOL     OW30460   6.250   4.255   6.911
 9854SOL    HW130461   6.185   4.183   6.884
 9854SOL    HW230462   6.331   4.250   6.854
 9855SOL     OW30463   1.265   6.088   0.791
 9855SOL    HW130464   1.325   6.011   0.812
 9855SOL    HW230465   1.317   6.173   0.796
 9856SOL     OW30466   4.720   4.533   2.984
 9856SOL    HW130467   4.784   4.473   3.032
 9856SOL    HW230468   4.632   4.533   3.030
 9857SOL     OW30469   5.030   0.321   5.384
 9857SOL    HW130470   4.972   0.401   5.374
 9857SOL    HW230471   5.027   0.289   5.478
 9858SOL     OW30472   0.034   5.120   2.701
 9858SOL    HW130473   0.092   5.049   2.740
 9858SOL    HW230474   0.014   5.189   2.770
 9859SOL     OW30475   0.629   5.324   2.670
 9859SOL    HW130476   0.635   5.241   2.726
 9859SOL    HW230477   0.640   5.301   2.574
 9860SOL     OW30478   1.527   3.246   3.391
 9860SOL    HW130479   1.490   3.324   3.342
 9860SOL    HW230480   1.617   3.222   3.354
 9861SOL     OW30481   3.930   2.191   4.337
 9861SOL    HW130482   3.956   2.101   4.371
 9861SOL    HW230483   3.930   2.191   4.237
 9862SOL     OW30484   1.792   2.679   6.528
 9862SOL    HW130485   1.730   2.672   6.605
 9862SOL    HW230486   1.873   2.623   6.545
 9863SOL     OW30487   3.734   6.096   1.643
 9863SOL    HW130488   3.644   6.138   1.632
 9863SOL    HW230489   3.793   6.157   1.696
 9864SOL     OW30490   2.933   5.511   5.255
 9864SOL    HW130491   2.874   5.578   5.210
 9864SOL    HW230492   2.883   5.468   5.331
 9865SOL     OW30493   2.454   6.100   5.966
 9865SOL    HW130494   2.497   6.014   5.936
 9865SOL    HW230495   2.523   6.172   5.972
 9866SOL     OW30496   6.741   5.607   5.870
 9866SOL    HW130497   6.657   5.636   5.914
 9866SOL    HW230498   6.775   5.682   5.812
 9867SOL     OW30499   4.908   0.800   2.785
 9867SOL    HW130500   4.862   0.744   2.715
 9867SOL    HW230501   4.873   0.894   2.780
 9868SOL     OW30502   2.402   4.382   3.147
 9868SOL    HW130503   2.321   4.341   3.190
 9868SOL    HW230504   2.427   4.328   3.067
 9869SOL     OW30505   5.529   2.095   2.714
 9869SOL    HW130506   5.622   2.133   2.716
 9869SOL    HW230507   5.534   1.996   2.699
 9870SOL     OW30508   1.890   2.870   2.869
 9870SOL    HW130509   1.791   2.856   2.875
 9870SOL    HW230510   1.909   2.944   2.804
 9871SOL     OW30511   5.866   5.418   3.405
 9871SOL    HW130512   5.889   5.382   3.315
 9871SOL    HW230513   5.844   5.342   3.467
 9872SOL     OW30514   0.800   6.230   5.506
 9872SOL    HW130515   0.808   6.210   5.408
 9872SOL    HW230516   0.714   6.278   5.523
 9873SOL     OW30517   0.483   0.521   5.046
 9873SOL    HW130518   0.543   0.479   4.977
 9873SOL    HW230519   0.515   0.613   5.066
 9874SOL     OW30520   6.546   1.618   3.636
 9874SOL    HW130521   6.607   1.664   3.701
 9874SOL    HW230522   6.549   1.519   3.652
 9875SOL     OW30523   6.159   6.145   1.047
 9875SOL    HW130524   6.186   6.062   0.998
 9875SOL    HW230525   6.094   6.122   1.119
 9876SOL     OW30526   0.436   0.356   3.362
 9876SOL    HW130527   0.399   0.358   3.269
 9876SOL    HW230528   0.527   0.315   3.361
 9877SOL     OW30529   1.382   5.841   4.920
 9877SOL    HW130530   1.359   5.909   4.990
 9877SOL    HW230531   1.385   5.750   4.961
 9878SOL     OW30532   4.487   3.601   0.129
 9878SOL    HW130533   4.503   3.549   0.045
 9878SOL    HW230534   4.532   3.555   0.206
 9879SOL     OW30535   5.618   5.539   4.358
 9879SOL    HW130536   5.520   5.533   4.336
 9879SOL    HW230537   5.639   5.475   4.431
 9880SOL     OW30538   2.816   1.019   0.959
 9880SOL    HW130539   2.730   0.980   0.927
 9880SOL    HW230540   2.844   0.974   1.044
 9881SOL     OW30541   6.599   6.732   2.770
 9881SOL    HW130542   6.696   6.736   2.745
 9881SOL    HW230543   6.543   6.759   2.692
 9882SOL     OW30544   3.335   4.136   4.463
 9882SOL    HW130545   3.297   4.131   4.371
 9882SOL    HW230546   3.263   4.114   4.530
 9883SOL     OW30547   1.715   6.208   2.700
 9883SOL    HW130548   1.749   6.114   2.698
 9883SOL    HW230549   1.793   6.271   2.700
 9884SOL     OW30550   3.101   2.529   5.334
 9884SOL    HW130551   3.002   2.541   5.324
 9884SOL    HW230552   3.134   2.464   5.267
 9885SOL     OW30553   5.041   2.244   4.995
 9885SOL    HW130554   5.135   2.274   5.013
 9885SOL    HW230555   5.000   2.302   4.924
 9886SOL     OW30556   2.667   6.458   1.565
 9886SOL    HW130557   2.759   6.470   1.528
 9886SOL    HW230558   2.644   6.535   1.624
 9887SOL     OW30559   3.762   0.935   6.994
 9887SOL    HW130560   3.859   0.919   6.972
 9887SOL    HW230561   3.744   1.033   6.993
 9888SOL     OW30562   6.292   6.620   4.201
 9888SOL    HW130563   6.230   6.561   4.253
 9888SOL    HW230564   6.246   6.705   4.179
 9889SOL     OW30565   6.838   5.890   2.131
 9889SOL    HW130566   6.767   5.947   2.089
 9889SOL    HW230567   6.839   5.800   2.088
 9890SOL     OW30568   1.543   3.062   3.071
 9890SOL    HW130569   1.584   2.979   3.109
 9890SOL    HW230570   1.444   3.053   3.071
 9891SOL     OW30571   3.760   6.962   1.821
 9891SOL    HW130572   3.821   0.015   1.839
 9891SOL    HW230573   3.731   6.920   1.907
 9892SOL     OW30574   1.944   5.865   3.243
 9892SOL    HW130575   1.986   5.850   3.332
 9892SOL    HW230576   1.882   5.789   3.223
 9893SOL     OW30577   5.712   4.687   5.076
 9893SOL    HW130578   5.809   4.709   5.070
 9893SOL    HW230579   5.671   4.689   4.984
 9894SOL     OW30580   4.388   4.020   5.681
 9894SOL    HW130581   4.433   3.984   5.599
 9894SOL    HW230582   4.292   4.041   5.661
 9895SOL     OW30583   4.924   2.215   5.689
 9895SOL    HW130584   4.848   2.241   5.748
 9895SOL    HW230585   4.971   2.135   5.728
 9896SOL     OW30586   4.358   3.902   6.943
 9896SOL    HW130587   4.276   3.861   6.903
 9896SOL    HW230588   4.439   3.862   6.901
 9897SOL     OW30589   1.217   1.406   2.404
 9897SOL    HW130590   1.222   1.500   2.371
 9897SOL    HW230591   1.131   1.392   2.453
 9898SOL     OW30592   0.034   5.429   0.210
 9898SOL    HW130593   0.057   5.526   0.208
 9898SOL    HW230594   6.965   5.418   0.247
 9899SOL     OW30595   4.542   5.841   1.044
 9899SOL    HW130596   4.462   5.895   1.068
 9899SOL    HW230597   4.516   5.768   0.980
 9900SOL     OW30598   1.793   5.652   3.214
 9900SOL    HW130599   1.694   5.666   3.214
 9900SOL    HW230600   1.819   5.593   3.137
 9901SOL     OW30601   3.031   1.532   6.218
 9901SOL    HW130602   3.038   1.474   6.137
 9901SOL    HW230603   2.994   1.621   6.191
 9902SOL     OW30604   4.113   4.291   0.201
 9902SOL    HW130605   4.015   4.284   0.221
 9902SOL    HW230606   4.151   4.200   0.188
 9903SOL     OW30607   2.431   1.211   1.068
 9903SOL    HW130608   2.413   1.134   1.007
 9903SOL    HW230609   2.522   1.247   1.049
 9904SOL     OW30610   6.566   6.522   2.269
 9904SOL    HW130611   6.599   6.612   2.240
 9904SOL    HW230612   6.470   6.529   2.296
 9905SOL     OW30613   2.483   6.715   0.231
 9905SOL    HW130614   2.564   6.760   0.196
 9905SOL    HW230615   2.469   6.628   0.182
 9906SOL     OW30616   3.613   3.670   6.093
 9906SOL    HW130617   3.629   3.634   6.185
 9906SOL    HW230618   3.517   3.695   6.083
 9907SOL     OW30619   0.886   6.440   3.016
 9907SOL    HW130620   0.858   6.531   3.048
 9907SOL    HW230621   0.905   6.382   3.095
 9908SOL     OW30622   6.640   2.990   5.448
 9908SOL    HW130623   6.583   2.996   5.530
 9908SOL    HW230624   6.733   3.021   5.470
 9909SOL     OW30625   2.190   6.085   3.329
 9909SOL    HW130626   2.183   6.139   3.246
 9909SOL    HW230627   2.285   6.060   3.345
 9910SOL     OW30628   1.345   5.465   0.954
 9910SOL    HW130629   1.284   5.533   0.996
 9910SOL    HW230630   1.294   5.381   0.938
 9911SOL     OW30631   3.451   4.923   2.311
 9911SOL    HW130632   3.536   4.892   2.352
 9911SOL    HW230633   3.454   4.908   2.212
 9912SOL     OW30634   5.675   6.750   6.956
 9912SOL    HW130635   5.745   6.747   0.005
 9912SOL    HW230636   5.717   6.780   6.871
 9913SOL     OW30637   6.259   1.783   2.889
 9913SOL    HW130638   6.203   1.845   2.835
 9913SOL    HW230639   6.213   1.694   2.896
 9914SOL     OW30640   1.671   5.191   3.723
 9914SOL    HW130641   1.587   5.153   3.762
 9914SOL    HW230642   1.665   5.193   3.624
 9915SOL     OW30643   6.082   4.932   4.411
 9915SOL    HW130644   6.102   5.029   4.401
 9915SOL    HW230645   6.167   4.879   4.406
 9916SOL     OW30646   1.957   3.399   0.788
 9916SOL    HW130647   1.877   3.388   0.846
 9916SOL    HW230648   1.931   3.440   0.700
 9917SOL     OW30649   1.883   3.657   4.430
 9917SOL    HW130650   1.874   3.707   4.516
 9917SOL    HW230651   1.915   3.564   4.449
 9918SOL     OW30652   2.068   1.966   4.650
 9918SOL    HW130653   2.016   1.975   4.735
 9918SOL    HW230654   2.139   1.896   4.662
 9919SOL     OW30655   0.750   6.159   1.486
 9919SOL    HW130656   0.844   6.141   1.457
 9919SOL    HW230657   0.722   6.251   1.457
 9920SOL     OW30658   2.875   0.656   3.362
 9920SOL    HW130659   2.873   0.725   3.435
 9920SOL    HW230660   2.800   0.672   3.299
 9921SOL     OW30661   4.893   0.581   2.342
 9921SOL    HW130662   4.861   0.656   2.400
 9921SOL    HW230663   4.993   0.579   2.343
 9922SOL     OW30664   6.230   3.040   1.998
 9922SOL    HW130665   6.259   2.956   2.044
 9922SOL    HW230666   6.236   3.028   1.899
 9923SOL     OW30667   5.723   0.121   6.652
 9923SOL    HW130668   5.699   0.218   6.656
 9923SOL    HW230669   5.664   0.069   6.713
 9924SOL     OW30670   5.626   0.337   3.411
 9924SOL    HW130671   5.651   0.261   3.352
 9924SOL    HW230672   5.557   0.394   3.365
 9925SOL     OW30673   3.963   2.173   5.066
 9925SOL    HW130674   4.030   2.240   5.035
 9925SOL    HW230675   3.989   2.140   5.156
 9926SOL     OW30676   2.255   1.046   5.856
 9926SOL    HW130677   2.241   1.037   5.954
 9926SOL    HW230678   2.302   1.131   5.836
 9927SOL     OW30679   1.416   3.719   3.801
 9927SOL    HW130680   1.338   3.717   3.864
 9927SOL    HW230681   1.466   3.633   3.806
 9928SOL     OW30682   6.624   2.955   2.876
 9928SOL    HW130683   6.695   3.011   2.919
 9928SOL    HW230684   6.568   3.011   2.816
 9929SOL     OW30685   1.512   4.993   4.790
 9929SOL    HW130686   1.555   5.081   4.808
 9929SOL    HW230687   1.509   4.940   4.875
 9930SOL     OW30688   0.011   5.578   6.480
 9930SOL    HW130689   6.996   5.494   6.441
 9930SOL    HW230690   0.075   5.619   6.415
 9931SOL     OW30691   2.206   4.452   0.096
 9931SOL    HW130692   2.217   4.494   0.006
 9931SOL    HW230693   2.273   4.380   0.108
 9932SOL     OW30694   2.069   2.413   1.177
 9932SOL    HW130695   2.068   2.314   1.168
 9932SOL    HW230696   2.135   2.440   1.247
 9933SOL     OW30697   1.329   1.886   3.536
 9933SOL    HW130698   1.310   1.881   3.438
 9933SOL    HW230699   1.371   1.975   3.557
 9934SOL     OW30700   5.108   0.367   5.895
 9934SOL    HW130701   5.076   0.460   5.873
 9934SOL    HW230702   5.036   0.301   5.871
 9935SOL     OW30703   3.126   2.838   0.329
 9935SOL    HW130704   3.213   2.886   0.328
 9935SOL    HW230705   3.051   2.903   0.319
 9936SOL     OW30706   4.732   6.126   0.116
 9936SOL    HW130707   4.683   6.212   0.097
 9936SOL    HW230708   4.680   6.050   0.077
 9937SOL     OW30709   1.782   6.881   4.840
 9937SOL    HW130710   1.830   6.805   4.883
 9937SOL    HW230711   1.826   6.903   4.753
 9938SOL     OW30712   0.454   1.596   3.137
 9938SOL    HW130713   0.375   1.620   3.193
 9938SOL    HW230714   0.424   1.539   3.060
 9939SOL     OW30715   2.881   3.777   1.039
 9939SOL    HW130716   2.961   3.723   1.062
 9939SOL    HW230717   2.892   3.816   0.948
 9940SOL     OW30718   6.727   0.930   2.966
 9940SOL    HW130719   6.674   1.000   2.917
 9940SOL    HW230720   6.689   0.918   3.058
 9941SOL     OW30721   5.879   3.669   0.414
 9941SOL    HW130722   5.817   3.724   0.358
 9941SOL    HW230723   5.834   3.642   0.499
 9942SOL     OW30724   6.113   5.444   2.464
 9942SOL    HW130725   6.134   5.525   2.409
 9942SOL    HW230726   6.105   5.470   2.561
 9943SOL     OW30727   1.126   4.778   5.133
 9943SOL    HW130728   1.103   4.713   5.060
 9943SOL    HW230729   1.050   4.783   5.198
 9944SOL     OW30730   2.325   5.625   6.439
 9944SOL    HW130731   2.353   5.530   6.425
 9944SOL    HW230732   2.389   5.671   6.500
 9945SOL     OW30733   6.075   3.117   5.610
 9945SOL    HW130734   6.025   3.049   5.663
 9945SOL    HW230735   6.146   3.158   5.667
 9946SOL     OW30736   5.697   1.775   1.057
 9946SOL    HW130737   5.718   1.841   1.129
 9946SOL    HW230738   5.771   1.775   0.990
 9947SOL     OW30739   0.693   0.252   3.368
 9947SOL    HW130740   0.739   0.176   3.321
 9947SOL    HW230741   0.715   0.338   3.321
 9948SOL     OW30742   4.968   0.773   5.237
 9948SOL    HW130743   4.900   0.699   5.228
 9948SOL    HW230744   4.994   0.806   5.147
 9949SOL     OW30745   6.602   2.864   2.575
 9949SOL    HW130746   6.676   2.910   2.623
 9949SOL    HW230747   6.548   2.931   2.525
 9950SOL     OW30748   5.244   4.861   6.411
 9950SOL    HW130749   5.310   4.926   6.449
 9950SOL    HW230750   5.247   4.865   6.311
 9951SOL     OW30751   6.938   2.005   2.603
 9951SOL    HW130752   7.015   2.049   2.557
 9951SOL    HW230753   6.888   2.072   2.657
 9952SOL     OW30754   1.596   4.779   1.601
 9952SOL    HW130755   1.671   4.844   1.596
 9952SOL    HW230756   1.626   4.697   1.650
 9953SOL     OW30757   5.876   4.615   4.780
 9953SOL    HW130758   5.777   4.625   4.788
 9953SOL    HW230759   5.920   4.641   4.866
 9954SOL     OW30760   4.271   1.706   1.492
 9954SOL    HW130761   4.216   1.645   1.548
 9954SOL    HW230762   4.280   1.668   1.400
 9955SOL     OW30763   6.410   5.244   1.443
 9955SOL    HW130764   6.417   5.343   1.452
 9955SOL    HW230765   6.376   5.205   1.529
 9956SOL     OW30766   1.708   3.983   3.403
 9956SOL    HW130767   1.659   3.904   3.442
 9956SOL    HW230768   1.767   3.952   3.328
 9957SOL     OW30769   5.889   6.761   0.129
 9957SOL    HW130770   5.935   6.838   0.171
 9957SOL    HW230771   5.827   6.718   0.195
 9958SOL     OW30772   6.535   6.027   5.525
 9958SOL    HW130773   6.489   6.056   5.609
 9958SOL    HW230774   6.467   6.010   5.454
 9959SOL     OW30775   6.389   5.912   6.680
 9959SOL    HW130776   6.405   5.969   6.600
 9959SOL    HW230777   6.354   5.823   6.651
 9960SOL     OW30778   6.312   0.285   6.392
 9960SOL    HW130779   6.276   0.286   6.485
 9960SOL    HW230780   6.307   0.192   6.355
 9961SOL     OW30781   3.111   6.426   0.647
 9961SOL    HW130782   3.064   6.448   0.733
 9961SOL    HW230783   3.053   6.367   0.591
 9962SOL     OW30784   3.565   0.521   1.386
 9962SOL    HW130785   3.555   0.422   1.370
 9962SOL    HW230786   3.586   0.537   1.482
 9963SOL     OW30787   0.863   0.275   6.483
 9963SOL    HW130788   0.821   0.321   6.562
 9963SOL    HW230789   0.950   0.235   6.511
 9964SOL     OW30790   4.858   5.279   5.604
 9964SOL    HW130791   4.777   5.308   5.553
 9964SOL    HW230792   4.924   5.354   5.608
 9965SOL     OW30793   1.867   5.352   4.588
 9965SOL    HW130794   1.831   5.261   4.606
 9965SOL    HW230795   1.956   5.344   4.544
 9966SOL     OW30796   2.153   4.763   1.776
 9966SOL    HW130797   2.114   4.814   1.699
 9966SOL    HW230798   2.239   4.721   1.747
 9967SOL     OW30799   6.841   0.339   2.432
 9967SOL    HW130800   6.928   0.295   2.452
 9967SOL    HW230801   6.784   0.339   2.514
 9968SOL     OW30802   4.982   6.281   0.331
 9968SOL    HW130803   4.886   6.294   0.309
 9968SOL    HW230804   5.018   6.203   0.281
 9969SOL     OW30805   0.358   6.382   3.268
 9969SOL    HW130806   0.365   6.428   3.179
 9969SOL    HW230807   0.348   6.283   3.253
 9970SOL     OW30808   0.237   3.178   1.255
 9970SOL    HW130809   0.207   3.127   1.335
 9970SOL    HW230810   0.297   3.252   1.283
 9971SOL     OW30811   6.670   5.123   5.752
 9971SOL    HW130812   6.735   5.051   5.777
 9971SOL    HW230813   6.634   5.165   5.835
 9972SOL     OW30814   3.102   4.530   5.841
 9972SOL    HW130815   3.179   4.594   5.832
 9972SOL    HW230816   3.052   4.550   5.925
 9973SOL     OW30817   2.739   2.392   2.935
 9973SOL    HW130818   2.788   2.341   2.864
 9973SOL    HW230819   2.665   2.444   2.893
 9974SOL     OW30820   0.707   3.326   3.541
 9974SOL    HW130821   0.670   3.393   3.476
 9974SOL    HW230822   0.633   3.296   3.602
 9975SOL     OW30823   1.096   4.627   7.011
 9975SOL    HW130824   1.040   4.705   6.984
 9975SOL    HW230825   1.191   4.643   6.984
 9976SOL     OW30826   4.449   6.072   5.158
 9976SOL    HW130827   4.487   6.037   5.243
 9976SOL    HW230828   4.500   6.034   5.081
 9977SOL     OW30829   4.411   6.978   5.460
 9977SOL    HW130830   4.354   6.995   5.379
 9977SOL    HW230831   4.492   6.926   5.433
 9978SOL     OW30832   6.782   2.831   0.334
 9978SOL    HW130833   6.805   2.768   0.408
 9978SOL    HW230834   6.857   2.831   0.267
 9979SOL     OW30835   3.584   4.148   3.580
 9979SOL    HW130836   3.595   4.151   3.679
 9979SOL    HW230837   3.509   4.086   3.557
 9980SOL     OW30838   0.523   6.981   6.806
 9980SOL    HW130839   0.532   0.038   6.866
 9980SOL    HW230840   0.542   6.898   6.858
 9981SOL     OW30841   5.621   1.418   1.209
 9981SOL    HW130842   5.600   1.407   1.306
 9981SOL    HW230843   5.626   1.328   1.165
 9982SOL     OW30844   2.853   1.941   5.163
 9982SOL    HW130845   2.782   1.915   5.097
 9982SOL    HW230846   2.940   1.953   5.115
 9983SOL     OW30847   0.265   2.956   1.796
 9983SOL    HW130848   0.275   3.050   1.763
 9983SOL    HW230849   0.225   2.957   1.888
 9984SOL     OW30850   1.173   4.372   1.039
 9984SOL    HW130851   1.253   4.362   0.980
 9984SOL    HW230852   1.203   4.391   1.132
 9985SOL     OW30853   4.838   4.339   6.005
 9985SOL    HW130854   4.804   4.396   5.930
 9985SOL    HW230855   4.776   4.261   6.019
 9986SOL     OW30856   5.868   4.151   6.743
 9986SOL    HW130857   5.830   4.230   6.790
 9986SOL    HW230858   5.794   4.088   6.717
 9987SOL     OW30859   4.961   2.321   0.727
 9987SOL    HW130860   5.013   2.375   0.661
 9987SOL    HW230861   5.022   2.290   0.800
 9988SOL     OW30862   5.659   6.427   3.667
 9988SOL    HW130863   5.756   6.438   3.691
 9988SOL    HW230864   5.604   6.485   3.726
 9989SOL     OW30865   6.261   5.717   2.142
 9989SOL    HW130866   6.271   5.806   2.097
 9989SOL    HW230867   6.203   5.728   2.223
 9990SOL     OW30868   0.137   6.004   3.056
 9990SOL    HW130869   0.137   5.914   3.100
 9990SOL    HW230870   0.131   5.993   2.957
 9991SOL     OW30871   1.985   3.421   1.977
 9991SOL    HW130872   1.980   3.347   1.910
 9991SOL    HW230873   2.071   3.470   1.966
 9992SOL     OW30874   2.180   4.699   0.214
 9992SOL    HW130875   2.273   4.734   0.222
 9992SOL    HW230876   2.181   4.609   0.171
 9993SOL     OW30877   3.512   0.091   4.259
 9993SOL    HW130878   3.439   0.024   4.245
 9993SOL    HW230879   3.568   0.097   4.177
 9994SOL     OW30880   5.782   5.068   5.237
 9994SOL    HW130881   5.706   5.003   5.238
 9994SOL    HW230882   5.836   5.054   5.154
 9995SOL     OW30883   4.263   1.484   5.797
 9995SOL    HW130884   4.209   1.487   5.713
 9995SOL    HW230885   4.345   1.428   5.782
 9996SOL     OW30886   2.804   4.874   0.890
 9996SOL    HW130887   2.891   4.897   0.934
 9996SOL    HW230888   2.819   4.805   0.820
 9997SOL     OW30889   6.140   0.698   2.572
 9997SOL    HW130890   6.110   0.604   2.588
 9997SOL    HW230891   6.239   0.705   2.587
 9998SOL     OW30892   5.150   3.527   2.184
 9998SOL    HW130893   5.073   3.464   2.185
 9998SOL    HW230894   5.165   3.563   2.276
 9999SOL     OW30895   0.561   6.979   5.087
 9999SOL    HW130896   0.640   6.936   5.131
 9999SOL    HW230897   0.506   6.908   5.042
10000SOL     OW30898   4.761   3.412   1.271
10000SOL    HW130899   4.718   3.338   1.321
10000SOL    HW230900   4.853   3.429   1.307
10001SOL     OW30901   3.755   6.755   1.580
10001SOL    HW130902   3.673   6.801   1.613
10001SOL    HW230903   3.800   6.710   1.656
10002SOL     OW30904   1.903   6.682   3.026
10002SOL    HW130905   1.804   6.665   3.025
10002SOL    HW230906   1.940   6.673   2.934
10003SOL     OW30907   0.613   0.939   2.633
10003SOL    HW130908   0.614   1.029   2.588
10003SOL    HW230909   0.519   0.905   2.637
10004SOL     OW30910   0.076   3.302   3.038
10004SOL    HW130911   0.135   3.243   2.982
10004SOL    HW230912   0.083   3.275   3.134
10005SOL     OW30913   2.085   5.847   2.689
10005SOL    HW130914   1.994   5.879   2.715
10005SOL    HW230915   2.147   5.855   2.768
10006SOL     OW30916   5.691   2.027   6.003
10006SOL    HW130917   5.708   2.123   5.981
10006SOL    HW230918   5.712   2.011   6.100
10007SOL     OW30919   1.275   4.833   3.564
10007SOL    HW130920   1.185   4.824   3.522
10007SOL    HW230921   1.339   4.872   3.498
10008SOL     OW30922   4.009   0.453   5.712
10008SOL    HW130923   4.094   0.505   5.707
10008SOL    HW230924   3.975   0.454   5.807
10009SOL     OW30925   1.489   5.106   1.749
10009SOL    HW130926   1.471   5.043   1.674
10009SOL    HW230927   1.498   5.055   1.834
10010SOL     OW30928   2.091   4.801   0.703
10010SOL    HW130929   2.040   4.783   0.787
10010SOL    HW230930   2.073   4.728   0.637
10011SOL     OW30931   3.293   3.614   0.115
10011SOL    HW130932   3.297   3.518   0.145
10011SOL    HW230933   3.385   3.645   0.090
10012SOL     OW30934   5.677   2.003   2.981
10012SOL    HW130935   5.697   2.079   2.918
10012SOL    HW230936   5.619   2.036   3.055
10013SOL     OW30937   0.333   6.192   5.520
10013SOL    HW130938   0.398   6.245   5.574
10013SOL    HW230939   0.381   6.114   5.478
10014SOL     OW30940   1.613   1.045   2.945
10014SOL    HW130941   1.602   1.118   2.879
10014SOL    HW230942   1.696   1.061   3.000
10015SOL     OW30943   4.461   0.433   6.572
10015SOL    HW130944   4.535   0.409   6.509
10015SOL    HW230945   4.378   0.455   6.519
10016SOL     OW30946   3.141   0.954   4.464
10016SOL    HW130947   3.131   0.858   4.490
10016SOL    HW230948   3.055   0.988   4.427
10017SOL     OW30949   3.168   1.237   2.961
10017SOL    HW130950   3.182   1.326   2.918
10017SOL    HW230951   3.071   1.216   2.964
10018SOL     OW30952   0.247   5.164   5.860
10018SOL    HW130953   0.211   5.083   5.905
10018SOL    HW230954   0.304   5.136   5.782
10019SOL     OW30955   6.999   1.777   2.772
10019SOL    HW130956   6.985   1.856   2.712
10019SOL    HW230957   6.922   1.714   2.762
10020SOL     OW30958   6.587   0.625   2.654
10020SOL    HW130959   6.555   0.675   2.574
10020SOL    HW230960   6.673   0.665   2.686
10021SOL     OW30961   1.459   3.309   1.573
10021SOL    HW130962   1.403   3.389   1.552
10021SOL    HW230963   1.406   3.226   1.555
10022SOL     OW30964   1.003   6.555   5.932
10022SOL    HW130965   0.969   6.489   5.865
10022SOL    HW230966   1.092   6.525   5.965
10023SOL     OW30967   1.361   1.624   5.408
10023SOL    HW130968   1.276   1.657   5.449
10023SOL    HW230969   1.394   1.544   5.459
10024SOL     OW30970   2.232   4.460   3.516
10024SOL    HW130971   2.224   4.390   3.445
10024SOL    HW230972   2.325   4.497   3.515
10025SOL     OW30973   0.340   2.643   0.966
10025SOL    HW130974   0.352   2.685   1.056
10025SOL    HW230975   0.405   2.683   0.901
10026SOL     OW30976   6.736   1.085   4.963
10026SOL    HW130977   6.729   1.180   4.991
10026SOL    HW230978   6.760   1.028   5.042
10027SOL     OW30979   3.271   1.056   5.807
10027SOL    HW130980   3.238   1.004   5.885
10027SOL    HW230981   3.233   1.149   5.809
10028SOL     OW30982   3.782   6.711   2.642
10028SOL    HW130983   3.828   6.636   2.689
10028SOL    HW230984   3.730   6.766   2.708
10029SOL     OW30985   6.785   5.008   4.273
10029SOL    HW130986   6.815   4.952   4.196
10029SOL    HW230987   6.756   4.948   4.349
10030SOL     OW30988   3.008   0.032   4.177
10030SOL    HW130989   3.049   6.964   4.182
10030SOL    HW230990   3.006   0.063   4.082
10031SOL     OW30991   2.052   6.536   4.167
10031SOL    HW130992   2.083   6.627   4.139
10031SOL    HW230993   2.131   6.480   4.194
10032SOL     OW30994   2.659   5.736   4.034
10032SOL    HW130995   2.668   5.746   3.935
10032SOL    HW230996   2.617   5.648   4.055
10033SOL     OW30997   2.623   1.100   4.697
10033SOL    HW130998   2.595   1.064   4.786
10033SOL    HW230999   2.723   1.092   4.688
10034SOL     OW31000   2.208   1.395   1.983
10034SOL    HW131001   2.277   1.334   2.021
10034SOL    HW231002   2.249   1.483   1.961
10035SOL     OW31003   0.323   3.168   2.043
10035SOL    HW131004   0.370   3.162   1.955
10035SOL    HW231005   0.284   3.259   2.054
10036SOL     OW31006   0.199   1.451   6.859
10036SOL    HW131007   0.237   1.396   6.785
10036SOL    HW231008   0.222   1.408   6.947
10037SOL     OW31009   6.133   0.453   5.990
10037SOL    HW131010   6.122   0.398   5.907
10037SOL    HW231011   6.210   0.417   6.043
10038SOL     OW31012   5.216   6.730   6.950
10038SOL    HW131013   5.216   6.653   7.013
10038SOL    HW231014   5.297   6.725   6.891
10039SOL     OW31015   0.107   5.153   1.731
10039SOL    HW131016   0.187   5.176   1.787
10039SOL    HW231017   0.038   5.224   1.739
10040SOL     OW31018   2.680   6.898   0.104
10040SOL    HW131019   2.588   6.904   0.064
10040SOL    HW231020   2.674   6.912   0.203
10041SOL     OW31021   5.515   4.968   5.555
10041SOL    HW131022   5.573   5.048   5.570
10041SOL    HW231023   5.572   4.887   5.540
10042SOL     OW31024   6.231   0.738   5.612
10042SOL    HW131025   6.191   0.756   5.522
10042SOL    HW231026   6.241   0.824   5.662
10043SOL     OW31027   0.715   0.473   2.983
10043SOL    HW131028   0.727   0.374   2.991
10043SOL    HW231029   0.626   0.492   2.942
10044SOL     OW31030   2.813   2.264   6.606
10044SOL    HW131031   2.777   2.318   6.682
10044SOL    HW231032   2.877   2.319   6.554
10045SOL     OW31033   4.202   0.024   4.144
10045SOL    HW131034   4.148   0.107   4.134
10045SOL    HW231035   4.210   0.000   4.241
10046SOL     OW31036   6.843   1.831   1.567
10046SOL    HW131037   6.933   1.822   1.524
10046SOL    HW231038   6.840   1.913   1.624
10047SOL     OW31039   1.551   2.634   3.028
10047SOL    HW131040   1.472   2.657   3.084
10047SOL    HW231041   1.604   2.562   3.073
10048SOL     OW31042   3.524   2.567   1.707
10048SOL    HW131043   3.546   2.657   1.745
10048SOL    HW231044   3.568   2.496   1.763
10049SOL     OW31045   1.527   5.554   4.385
10049SOL    HW131046   1.623   5.576   4.403
10049SOL    HW231047   1.489   5.501   4.461
10050SOL     OW31048   5.829   1.635   4.734
10050SOL    HW131049   5.732   1.631   4.758
10050SOL    HW231050   5.864   1.543   4.719
10051SOL     OW31051   6.375   1.846   0.996
10051SOL    HW131052   6.354   1.758   1.040
10051SOL    HW231053   6.450   1.890   1.045
10052SOL     OW31054   1.915   5.163   0.978
10052SOL    HW131055   1.979   5.131   0.908
10052SOL    HW231056   1.851   5.228   0.937
10053SOL     OW31057   2.957   6.038   3.343
10053SOL    HW131058   2.932   6.076   3.253
10053SOL    HW231059   3.055   6.021   3.346
10054SOL     OW31060   4.635   5.365   3.750
10054SOL    HW131061   4.549   5.329   3.786
10054SOL    HW231062   4.696   5.290   3.727
10055SOL     OW31063   5.011   3.012   7.000
10055SOL    HW131064   5.058   3.100   7.005
10055SOL    HW231065   5.069   2.941   0.015
10056SOL     OW31066   5.265   4.042   3.011
10056SOL    HW131067   5.223   4.113   2.954
10056SOL    HW231068   5.228   4.048   3.104
10057SOL     OW31069   2.384   2.535   3.045
10057SOL    HW131070   2.290   2.502   3.047
10057SOL    HW231071   2.421   2.526   2.952
10058SOL     OW31072   0.669   4.937   4.229
10058SOL    HW131073   0.745   4.996   4.203
10058SOL    HW231074   0.648   4.950   4.326
10059SOL     OW31075   4.822   6.683   1.789
10059SOL    HW131076   4.906   6.728   1.822
10059SOL    HW231077   4.810   6.703   1.692
10060SOL     OW31078   2.245   2.710   2.278
10060SOL    HW131079   2.337   2.699   2.240
10060SOL    HW231080   2.252   2.745   2.372
10061SOL     OW31081   6.784   1.848   5.604
10061SOL    HW131082   6.703   1.898   5.635
10061SOL    HW231083   6.782   1.756   5.641
10062SOL     OW31084   5.199   5.927   3.116
10062SOL    HW131085   5.171   5.948   3.210
10062SOL    HW231086   5.277   5.984   3.091
10063SOL     OW31087   0.615   2.557   2.101
10063SOL    HW131088   0.561   2.584   2.021
10063SOL    HW231089   0.660   2.638   2.139
10064SOL     OW31090   4.970   5.031   5.619
10064SOL    HW131091   4.922   4.974   5.686
10064SOL    HW231092   4.916   5.113   5.601
10065SOL     OW31093   0.540   0.177   2.530
10065SOL    HW131094   0.506   0.084   2.545
10065SOL    HW231095   0.622   0.192   2.584
10066SOL     OW31096   0.290   0.984   3.982
10066SOL    HW131097   0.382   1.006   3.949
10066SOL    HW231098   0.222   1.026   3.922
10067SOL     OW31099   4.809   6.600   3.713
10067SOL    HW131100   4.721   6.563   3.743
10067SOL    HW231101   4.882   6.562   3.770
10068SOL     OW31102   5.340   3.268   5.539
10068SOL    HW131103   5.278   3.227   5.472
10068SOL    HW231104   5.369   3.358   5.507
10069SOL     OW31105   5.226   1.331   3.959
10069SOL    HW131106   5.173   1.367   4.036
10069SOL    HW231107   5.171   1.266   3.907
10070SOL     OW31108   1.160   0.081   4.503
10070SOL    HW131109   1.212   0.011   4.454
10070SOL    HW231110   1.103   0.038   4.572
10071SOL     OW31111   5.002   4.487   5.433
10071SOL    HW131112   4.986   4.409   5.492
10071SOL    HW231113   5.083   4.537   5.464
10072SOL     OW31114   0.967   6.808   4.379
10072SOL    HW131115   0.875   6.770   4.373
10072SOL    HW231116   0.971   6.892   4.325
10073SOL     OW31117   6.849   5.824   6.494
10073SOL    HW131118   6.906   5.743   6.506
10073SOL    HW231119   6.811   5.824   6.401
10074SOL     OW31120   2.580   6.926   4.734
10074SOL    HW131121   2.542   6.943   4.825
10074SOL    HW231122   2.531   6.982   4.667
10075SOL     OW31123   1.506   2.767   4.565
10075SOL    HW131124   1.489   2.695   4.631
10075SOL    HW231125   1.595   2.808   4.583
10076SOL     OW31126   5.948   0.215   3.900
10076SOL    HW131127   5.938   0.276   3.822
10076SOL    HW231128   5.977   0.125   3.868
10077SOL     OW31129   3.403   1.665   6.507
10077SOL    HW131130   3.370   1.621   6.424
10077SOL    HW231131   3.326   1.698   6.561
10078SOL     OW31132   5.328   6.049   5.507
10078SOL    HW131133   5.427   6.055   5.496
10078SOL    HW231134   5.285   6.131   5.468
10079SOL     OW31135   0.111   2.757   6.189
10079SOL    HW131136   0.034   2.809   6.151
10079SOL    HW231137   0.078   2.702   6.266
10080SOL     OW31138   1.020   2.815   5.497
10080SOL    HW131139   0.997   2.723   5.527
10080SOL    HW231140   1.073   2.810   5.412
10081SOL     OW31141   0.599   1.343   0.118
10081SOL    HW131142   0.699   1.345   0.114
10081SOL    HW231143   0.570   1.307   0.206
10082SOL     OW31144   6.902   0.636   0.425
10082SOL    HW131145   6.881   0.646   0.522
10082SOL    HW231146   6.959   0.555   0.411
10083SOL     OW31147   5.300   1.592   4.048
10083SOL    HW131148   5.262   1.533   4.118
10083SOL    HW231149   5.399   1.593   4.055
10084SOL     OW31150   2.532   0.528   6.455
10084SOL    HW131151   2.485   0.549   6.370
10084SOL    HW231152   2.631   0.538   6.442
10085SOL     OW31153   1.194   4.843   2.679
10085SOL    HW131154   1.290   4.831   2.705
10085SOL    HW231155   1.146   4.891   2.753
10086SOL     OW31156   6.988   3.387   1.851
10086SOL    HW131157   6.936   3.465   1.818
10086SOL    HW231158   0.017   3.413   1.933
10087SOL     OW31159   1.980   0.707   3.210
10087SOL    HW131160   1.917   0.728   3.136
10087SOL    HW231161   2.041   0.785   3.225
10088SOL     OW31162   5.935   0.332   4.599
10088SOL    HW131163   5.935   0.429   4.573
10088SOL    HW231164   6.017   0.288   4.562
10089SOL     OW31165   2.295   2.410   1.871
10089SOL    HW131166   2.329   2.328   1.825
10089SOL    HW231167   2.291   2.394   1.970
10090SOL     OW31168   0.503   5.367   1.720
10090SOL    HW131169   0.528   5.358   1.623
10090SOL    HW231170   0.504   5.463   1.746
10091SOL     OW31171   0.277   1.865   4.021
10091SOL    HW131172   0.194   1.852   3.967
10091SOL    HW231173   0.337   1.785   4.011
10092SOL     OW31174   1.806   2.991   5.301
10092SOL    HW131175   1.791   3.071   5.359
10092SOL    HW231176   1.721   2.968   5.254
10093SOL     OW31177   6.902   6.403   6.303
10093SOL    HW131178   6.981   6.455   6.273
10093SOL    HW231179   6.852   6.455   6.372
10094SOL     OW31180   1.718   0.497   1.702
10094SOL    HW131181   1.713   0.496   1.602
10094SOL    HW231182   1.688   0.409   1.738
10095SOL     OW31183   6.948   2.184   5.280
10095SOL    HW131184   6.950   2.239   5.196
10095SOL    HW231185   6.979   2.240   5.357
10096SOL     OW31186   0.163   5.739   2.849
10096SOL    HW131187   0.093   5.804   2.823
10096SOL    HW231188   0.233   5.733   2.777
10097SOL     OW31189   0.952   2.564   5.652
10097SOL    HW131190   0.870   2.520   5.687
10097SOL    HW231191   1.017   2.495   5.623
10098SOL     OW31192   3.845   5.248   6.314
10098SOL    HW131193   3.921   5.256   6.377
10098SOL    HW231194   3.870   5.288   6.226
10099SOL     OW31195   0.378   4.666   4.822
10099SOL    HW131196   0.281   4.656   4.844
10099SOL    HW231197   0.389   4.713   4.735
10100SOL     OW31198   4.699   0.143   5.593
10100SOL    HW131199   4.697   0.208   5.669
10100SOL    HW231200   4.610   0.142   5.548
10101SOL     OW31201   7.012   4.735   2.729
10101SOL    HW131202   0.021   4.812   2.785
10101SOL    HW231203   7.006   4.764   2.634
10102SOL     OW31204   3.759   0.495   4.104
10102SOL    HW131205   3.804   0.458   4.186
10102SOL    HW231206   3.734   0.590   4.121
10103SOL     OW31207   0.820   2.454   0.506
10103SOL    HW131208   0.727   2.490   0.518
10103SOL    HW231209   0.858   2.431   0.596
10104SOL     OW31210   1.913   5.950   5.755
10104SOL    HW131211   1.988   5.904   5.802
10104SOL    HW231212   1.828   5.939   5.808
10105SOL     OW31213   3.313   0.563   0.178
10105SOL    HW131214   3.331   0.661   0.186
10105SOL    HW231215   3.379   0.512   0.234
10106SOL     OW31216   4.921   5.191   1.325
10106SOL    HW131217   4.956   5.258   1.259
10106SOL    HW231218   4.868   5.121   1.277
10107SOL     OW31219   5.434   1.008   5.968
10107SOL    HW131220   5.527   0.988   5.934
10107SOL    HW231221   5.377   0.927   5.957
10108SOL     OW31222   5.692   6.542   6.669
10108SOL    HW131223   5.740   6.454   6.662
10108SOL    HW231224   5.676   6.564   6.765
10109SOL     OW31225   4.948   5.658   3.410
10109SOL    HW131226   4.980   5.611   3.328
10109SOL    HW231227   5.015   5.646   3.483
10110SOL     OW31228   3.266   1.406   5.467
10110SOL    HW131229   3.240   1.476   5.401
10110SOL    HW231230   3.302   1.326   5.418
10111SOL     OW31231   6.889   2.130   2.304
10111SOL    HW131232   6.960   2.132   2.375
10111SOL    HW231233   6.931   2.118   2.215
10112SOL     OW31234   4.700   3.154   6.200
10112SOL    HW131235   4.797   3.178   6.205
10112SOL    HW231236   4.683   3.072   6.254
10113SOL     OW31237   4.210   6.781   1.060
10113SOL    HW131238   4.213   6.704   0.996
10113SOL    HW231239   4.304   6.811   1.080
10114SOL     OW31240   4.689   1.334   2.188
10114SOL    HW131241   4.722   1.408   2.130
10114SOL    HW231242   4.601   1.359   2.228
10115SOL     OW31243   0.825   1.916   4.783
10115SOL    HW131244   0.809   1.877   4.692
10115SOL    HW231245   0.887   1.856   4.834
10116SOL     OW31246   0.489   0.467   0.746
10116SOL    HW131247   0.419   0.402   0.776
10116SOL    HW231248   0.515   0.526   0.823
10117SOL     OW31249   4.618   6.889   5.668
10117SOL    HW131250   4.530   6.910   5.627
10117SOL    HW231251   4.692   6.919   5.608
10118SOL     OW31252   6.090   5.724   2.391
10118SOL    HW131253   5.993   5.720   2.412
10118SOL    HW231254   6.134   5.795   2.446
10119SOL     OW31255   2.068   0.023   6.040
10119SOL    HW131256   2.036   0.075   6.119
10119SOL    HW231257   2.166   0.040   6.026
10120SOL     OW31258   5.621   3.020   3.327
10120SOL    HW131259   5.716   3.044   3.308
10120SOL    HW231260   5.598   3.046   3.421
10121SOL     OW31261   5.850   4.650   3.681
10121SOL    HW131262   5.771   4.680   3.628
10121SOL    HW231263   5.853   4.699   3.768
10122SOL     OW31264   5.300   2.573   0.241
10122SOL    HW131265   5.397   2.577   0.218
10122SOL    HW231266   5.261   2.665   0.240
10123SOL     OW31267   0.233   0.013   0.092
10123SOL    HW131268   0.318   0.053   0.060
10123SOL    HW231269   0.178   0.083   0.139
10124SOL     OW31270   3.084   4.355   0.931
10124SOL    HW131271   3.025   4.383   1.006
10124SOL    HW231272   3.143   4.280   0.961
10125SOL     OW31273   2.136   0.290   0.334
10125SOL    HW131274   2.096   0.328   0.418
10125SOL    HW231275   2.065   0.244   0.281
10126SOL     OW31276   5.395   5.188   6.705
10126SOL    HW131277   5.343   5.249   6.764
10126SOL    HW231278   5.473   5.237   6.666
10127SOL     OW31279   3.707   4.937   5.129
10127SOL    HW131280   3.755   4.877   5.193
10127SOL    HW231281   3.753   5.026   5.128
10128SOL     OW31282   0.640   1.731   1.020
10128SOL    HW131283   0.581   1.803   1.055
10128SOL    HW231284   0.734   1.764   1.013
10129SOL     OW31285   5.459   2.656   3.137
10129SOL    HW131286   5.512   2.621   3.060
10129SOL    HW231287   5.397   2.585   3.170
10130SOL     OW31288   6.290   5.857   1.600
10130SOL    HW131289   6.310   5.954   1.589
10130SOL    HW231290   6.358   5.816   1.662
10131SOL     OW31291   0.514   0.514   0.447
10131SOL    HW131292   0.457   0.563   0.513
10131SOL    HW231293   0.505   0.415   0.463
10132SOL     OW31294   2.604   6.907   2.530
10132SOL    HW131295   2.639   6.855   2.607
10132SOL    HW231296   2.574   6.998   2.561
10133SOL     OW31297   6.153   4.888   2.400
10133SOL    HW131298   6.194   4.822   2.336
10133SOL    HW231299   6.152   4.979   2.359
10134SOL     OW31300   0.609   1.557   1.950
10134SOL    HW131301   0.671   1.494   1.996
10134SOL    HW231302   0.515   1.532   1.973
10135SOL     OW31303   2.985   5.919   2.933
10135SOL    HW131304   3.056   5.896   2.867
10135SOL    HW231305   2.895   5.915   2.888
10136SOL     OW31306   6.452   6.774   2.533
10136SOL    HW131307   6.486   6.839   2.465
10136SOL    HW231308   6.404   6.700   2.488
10137SOL     OW31309   5.674   5.333   4.515
10137SOL    HW131310   5.616   5.260   4.479
10137SOL    HW231311   5.706   5.308   4.607
10138SOL     OW31312   5.918   3.138   6.189
10138SOL    HW131313   5.929   3.112   6.285
10138SOL    HW231314   5.870   3.066   6.140
10139SOL     OW31315   3.865   3.002   3.319
10139SOL    HW131316   3.790   3.055   3.280
10139SOL    HW231317   3.948   3.057   3.321
10140SOL     OW31318   1.223   5.019   3.961
10140SOL    HW131319   1.256   5.056   4.047
10140SOL    HW231320   1.128   5.047   3.947
10141SOL     OW31321   2.315   0.425   4.210
10141SOL    HW131322   2.381   0.488   4.251
10141SOL    HW231323   2.321   0.430   4.111
10142SOL     OW31324   5.347   5.688   4.407
10142SOL    HW131325   5.392   5.678   4.496
10142SOL    HW231326   5.257   5.646   4.411
10143SOL     OW31327   4.566   6.081   1.244
10143SOL    HW131328   4.480   6.127   1.268
10143SOL    HW231329   4.552   5.982   1.245
10144SOL     OW31330   2.725   4.811   3.362
10144SOL    HW131331   2.722   4.807   3.461
10144SOL    HW231332   2.689   4.726   3.323
10145SOL     OW31333   2.635   6.941   6.247
10145SOL    HW131334   2.554   6.973   6.296
10145SOL    HW231335   2.641   6.842   6.253
10146SOL     OW31336   4.933   4.591   4.115
10146SOL    HW131337   4.837   4.617   4.102
10146SOL    HW231338   4.966   4.542   4.034
10147SOL     OW31339   4.991   5.883   4.249
10147SOL    HW131340   5.050   5.861   4.172
10147SOL    HW231341   4.962   5.799   4.295
10148SOL     OW31342   6.239   5.497   0.790
10148SOL    HW131343   6.288   5.410   0.792
10148SOL    HW231344   6.144   5.482   0.816
10149SOL     OW31345   4.400   3.359   1.230
10149SOL    HW131346   4.465   3.339   1.304
10149SOL    HW231347   4.450   3.382   1.147
10150SOL     OW31348   5.548   4.116   0.981
10150SOL    HW131349   5.462   4.109   0.930
10150SOL    HW231350   5.625   4.099   0.919
10151SOL     OW31351   0.408   5.833   5.822
10151SOL    HW131352   0.501   5.795   5.821
10151SOL    HW231353   0.397   5.893   5.901
10152SOL     OW31354   0.549   5.663   4.465
10152SOL    HW131355   0.475   5.620   4.415
10152SOL    HW231356   0.572   5.751   4.423
10153SOL     OW31357   4.959   5.404   3.922
10153SOL    HW131358   4.859   5.401   3.922
10153SOL    HW231359   4.990   5.490   3.883
10154SOL     OW31360   6.758   5.973   5.974
10154SOL    HW131361   6.838   5.928   5.936
10154SOL    HW231362   6.786   6.057   6.021
10155SOL     OW31363   3.710   0.986   6.079
10155SOL    HW131364   3.789   0.931   6.055
10155SOL    HW231365   3.628   0.950   6.034
10156SOL     OW31366   6.043   0.390   2.534
10156SOL    HW131367   6.028   0.354   2.442
10156SOL    HW231368   5.956   0.412   2.576
10157SOL     OW31369   5.158   0.800   3.992
10157SOL    HW131370   5.150   0.702   4.009
10157SOL    HW231371   5.249   0.820   3.957
10158SOL     OW31372   5.127   3.275   6.161
10158SOL    HW131373   5.070   3.194   6.147
10158SOL    HW231374   5.083   3.354   6.119
10159SOL     OW31375   1.660   1.233   6.512
10159SOL    HW131376   1.745   1.214   6.559
10159SOL    HW231377   1.622   1.148   6.475
10160SOL     OW31378   0.458   5.910   3.381
10160SOL    HW131379   0.433   5.953   3.468
10160SOL    HW231380   0.379   5.862   3.344
10161SOL     OW31381   2.383   5.798   5.277
10161SOL    HW131382   2.443   5.773   5.201
10161SOL    HW231383   2.366   5.718   5.334
10162SOL     OW31384   3.398   2.763   6.601
10162SOL    HW131385   3.421   2.858   6.623
10162SOL    HW231386   3.372   2.757   6.505
10163SOL     OW31387   0.352   3.251   6.348
10163SOL    HW131388   0.301   3.182   6.398
10163SOL    HW231389   0.292   3.297   6.283
10164SOL     OW31390   1.440   2.424   5.777
10164SOL    HW131391   1.377   2.364   5.826
10164SOL    HW231392   1.442   2.398   5.681
10165SOL     OW31393   0.250   1.686   3.296
10165SOL    HW131394   0.220   1.744   3.220
10165SOL    HW231395   0.215   1.723   3.382
10166SOL     OW31396   0.637   1.116   1.934
10166SOL    HW131397   0.613   1.024   1.904
10166SOL    HW231398   0.571   1.147   2.003
10167SOL     OW31399   5.128   1.311   0.828
10167SOL    HW131400   5.197   1.261   0.776
10167SOL    HW231401   5.173   1.379   0.886
10168SOL     OW31402   6.648   4.472   4.692
10168SOL    HW131403   6.701   4.502   4.613
10168SOL    HW231404   6.583   4.543   4.718
10169SOL     OW31405   6.710   4.202   4.606
10169SOL    HW131406   6.654   4.125   4.575
10169SOL    HW231407   6.650   4.273   4.645
10170SOL     OW31408   1.354   4.165   4.823
10170SOL    HW131409   1.393   4.073   4.814
10170SOL    HW231410   1.369   4.199   4.915
10171SOL     OW31411   5.858   3.074   6.586
10171SOL    HW131412   5.865   2.988   6.637
10171SOL    HW231413   5.785   3.067   6.518
10172SOL     OW31414   4.652   0.799   4.278
10172SOL    HW131415   4.663   0.855   4.360
10172SOL    HW231416   4.731   0.812   4.218
10173SOL     OW31417   2.343   2.340   2.701
10173SOL    HW131418   2.272   2.345   2.631
10173SOL    HW231419   2.332   2.257   2.755
10174SOL     OW31420   6.091   4.411   0.823
10174SOL    HW131421   6.079   4.362   0.909
10174SOL    HW231422   6.006   4.408   0.770
10175SOL     OW31423   5.618   2.853   5.934
10175SOL    HW131424   5.536   2.808   5.898
10175SOL    HW231425   5.673   2.888   5.858
10176SOL     OW31426   2.183   3.261   0.697
10176SOL    HW131427   2.099   3.289   0.743
10176SOL    HW231428   2.214   3.335   0.637
10177SOL     OW31429   2.008   0.391   5.339
10177SOL    HW131430   2.100   0.419   5.312
10177SOL    HW231431   1.954   0.369   5.257
10178SOL     OW31432   5.000   2.858   5.480
10178SOL    HW131433   4.924   2.921   5.465
10178SOL    HW231434   5.073   2.906   5.528
10179SOL     OW31435   0.107   3.443   6.867
10179SOL    HW131436   0.084   3.500   6.788
10179SOL    HW231437   0.024   3.400   6.902
10180SOL     OW31438   1.975   6.874   5.809
10180SOL    HW131439   1.914   6.800   5.834
10180SOL    HW231440   1.972   6.946   5.879
10181SOL     OW31441   5.822   3.402   1.777
10181SOL    HW131442   5.740   3.398   1.720
10181SOL    HW231443   5.895   3.449   1.728
10182SOL     OW31444   4.603   1.204   0.211
10182SOL    HW131445   4.679   1.200   0.146
10182SOL    HW231446   4.594   1.298   0.245
10183SOL     OW31447   2.189   1.462   6.470
10183SOL    HW131448   2.102   1.498   6.437
10183SOL    HW231449   2.173   1.375   6.517
10184SOL     OW31450   4.836   0.381   6.821
10184SOL    HW131451   4.776   0.402   6.744
10184SOL    HW231452   4.824   0.285   6.847
10185SOL     OW31453   4.811   1.156   0.043
10185SOL    HW131454   4.784   1.238   7.016
10185SOL    HW231455   4.828   1.081   7.001
10186SOL     OW31456   5.042   2.235   2.893
10186SOL    HW131457   5.099   2.306   2.933
10186SOL    HW231458   5.055   2.149   2.943
10187SOL     OW31459   0.908   2.131   2.284
10187SOL    HW131460   0.822   2.093   2.251
10187SOL    HW231461   0.968   2.149   2.206
10188SOL     OW31462   3.992   5.017   0.566
10188SOL    HW131463   3.930   4.945   0.535
10188SOL    HW231464   3.961   5.105   0.532
10189SOL     OW31465   1.428   6.905   5.290
10189SOL    HW131466   1.517   6.947   5.303
10189SOL    HW231467   1.391   6.931   5.201
10190SOL     OW31468   5.146   2.688   6.915
10190SOL    HW131469   5.153   2.592   6.940
10190SOL    HW231470   5.060   2.703   6.865
10191SOL     OW31471   6.985   4.642   6.632
10191SOL    HW131472   0.031   4.711   6.654
10191SOL    HW231473   6.894   4.675   6.659
10192SOL     OW31474   3.635   1.766   0.204
10192SOL    HW131475   3.622   1.667   0.208
10192SOL    HW231476   3.688   1.790   0.122
10193SOL     OW31477   4.230   4.243   0.552
10193SOL    HW131478   4.287   4.243   0.470
10193SOL    HW231479   4.135   4.264   0.526
10194SOL     OW31480   4.760   2.900   5.213
10194SOL    HW131481   4.683   2.891   5.277
10194SOL    HW231482   4.808   2.812   5.207
10195SOL     OW31483   5.592   4.351   1.880
10195SOL    HW131484   5.547   4.262   1.889
10195SOL    HW231485   5.537   4.421   1.928
10196SOL     OW31486   0.189   1.916   4.432
10196SOL    HW131487   0.124   1.989   4.413
10196SOL    HW231488   0.269   1.927   4.373
10197SOL     OW31489   5.576   0.574   0.143
10197SOL    HW131490   5.517   0.624   0.207
10197SOL    HW231491   5.556   0.603   0.050
10198SOL     OW31492   4.303   6.701   3.435
10198SOL    HW131493   4.397   6.668   3.434
10198SOL    HW231494   4.291   6.764   3.512
10199SOL     OW31495   0.685   2.189   5.481
10199SOL    HW131496   0.624   2.222   5.409
10199SOL    HW231497   0.653   2.100   5.515
10200SOL     OW31498   4.872   1.877   1.881
10200SOL    HW131499   4.813   1.867   1.801
10200SOL    HW231500   4.829   1.938   1.947
10201SOL     OW31501   1.595   3.741   0.884
10201SOL    HW131502   1.601   3.794   0.800
10201SOL    HW231503   1.559   3.799   0.958
10202SOL     OW31504   5.372   0.562   3.712
10202SOL    HW131505   5.291   0.619   3.695
10202SOL    HW231506   5.363   0.516   3.800
10203SOL     OW31507   0.029   2.672   4.834
10203SOL    HW131508   0.026   2.767   4.805
10203SOL    HW231509   0.023   2.612   4.754
10204SOL     OW31510   5.979   4.820   6.678
10204SOL    HW131511   6.073   4.817   6.643
10204SOL    HW231512   5.966   4.902   6.733
10205SOL     OW31513   0.195   1.556   6.485
10205SOL    HW131514   0.119   1.492   6.498
10205SOL    HW231515   0.187   1.631   6.551
10206SOL     OW31516   2.099   1.523   4.626
10206SOL    HW131517   2.113   1.594   4.558
10206SOL    HW231518   2.011   1.537   4.672
10207SOL     OW31519   2.432   2.556   5.848
10207SOL    HW131520   2.473   2.611   5.775
10207SOL    HW231521   2.425   2.461   5.818
10208SOL     OW31522   6.939   6.621   5.715
10208SOL    HW131523   6.939   6.598   5.812
10208SOL    HW231524   6.883   6.556   5.665
10209SOL     OW31525   6.291   6.494   5.759
10209SOL    HW131526   6.218   6.542   5.709
10209SOL    HW231527   6.367   6.556   5.774
10210SOL     OW31528   3.800   0.523   1.658
10210SOL    HW131529   3.778   0.607   1.607
10210SOL    HW231530   3.898   0.505   1.652
10211SOL     OW31531   5.188   5.536   6.293
10211SOL    HW131532   5.181   5.456   6.234
10211SOL    HW231533   5.125   5.607   6.261
10212SOL     OW31534   0.451   0.702   6.638
10212SOL    HW131535   0.398   0.786   6.648
10212SOL    HW231536   0.434   0.642   6.716
10213SOL     OW31537   6.651   2.548   1.149
10213SOL    HW131538   6.746   2.574   1.132
10213SOL    HW231539   6.649   2.477   1.220
10214SOL     OW31540   1.550   2.688   0.018
10214SOL    HW131541   1.511   2.604   7.003
10214SOL    HW231542   1.483   2.762   0.011
10215SOL     OW31543   3.138   4.110   2.756
10215SOL    HW131544   3.057   4.074   2.709
10215SOL    HW231545   3.199   4.153   2.689
10216SOL     OW31546   0.848   6.108   2.264
10216SOL    HW131547   0.767   6.084   2.211
10216SOL    HW231548   0.845   6.062   2.352
10217SOL     OW31549   4.351   1.803   5.129
10217SOL    HW131550   4.330   1.792   5.227
10217SOL    HW231551   4.277   1.763   5.075
10218SOL     OW31552   0.978   2.937   2.797
10218SOL    HW131553   0.917   2.924   2.719
10218SOL    HW231554   0.989   2.849   2.845
10219SOL     OW31555   0.005   6.366   3.112
10219SOL    HW131556   0.078   6.381   3.045
10219SOL    HW231557   0.046   6.344   3.201
10220SOL     OW31558   3.449   3.077   0.044
10220SOL    HW131559   3.542   3.048   0.068
10220SOL    HW231560   3.454   3.164   7.017
10221SOL     OW31561   1.156   5.114   3.376
10221SOL    HW131562   1.100   5.037   3.406
10221SOL    HW231563   1.109   5.199   3.396
10222SOL     OW31564   2.970   3.775   3.737
10222SOL    HW131565   2.918   3.735   3.812
10222SOL    HW231566   2.982   3.706   3.665
10223SOL     OW31567   2.416   6.726   0.927
10223SOL    HW131568   2.365   6.722   1.013
10223SOL    HW231569   2.425   6.634   0.889
10224SOL     OW31570   6.916   3.522   3.022
10224SOL    HW131571   6.943   3.611   3.056
10224SOL    HW231572   6.993   3.458   3.029
10225SOL     OW31573   1.719   3.836   5.873
10225SOL    HW131574   1.729   3.908   5.803
10225SOL    HW231575   1.709   3.879   5.963
10226SOL     OW31576   4.706   4.394   6.951
10226SOL    HW131577   4.614   4.413   6.984
10226SOL    HW231578   4.761   4.357   0.002
10227SOL     OW31579   5.652   4.044   1.592
10227SOL    HW131580   5.740   4.038   1.544
10227SOL    HW231581   5.668   4.065   1.689
10228SOL     OW31582   5.303   0.639   0.811
10228SOL    HW131583   5.265   0.570   0.873
10228SOL    HW231584   5.401   0.624   0.800
10229SOL     OW31585   0.333   2.215   4.899
10229SOL    HW131586   0.343   2.302   4.851
10229SOL    HW231587   0.414   2.159   4.884
10230SOL     OW31588   6.635   6.258   1.527
10230SOL    HW131589   6.676   6.184   1.580
10230SOL    HW231590   6.590   6.322   1.589
10231SOL     OW31591   0.323   4.252   2.437
10231SOL    HW131592   0.421   4.232   2.440
10231SOL    HW231593   0.309   4.342   2.397
10232SOL     OW31594   4.476   4.900   2.541
10232SOL    HW131595   4.407   4.834   2.569
10232SOL    HW231596   4.504   4.880   2.447
10233SOL     OW31597   2.730   4.107   5.715
10233SOL    HW131598   2.801   4.139   5.653
10233SOL    HW231599   2.640   4.118   5.671
10234SOL     OW31600   0.550   0.774   2.013
10234SOL    HW131601   0.472   0.759   2.074
10234SOL    HW231602   0.633   0.786   2.067
10235SOL     OW31603   1.462   1.460   3.276
10235SOL    HW131604   1.390   1.400   3.311
10235SOL    HW231605   1.421   1.545   3.243
10236SOL     OW31606   0.513   0.491   2.809
10236SOL    HW131607   0.416   0.469   2.802
10236SOL    HW231608   0.534   0.571   2.753
10237SOL     OW31609   6.920   3.286   5.491
10237SOL    HW131610   7.012   3.259   5.462
10237SOL    HW231611   6.921   3.382   5.518
10238SOL     OW31612   2.869   6.580   1.181
10238SOL    HW131613   2.918   6.597   1.095
10238SOL    HW231614   2.863   6.665   1.233
10239SOL     OW31615   1.069   2.527   5.279
10239SOL    HW131616   1.033   2.467   5.350
10239SOL    HW231617   1.057   2.622   5.306
10240SOL     OW31618   2.234   5.915   1.337
10240SOL    HW131619   2.157   5.976   1.353
10240SOL    HW231620   2.314   5.969   1.308
10241SOL     OW31621   4.324   3.751   1.741
10241SOL    HW131622   4.313   3.675   1.678
10241SOL    HW231623   4.276   3.731   1.827
10242SOL     OW31624   6.907   3.634   0.794
10242SOL    HW131625   6.991   3.579   0.796
10242SOL    HW231626   6.846   3.602   0.866
10243SOL     OW31627   3.302   5.543   2.145
10243SOL    HW131628   3.373   5.555   2.076
10243SOL    HW231629   3.305   5.449   2.181
10244SOL     OW31630   2.989   4.935   1.524
10244SOL    HW131631   2.911   4.928   1.461
10244SOL    HW231632   2.977   4.870   1.599
10245SOL     OW31633   5.727   4.226   1.175
10245SOL    HW131634   5.672   4.266   1.248
10245SOL    HW231635   5.667   4.191   1.103
10246SOL     OW31636   3.467   3.243   3.765
10246SOL    HW131637   3.368   3.256   3.760
10246SOL    HW231638   3.513   3.320   3.721
10247SOL     OW31639   0.643   2.570   4.654
10247SOL    HW131640   0.718   2.634   4.635
10247SOL    HW231641   0.575   2.576   4.581
10248SOL     OW31642   0.260   1.524   5.247
10248SOL    HW131643   0.182   1.552   5.303
10248SOL    HW231644   0.227   1.476   5.166
10249SOL     OW31645   2.596   4.644   5.875
10249SOL    HW131646   2.631   4.713   5.939
10249SOL    HW231647   2.672   4.591   5.838
10250SOL     OW31648   2.945   2.867   0.726
10250SOL    HW131649   2.901   2.954   0.706
10250SOL    HW231650   2.886   2.812   0.786
10251SOL     OW31651   1.232   0.891   4.619
10251SOL    HW131652   1.248   0.799   4.655
10251SOL    HW231653   1.200   0.885   4.524
10252SOL     OW31654   4.706   4.585   6.065
10252SOL    HW131655   4.625   4.619   6.113
10252SOL    HW231656   4.753   4.518   6.121
10253SOL     OW31657   3.780   6.117   6.819
10253SOL    HW131658   3.838   6.198   6.811
10253SOL    HW231659   3.692   6.134   6.774
10254SOL     OW31660   6.522   1.452   6.056
10254SOL    HW131661   6.424   1.438   6.044
10254SOL    HW231662   6.570   1.422   5.975
10255SOL     OW31663   3.966   4.538   1.737
10255SOL    HW131664   4.065   4.554   1.739
10255SOL    HW231665   3.948   4.440   1.728
10256SOL     OW31666   3.004   1.482   4.468
10256SOL    HW131667   3.008   1.581   4.460
10256SOL    HW231668   2.919   1.448   4.426
10257SOL     OW31669   3.931   5.426   3.180
10257SOL    HW131670   3.863   5.497   3.192
10257SOL    HW231671   3.886   5.337   3.173
10258SOL     OW31672   2.521   1.539   2.491
10258SOL    HW131673   2.530   1.639   2.483
10258SOL    HW231674   2.554   1.496   2.407
10259SOL     OW31675   1.153   3.768   4.151
10259SOL    HW131676   1.214   3.822   4.208
10259SOL    HW231677   1.061   3.807   4.153
10260SOL     OW31678   0.838   0.385   3.555
10260SOL    HW131679   0.763   0.347   3.501
10260SOL    HW231680   0.815   0.478   3.583
10261SOL     OW31681   6.962   4.273   0.951
10261SOL    HW131682   6.875   4.321   0.954
10261SOL    HW231683   6.957   4.192   1.010
10262SOL     OW31684   3.788   0.804   6.775
10262SOL    HW131685   3.740   0.855   6.846
10262SOL    HW231686   3.764   0.707   6.782
10263SOL     OW31687   5.856   0.210   2.857
10263SOL    HW131688   5.851   0.130   2.797
10263SOL    HW231689   5.818   0.187   2.946
10264SOL     OW31690   6.360   0.398   6.154
10264SOL    HW131691   6.459   0.392   6.144
10264SOL    HW231692   6.330   0.333   6.224
10265SOL     OW31693   1.931   1.487   1.969
10265SOL    HW131694   1.911   1.487   2.067
10265SOL    HW231695   2.017   1.439   1.952
10266SOL     OW31696   2.827   3.624   1.458
10266SOL    HW131697   2.844   3.718   1.488
10266SOL    HW231698   2.879   3.561   1.516
10267SOL     OW31699   6.767   0.183   0.967
10267SOL    HW131700   6.736   0.103   0.917
10267SOL    HW231701   6.714   0.263   0.939
10268SOL     OW31702   2.798   5.438   2.400
10268SOL    HW131703   2.798   5.479   2.308
10268SOL    HW231704   2.718   5.470   2.451
10269SOL     OW31705   2.185   1.256   0.297
10269SOL    HW131706   2.173   1.272   0.199
10269SOL    HW231707   2.277   1.219   0.314
10270SOL     OW31708   2.703   0.196   3.925
10270SOL    HW131709   2.605   0.182   3.931
10270SOL    HW231710   2.724   0.293   3.940
10271SOL     OW31711   1.868   1.000   6.857
10271SOL    HW131712   1.939   0.930   6.848
10271SOL    HW231713   1.900   1.071   6.920
10272SOL     OW31714   6.334   6.690   4.604
10272SOL    HW131715   6.308   6.727   4.694
10272SOL    HW231716   6.294   6.747   4.532
10273SOL     OW31717   1.638   5.297   3.471
10273SOL    HW131718   1.665   5.274   3.378
10273SOL    HW231719   1.549   5.344   3.469
10274SOL     OW31720   1.065   3.854   5.402
10274SOL    HW131721   0.983   3.865   5.457
10274SOL    HW231722   1.122   3.936   5.409
10275SOL     OW31723   6.836   1.229   2.018
10275SOL    HW131724   6.776   1.289   1.966
10275SOL    HW231725   6.797   1.136   2.018
10276SOL     OW31726   3.192   5.441   5.225
10276SOL    HW131727   3.099   5.479   5.226
10276SOL    HW231728   3.212   5.399   5.314
10277SOL     OW31729   0.911   5.212   3.991
10277SOL    HW131730   0.818   5.239   3.964
10277SOL    HW231731   0.968   5.294   3.997
10278SOL     OW31732   6.433   0.132   4.494
10278SOL    HW131733   6.491   0.128   4.576
10278SOL    HW231734   6.480   0.183   4.423
10279SOL     OW31735   0.960   4.436   4.116
10279SOL    HW131736   0.999   4.467   4.030
10279SOL    HW231737   1.022   4.371   4.160
10280SOL     OW31738   6.028   5.627   0.533
10280SOL    HW131739   5.954   5.635   0.601
10280SOL    HW231740   6.111   5.667   0.570
10281SOL     OW31741   6.238   0.860   3.752
10281SOL    HW131742   6.203   0.769   3.728
10281SOL    HW231743   6.189   0.929   3.699
10282SOL     OW31744   4.682   2.750   3.218
10282SOL    HW131745   4.586   2.720   3.221
10282SOL    HW231746   4.718   2.755   3.311
10283SOL     OW31747   0.362   2.222   1.276
10283SOL    HW131748   0.410   2.161   1.212
10283SOL    HW231749   0.360   2.181   1.367
10284SOL     OW31750   0.648   4.664   4.468
10284SOL    HW131751   0.700   4.681   4.384
10284SOL    HW231752   0.550   4.675   4.450
10285SOL     OW31753   7.018   6.639   6.484
10285SOL    HW131754   6.994   6.701   6.409
10285SOL    HW231755   6.939   6.628   6.545
10286SOL     OW31756   2.797   1.018   2.459
10286SOL    HW131757   2.864   1.082   2.422
10286SOL    HW231758   2.747   0.974   2.384
10287SOL     OW31759   0.875   5.931   2.868
10287SOL    HW131760   0.959   5.984   2.882
10287SOL    HW231761   0.872   5.855   2.934
10288SOL     OW31762   3.507   5.962   4.270
10288SOL    HW131763   3.413   5.933   4.290
10288SOL    HW231764   3.513   6.062   4.280
10289SOL     OW31765   3.978   6.159   0.242
10289SOL    HW131766   3.979   6.149   0.342
10289SOL    HW231767   4.015   6.077   0.199
10290SOL     OW31768   2.852   3.477   2.265
10290SOL    HW131769   2.783   3.451   2.333
10290SOL    HW231770   2.928   3.413   2.269
10291SOL     OW31771   2.518   2.112   2.016
10291SOL    HW131772   2.537   2.193   2.071
10291SOL    HW231773   2.560   2.123   1.926
10292SOL     OW31774   6.819   6.923   5.791
10292SOL    HW131775   6.886   6.856   5.761
10292SOL    HW231776   6.859   6.982   5.862
10293SOL     OW31777   0.938   3.482   5.268
10293SOL    HW131778   0.963   3.454   5.175
10293SOL    HW231779   1.018   3.481   5.327
10294SOL     OW31780   2.165   0.135   2.124
10294SOL    HW131781   2.260   0.146   2.154
10294SOL    HW231782   2.162   0.129   2.024
10295SOL     OW31783   1.487   1.606   0.631
10295SOL    HW131784   1.514   1.535   0.566
10295SOL    HW231785   1.473   1.692   0.581
10296SOL     OW31786   6.391   2.196   5.855
10296SOL    HW131787   6.444   2.174   5.936
10296SOL    HW231788   6.422   2.283   5.817
10297SOL     OW31789   4.538   1.014   1.125
10297SOL    HW131790   4.546   1.028   1.026
10297SOL    HW231791   4.544   1.102   1.172
10298SOL     OW31792   1.106   1.732   2.075
10298SOL    HW131793   1.127   1.801   2.005
10298SOL    HW231794   1.112   1.641   2.034
10299SOL     OW31795   4.677   0.228   2.464
10299SOL    HW131796   4.664   0.147   2.521
10299SOL    HW231797   4.621   0.303   2.499
10300SOL     OW31798   1.540   3.074   0.999
10300SOL    HW131799   1.486   2.990   1.005
10300SOL    HW231800   1.608   3.065   0.926
10301SOL     OW31801   4.202   0.979   0.165
10301SOL    HW131802   4.272   0.997   0.235
10301SOL    HW231803   4.160   1.066   0.138
10302SOL     OW31804   3.502   6.438   5.590
10302SOL    HW131805   3.562   6.480   5.521
10302SOL    HW231806   3.413   6.419   5.550
10303SOL     OW31807   0.472   4.411   4.719
10303SOL    HW131808   0.494   4.343   4.789
10303SOL    HW231809   0.432   4.492   4.762
10304SOL     OW31810   5.246   6.397   1.142
10304SOL    HW131811   5.324   6.391   1.205
10304SOL    HW231812   5.279   6.427   1.052
10305SOL     OW31813   2.870   3.934   5.255
10305SOL    HW131814   2.934   4.011   5.253
10305SOL    HW231815   2.898   3.869   5.326
10306SOL     OW31816   4.104   0.970   0.929
10306SOL    HW131817   4.024   0.968   0.988
10306SOL    HW231818   4.139   1.063   0.922
10307SOL     OW31819   1.961   0.353   5.042
10307SOL    HW131820   1.872   0.381   5.005
10307SOL    HW231821   2.030   0.421   5.020
10308SOL     OW31822   3.084   4.516   1.585
10308SOL    HW131823   3.181   4.506   1.563
10308SOL    HW231824   3.064   4.471   1.672
10309SOL     OW31825   0.206   1.042   5.951
10309SOL    HW131826   0.170   0.950   5.958
10309SOL    HW231827   0.303   1.039   5.928
10310SOL     OW31828   2.996   3.981   5.948
10310SOL    HW131829   3.030   4.036   5.871
10310SOL    HW231830   3.066   3.976   6.019
10311SOL     OW31831   5.783   5.808   0.130
10311SOL    HW131832   5.735   5.880   0.079
10311SOL    HW231833   5.879   5.806   0.102
10312SOL     OW31834   2.742   6.960   2.297
10312SOL    HW131835   2.722   0.031   2.270
10312SOL    HW231836   2.692   6.938   2.381
10313SOL     OW31837   4.880   6.813   2.779
10313SOL    HW131838   4.894   6.728   2.830
10313SOL    HW231839   4.871   6.793   2.682
10314SOL     OW31840   0.540   0.065   0.827
10314SOL    HW131841   0.620   0.095   0.879
10314SOL    HW231842   0.524   6.991   0.844
10315SOL     OW31843   5.280   5.102   3.694
10315SOL    HW131844   5.232   5.109   3.607
10315SOL    HW231845   5.216   5.120   3.769
10316SOL     OW31846   0.531   1.948   0.323
10316SOL    HW131847   0.526   2.009   0.403
10316SOL    HW231848   0.559   2.002   0.243
10317SOL     OW31849   3.879   6.045   5.065
10317SOL    HW131850   3.822   6.065   4.985
10317SOL    HW231851   3.857   5.954   5.099
10318SOL     OW31852   6.132   0.277   0.696
10318SOL    HW131853   6.154   0.208   0.627
10318SOL    HW231854   6.204   0.347   0.697
10319SOL     OW31855   0.525   4.397   3.921
10319SOL    HW131856   0.480   4.333   3.983
10319SOL    HW231857   0.461   4.422   3.848
10320SOL     OW31858   6.748   0.164   2.778
10320SOL    HW131859   6.669   0.102   2.781
10320SOL    HW231860   6.735   0.230   2.704
10321SOL     OW31861   5.761   2.846   2.764
10321SOL    HW131862   5.799   2.785   2.695
10321SOL    HW231863   5.720   2.791   2.837
10322SOL     OW31864   4.635   4.296   4.931
10322SOL    HW131865   4.623   4.268   4.836
10322SOL    HW231866   4.546   4.314   4.972
10323SOL     OW31867   1.266   4.487   6.145
10323SOL    HW131868   1.171   4.502   6.116
10323SOL    HW231869   1.285   4.389   6.144
10324SOL     OW31870   3.104   3.336   2.955
10324SOL    HW131871   3.083   3.414   3.014
10324SOL    HW231872   3.200   3.338   2.930
10325SOL     OW31873   5.795   6.145   4.802
10325SOL    HW131874   5.722   6.215   4.803
10325SOL    HW231875   5.755   6.056   4.783
10326SOL     OW31876   5.503   3.158   6.687
10326SOL    HW131877   5.422   3.129   6.635
10326SOL    HW231878   5.533   3.083   6.746
10327SOL     OW31879   2.022   5.613   6.555
10327SOL    HW131880   2.049   5.637   6.461
10327SOL    HW231881   2.100   5.572   6.602
10328SOL     OW31882   5.525   2.513   1.896
10328SOL    HW131883   5.425   2.514   1.900
10328SOL    HW231884   5.559   2.437   1.952
10329SOL     OW31885   3.344   2.050   2.067
10329SOL    HW131886   3.284   2.067   1.989
10329SOL    HW231887   3.437   2.035   2.034
10330SOL     OW31888   5.390   0.078   2.160
10330SOL    HW131889   5.330   0.156   2.142
10330SOL    HW231890   5.473   0.086   2.104
10331SOL     OW31891   5.453   5.799   5.832
10331SOL    HW131892   5.387   5.744   5.882
10331SOL    HW231893   5.539   5.803   5.883
10332SOL     OW31894   1.840   1.896   6.496
10332SOL    HW131895   1.769   1.965   6.489
10332SOL    HW231896   1.929   1.940   6.511
10333SOL     OW31897   1.531   3.332   4.417
10333SOL    HW131898   1.610   3.289   4.374
10333SOL    HW231899   1.458   3.345   4.349
10334SOL     OW31900   3.193   1.832   4.012
10334SOL    HW131901   3.196   1.732   4.004
10334SOL    HW231902   3.114   1.867   3.962
10335SOL     OW31903   1.913   2.733   5.350
10335SOL    HW131904   2.003   2.734   5.394
10335SOL    HW231905   1.884   2.826   5.332
10336SOL     OW31906   5.313   6.609   3.344
10336SOL    HW131907   5.299   6.621   3.246
10336SOL    HW231908   5.407   6.579   3.361
10337SOL     OW31909   6.402   6.125   6.837
10337SOL    HW131910   6.383   6.042   6.784
10337SOL    HW231911   6.499   6.129   6.859
10338SOL     OW31912   1.267   6.648   1.824
10338SOL    HW131913   1.258   6.732   1.770
10338SOL    HW231914   1.190   6.641   1.888
10339SOL     OW31915   5.860   2.910   6.021
10339SOL    HW131916   5.760   2.906   6.020
10339SOL    HW231917   5.896   2.833   6.073
10340SOL     OW31918   2.250   4.101   6.336
10340SOL    HW131919   2.243   4.193   6.374
10340SOL    HW231920   2.165   4.051   6.353
10341SOL     OW31921   2.478   4.616   3.495
10341SOL    HW131922   2.528   4.642   3.413
10341SOL    HW231923   2.543   4.600   3.570
10342SOL     OW31924   0.819   1.014   4.033
10342SOL    HW131925   0.862   0.965   3.957
10342SOL    HW231926   0.799   0.950   4.107
10343SOL     OW31927   3.946   5.309   1.629
10343SOL    HW131928   4.034   5.335   1.669
10343SOL    HW231929   3.956   5.221   1.582
10344SOL     OW31930   4.826   6.678   6.818
10344SOL    HW131931   4.758   6.635   6.759
10344SOL    HW231932   4.914   6.683   6.769
10345SOL     OW31933   1.824   4.047   4.487
10345SOL    HW131934   1.860   4.140   4.493
10345SOL    HW231935   1.754   4.033   4.557
10346SOL     OW31936   0.437   6.182   0.308
10346SOL    HW131937   0.392   6.263   0.346
10346SOL    HW231938   0.471   6.202   0.216
10347SOL     OW31939   5.726   2.003   5.062
10347SOL    HW131940   5.752   2.091   5.102
10347SOL    HW231941   5.656   1.959   5.119
10348SOL     OW31942   0.152   5.121   1.199
10348SOL    HW131943   0.184   5.173   1.279
10348SOL    HW231944   0.208   5.145   1.120
10349SOL     OW31945   6.941   6.814   6.305
10349SOL    HW131946   6.888   6.774   6.231
10349SOL    HW231947   7.005   6.882   6.269
10350SOL     OW31948   3.434   0.282   6.124
10350SOL    HW131949   3.342   0.250   6.147
10350SOL    HW231950   3.487   0.295   6.208
10351SOL     OW31951   4.280   5.404   6.144
10351SOL    HW131952   4.255   5.498   6.121
10351SOL    HW231953   4.337   5.404   6.226
10352SOL     OW31954   4.018   4.383   6.337
10352SOL    HW131955   4.064   4.294   6.336
10352SOL    HW231956   3.945   4.383   6.268
10353SOL     OW31957   0.502   3.197   5.287
10353SOL    HW131958   0.488   3.289   5.252
10353SOL    HW231959   0.489   3.131   5.213
10354SOL     OW31960   5.449   1.996   1.034
10354SOL    HW131961   5.455   2.069   1.102
10354SOL    HW231962   5.494   2.025   0.950
10355SOL     OW31963   1.298   4.550   2.978
10355SOL    HW131964   1.375   4.493   2.951
10355SOL    HW231965   1.313   4.585   3.070
10356SOL     OW31966   0.273   2.617   5.036
10356SOL    HW131967   0.328   2.550   4.986
10356SOL    HW231968   0.201   2.652   4.976
10357SOL     OW31969   3.315   3.123   6.522
10357SOL    HW131970   3.229   3.146   6.567
10357SOL    HW231971   3.373   3.071   6.585
10358SOL     OW31972   0.334   0.790   2.197
10358SOL    HW131973   0.280   0.720   2.150
10358SOL    HW231974   0.312   0.789   2.295
10359SOL     OW31975   0.653   1.461   0.985
10359SOL    HW131976   0.638   1.558   1.002
10359SOL    HW231977   0.746   1.446   0.954
10360SOL     OW31978   0.050   4.391   3.763
10360SOL    HW131979   0.058   4.456   3.688
10360SOL    HW231980   0.124   4.323   3.756
10361SOL     OW31981   2.439   5.123   0.752
10361SOL    HW131982   2.538   5.112   0.745
10361SOL    HW231983   2.416   5.156   0.844
10362SOL     OW31984   1.341   4.711   5.276
10362SOL    HW131985   1.257   4.742   5.232
10362SOL    HW231986   1.368   4.622   5.237
10363SOL     OW31987   5.548   6.957   3.723
10363SOL    HW131988   5.604   0.002   3.676
10363SOL    HW231989   5.522   6.885   3.658
10364SOL     OW31990   1.352   4.338   0.831
10364SOL    HW131991   1.399   4.421   0.861
10364SOL    HW231992   1.305   4.356   0.744
10365SOL     OW31993   5.092   5.094   0.060
10365SOL    HW131994   5.117   5.121   0.153
10365SOL    HW231995   4.995   5.111   0.045
10366SOL     OW31996   3.905   6.739   3.863
10366SOL    HW131997   3.929   6.642   3.873
10366SOL    HW231998   3.922   6.767   3.768
10367SOL     OW31999   6.637   1.202   3.194
10367SOL    HW132000   6.653   1.223   3.098
10367SOL    HW232001   6.558   1.254   3.227
10368SOL     OW32002   2.147   0.287   1.071
10368SOL    HW132003   2.231   0.298   1.124
10368SOL    HW232004   2.133   0.191   1.048
10369SOL     OW32005   3.866   2.814   0.026
10369SOL    HW132006   3.848   2.819   6.951
10369SOL    HW232007   3.859   2.718   0.056
10370SOL     OW32008   3.406   0.854   5.306
10370SOL    HW132009   3.365   0.931   5.354
10370SOL    HW232010   3.447   0.792   5.372
10371SOL     OW32011   4.773   6.530   5.383
10371SOL    HW132012   4.842   6.530   5.310
10371SOL    HW232013   4.713   6.450   5.371
10372SOL     OW32014   0.916   0.952   3.789
10372SOL    HW132015   0.861   0.972   3.708
10372SOL    HW232016   0.984   0.882   3.766
10373SOL     OW32017   1.223   5.300   5.091
10373SOL    HW132018   1.192   5.379   5.038
10373SOL    HW232019   1.163   5.222   5.071
10374SOL     OW32020   3.108   1.700   3.327
10374SOL    HW132021   3.167   1.775   3.359
10374SOL    HW232022   3.133   1.616   3.374
10375SOL     OW32023   0.012   1.978   1.317
10375SOL    HW132024   7.009   1.920   1.240
10375SOL    HW232025   0.003   2.074   1.290
10376SOL     OW32026   6.270   0.074   3.810
10376SOL    HW132027   6.324   0.050   3.729
10376SOL    HW232028   6.183   0.025   3.808
10377SOL     OW32029   0.155   6.406   4.180
10377SOL    HW132030   0.117   6.422   4.089
10377SOL    HW232031   0.179   6.493   4.223
10378SOL     OW32032   5.853   6.252   5.651
10378SOL    HW132033   5.920   6.229   5.721
10378SOL    HW232034   5.901   6.286   5.570
10379SOL     OW32035   4.348   1.475   4.130
10379SOL    HW132036   4.389   1.424   4.055
10379SOL    HW232037   4.360   1.573   4.114
10380SOL     OW32038   3.581   0.977   3.910
10380SOL    HW132039   3.549   1.024   3.828
10380SOL    HW232040   3.675   1.004   3.929
10381SOL     OW32041   3.268   5.290   4.770
10381SOL    HW132042   3.354   5.281   4.820
10381SOL    HW232043   3.271   5.235   4.687
10382SOL     OW32044   0.443   5.807   0.719
10382SOL    HW132045   0.504   5.729   0.703
10382SOL    HW232046   0.436   5.825   0.817
10383SOL     OW32047   5.380   2.918   0.414
10383SOL    HW132048   5.472   2.880   0.422
10383SOL    HW232049   5.313   2.853   0.451
10384SOL     OW32050   5.897   1.055   6.765
10384SOL    HW132051   5.907   1.026   6.670
10384SOL    HW232052   5.815   1.014   6.805
10385SOL     OW32053   0.457   2.658   6.612
10385SOL    HW132054   0.431   2.592   6.542
10385SOL    HW232055   0.507   2.734   6.569
10386SOL     OW32056   6.739   2.189   6.025
10386SOL    HW132057   6.731   2.281   6.064
10386SOL    HW232058   6.755   2.195   5.926
10387SOL     OW32059   1.460   3.899   2.963
10387SOL    HW132060   1.507   3.834   3.022
10387SOL    HW232061   1.397   3.851   2.902
10388SOL     OW32062   1.356   4.455   1.911
10388SOL    HW132063   1.373   4.365   1.951
10388SOL    HW232064   1.370   4.526   1.980
10389SOL     OW32065   0.858   5.536   3.856
10389SOL    HW132066   0.789   5.581   3.799
10389SOL    HW232067   0.814   5.496   3.937
10390SOL     OW32068   2.203   3.712   3.277
10390SOL    HW132069   2.191   3.759   3.365
10390SOL    HW232070   2.188   3.776   3.202
10391SOL     OW32071   3.838   5.820   4.160
10391SOL    HW132072   3.903   5.750   4.132
10391SOL    HW232073   3.882   5.910   4.155
10392SOL     OW32074   6.214   5.604   6.259
10392SOL    HW132075   6.245   5.573   6.169
10392SOL    HW232076   6.165   5.691   6.250
10393SOL     OW32077   0.662   1.398   4.794
10393SOL    HW132078   0.663   1.484   4.844
10393SOL    HW232079   0.728   1.401   4.719
10394SOL     OW32080   2.879   0.154   0.990
10394SOL    HW132081   2.964   0.181   1.036
10394SOL    HW232082   2.874   0.054   0.986
10395SOL     OW32083   1.289   0.607   4.092
10395SOL    HW132084   1.235   0.662   4.156
10395SOL    HW232085   1.241   0.522   4.072
10396SOL     OW32086   0.251   0.040   4.898
10396SOL    HW132087   0.186   0.080   4.963
10396SOL    HW232088   0.234   6.965   4.890
10397SOL     OW32089   4.291   2.355   2.276
10397SOL    HW132090   4.345   2.426   2.321
10397SOL    HW232091   4.220   2.322   2.338
10398SOL     OW32092   6.742   2.832   2.176
10398SOL    HW132093   6.816   2.806   2.114
10398SOL    HW232094   6.766   2.806   2.269
10399SOL     OW32095   6.782   3.516   5.846
10399SOL    HW132096   6.797   3.425   5.807
10399SOL    HW232097   6.804   3.515   5.943
10400SOL     OW32098   1.727   4.836   1.956
10400SOL    HW132099   1.654   4.831   2.023
10400SOL    HW232100   1.748   4.931   1.935
10401SOL     OW32101   1.360   5.715   1.220
10401SOL    HW132102   1.336   5.653   1.295
10401SOL    HW232103   1.305   5.693   1.140
10402SOL     OW32104   1.279   2.022   4.721
10402SOL    HW132105   1.295   1.993   4.627
10402SOL    HW232106   1.183   2.048   4.732
10403SOL     OW32107   5.512   1.146   2.926
10403SOL    HW132108   5.511   1.222   2.861
10403SOL    HW232109   5.509   1.060   2.875
10404SOL     OW32110   6.720   0.081   4.106
10404SOL    HW132111   6.651   0.063   4.176
10404SOL    HW232112   6.675   0.103   4.019
10405SOL     OW32113   3.034   6.951   6.790
10405SOL    HW132114   3.108   7.013   6.767
10405SOL    HW232115   2.981   6.988   6.866
10406SOL     OW32116   1.524   5.906   5.211
10406SOL    HW132117   1.559   5.818   5.244
10406SOL    HW232118   1.512   5.968   5.289
10407SOL     OW32119   3.020   0.727   6.541
10407SOL    HW132120   3.112   0.718   6.503
10407SOL    HW232121   3.024   0.779   6.626
10408SOL     OW32122   3.547   6.979   3.204
10408SOL    HW132123   3.463   6.929   3.180
10408SOL    HW232124   3.588   7.017   3.121
10409SOL     OW32125   0.041   4.929   2.493
10409SOL    HW132126   0.031   5.013   2.546
10409SOL    HW232127   0.036   4.950   2.395
10410SOL     OW32128   4.949   5.995   0.536
10410SOL    HW132129   5.035   5.973   0.488
10410SOL    HW232130   4.891   5.915   0.538
10411SOL     OW32131   2.109   4.993   2.473
10411SOL    HW132132   2.171   5.071   2.480
10411SOL    HW232133   2.103   4.963   2.378
10412SOL     OW32134   1.102   3.253   6.551
10412SOL    HW132135   1.183   3.235   6.495
10412SOL    HW232136   1.035   3.303   6.497
10413SOL     OW32137   6.503   1.521   4.817
10413SOL    HW132138   6.550   1.481   4.896
10413SOL    HW232139   6.412   1.552   4.845
10414SOL     OW32140   5.568   6.183   5.060
10414SOL    HW132141   5.522   6.103   5.098
10414SOL    HW232142   5.549   6.189   4.962
10415SOL     OW32143   0.148   4.680   3.340
10415SOL    HW132144   0.207   4.713   3.413
10415SOL    HW232145   0.096   4.756   3.301
10416SOL     OW32146   4.964   0.835   0.325
10416SOL    HW132147   4.869   0.812   0.346
10416SOL    HW232148   5.020   0.826   0.408
10417SOL     OW32149   5.091   4.711   4.742
10417SOL    HW132150   5.072   4.642   4.811
10417SOL    HW232151   5.151   4.673   4.671
10418SOL     OW32152   6.075   3.527   0.297
10418SOL    HW132153   6.031   3.462   0.360
10418SOL    HW232154   6.029   3.616   0.304
10419SOL     OW32155   1.178   0.267   4.734
10419SOL    HW132156   1.205   0.225   4.648
10419SOL    HW232157   1.156   0.196   4.801
10420SOL     OW32158   6.297   3.995   3.863
10420SOL    HW132159   6.250   4.008   3.776
10420SOL    HW232160   6.259   3.915   3.910
10421SOL     OW32161   0.054   3.604   4.666
10421SOL    HW132162   0.127   3.538   4.653
10421SOL    HW232163   0.076   3.664   4.743
10422SOL     OW32164   5.757   2.891   5.335
10422SOL    HW132165   5.745   2.825   5.260
10422SOL    HW232166   5.796   2.844   5.414
10423SOL     OW32167   2.380   5.988   2.369
10423SOL    HW132168   2.477   5.995   2.347
10423SOL    HW232169   2.366   5.914   2.435
10424SOL     OW32170   4.371   0.860   2.249
10424SOL    HW132171   4.412   0.788   2.193
10424SOL    HW232172   4.408   0.949   2.221
10425SOL     OW32173   0.704   4.356   0.496
10425SOL    HW132174   0.767   4.409   0.439
10425SOL    HW232175   0.711   4.260   0.472
10426SOL     OW32176   6.343   1.933   0.309
10426SOL    HW132177   6.375   1.850   0.263
10426SOL    HW232178   6.418   1.999   0.314
10427SOL     OW32179   6.262   0.337   3.649
10427SOL    HW132180   6.348   0.316   3.601
10427SOL    HW232181   6.265   0.297   3.741
10428SOL     OW32182   1.896   0.067   4.596
10428SOL    HW132183   1.858   0.087   4.506
10428SOL    HW232184   1.984   0.022   4.585
10429SOL     OW32185   2.342   4.489   1.797
10429SOL    HW132186   2.283   4.465   1.873
10429SOL    HW232187   2.377   4.582   1.809
10430SOL     OW32188   3.167   1.026   3.605
10430SOL    HW132189   3.130   0.974   3.682
10430SOL    HW232190   3.133   1.120   3.608
10431SOL     OW32191   4.464   2.349   3.679
10431SOL    HW132192   4.489   2.428   3.624
10431SOL    HW232193   4.371   2.320   3.654
10432SOL     OW32194   0.892   4.641   0.928
10432SOL    HW132195   0.840   4.586   0.863
10432SOL    HW232196   0.911   4.588   1.010
10433SOL     OW32197   3.517   6.382   4.736
10433SOL    HW132198   3.613   6.411   4.730
10433SOL    HW232199   3.485   6.354   4.645
10434SOL     OW32200   4.273   2.109   0.083
10434SOL    HW132201   4.247   2.141   0.175
10434SOL    HW232202   4.240   2.016   0.069
10435SOL     OW32203   2.384   1.462   1.574
10435SOL    HW132204   2.398   1.501   1.483
10435SOL    HW232205   2.457   1.398   1.594
10436SOL     OW32206   0.902   3.511   5.572
10436SOL    HW132207   1.002   3.508   5.561
10436SOL    HW232208   0.863   3.574   5.505
10437SOL     OW32209   0.010   7.012   4.666
10437SOL    HW132210   0.077   0.064   4.669
10437SOL    HW232211   6.997   7.004   4.573
10438SOL     OW32212   6.820   5.868   6.772
10438SOL    HW132213   6.846   5.873   6.676
10438SOL    HW232214   6.860   5.785   6.813
10439SOL     OW32215   5.921   5.595   4.808
10439SOL    HW132216   5.914   5.522   4.740
10439SOL    HW232217   5.893   5.559   4.898
10440SOL     OW32218   6.025   2.722   1.107
10440SOL    HW132219   6.018   2.753   1.012
10440SOL    HW232220   6.002   2.798   1.167
10441SOL     OW32221   4.793   1.444   6.431
10441SOL    HW132222   4.889   1.422   6.411
10441SOL    HW232223   4.736   1.364   6.412
10442SOL     OW32224   2.366   0.728   5.562
10442SOL    HW132225   2.288   0.789   5.575
10442SOL    HW232226   2.344   0.638   5.600
10443SOL     OW32227   0.486   0.938   0.278
10443SOL    HW132228   0.450   0.844   0.278
10443SOL    HW232229   0.567   0.942   0.335
10444SOL     OW32230   4.333   5.499   3.758
10444SOL    HW132231   4.330   5.428   3.829
10444SOL    HW232232   4.348   5.588   3.801
10445SOL     OW32233   1.122   3.713   3.856
10445SOL    HW132234   1.116   3.736   3.952
10445SOL    HW232235   1.031   3.716   3.814
10446SOL     OW32236   2.766   4.782   4.796
10446SOL    HW132237   2.714   4.710   4.752
10446SOL    HW232238   2.816   4.745   4.874
10447SOL     OW32239   1.589   2.365   2.764
10447SOL    HW132240   1.522   2.435   2.789
10447SOL    HW232241   1.662   2.362   2.832
10448SOL     OW32242   0.798   5.126   2.806
10448SOL    HW132243   0.769   5.109   2.901
10448SOL    HW232244   0.852   5.210   2.803
10449SOL     OW32245   3.583   5.025   4.490
10449SOL    HW132246   3.581   5.124   4.501
10449SOL    HW232247   3.666   4.989   4.532
10450SOL     OW32248   0.427   2.322   4.532
10450SOL    HW132249   0.332   2.297   4.552
10450SOL    HW232250   0.442   2.418   4.556
10451SOL     OW32251   2.502   1.467   4.575
10451SOL    HW132252   2.441   1.463   4.496
10451SOL    HW232253   2.475   1.397   4.641
10452SOL     OW32254   6.591   2.892   4.596
10452SOL    HW132255   6.670   2.847   4.638
10452SOL    HW232256   6.620   2.943   4.515
10453SOL     OW32257   2.522   5.481   4.045
10453SOL    HW132258   2.580   5.400   4.040
10453SOL    HW232259   2.438   5.465   3.993
10454SOL     OW32260   6.724   1.582   0.075
10454SOL    HW132261   6.724   1.638   7.016
10454SOL    HW232262   6.796   1.614   0.137
10455SOL     OW32263   0.913   5.733   2.662
10455SOL    HW132264   0.863   5.784   2.593
10455SOL    HW232265   0.907   5.782   2.750
10456SOL     OW32266   1.383   5.537   6.387
10456SOL    HW132267   1.396   5.506   6.481
10456SOL    HW232268   1.315   5.610   6.385
10457SOL     OW32269   4.169   1.249   0.922
10457SOL    HW132270   4.190   1.243   1.020
10457SOL    HW232271   4.071   1.268   0.911
10458SOL     OW32272   1.548   6.761   0.371
10458SOL    HW132273   1.487   6.836   0.395
10458SOL    HW232274   1.507   6.674   0.400
10459SOL     OW32275   5.368   6.097   0.966
10459SOL    HW132276   5.326   6.183   0.996
10459SOL    HW232277   5.426   6.061   1.040
10460SOL     OW32278   6.441   0.942   6.438
10460SOL    HW132279   6.397   1.030   6.457
10460SOL    HW232280   6.395   0.870   6.490
10461SOL     OW32281   0.035   3.895   5.715
10461SOL    HW132282   0.030   3.883   5.815
10461SOL    HW232283   0.017   3.991   5.692
10462SOL     OW32284   3.998   3.651   0.013
10462SOL    HW132285   4.047   3.714   6.975
10462SOL    HW232286   3.936   3.704   0.071
10463SOL     OW32287   4.718   2.376   4.954
10463SOL    HW132288   4.762   2.360   4.866
10463SOL    HW232289   4.786   2.408   5.020
10464SOL     OW32290   6.400   4.870   2.078
10464SOL    HW132291   6.476   4.820   2.035
10464SOL    HW232292   6.346   4.915   2.008
10465SOL     OW32293   5.353   4.393   1.184
10465SOL    HW132294   5.326   4.298   1.169
10465SOL    HW232295   5.392   4.402   1.276
10466SOL     OW32296   5.920   3.769   5.447
10466SOL    HW132297   5.991   3.739   5.510
10466SOL    HW232298   5.939   3.734   5.355
10467SOL     OW32299   0.513   3.424   6.605
10467SOL    HW132300   0.579   3.499   6.605
10467SOL    HW232301   0.425   3.457   6.637
10468SOL     OW32302   1.366   4.068   3.784
10468SOL    HW132303   1.321   3.987   3.823
10468SOL    HW232304   1.323   4.151   3.821
10469SOL     OW32305   1.097   0.862   4.386
10469SOL    HW132306   1.023   0.927   4.405
10469SOL    HW232307   1.112   0.858   4.287
10470SOL     OW32308   2.334   3.837   1.570
10470SOL    HW132309   2.342   3.802   1.477
10470SOL    HW232310   2.399   3.788   1.629
10471SOL     OW32311   2.351   4.638   5.744
10471SOL    HW132312   2.294   4.562   5.775
10471SOL    HW232313   2.441   4.631   5.786
10472SOL     OW32314   4.381   5.374   5.808
10472SOL    HW132315   4.429   5.460   5.796
10472SOL    HW232316   4.360   5.360   5.905
10473SOL     OW32317   6.236   5.589   0.113
10473SOL    HW132318   6.274   5.667   0.163
10473SOL    HW232319   6.177   5.536   0.175
10474SOL     OW32320   6.102   5.981   5.089
10474SOL    HW132321   6.160   5.951   5.013
10474SOL    HW232322   6.007   5.962   5.068
10475SOL     OW32323   0.488   5.867   1.660
10475SOL    HW132324   0.438   5.818   1.588
10475SOL    HW232325   0.484   5.965   1.643
10476SOL     OW32326   4.969   6.631   1.350
10476SOL    HW132327   4.882   6.643   1.398
10476SOL    HW232328   5.022   6.716   1.356
10477SOL     OW32329   6.997   5.618   3.638
10477SOL    HW132330   6.911   5.662   3.664
10477SOL    HW232331   0.030   5.683   3.586
10478SOL     OW32332   6.789   0.711   6.781
10478SOL    HW132333   6.751   0.639   6.722
10478SOL    HW232334   6.882   0.686   6.808
10479SOL     OW32335   0.009   3.808   2.573
10479SOL    HW132336   0.106   3.823   2.553
10479SOL    HW232337   6.999   3.879   2.635
10480SOL     OW32338   2.272   0.912   2.959
10480SOL    HW132339   2.239   0.818   2.966
10480SOL    HW232340   2.205   0.973   3.002
10481SOL     OW32341   6.298   0.873   1.418
10481SOL    HW132342   6.220   0.931   1.392
10481SOL    HW232343   6.369   0.880   1.349
10482SOL     OW32344   4.997   4.178   3.923
10482SOL    HW132345   5.031   4.102   3.979
10482SOL    HW232346   5.050   4.260   3.943
10483SOL     OW32347   5.765   0.531   6.755
10483SOL    HW132348   5.759   0.496   6.849
10483SOL    HW232349   5.784   0.629   6.757
10484SOL     OW32350   6.104   0.641   1.820
10484SOL    HW132351   6.008   0.668   1.826
10484SOL    HW232352   6.161   0.710   1.865
10485SOL     OW32353   5.805   3.340   5.670
10485SOL    HW132354   5.887   3.330   5.613
10485SOL    HW232355   5.748   3.257   5.661
10486SOL     OW32356   5.989   3.152   2.056
10486SOL    HW132357   5.952   3.069   2.099
10486SOL    HW232358   6.083   3.134   2.026
10487SOL     OW32359   3.590   6.720   2.453
10487SOL    HW132360   3.576   6.642   2.392
10487SOL    HW232361   3.671   6.705   2.510
10488SOL     OW32362   4.138   4.136   6.406
10488SOL    HW132363   4.100   4.052   6.444
10488SOL    HW232364   4.235   4.123   6.387
10489SOL     OW32365   1.861   5.433   5.508
10489SOL    HW132366   1.890   5.360   5.569
10489SOL    HW232367   1.917   5.515   5.523
10490SOL     OW32368   6.260   6.913   4.469
10490SOL    HW132369   6.287   6.956   4.383
10490SOL    HW232370   6.161   6.901   4.472
10491SOL     OW32371   6.466   5.847   5.152
10491SOL    HW132372   6.555   5.808   5.175
10491SOL    HW232373   6.436   5.812   5.064
10492SOL     OW32374   5.327   4.281   5.484
10492SOL    HW132375   5.309   4.297   5.581
10492SOL    HW232376   5.424   4.298   5.465
10493SOL     OW32377   3.147   1.674   0.916
10493SOL    HW132378   3.161   1.677   1.015
10493SOL    HW232379   3.090   1.596   0.893
10494SOL     OW32380   5.553   1.280   5.362
10494SOL    HW132381   5.592   1.255   5.450
10494SOL    HW232382   5.464   1.323   5.375
10495SOL     OW32383   1.591   0.117   6.328
10495SOL    HW132384   1.642   0.110   6.242
10495SOL    HW232385   1.516   0.183   6.316
10496SOL     OW32386   6.472   6.947   5.486
10496SOL    HW132387   6.379   6.981   5.471
10496SOL    HW232388   6.478   6.851   5.459
10497SOL     OW32389   1.993   1.429   6.779
10497SOL    HW132390   1.967   1.364   6.708
10497SOL    HW232391   1.985   1.522   6.744
10498SOL     OW32392   3.201   5.302   5.675
10498SOL    HW132393   3.185   5.203   5.686
10498SOL    HW232394   3.113   5.349   5.667
10499SOL     OW32395   2.620   5.661   2.745
10499SOL    HW132396   2.585   5.663   2.839
10499SOL    HW232397   2.544   5.645   2.682
10500SOL     OW32398   2.217   2.030   6.924
10500SOL    HW132399   2.254   2.095   6.857
10500SOL    HW232400   2.214   1.938   6.883
10501SOL     OW32401   1.987   4.005   3.120
10501SOL    HW132402   1.976   4.016   3.219
10501SOL    HW232403   2.036   3.920   3.101
10502SOL     OW32404   2.979   5.849   4.436
10502SOL    HW132405   2.970   5.800   4.350
10502SOL    HW232406   2.889   5.857   4.481
10503SOL     OW32407   2.068   3.281   6.354
10503SOL    HW132408   2.164   3.305   6.373
10503SOL    HW232409   2.022   3.262   6.440
10504SOL     OW32410   2.185   3.571   0.770
10504SOL    HW132411   2.191   3.582   0.670
10504SOL    HW232412   2.095   3.604   0.801
10505SOL     OW32413   1.037   6.410   6.969
10505SOL    HW132414   1.046   6.409   6.869
10505SOL    HW232415   0.977   6.335   6.997
10506SOL     OW32416   6.551   4.741   5.475
10506SOL    HW132417   6.599   4.702   5.554
10506SOL    HW232418   6.561   4.680   5.396
10507SOL     OW32419   2.460   0.285   3.219
10507SOL    HW132420   2.542   0.260   3.168
10507SOL    HW232421   2.485   0.315   3.311
10508SOL     OW32422   5.721   4.156   2.311
10508SOL    HW132423   5.689   4.142   2.405
10508SOL    HW232424   5.719   4.253   2.289
10509SOL     OW32425   2.375   1.083   5.248
10509SOL    HW132426   2.366   1.154   5.318
10509SOL    HW232427   2.340   1.117   5.161
10510SOL     OW32428   5.802   0.776   6.649
10510SOL    HW132429   5.702   0.781   6.648
10510SOL    HW232430   5.837   0.802   6.559
10511SOL     OW32431   6.914   2.770   1.988
10511SOL    HW132432   6.918   2.854   1.934
10511SOL    HW232433   6.962   2.697   1.939
10512SOL     OW32434   2.257   0.166   6.396
10512SOL    HW132435   2.180   0.159   6.460
10512SOL    HW232436   2.335   0.207   6.442
10513SOL     OW32437   0.048   2.276   0.771
10513SOL    HW132438   0.102   2.356   0.745
10513SOL    HW232439   6.996   2.264   0.706
10514SOL     OW32440   1.084   3.149   1.544
10514SOL    HW132441   1.183   3.138   1.552
10514SOL    HW232442   1.063   3.226   1.484
10515SOL     OW32443   0.146   3.209   5.359
10515SOL    HW132444   0.237   3.187   5.323
10515SOL    HW232445   0.102   3.277   5.301
10516SOL     OW32446   2.517   6.916   1.098
10516SOL    HW132447   2.507   6.856   1.019
10516SOL    HW232448   2.451   6.890   1.168
10517SOL     OW32449   0.546   2.549   3.130
10517SOL    HW132450   0.596   2.599   3.201
10517SOL    HW232451   0.466   2.504   3.170
10518SOL     OW32452   0.334   6.133   3.222
10518SOL    HW132453   0.388   6.064   3.270
10518SOL    HW232454   0.272   6.088   3.158
10519SOL     OW32455   4.357   2.591   5.659
10519SOL    HW132456   4.448   2.625   5.685
10519SOL    HW232457   4.295   2.668   5.646
10520SOL     OW32458   3.127   4.884   6.169
10520SOL    HW132459   3.182   4.939   6.105
10520SOL    HW232460   3.100   4.941   6.247
10521SOL     OW32461   0.021   5.623   2.196
10521SOL    HW132462   0.055   5.536   2.159
10521SOL    HW232463   6.944   5.620   2.202
10522SOL     OW32464   6.823   6.922   2.461
10522SOL    HW132465   6.838   6.835   2.413
10522SOL    HW232466   6.911   6.960   2.489
10523SOL     OW32467   6.259   6.645   6.254
10523SOL    HW132468   6.287   6.571   6.194
10523SOL    HW232469   6.177   6.690   6.217
10524SOL     OW32470   4.761   0.887   4.553
10524SOL    HW132471   4.861   0.895   4.557
10524SOL    HW232472   4.721   0.978   4.556
10525SOL     OW32473   2.839   0.024   4.748
10525SOL    HW132474   2.883   6.983   4.684
10525SOL    HW232475   2.746   7.016   4.767
10526SOL     OW32476   4.172   6.419   2.800
10526SOL    HW132477   4.141   6.414   2.896
10526SOL    HW232478   4.185   6.327   2.764
10527SOL     OW32479   1.761   2.564   4.930
10527SOL    HW132480   1.824   2.498   4.970
10527SOL    HW232481   1.805   2.654   4.926
10528SOL     OW32482   6.115   5.104   6.004
10528SOL    HW132483   6.121   5.193   5.959
10528SOL    HW232484   6.101   5.116   6.102
10529SOL     OW32485   0.095   5.579   5.191
10529SOL    HW132486   0.013   5.565   5.136
10529SOL    HW232487   0.119   5.676   5.191
10530SOL     OW32488   1.446   2.227   5.270
10530SOL    HW132489   1.427   2.194   5.178
10530SOL    HW232490   1.532   2.278   5.271
10531SOL     OW32491   2.052   2.457   4.802
10531SOL    HW132492   1.994   2.463   4.884
10531SOL    HW232493   2.110   2.538   4.797
10532SOL     OW32494   3.273   3.626   4.671
10532SOL    HW132495   3.290   3.692   4.744
10532SOL    HW232496   3.231   3.671   4.593
10533SOL     OW32497   3.502   0.589   6.466
10533SOL    HW132498   3.569   0.651   6.426
10533SOL    HW232499   3.522   0.495   6.437
10534SOL     OW32500   5.906   4.967   1.670
10534SOL    HW132501   5.942   4.889   1.619
10534SOL    HW232502   5.878   4.937   1.761
10535SOL     OW32503   0.052   1.309   1.753
10535SOL    HW132504   0.050   1.371   1.831
10535SOL    HW232505   6.993   1.322   1.697
10536SOL     OW32506   5.711   5.631   3.529
10536SOL    HW132507   5.614   5.613   3.543
10536SOL    HW232508   5.755   5.548   3.493
10537SOL     OW32509   6.523   5.626   1.789
10537SOL    HW132510   6.559   5.562   1.857
10537SOL    HW232511   6.511   5.578   1.702
10538SOL     OW32512   3.999   3.353   6.734
10538SOL    HW132513   3.929   3.419   6.761
10538SOL    HW232514   4.087   3.398   6.728
10539SOL     OW32515   0.764   2.922   4.967
10539SOL    HW132516   0.672   2.885   4.954
10539SOL    HW232517   0.760   3.021   4.970
10540SOL     OW32518   3.840   0.856   0.235
10540SOL    HW132519   3.847   0.879   0.138
10540SOL    HW232520   3.794   0.767   0.245
10541SOL     OW32521   3.838   2.756   1.762
10541SOL    HW132522   3.740   2.775   1.756
10541SOL    HW232523   3.885   2.839   1.792
10542SOL     OW32524   1.633   1.908   0.455
10542SOL    HW132525   1.579   1.843   0.401
10542SOL    HW232526   1.668   1.980   0.395
10543SOL     OW32527   2.277   0.567   4.586
10543SOL    HW132528   2.353   0.502   4.595
10543SOL    HW232529   2.258   0.583   4.489
10544SOL     OW32530   0.104   2.020   1.849
10544SOL    HW132531   0.020   2.026   1.795
10544SOL    HW232532   0.160   2.101   1.833
10545SOL     OW32533   4.645   1.507   3.000
10545SOL    HW132534   4.594   1.437   2.951
10545SOL    HW232535   4.627   1.499   3.098
10546SOL     OW32536   4.698   0.895   5.483
10546SOL    HW132537   4.756   0.936   5.554
10546SOL    HW232538   4.712   0.944   5.396
10547SOL     OW32539   4.870   5.977   1.888
10547SOL    HW132540   4.922   5.964   1.972
10547SOL    HW232541   4.820   5.894   1.866
10548SOL     OW32542   4.487   3.882   5.430
10548SOL    HW132543   4.433   3.830   5.364
10548SOL    HW232544   4.563   3.826   5.462
10549SOL     OW32545   0.874   1.479   1.858
10549SOL    HW132546   0.777   1.501   1.846
10549SOL    HW232547   0.924   1.500   1.774
10550SOL     OW32548   4.532   6.850   4.719
10550SOL    HW132549   4.560   6.933   4.671
10550SOL    HW232550   4.587   6.772   4.686
10551SOL     OW32551   1.254   3.260   6.326
10551SOL    HW132552   1.300   3.174   6.301
10551SOL    HW232553   1.166   3.264   6.280
10552SOL     OW32554   3.627   1.452   5.015
10552SOL    HW132555   3.530   1.476   5.024
10552SOL    HW232556   3.635   1.358   4.981
10553SOL     OW32557   2.952   5.257   6.085
10553SOL    HW132558   3.040   5.228   6.124
10553SOL    HW232559   2.901   5.308   6.154
10554SOL     OW32560   6.328   3.682   5.937
10554SOL    HW132561   6.341   3.647   6.030
10554SOL    HW232562   6.307   3.780   5.941
10555SOL     OW32563   3.615   3.069   1.606
10555SOL    HW132564   3.590   3.120   1.688
10555SOL    HW232565   3.571   3.111   1.526
10556SOL     OW32566   0.905   3.863   4.191
10556SOL    HW132567   0.905   3.934   4.261
10556SOL    HW232568   0.854   3.895   4.111
10557SOL     OW32569   5.381   1.449   3.349
10557SOL    HW132570   5.386   1.406   3.259
10557SOL    HW232571   5.372   1.379   3.419
10558SOL     OW32572   5.551   5.935   5.248
10558SOL    HW132573   5.547   6.004   5.319
10558SOL    HW232574   5.614   5.862   5.275
10559SOL     OW32575   4.370   2.759   0.486
10559SOL    HW132576   4.319   2.702   0.550
10559SOL    HW232577   4.410   2.701   0.415
10560SOL     OW32578   6.345   2.036   4.183
10560SOL    HW132579   6.353   2.000   4.091
10560SOL    HW232580   6.436   2.038   4.226
10561SOL     OW32581   2.345   3.713   6.822
10561SOL    HW132582   2.317   3.640   6.760
10561SOL    HW232583   2.302   3.700   6.911
10562SOL     OW32584   3.905   1.804   0.096
10562SOL    HW132585   3.986   1.856   0.068
10562SOL    HW232586   3.907   1.790   0.195
10563SOL     OW32587   1.184   2.002   2.846
10563SOL    HW132588   1.106   2.026   2.788
10563SOL    HW232589   1.247   1.944   2.795
10564SOL     OW32590   6.932   1.808   2.369
10564SOL    HW132591   6.956   1.713   2.388
10564SOL    HW232592   6.925   1.859   2.455
10565SOL     OW32593   4.974   1.359   4.956
10565SOL    HW132594   5.050   1.344   5.019
10565SOL    HW232595   4.904   1.415   5.001
10566SOL     OW32596   4.769   5.160   6.430
10566SOL    HW132597   4.792   5.233   6.494
10566SOL    HW232598   4.852   5.127   6.385
10567SOL     OW32599   2.125   5.544   4.958
10567SOL    HW132600   2.054   5.570   4.893
10567SOL    HW232601   2.215   5.567   4.920
10568SOL     OW32602   3.264   1.494   2.900
10568SOL    HW132603   3.248   1.568   2.836
10568SOL    HW232604   3.196   1.497   2.973
10569SOL     OW32605   6.450   2.342   3.892
10569SOL    HW132606   6.457   2.439   3.867
10569SOL    HW232607   6.359   2.324   3.931
10570SOL     OW32608   1.073   3.832   0.845
10570SOL    HW132609   0.976   3.848   0.862
10570SOL    HW232610   1.095   3.737   0.866
10571SOL     OW32611   6.666   6.926   4.629
10571SOL    HW132612   6.739   6.953   4.565
10571SOL    HW232613   6.631   7.007   4.675
10572SOL     OW32614   6.689   3.953   1.752
10572SOL    HW132615   6.705   3.879   1.818
10572SOL    HW232616   6.637   3.917   1.675
10573SOL     OW32617   6.316   5.269   5.295
10573SOL    HW132618   6.230   5.219   5.312
10573SOL    HW232619   6.393   5.207   5.306
10574SOL     OW32620   0.489   2.164   3.111
10574SOL    HW132621   0.566   2.102   3.095
10574SOL    HW232622   0.474   2.173   3.209
10575SOL     OW32623   0.482   6.745   6.149
10575SOL    HW132624   0.560   6.808   6.143
10575SOL    HW232625   0.476   6.709   6.242
10576SOL     OW32626   1.165   5.908   3.326
10576SOL    HW132627   1.197   5.874   3.415
10576SOL    HW232628   1.232   5.884   3.256
10577SOL     OW32629   0.194   2.223   6.037
10577SOL    HW132630   0.173   2.321   6.038
10577SOL    HW232631   0.177   2.187   5.945
10578SOL     OW32632   4.924   0.680   5.562
10578SOL    HW132633   4.859   0.755   5.551
10578SOL    HW232634   4.900   0.606   5.500
10579SOL     OW32635   5.469   0.002   0.662
10579SOL    HW132636   5.386   0.054   0.682
10579SOL    HW232637   5.447   6.929   0.651
10580SOL     OW32638   0.579   5.656   0.088
10580SOL    HW132639   0.559   5.652   7.013
10580SOL    HW232640   0.572   5.564   0.127
10581SOL     OW32641   4.383   2.420   2.960
10581SOL    HW132642   4.431   2.505   2.937
10581SOL    HW232643   4.298   2.415   2.907
10582SOL     OW32644   3.406   4.267   6.914
10582SOL    HW132645   3.412   4.328   6.835
10582SOL    HW232646   3.310   4.256   6.940
10583SOL     OW32647   4.906   1.336   1.289
10583SOL    HW132648   4.966   1.310   1.365
10583SOL    HW232649   4.822   1.376   1.326
10584SOL     OW32650   5.831   6.519   1.438
10584SOL    HW132651   5.880   6.432   1.443
10584SOL    HW232652   5.868   6.573   1.363
10585SOL     OW32653   2.914   4.308   6.011
10585SOL    HW132654   2.983   4.278   5.946
10585SOL    HW232655   2.839   4.243   6.013
10586SOL     OW32656   4.625   1.971   1.442
10586SOL    HW132657   4.542   1.927   1.477
10586SOL    HW232658   4.706   1.925   1.480
10587SOL     OW32659   6.676   3.456   0.255
10587SOL    HW132660   6.753   3.498   0.207
10587SOL    HW232661   6.697   3.450   0.352
10588SOL     OW32662   1.445   4.714   3.301
10588SOL    HW132663   1.456   4.616   3.322
10588SOL    HW232664   1.351   4.732   3.274
10589SOL     OW32665   6.485   1.282   4.234
10589SOL    HW132666   6.399   1.245   4.268
10589SOL    HW232667   6.514   1.231   4.153
10590SOL     OW32668   1.831   6.956   5.115
10590SOL    HW132669   1.896   0.008   5.127
10590SOL    HW232670   1.805   6.949   5.019
10591SOL     OW32671   1.596   2.233   1.655
10591SOL    HW132672   1.536   2.213   1.578
10591SOL    HW232673   1.663   2.302   1.629
10592SOL     OW32674   5.378   1.157   6.487
10592SOL    HW132675   5.400   1.211   6.406
10592SOL    HW232676   5.408   1.063   6.473
10593SOL     OW32677   1.374   3.806   2.404
10593SOL    HW132678   1.426   3.770   2.326
10593SOL    HW232679   1.279   3.775   2.397
10594SOL     OW32680   1.018   1.428   4.686
10594SOL    HW132681   1.045   1.339   4.648
10594SOL    HW232682   0.929   1.455   4.647
10595SOL     OW32683   1.477   5.843   4.677
10595SOL    HW132684   1.399   5.824   4.617
10595SOL    HW232685   1.448   5.838   4.772
10596SOL     OW32686   2.953   1.309   1.352
10596SOL    HW132687   2.970   1.266   1.440
10596SOL    HW232688   2.855   1.329   1.342
10597SOL     OW32689   1.441   0.796   3.995
10597SOL    HW132690   1.396   0.716   4.033
10597SOL    HW232691   1.385   0.877   4.011
10598SOL     OW32692   2.548   0.424   0.669
10598SOL    HW132693   2.458   0.405   0.707
10598SOL    HW232694   2.537   0.458   0.575
10599SOL     OW32695   4.664   7.016   6.575
10599SOL    HW132696   4.564   7.013   6.580
10599SOL    HW232697   4.696   6.945   6.513
10600SOL     OW32698   1.844   3.289   5.130
10600SOL    HW132699   1.876   3.290   5.224
10600SOL    HW232700   1.756   3.240   5.125
10601SOL     OW32701   3.937   6.367   5.465
10601SOL    HW132702   4.014   6.416   5.507
10601SOL    HW232703   3.967   6.324   5.380
10602SOL     OW32704   4.534   2.199   2.282
10602SOL    HW132705   4.607   2.260   2.250
10602SOL    HW232706   4.446   2.245   2.273
10603SOL     OW32707   0.440   5.333   4.906
10603SOL    HW132708   0.381   5.285   4.970
10603SOL    HW232709   0.421   5.431   4.909
10604SOL     OW32710   0.381   4.037   6.031
10604SOL    HW132711   0.302   4.054   6.089
10604SOL    HW232712   0.364   4.070   5.938
10605SOL     OW32713   1.495   5.166   6.338
10605SOL    HW132714   1.548   5.236   6.291
10605SOL    HW232715   1.399   5.193   6.342
10606SOL     OW32716   0.736   1.350   2.134
10606SOL    HW132717   0.761   1.258   2.102
10606SOL    HW232718   0.755   1.357   2.232
10607SOL     OW32719   5.954   3.902   6.493
10607SOL    HW132720   5.966   3.810   6.532
10607SOL    HW232721   6.043   3.944   6.480
10608SOL     OW32722   5.642   6.420   2.317
10608SOL    HW132723   5.611   6.493   2.256
10608SOL    HW232724   5.572   6.348   2.321
10609SOL     OW32725   4.042   6.692   2.882
10609SOL    HW132726   4.017   6.623   2.814
10609SOL    HW232727   3.995   6.673   2.968
10610SOL     OW32728   1.924   4.449   5.049
10610SOL    HW132729   1.955   4.522   5.109
10610SOL    HW232730   2.002   4.407   5.004
10611SOL     OW32731   5.091   1.989   5.838
10611SOL    HW132732   4.997   1.956   5.836
10611SOL    HW232733   5.142   1.942   5.910
10612SOL     OW32734   1.946   0.244   1.539
10612SOL    HW132735   1.994   0.319   1.585
10612SOL    HW232736   1.903   0.279   1.456
10613SOL     OW32737   0.888   6.145   6.913
10613SOL    HW132738   0.891   6.056   6.959
10613SOL    HW232739   0.794   6.177   6.909
10614SOL     OW32740   0.293   0.665   2.682
10614SOL    HW132741   0.195   0.679   2.693
10614SOL    HW232742   0.341   0.710   2.757
10615SOL     OW32743   0.018   6.901   5.167
10615SOL    HW132744   0.089   6.842   5.130
10615SOL    HW232745   6.970   6.845   5.209
10616SOL     OW32746   3.387   5.943   1.287
10616SOL    HW132747   3.344   5.942   1.196
10616SOL    HW232748   3.441   5.860   1.299
10617SOL     OW32749   6.880   1.690   6.552
10617SOL    HW132750   6.824   1.607   6.546
10617SOL    HW232751   6.937   1.686   6.634
10618SOL     OW32752   6.518   4.245   0.978
10618SOL    HW132753   6.543   4.342   0.968
10618SOL    HW232754   6.496   4.226   1.074
10619SOL     OW32755   0.276   2.837   3.732
10619SOL    HW132756   0.365   2.816   3.692
10619SOL    HW232757   0.232   2.910   3.678
10620SOL     OW32758   1.702   5.354   3.976
10620SOL    HW132759   1.684   5.332   3.880
10620SOL    HW232760   1.625   5.325   4.032
10621SOL     OW32761   3.715   6.954   1.107
10621SOL    HW132762   3.734   6.872   1.161
10621SOL    HW232763   3.800   6.989   1.069
10622SOL     OW32764   3.977   2.026   0.627
10622SOL    HW132765   4.057   1.978   0.592
10622SOL    HW232766   3.996   2.058   0.720
10623SOL     OW32767   0.418   1.262   4.717
10623SOL    HW132768   0.496   1.320   4.736
10623SOL    HW232769   0.382   1.224   4.803
10624SOL     OW32770   2.638   1.402   4.088
10624SOL    HW132771   2.542   1.424   4.076
10624SOL    HW232772   2.693   1.454   4.021
10625SOL     OW32773   0.528   2.722   0.761
10625SOL    HW132774   0.617   2.707   0.803
10625SOL    HW232775   0.522   2.817   0.728
10626SOL     OW32776   7.002   1.909   3.310
10626SOL    HW132777   0.016   1.854   3.236
10626SOL    HW232778   6.986   2.003   3.278
10627SOL     OW32779   4.770   5.638   4.635
10627SOL    HW132780   4.706   5.589   4.575
10627SOL    HW232781   4.760   5.737   4.621
10628SOL     OW32782   6.770   6.536   5.006
10628SOL    HW132783   6.723   6.543   4.918
10628SOL    HW232784   6.730   6.602   5.070
10629SOL     OW32785   2.496   3.896   6.378
10629SOL    HW132786   2.564   3.922   6.309
10629SOL    HW232787   2.430   3.971   6.388
10630SOL     OW32788   5.539   1.249   1.946
10630SOL    HW132789   5.581   1.239   1.855
10630SOL    HW232790   5.580   1.183   2.008
10631SOL     OW32791   1.549   6.768   4.513
10631SOL    HW132792   1.564   6.779   4.415
10631SOL    HW232793   1.508   6.678   4.530
10632SOL     OW32794   0.141   3.149   0.111
10632SOL    HW132795   0.070   3.217   0.125
10632SOL    HW232796   0.204   3.150   0.189
10633SOL     OW32797   1.341   5.285   6.922
10633SOL    HW132798   1.387   5.348   6.984
10633SOL    HW232799   1.397   5.203   6.910
10634SOL     OW32800   3.214   6.844   2.346
10634SOL    HW132801   3.309   6.862   2.319
10634SOL    HW232802   3.209   6.756   2.393
10635SOL     OW32803   1.659   1.141   1.713
10635SOL    HW132804   1.581   1.190   1.675
10635SOL    HW232805   1.705   1.198   1.782
10636SOL     OW32806   5.110   1.850   0.116
10636SOL    HW132807   5.056   1.797   0.051
10636SOL    HW232808   5.188   1.796   0.147
10637SOL     OW32809   3.034   3.498   6.403
10637SOL    HW132810   3.028   3.584   6.351
10637SOL    HW232811   3.112   3.445   6.371
10638SOL     OW32812   6.417   0.562   5.929
10638SOL    HW132813   6.397   0.514   6.014
10638SOL    HW232814   6.402   0.660   5.942
10639SOL     OW32815   3.672   2.161   5.111
10639SOL    HW132816   3.606   2.140   5.039
10639SOL    HW232817   3.764   2.138   5.079
10640SOL     OW32818   4.791   6.516   0.534
10640SOL    HW132819   4.743   6.604   0.542
10640SOL    HW232820   4.856   6.507   0.610
10641SOL     OW32821   3.715   7.006   0.164
10641SOL    HW132822   3.727   6.995   0.262
10641SOL    HW232823   3.636   0.042   0.146
10642SOL     OW32824   0.622   5.687   1.143
10642SOL    HW132825   0.690   5.704   1.071
10642SOL    HW232826   0.641   5.746   1.221
10643SOL     OW32827   3.657   3.446   5.454
10643SOL    HW132828   3.581   3.472   5.394
10643SOL    HW232829   3.727   3.398   5.400
10644SOL     OW32830   3.555   1.064   5.510
10644SOL    HW132831   3.516   0.973   5.499
10644SOL    HW232832   3.498   1.131   5.462
10645SOL     OW32833   2.051   0.347   4.289
10645SOL    HW132834   2.124   0.392   4.239
10645SOL    HW232835   1.968   0.403   4.285
10646SOL     OW32836   6.637   5.644   6.627
10646SOL    HW132837   6.709   5.712   6.614
10646SOL    HW232838   6.574   5.675   6.699
10647SOL     OW32839   0.049   6.011   0.853
10647SOL    HW132840   0.044   5.917   0.821
10647SOL    HW232841   7.020   6.021   0.938
10648SOL     OW32842   5.009   3.848   6.156
10648SOL    HW132843   5.004   3.941   6.120
10648SOL    HW232844   4.958   3.842   6.242
10649SOL     OW32845   6.873   5.096   6.613
10649SOL    HW132846   6.857   5.049   6.700
10649SOL    HW232847   6.894   5.029   6.542
10650SOL     OW32848   2.239   0.134   5.833
10650SOL    HW132849   2.177   0.194   5.782
10650SOL    HW232850   2.278   0.065   5.771
10651SOL     OW32851   1.824   0.754   4.779
10651SOL    HW132852   1.886   0.694   4.728
10651SOL    HW232853   1.733   0.751   4.739
10652SOL     OW32854   4.861   0.897   0.610
10652SOL    HW132855   4.853   0.875   0.707
10652SOL    HW232856   4.955   0.926   0.590
10653SOL     OW32857   5.985   3.869   4.215
10653SOL    HW132858   5.946   3.905   4.300
10653SOL    HW232859   6.021   3.945   4.160
10654SOL     OW32860   4.376   0.514   1.496
10654SOL    HW132861   4.448   0.449   1.519
10654SOL    HW232862   4.412   0.608   1.504
10655SOL     OW32863   2.535   5.925   1.081
10655SOL    HW132864   2.593   5.851   1.116
10655SOL    HW232865   2.494   5.897   0.994
10656SOL     OW32866   6.537   2.884   6.267
10656SOL    HW132867   6.461   2.947   6.249
10656SOL    HW232868   6.569   2.845   6.180
10657SOL     OW32869   6.216   7.007   0.815
10657SOL    HW132870   6.157   6.957   0.879
10657SOL    HW232871   6.246   6.944   0.743
10658SOL     OW32872   6.876   6.181   4.093
10658SOL    HW132873   6.933   6.225   4.162
10658SOL    HW232874   6.912   6.089   4.075
10659SOL     OW32875   5.197   1.042   1.695
10659SOL    HW132876   5.146   1.058   1.779
10659SOL    HW232877   5.142   1.069   1.616
10660SOL     OW32878   5.234   4.881   5.551
10660SOL    HW132879   5.330   4.909   5.563
10660SOL    HW232880   5.183   4.956   5.508
10661SOL     OW32881   6.864   1.331   1.615
10661SOL    HW132882   6.875   1.406   1.549
10661SOL    HW232883   6.854   1.244   1.566
10662SOL     OW32884   6.971   1.893   0.587
10662SOL    HW132885   0.023   1.828   0.597
10662SOL    HW232886   7.005   1.986   0.602
10663SOL     OW32887   0.527   2.298   1.792
10663SOL    HW132888   0.513   2.351   1.708
10663SOL    HW232889   0.623   2.272   1.799
10664SOL     OW32890   2.493   5.439   6.215
10664SOL    HW132891   2.471   5.364   6.153
10664SOL    HW232892   2.527   5.517   6.163
10665SOL     OW32893   5.590   1.996   0.003
10665SOL    HW132894   5.640   2.050   0.071
10665SOL    HW232895   5.634   2.007   6.937
10666SOL     OW32896   0.646   6.819   0.353
10666SOL    HW132897   0.743   6.811   0.378
10666SOL    HW232898   0.601   6.882   0.416
10667SOL     OW32899   3.218   2.090   5.742
10667SOL    HW132900   3.207   2.143   5.658
10667SOL    HW232901   3.315   2.065   5.753
10668SOL     OW32902   1.471   0.540   6.404
10668SOL    HW132903   1.558   0.503   6.437
10668SOL    HW232904   1.402   0.527   6.475
10669SOL     OW32905   2.227   5.856   6.630
10669SOL    HW132906   2.248   5.917   6.554
10669SOL    HW232907   2.219   5.762   6.597
10670SOL     OW32908   5.717   4.302   4.913
10670SOL    HW132909   5.691   4.344   4.826
10670SOL    HW232910   5.815   4.283   4.913
10671SOL     OW32911   2.196   2.872   3.323
10671SOL    HW132912   2.253   2.790   3.330
10671SOL    HW232913   2.145   2.871   3.237
10672SOL     OW32914   6.530   2.280   0.858
10672SOL    HW132915   6.501   2.372   0.885
10672SOL    HW232916   6.459   2.214   0.883
10673SOL     OW32917   3.478   4.134   4.058
10673SOL    HW132918   3.406   4.201   4.043
10673SOL    HW232919   3.438   4.049   4.091
10674SOL     OW32920   4.497   1.538   2.582
10674SOL    HW132921   4.465   1.628   2.614
10674SOL    HW232922   4.586   1.518   2.623
10675SOL     OW32923   1.273   1.622   6.091
10675SOL    HW132924   1.223   1.593   6.009
10675SOL    HW232925   1.322   1.707   6.071
10676SOL     OW32926   6.348   0.702   0.001
10676SOL    HW132927   6.265   0.748   0.033
10676SOL    HW232928   6.380   0.638   0.071
10677SOL     OW32929   5.317   1.518   0.269
10677SOL    HW132930   5.348   1.600   0.221
10677SOL    HW232931   5.354   1.437   0.224
10678SOL     OW32932   1.127   5.282   3.758
10678SOL    HW132933   1.084   5.366   3.724
10678SOL    HW232934   1.123   5.282   3.858
10679SOL     OW32935   5.742   5.116   3.792
10679SOL    HW132936   5.767   5.043   3.729
10679SOL    HW232937   5.653   5.154   3.766
10680SOL     OW32938   0.122   2.604   4.065
10680SOL    HW132939   0.062   2.669   4.017
10680SOL    HW232940   0.209   2.648   4.085
10681SOL     OW32941   0.929   3.504   0.026
10681SOL    HW132942   0.921   3.451   0.110
10681SOL    HW232943   0.963   3.445   6.975
10682SOL     OW32944   6.296   2.253   3.424
10682SOL    HW132945   6.372   2.280   3.483
10682SOL    HW232946   6.233   2.195   3.475
10683SOL     OW32947   0.829   0.426   3.994
10683SOL    HW132948   0.803   0.348   3.938
10683SOL    HW232949   0.806   0.408   4.090
10684SOL     OW32950   5.329   6.056   0.698
10684SOL    HW132951   5.319   6.056   0.798
10684SOL    HW232952   5.334   5.962   0.665
10685SOL     OW32953   6.421   2.869   3.056
10685SOL    HW132954   6.493   2.897   2.992
10685SOL    HW232955   6.342   2.929   3.047
10686SOL     OW32956   4.595   4.569   1.474
10686SOL    HW132957   4.630   4.508   1.545
10686SOL    HW232958   4.495   4.574   1.482
10687SOL     OW32959   0.211   5.370   0.906
10687SOL    HW132960   0.259   5.282   0.902
10687SOL    HW232961   0.153   5.380   0.825
10688SOL     OW32962   1.472   4.607   0.834
10688SOL    HW132963   1.518   4.671   0.895
10688SOL    HW232964   1.513   4.613   0.743
10689SOL     OW32965   0.313   0.268   0.793
10689SOL    HW132966   0.234   0.228   0.746
10689SOL    HW232967   0.362   0.195   0.842
10690SOL     OW32968   3.818   0.483   3.111
10690SOL    HW132969   3.821   0.384   3.097
10690SOL    HW232970   3.802   0.502   3.208
10691SOL     OW32971   5.516   1.571   1.675
10691SOL    HW132972   5.468   1.647   1.629
10691SOL    HW232973   5.496   1.574   1.773
10692SOL     OW32974   5.756   6.291   4.126
10692SOL    HW132975   5.770   6.266   4.030
10692SOL    HW232976   5.795   6.220   4.185
10693SOL     OW32977   4.915   2.509   4.265
10693SOL    HW132978   4.968   2.526   4.182
10693SOL    HW232979   4.818   2.502   4.241
10694SOL     OW32980   2.324   5.834   0.113
10694SOL    HW132981   2.321   5.885   0.027
10694SOL    HW232982   2.419   5.816   0.138
10695SOL     OW32983   5.927   2.937   5.738
10695SOL    HW132984   5.922   2.938   5.838
10695SOL    HW232985   5.838   2.962   5.700
10696SOL     OW32986   6.419   0.142   0.912
10696SOL    HW132987   6.476   0.076   0.960
10696SOL    HW232988   6.353   0.094   0.854
10697SOL     OW32989   2.304   5.824   2.869
10697SOL    HW132990   2.324   5.740   2.819
10697SOL    HW232991   2.256   5.801   2.954
10698SOL     OW32992   3.430   0.353   3.744
10698SOL    HW132993   3.450   0.421   3.814
10698SOL    HW232994   3.332   0.331   3.746
10699SOL     OW32995   0.463   3.197   3.582
10699SOL    HW132996   0.454   3.208   3.483
10699SOL    HW232997   0.504   3.108   3.603
10700SOL     OW32998   1.060   3.080   2.524
10700SOL    HW132999   1.015   3.065   2.611
10700SOL    HW233000   1.156   3.103   2.540
10701SOL     OW33001   2.698   6.748   1.363
10701SOL    HW133002   2.712   6.819   1.294
10701SOL    HW233003   2.746   6.773   1.447
10702SOL     OW33004   4.782   2.159   0.608
10702SOL    HW133005   4.818   2.068   0.587
10702SOL    HW233006   4.858   2.224   0.612
10703SOL     OW33007   3.903   3.826   4.055
10703SOL    HW133008   3.809   3.799   4.075
10703SOL    HW233009   3.946   3.860   4.139
10704SOL     OW33010   5.459   5.927   1.534
10704SOL    HW133011   5.467   5.838   1.579
10704SOL    HW233012   5.369   5.966   1.552
10705SOL     OW33013   1.420   2.907   6.930
10705SOL    HW133014   1.349   2.900   6.860
10705SOL    HW233015   1.481   2.984   6.909
10706SOL     OW33016   3.403   3.499   0.611
10706SOL    HW133017   3.426   3.522   0.706
10706SOL    HW233018   3.387   3.583   0.559
10707SOL     OW33019   6.040   0.529   6.553
10707SOL    HW133020   5.957   0.554   6.603
10707SOL    HW233021   6.019   0.524   6.455
10708SOL     OW33022   4.521   2.419   1.483
10708SOL    HW133023   4.451   2.375   1.428
10708SOL    HW233024   4.489   2.428   1.577
10709SOL     OW33025   0.686   1.170   6.484
10709SOL    HW133026   0.717   1.076   6.491
10709SOL    HW233027   0.706   1.205   6.393
10710SOL     OW33028   0.267   6.910   3.407
10710SOL    HW133029   0.252   7.006   3.385
10710SOL    HW233030   0.358   6.883   3.375
10711SOL     OW33031   1.899   3.951   5.511
10711SOL    HW133032   1.837   4.020   5.547
10711SOL    HW233033   1.885   3.942   5.412
10712SOL     OW33034   3.816   1.883   6.246
10712SOL    HW133035   3.843   1.800   6.196
10712SOL    HW233036   3.750   1.860   6.317
10713SOL     OW33037   2.730   6.946   0.368
10713SOL    HW133038   2.663   7.021   0.374
10713SOL    HW233039   2.822   6.982   0.381
10714SOL     OW33040   4.893   5.400   4.232
10714SOL    HW133041   4.964   5.330   4.234
10714SOL    HW233042   4.826   5.378   4.161
10715SOL     OW33043   5.853   0.016   2.654
10715SOL    HW133044   5.804   0.054   2.576
10715SOL    HW233045   5.951   0.028   2.640
10716SOL     OW33046   6.991   1.809   2.094
10716SOL    HW133047   0.001   1.903   2.099
10716SOL    HW233048   6.963   1.778   2.185
10717SOL     OW33049   0.825   6.267   1.948
10717SOL    HW133050   0.908   6.319   1.968
10717SOL    HW233051   0.845   6.197   1.880
10718SOL     OW33052   6.746   4.905   4.968
10718SOL    HW133053   6.666   4.845   4.970
10718SOL    HW233054   6.717   5.000   4.982
10719SOL     OW33055   3.383   6.517   3.766
10719SOL    HW133056   3.461   6.455   3.770
10719SOL    HW233057   3.416   6.612   3.756
10720SOL     OW33058   0.362   2.769   5.867
10720SOL    HW133059   0.436   2.823   5.906
10720SOL    HW233060   0.364   2.676   5.906
10721SOL     OW33061   5.511   1.308   4.004
10721SOL    HW133062   5.502   1.252   4.086
10721SOL    HW233063   5.421   1.344   3.979
10722SOL     OW33064   0.747   5.394   0.461
10722SOL    HW133065   0.815   5.417   0.391
10722SOL    HW233066   0.774   5.309   0.507
10723SOL     OW33067   6.804   3.999   6.550
10723SOL    HW133068   6.834   4.072   6.489
10723SOL    HW233069   6.744   3.937   6.500
10724SOL     OW33070   3.732   6.199   5.909
10724SOL    HW133071   3.817   6.221   5.957
10724SOL    HW233072   3.685   6.284   5.885
10725SOL     OW33073   7.007   0.343   5.402
10725SOL    HW133074   7.014   0.355   5.501
10725SOL    HW233075   7.019   0.247   5.379
10726SOL     OW33076   6.985   0.207   3.280
10726SOL    HW133077   6.917   0.240   3.346
10726SOL    HW233078   6.940   0.152   3.210
10727SOL     OW33079   5.084   6.188   6.611
10727SOL    HW133080   5.180   6.185   6.584
10727SOL    HW233081   5.036   6.255   6.554
10728SOL     OW33082   5.323   5.898   4.231
10728SOL    HW133083   5.393   5.890   4.159
10728SOL    HW233084   5.346   5.836   4.306
10729SOL     OW33085   6.624   3.017   4.361
10729SOL    HW133086   6.584   3.109   4.364
10729SOL    HW233087   6.695   3.014   4.290
10730SOL     OW33088   1.462   6.214   4.474
10730SOL    HW133089   1.378   6.211   4.419
10730SOL    HW233090   1.538   6.176   4.422
10731SOL     OW33091   4.995   4.117   5.046
10731SOL    HW133092   4.922   4.059   5.081
10731SOL    HW233093   5.042   4.162   5.123
10732SOL     OW33094   5.340   5.936   2.234
10732SOL    HW133095   5.246   5.966   2.248
10732SOL    HW233096   5.353   5.912   2.137
10733SOL     OW33097   0.650   1.561   5.670
10733SOL    HW133098   0.636   1.543   5.767
10733SOL    HW233099   0.563   1.548   5.621
10734SOL     OW33100   0.570   0.681   4.330
10734SOL    HW133101   0.609   0.692   4.239
10734SOL    HW233102   0.487   0.736   4.338
10735SOL     OW33103   0.008   0.971   1.961
10735SOL    HW133104   6.990   1.055   1.998
10735SOL    HW233105   0.102   0.964   1.993
10736SOL     OW33106   5.821   5.658   3.846
10736SOL    HW133107   5.840   5.620   3.755
10736SOL    HW233108   5.757   5.599   3.894
10737SOL     OW33109   6.517   0.697   0.556
10737SOL    HW133110   6.530   0.673   0.652
10737SOL    HW233111   6.578   0.772   0.532
10738SOL     OW33112   1.213   6.427   1.652
10738SOL    HW133113   1.299   6.375   1.658
10738SOL    HW233114   1.226   6.517   1.694
10739SOL     OW33115   5.010   2.652   4.016
10739SOL    HW133116   4.959   2.597   3.950
10739SOL    HW233117   4.948   2.716   4.062
10740SOL     OW33118   2.803   0.583   6.432
10740SOL    HW133119   2.842   0.547   6.348
10740SOL    HW233120   2.876   0.617   6.491
10741SOL     OW33121   2.241   2.594   4.473
10741SOL    HW133122   2.326   2.616   4.520
10741SOL    HW233123   2.249   2.620   4.376
10742SOL     OW33124   0.219   0.164   2.146
10742SOL    HW133125   0.179   0.189   2.058
10742SOL    HW233126   0.149   0.122   2.204
10743SOL     OW33127   3.779   2.479   6.263
10743SOL    HW133128   3.832   2.513   6.186
10743SOL    HW233129   3.841   2.447   6.335
10744SOL     OW33130   1.693   1.915   0.793
10744SOL    HW133131   1.663   1.931   0.699
10744SOL    HW233132   1.691   1.816   0.812
10745SOL     OW33133   3.585   5.600   1.522
10745SOL    HW133134   3.659   5.658   1.558
10745SOL    HW233135   3.612   5.504   1.528
10746SOL     OW33136   2.690   6.105   5.741
10746SOL    HW133137   2.662   6.027   5.797
10746SOL    HW233138   2.781   6.136   5.769
10747SOL     OW33139   0.010   0.251   4.317
10747SOL    HW133140   0.056   0.337   4.340
10747SOL    HW233141   6.934   0.265   4.320
10748SOL     OW33142   2.856   6.406   2.534
10748SOL    HW133143   2.782   6.473   2.524
10748SOL    HW233144   2.819   6.314   2.519
10749SOL     OW33145   4.848   2.991   2.539
10749SOL    HW133146   4.887   3.077   2.507
10749SOL    HW233147   4.809   2.942   2.461
10750SOL     OW33148   3.087   1.425   4.213
10750SOL    HW133149   3.180   1.390   4.215
10750SOL    HW233150   3.074   1.489   4.289
10751SOL     OW33151   6.066   5.955   3.501
10751SOL    HW133152   6.007   5.879   3.473
10751SOL    HW233153   6.012   6.039   3.503
10752SOL     OW33154   0.135   6.082   6.640
10752SOL    HW133155   0.088   6.046   6.720
10752SOL    HW233156   0.068   6.108   6.570
10753SOL     OW33157   5.206   6.470   4.862
10753SOL    HW133158   5.243   6.556   4.827
10753SOL    HW233159   5.110   6.482   4.886
10754SOL     OW33160   0.019   5.949   2.304
10754SOL    HW133161   6.982   5.894   2.246
10754SOL    HW233162   0.083   5.889   2.352
10755SOL     OW33163   0.837   1.773   2.478
10755SOL    HW133164   0.894   1.838   2.428
10755SOL    HW233165   0.773   1.730   2.414
10756SOL     OW33166   0.680   0.434   6.672
10756SOL    HW133167   0.679   0.359   6.738
10756SOL    HW233168   0.597   0.488   6.683
10757SOL     OW33169   0.065   2.617   1.828
10757SOL    HW133170   0.144   2.673   1.803
10757SOL    HW233171   0.032   2.568   1.747
10758SOL     OW33172   0.251   1.869   0.376
10758SOL    HW133173   0.332   1.866   0.318
10758SOL    HW233174   0.183   1.805   0.342
10759SOL     OW33175   3.659   5.357   5.297
10759SOL    HW133176   3.689   5.406   5.379
10759SOL    HW233177   3.597   5.283   5.324
10760SOL     OW33178   0.712   4.785   0.076
10760SOL    HW133179   0.787   4.795   0.010
10760SOL    HW233180   0.693   4.873   0.117
10761SOL     OW33181   1.497   1.602   6.454
10761SOL    HW133182   1.501   1.552   6.368
10761SOL    HW233183   1.485   1.538   6.530
10762SOL     OW33184   1.840   6.196   1.151
10762SOL    HW133185   1.887   6.108   1.150
10762SOL    HW233186   1.865   6.247   1.234
10763SOL     OW33187   4.951   1.032   2.624
10763SOL    HW133188   4.997   1.103   2.571
10763SOL    HW233189   4.906   0.968   2.561
10764SOL     OW33190   5.227   6.285   4.546
10764SOL    HW133191   5.310   6.339   4.562
10764SOL    HW233192   5.234   6.198   4.595
10765SOL     OW33193   6.594   2.698   1.476
10765SOL    HW133194   6.631   2.629   1.539
10765SOL    HW233195   6.501   2.721   1.504
10766SOL     OW33196   3.547   5.072   6.504
10766SOL    HW133197   3.460   5.036   6.471
10766SOL    HW233198   3.543   5.171   6.510
10767SOL     OW33199   1.654   4.906   6.531
10767SOL    HW133200   1.601   4.907   6.447
10767SOL    HW233201   1.639   4.820   6.580
10768SOL     OW33202   5.864   6.312   0.041
10768SOL    HW133203   5.918   6.272   0.114
10768SOL    HW233204   5.924   6.356   6.997
10769SOL     OW33205   3.330   3.805   4.870
10769SOL    HW133206   3.268   3.882   4.887
10769SOL    HW233207   3.394   3.796   4.947
10770SOL     OW33208   4.283   6.875   3.933
10770SOL    HW133209   4.260   6.937   4.009
10770SOL    HW233210   4.270   6.780   3.962
10771SOL     OW33211   4.892   6.050   5.791
10771SOL    HW133212   4.985   6.085   5.798
10771SOL    HW233213   4.847   6.056   5.880
10772SOL     OW33214   5.206   3.390   3.860
10772SOL    HW133215   5.108   3.400   3.879
10772SOL    HW233216   5.254   3.473   3.889
10773SOL     OW33217   1.081   4.534   0.598
10773SOL    HW133218   1.097   4.603   0.669
10773SOL    HW233219   0.994   4.553   0.552
10774SOL     OW33220   6.945   3.088   0.433
10774SOL    HW133221   7.009   3.165   0.432
10774SOL    HW233222   6.981   3.015   0.492
10775SOL     OW33223   2.600   4.562   6.159
10775SOL    HW133224   2.588   4.586   6.063
10775SOL    HW233225   2.679   4.501   6.169
10776SOL     OW33226   0.429   4.009   3.096
10776SOL    HW133227   0.444   4.088   3.155
10776SOL    HW233228   0.397   3.932   3.151
10777SOL     OW33229   1.074   6.370   2.011
10777SOL    HW133230   1.173   6.375   2.028
10777SOL    HW233231   1.044   6.454   1.965
10778SOL     OW33232   4.991   0.171   3.821
10778SOL    HW133233   4.893   0.163   3.803
10778SOL    HW233234   5.039   0.094   3.779
10779SOL     OW33235   5.503   2.965   6.167
10779SOL    HW133236   5.540   2.934   6.080
10779SOL    HW233237   5.448   3.047   6.152
10780SOL     OW33238   0.924   5.196   4.753
10780SOL    HW133239   0.925   5.096   4.761
10780SOL    HW233240   0.848   5.233   4.805
10781SOL     OW33241   6.114   2.495   6.111
10781SOL    HW133242   6.076   2.479   6.020
10781SOL    HW233243   6.199   2.444   6.121
10782SOL     OW33244   1.159   3.263   5.265
10782SOL    HW133245   1.099   3.278   5.343
10782SOL    HW233246   1.236   3.206   5.292
10783SOL     OW33247   1.406   3.905   4.022
10783SOL    HW133248   1.493   3.885   3.976
10783SOL    HW233249   1.404   3.859   4.111
10784SOL     OW33250   4.686   5.282   4.074
10784SOL    HW133251   4.658   5.376   4.090
10784SOL    HW233252   4.692   5.233   4.161
10785SOL     OW33253   1.931   5.252   1.628
10785SOL    HW133254   1.919   5.267   1.530
10785SOL    HW233255   1.847   5.277   1.676
10786SOL     OW33256   4.997   1.720   2.502
10786SOL    HW133257   5.053   1.742   2.582
10786SOL    HW233258   5.056   1.686   2.429
10787SOL     OW33259   3.062   1.591   3.731
10787SOL    HW133260   3.095   1.623   3.820
10787SOL    HW233261   2.989   1.652   3.699
10788SOL     OW33262   1.392   3.351   0.055
10788SOL    HW133263   1.477   3.388   0.016
10788SOL    HW233264   1.408   3.257   0.085
10789SOL     OW33265   6.353   2.174   2.679
10789SOL    HW133266   6.420   2.163   2.605
10789SOL    HW233267   6.319   2.268   2.679
10790SOL     OW33268   6.739   2.391   5.334
10790SOL    HW133269   6.820   2.432   5.293
10790SOL    HW233270   6.701   2.322   5.272
10791SOL     OW33271   1.786   3.215   3.294
10791SOL    HW133272   1.861   3.263   3.340
10791SOL    HW233273   1.820   3.172   3.210
10792SOL     OW33274   3.645   1.529   2.236
10792SOL    HW133275   3.607   1.614   2.200
10792SOL    HW233276   3.727   1.504   2.184
10793SOL     OW33277   3.983   2.181   4.079
10793SOL    HW133278   3.906   2.174   4.016
10793SOL    HW233279   4.023   2.090   4.093
10794SOL     OW33280   4.289   2.678   6.976
10794SOL    HW133281   4.205   2.637   6.940
10794SOL    HW233282   4.292   2.775   6.952
10795SOL     OW33283   6.234   3.058   3.006
10795SOL    HW133284   6.221   3.080   3.102
10795SOL    HW233285   6.145   3.057   2.960
10796SOL     OW33286   6.731   2.012   6.302
10796SOL    HW133287   6.799   1.939   6.309
10796SOL    HW233288   6.753   2.072   6.226
10797SOL     OW33289   5.693   4.523   6.529
10797SOL    HW133290   5.626   4.450   6.538
10797SOL    HW233291   5.663   4.588   6.459
10798SOL     OW33292   2.381   5.785   0.434
10798SOL    HW133293   2.344   5.878   0.431
10798SOL    HW233294   2.446   5.773   0.359
10799SOL     OW33295   1.818   1.068   3.142
10799SOL    HW133296   1.855   1.096   3.231
10799SOL    HW233297   1.885   1.087   3.070
10800SOL     OW33298   1.456   0.646   5.207
10800SOL    HW133299   1.455   0.546   5.203
10800SOL    HW233300   1.488   0.682   5.119
10801SOL     OW33301   3.162   5.994   6.744
10801SOL    HW133302   3.096   5.919   6.747
10801SOL    HW233303   3.149   6.053   6.824
10802SOL     OW33304   0.330   4.487   3.722
10802SOL    HW133305   0.330   4.387   3.725
10802SOL    HW233306   0.342   4.518   3.627
10803SOL     OW33307   0.185   4.329   4.988
10803SOL    HW133308   0.193   4.275   4.904
10803SOL    HW233309   0.118   4.402   4.974
10804SOL     OW33310   4.086   5.005   6.426
10804SOL    HW133311   4.176   4.997   6.383
10804SOL    HW233312   4.085   5.086   6.485
10805SOL     OW33313   5.210   5.890   0.393
10805SOL    HW133314   5.168   5.847   0.313
10805SOL    HW233315   5.281   5.954   0.363
10806SOL     OW33316   5.998   2.761   5.081
10806SOL    HW133317   6.016   2.790   4.987
10806SOL    HW233318   5.899   2.752   5.094
10807SOL     OW33319   4.528   2.741   5.246
10807SOL    HW133320   4.458   2.808   5.272
10807SOL    HW233321   4.509   2.708   5.154
10808SOL     OW33322   0.719   2.605   1.273
10808SOL    HW133323   0.742   2.680   1.334
10808SOL    HW233324   0.781   2.528   1.289
10809SOL     OW33325   1.120   1.014   3.152
10809SOL    HW133326   1.089   0.926   3.188
10809SOL    HW233327   1.127   1.009   3.053
10810SOL     OW33328   2.004   2.085   6.199
10810SOL    HW133329   2.071   2.021   6.237
10810SOL    HW233330   1.921   2.035   6.174
10811SOL     OW33331   3.943   5.817   6.665
10811SOL    HW133332   3.928   5.915   6.666
10811SOL    HW233333   3.976   5.787   6.754
10812SOL     OW33334   6.757   3.147   2.531
10812SOL    HW133335   6.669   3.125   2.488
10812SOL    HW233336   6.742   3.208   2.608
10813SOL     OW33337   3.386   6.162   2.141
10813SOL    HW133338   3.374   6.103   2.220
10813SOL    HW233339   3.329   6.244   2.151
10814SOL     OW33340   1.691   5.908   4.415
10814SOL    HW133341   1.709   5.999   4.377
10814SOL    HW233342   1.594   5.899   4.437
10815SOL     OW33343   5.368   2.699   5.910
10815SOL    HW133344   5.305   2.629   5.878
10815SOL    HW233345   5.320   2.787   5.917
10816SOL     OW33346   2.460   2.337   0.826
10816SOL    HW133347   2.434   2.250   0.785
10816SOL    HW233348   2.477   2.325   0.923
10817SOL     OW33349   3.751   1.911   1.682
10817SOL    HW133350   3.715   1.969   1.608
10817SOL    HW233351   3.806   1.967   1.743
10818SOL     OW33352   4.698   3.431   5.977
10818SOL    HW133353   4.660   3.421   6.068
10818SOL    HW233354   4.629   3.468   5.915
10819SOL     OW33355   2.164   3.142   4.930
10819SOL    HW133356   2.221   3.219   4.902
10819SOL    HW233357   2.219   3.077   4.982
10820SOL     OW33358   1.170   6.648   5.383
10820SOL    HW133359   1.232   6.591   5.329
10820SOL    HW233360   1.219   6.729   5.417
10821SOL     OW33361   0.023   0.302   6.846
10821SOL    HW133362   6.953   0.266   6.854
10821SOL    HW233363   0.076   0.274   6.926
10822SOL     OW33364   0.457   5.288   6.026
10822SOL    HW133365   0.385   5.245   5.971
10822SOL    HW233366   0.508   5.217   6.075
10823SOL     OW33367   2.401   2.062   0.658
10823SOL    HW133368   2.303   2.082   0.648
10823SOL    HW233369   2.413   1.975   0.706
10824SOL     OW33370   5.173   1.611   4.625
10824SOL    HW133371   5.177   1.708   4.601
10824SOL    HW233372   5.174   1.601   4.725
10825SOL     OW33373   3.639   1.295   1.961
10825SOL    HW133374   3.681   1.384   1.977
10825SOL    HW233375   3.543   1.307   1.936
10826SOL     OW33376   0.315   3.395   0.890
10826SOL    HW133377   0.322   3.296   0.879
10826SOL    HW233378   0.358   3.422   0.976
10827SOL     OW33379   0.062   2.535   4.600
10827SOL    HW133380   0.115   2.548   4.516
10827SOL    HW233381   7.015   2.465   4.584
10828SOL     OW33382   2.549   4.587   0.008
10828SOL    HW133383   2.536   4.686   0.016
10828SOL    HW233384   2.523   4.557   6.940
10829SOL     OW33385   2.269   3.506   1.422
10829SOL    HW133386   2.232   3.414   1.409
10829SOL    HW233387   2.252   3.536   1.516
10830SOL     OW33388   6.628   0.142   3.837
10830SOL    HW133389   6.662   0.088   3.760
10830SOL    HW233390   6.632   0.239   3.813
10831SOL     OW33391   5.360   2.970   2.017
10831SOL    HW133392   5.439   3.019   1.979
10831SOL    HW233393   5.276   3.004   1.974
10832SOL     OW33394   1.929   2.888   1.938
10832SOL    HW133395   2.026   2.912   1.938
10832SOL    HW233396   1.876   2.966   1.971
10833SOL     OW33397   3.470   6.820   4.732
10833SOL    HW133398   3.518   6.906   4.715
10833SOL    HW233399   3.377   6.839   4.761
10834SOL     OW33400   0.028   2.072   5.722
10834SOL    HW133401   6.958   2.100   5.744
10834SOL    HW233402   0.026   1.982   5.678
10835SOL     OW33403   0.380   1.564   0.253
10835SOL    HW133404   0.333   1.477   0.257
10835SOL    HW233405   0.410   1.582   0.159
10836SOL     OW33406   0.112   1.814   1.511
10836SOL    HW133407   0.070   1.887   1.459
10836SOL    HW233408   0.205   1.798   1.479
10837SOL     OW33409   1.398   5.164   0.534
10837SOL    HW133410   1.413   5.187   0.438
10837SOL    HW233411   1.354   5.242   0.580
10838SOL     OW33412   6.785   5.844   1.075
10838SOL    HW133413   6.855   5.906   1.111
10838SOL    HW233414   6.724   5.816   1.149
10839SOL     OW33415   2.560   1.727   6.597
10839SOL    HW133416   2.655   1.743   6.626
10839SOL    HW233417   2.503   1.711   6.677
10840SOL     OW33418   1.363   1.128   3.261
10840SOL    HW133419   1.277   1.085   3.232
10840SOL    HW233420   1.414   1.158   3.180
10841SOL     OW33421   4.513   4.282   0.183
10841SOL    HW133422   4.508   4.220   0.261
10841SOL    HW233423   4.574   4.243   0.114
10842SOL     OW33424   5.825   2.077   1.800
10842SOL    HW133425   5.756   2.012   1.767
10842SOL    HW233426   5.827   2.157   1.739
10843SOL     OW33427   0.931   2.090   1.616
10843SOL    HW133428   0.913   2.002   1.662
10843SOL    HW233429   1.022   2.089   1.576
10844SOL     OW33430   4.864   6.709   4.085
10844SOL    HW133431   4.825   6.618   4.073
10844SOL    HW233432   4.937   6.723   4.018
10845SOL     OW33433   2.605   3.811   1.693
10845SOL    HW133434   2.685   3.841   1.640
10845SOL    HW233435   2.610   3.712   1.706
10846SOL     OW33436   3.573   2.856   1.745
10846SOL    HW133437   3.480   2.846   1.780
10846SOL    HW233438   3.573   2.913   1.664
10847SOL     OW33439   4.985   1.762   5.330
10847SOL    HW133440   5.037   1.679   5.310
10847SOL    HW233441   5.025   1.839   5.280
10848SOL     OW33442   2.078   0.455   6.678
10848SOL    HW133443   2.085   0.362   6.641
10848SOL    HW233444   2.164   0.504   6.662
10849SOL     OW33445   0.824   4.153   4.864
10849SOL    HW133446   0.900   4.190   4.917
10849SOL    HW233447   0.859   4.105   4.784
10850SOL     OW33448   5.982   0.481   2.939
10850SOL    HW133449   5.943   0.391   2.956
10850SOL    HW233450   5.926   0.551   2.984
10851SOL     OW33451   4.710   2.647   0.189
10851SOL    HW133452   4.744   2.712   0.122
10851SOL    HW233453   4.612   2.663   0.204
10852SOL     OW33454   5.980   1.337   5.863
10852SOL    HW133455   5.903   1.398   5.844
10852SOL    HW233456   6.014   1.355   5.956
10853SOL     OW33457   2.499   0.062   5.492
10853SOL    HW133458   2.422   0.056   5.428
10853SOL    HW233459   2.466   0.051   5.586
10854SOL     OW33460   5.799   0.435   7.004
10854SOL    HW133461   5.817   0.336   7.004
10854SOL    HW233462   5.714   0.453   0.031
10855SOL     OW33463   0.940   5.917   0.009
10855SOL    HW133464   1.008   5.886   0.075
10855SOL    HW233465   0.849   5.911   0.050
10856SOL     OW33466   4.944   6.741   6.207
10856SOL    HW133467   4.922   6.743   6.109
10856SOL    HW233468   5.040   6.716   6.219
10857SOL     OW33469   6.451   6.941   4.979
10857SOL    HW133470   6.403   6.858   4.951
10857SOL    HW233471   6.482   6.991   4.898
10858SOL     OW33472   2.038   2.811   0.618
10858SOL    HW133473   2.034   2.762   0.531
10858SOL    HW233474   2.104   2.767   0.679
10859SOL     OW33475   2.605   5.351   1.774
10859SOL    HW133476   2.521   5.396   1.805
10859SOL    HW233477   2.582   5.265   1.728
10860SOL     OW33478   5.853   1.358   1.551
10860SOL    HW133479   5.875   1.428   1.619
10860SOL    HW233480   5.760   1.373   1.516
10861SOL     OW33481   2.331   4.746   0.945
10861SOL    HW133482   2.419   4.768   0.987
10861SOL    HW233483   2.319   4.799   0.861
10862SOL     OW33484   3.847   4.743   5.281
10862SOL    HW133485   3.773   4.677   5.292
10862SOL    HW233486   3.934   4.695   5.267
10863SOL     OW33487   0.354   0.057   3.838
10863SOL    HW133488   0.381   0.124   3.769
10863SOL    HW233489   0.271   0.010   3.808
10864SOL     OW33490   3.002   3.834   2.565
10864SOL    HW133491   2.997   3.745   2.609
10864SOL    HW233492   2.986   3.824   2.467
10865SOL     OW33493   3.124   2.164   2.362
10865SOL    HW133494   3.107   2.095   2.291
10865SOL    HW233495   3.059   2.239   2.351
10866SOL     OW33496   0.249   3.447   4.911
10866SOL    HW133497   0.175   3.500   4.953
10866SOL    HW233498   0.239   3.448   4.811
10867SOL     OW33499   4.874   3.273   0.372
10867SOL    HW133500   4.943   3.287   0.301
10867SOL    HW233501   4.913   3.295   0.461
10868SOL     OW33502   0.127   6.517   6.129
10868SOL    HW133503   0.194   6.445   6.114
10868SOL    HW233504   0.172   6.606   6.128
10869NA      NA33505   6.711   0.930   6.843
10870NA      NA33506   4.666   4.538   4.943
10871NA      NA33507   0.888   4.643   2.872
10872NA      NA33508   6.379   3.464   3.510
10873NA      NA33509   4.315   2.297   5.188
10874NA      NA33510   2.460   3.432   0.097
10875NA      NA33511   1.722   5.417   0.099
10876NA      NA33512   4.273   5.145   2.066
10877NA      NA33513   5.404   3.768   1.304
10878NA      NA33514   3.730   1.953   0.546
10879NA      NA33515   5.121   6.480   1.461
10880NA      NA33516   2.712   6.240   4.473
10881NA      NA33517   2.996   5.497   2.540
10882NA      NA33518   4.306   4.947   5.946
   7.02320   7.02320   7.02320
