Generated by trjconv : CNT in water t= 128.00000
33518
    1C        C    1   2.847   2.771   4.749
    1C        C    2   2.904   2.725   4.870
    1C        C    3   2.843   2.772   4.987
    1C        C    4   2.851   2.777   4.263
    1C        C    5   2.904   2.729   4.385
    1C        C    6   2.848   2.773   4.507
    1C        C    7   3.016   2.641   4.627
    1C        C    8   2.901   2.724   4.628
    1C        C    9   3.080   2.606   4.748
    1C        C   10   3.014   2.636   4.869
    1C        C   11   3.180   2.490   4.979
    1C        C   12   3.061   2.563   4.978
    1C        C   13   2.849   2.768   3.774
    1C        C   14   2.901   2.721   3.897
    1C        C   15   2.850   2.771   4.018
    1C        C   16   3.019   2.646   4.140
    1C        C   17   2.901   2.725   4.142
    1C        C   18   3.081   2.611   4.263
    1C        C   19   3.021   2.649   4.385
    1C        C   20   3.209   2.553   4.506
    1C        C   21   3.077   2.603   4.505
    1C        C   22   3.279   2.533   4.627
    1C        C   23   3.209   2.546   4.749
    1C        C   24   3.413   2.485   4.865
    1C        C   25   3.271   2.501   4.869
    1C        C   26   3.488   2.478   4.984
    1C        C   27   2.848   2.763   3.286
    1C        C   28   2.907   2.723   3.409
    1C        C   29   2.855   2.771   3.531
    1C        C   30   3.019   2.637   3.653
    1C        C   31   2.906   2.722   3.653
    1C        C   32   3.081   2.604   3.776
    1C        C   33   3.016   2.639   3.897
    1C        C   34   3.208   2.550   4.019
    1C        C   35   3.078   2.605   4.019
    1C        C   36   3.276   2.533   4.141
    1C        C   37   3.211   2.557   4.264
    1C        C   38   3.419   2.508   4.385
    1C        C   39   3.279   2.531   4.385
    1C        C   40   3.490   2.504   4.507
    1C        C   41   3.417   2.506   4.628
    1C        C   42   3.633   2.486   4.746
    1C        C   43   3.491   2.483   4.746
    1C        C   44   3.706   2.487   4.866
    1C        C   45   3.627   2.475   4.981
    1C        C   46   2.837   2.749   2.797
    1C        C   47   2.892   2.705   2.919
    1C        C   48   2.843   2.759   3.040
    1C        C   49   3.021   2.644   3.166
    1C        C   50   2.900   2.718   3.163
    1C        C   51   3.084   2.604   3.286
    1C        C   52   3.022   2.641   3.407
    1C        C   53   3.210   2.548   3.531
    1C        C   54   3.079   2.601   3.530
    1C        C   55   3.281   2.530   3.651
    1C        C   56   3.212   2.552   3.773
    1C        C   57   3.416   2.507   3.899
    1C        C   58   3.276   2.529   3.897
    1C        C   59   3.488   2.507   4.020
    1C        C   60   3.416   2.513   4.142
    1C        C   61   3.630   2.503   4.262
    1C        C   62   3.489   2.503   4.262
    1C        C   63   3.702   2.510   4.384
    1C        C   64   3.631   2.501   4.506
    1C        C   65   3.842   2.541   4.625
    1C        C   66   3.706   2.505   4.626
    1C        C   67   3.909   2.560   4.748
    1C        C   68   3.843   2.524   4.867
    1C        C   69   4.055   2.585   4.980
    1C        C   70   3.926   2.532   4.980
    1C        C   71   2.829   2.736   2.309
    1C        C   72   2.885   2.692   2.431
    1C        C   73   2.834   2.744   2.552
    1C        C   74   3.007   2.624   2.677
    1C        C   75   2.887   2.699   2.675
    1C        C   76   3.074   2.594   2.797
    1C        C   77   3.011   2.628   2.919
    1C        C   78   3.207   2.552   3.043
    1C        C   79   3.077   2.607   3.042
    1C        C   80   3.278   2.528   3.163
    1C        C   81   3.215   2.551   3.287
    1C        C   82   3.419   2.500   3.407
    1C        C   83   3.281   2.529   3.410
    1C        C   84   3.489   2.497   3.530
    1C        C   85   3.420   2.504   3.654
    1C        C   86   3.629   2.499   3.775
    1C        C   87   3.487   2.495   3.778
    1C        C   88   3.700   2.512   3.896
    1C        C   89   3.629   2.513   4.019
    1C        C   90   3.837   2.550   4.138
    1C        C   91   3.701   2.515   4.140
    1C        C   92   3.905   2.575   4.260
    1C        C   93   3.839   2.544   4.381
    1C        C   94   4.029   2.638   4.503
    1C        C   95   3.906   2.569   4.502
    1C        C   96   4.092   2.674   4.625
    1C        C   97   4.034   2.629   4.745
    1C        C   98   4.192   2.769   4.864
    1C        C   99   4.102   2.658   4.866
    1C        C  100   4.212   2.846   4.979
    1C        C  101   2.825   2.730   2.072
    1C        C  102   2.990   2.588   2.194
    1C        C  103   2.875   2.674   2.190
    1C        C  104   3.065   2.571   2.313
    1C        C  105   3.005   2.616   2.432
    1C        C  106   3.200   2.537   2.555
    1C        C  107   3.068   2.587   2.555
    1C        C  108   3.271   2.517   2.675
    1C        C  109   3.204   2.537   2.798
    1C        C  110   3.411   2.503   2.917
    1C        C  111   3.271   2.520   2.921
    1C        C  112   3.485   2.497   3.038
    1C        C  113   3.417   2.504   3.162
    1C        C  114   3.629   2.501   3.281
    1C        C  115   3.488   2.496   3.284
    1C        C  116   3.699   2.509   3.404
    1C        C  117   3.630   2.504   3.527
    1C        C  118   3.834   2.542   3.648
    1C        C  119   3.696   2.513   3.651
    1C        C  120   3.900   2.572   3.770
    1C        C  121   3.836   2.550   3.894
    1C        C  122   4.029   2.638   4.015
    1C        C  123   3.903   2.573   4.016
    1C        C  124   4.091   2.675   4.136
    1C        C  125   4.030   2.641   4.259
    1C        C  126   4.200   2.766   4.378
    1C        C  127   4.087   2.682   4.382
    1C        C  128   4.246   2.821   4.500
    1C        C  129   4.198   2.768   4.621
    1C        C  130   4.326   2.937   4.743
    1C        C  131   4.249   2.818   4.743
    1C        C  132   4.357   3.006   4.862
    1C        C  133   4.285   2.965   4.975
    1C        C  134   3.177   2.474   2.079
    1C        C  135   3.042   2.511   2.085
    1C        C  136   3.260   2.476   2.192
    1C        C  137   3.196   2.515   2.312
    1C        C  138   3.406   2.485   2.429
    1C        C  139   3.266   2.505   2.434
    1C        C  140   3.479   2.490   2.550
    1C        C  141   3.410   2.495   2.673
    1C        C  142   3.623   2.499   2.793
    1C        C  143   3.482   2.496   2.795
    1C        C  144   3.695   2.505   2.915
    1C        C  145   3.626   2.495   3.038
    1C        C  146   3.837   2.533   3.158
    1C        C  147   3.699   2.502   3.158
    1C        C  148   3.904   2.562   3.279
    1C        C  149   3.836   2.544   3.401
    1C        C  150   4.029   2.624   3.525
    1C        C  151   3.901   2.564   3.525
    1C        C  152   4.090   2.663   3.647
    1C        C  153   4.026   2.635   3.769
    1C        C  154   4.195   2.764   3.892
    1C        C  155   4.085   2.675   3.891
    1C        C  156   4.249   2.814   4.012
    1C        C  157   4.202   2.762   4.135
    1C        C  158   4.341   2.924   4.253
    1C        C  159   4.256   2.812   4.256
    1C        C  160   4.376   2.986   4.376
    1C        C  161   4.333   2.933   4.499
    1C        C  162   4.437   3.119   4.616
    1C        C  163   4.370   2.995   4.621
    1C        C  164   4.467   3.186   4.736
    1C        C  165   4.433   3.125   4.859
    1C        C  166   4.517   3.321   4.973
    1C        C  167   4.485   3.186   4.975
    1C        C  168   3.479   2.439   2.077
    1C        C  169   3.400   2.459   2.191
    1C        C  170   3.619   2.469   2.309
    1C        C  171   3.477   2.466   2.309
    1C        C  172   3.692   2.491   2.428
    1C        C  173   3.620   2.492   2.550
    1C        C  174   3.830   2.536   2.668
    1C        C  175   3.692   2.506   2.670
    1C        C  176   3.896   2.565   2.790
    1C        C  177   3.832   2.539   2.913
    1C        C  178   4.025   2.627   3.034
    1C        C  179   3.901   2.560   3.035
    1C        C  180   4.088   2.660   3.156
    1C        C  181   4.032   2.622   3.280
    1C        C  182   4.197   2.753   3.400
    1C        C  183   4.091   2.659   3.403
    1C        C  184   4.248   2.805   3.521
    1C        C  185   4.198   2.754   3.643
    1C        C  186   4.329   2.919   3.766
    1C        C  187   4.246   2.805   3.766
    1C        C  188   4.377   2.976   3.886
    1C        C  189   4.343   2.919   4.011
    1C        C  190   4.445   3.109   4.129
    1C        C  191   4.380   2.984   4.131
    1C        C  192   4.470   3.176   4.251
    1C        C  193   4.438   3.112   4.374
    1C        C  194   4.502   3.320   4.493
    1C        C  195   4.461   3.184   4.493
    1C        C  196   4.521   3.390   4.614
    1C        C  197   4.508   3.322   4.737
    1C        C  198   4.555   3.537   4.853
    1C        C  199   4.534   3.395   4.856
    1C        C  200   4.584   3.622   4.964
    1C        C  201   3.617   2.419   2.076
    1C        C  202   3.829   2.510   2.186
    1C        C  203   3.694   2.463   2.188
    1C        C  204   3.899   2.541   2.305
    1C        C  205   3.830   2.524   2.427
    1C        C  206   4.022   2.624   2.545
    1C        C  207   3.898   2.556   2.546
    1C        C  208   4.082   2.663   2.667
    1C        C  209   4.022   2.629   2.790
    1C        C  210   4.196   2.751   2.909
    1C        C  211   4.084   2.664   2.911
    1C        C  212   4.250   2.797   3.030
    1C        C  213   4.198   2.748   3.152
    1C        C  214   4.327   2.914   3.274
    1C        C  215   4.242   2.801   3.276
    1C        C  216   4.367   2.974   3.396
    1C        C  217   4.334   2.917   3.521
    1C        C  218   4.435   3.102   3.643
    1C        C  219   4.370   2.976   3.644
    1C        C  220   4.460   3.171   3.764
    1C        C  221   4.439   3.103   3.886
    1C        C  222   4.494   3.313   4.005
    1C        C  223   4.463   3.175   4.006
    1C        C  224   4.511   3.383   4.126
    1C        C  225   4.500   3.314   4.248
    1C        C  226   4.516   3.528   4.369
    1C        C  227   4.510   3.387   4.369
    1C        C  228   4.517   3.602   4.490
    1C        C  229   4.526   3.531   4.612
    1C        C  230   4.507   3.746   4.728
    1C        C  231   4.537   3.607   4.731
    1C        C  232   4.499   3.823   4.847
    1C        C  233   4.543   3.756   4.962
    1C        C  234   4.020   2.608   2.067
    1C        C  235   3.896   2.544   2.068
    1C        C  236   4.085   2.650   2.184
    1C        C  237   4.027   2.605   2.304
    1C        C  238   4.200   2.738   2.422
    1C        C  239   4.087   2.651   2.423
    1C        C  240   4.256   2.786   2.543
    1C        C  241   4.199   2.742   2.664
    1C        C  242   4.343   2.900   2.786
    1C        C  243   4.250   2.795   2.785
    1C        C  244   4.382   2.961   2.908
    1C        C  245   4.342   2.905   3.031
    1C        C  246   4.437   3.095   3.151
    1C        C  247   4.375   2.968   3.153
    1C        C  248   4.455   3.162   3.274
    1C        C  249   4.425   3.103   3.399
    1C        C  250   4.491   3.305   3.515
    1C        C  251   4.455   3.169   3.520
    1C        C  252   4.509   3.374   3.637
    1C        C  253   4.496   3.307   3.761
    1C        C  254   4.521   3.520   3.879
    1C        C  255   4.511   3.379   3.881
    1C        C  256   4.516   3.592   4.001
    1C        C  257   4.520   3.524   4.125
    1C        C  258   4.493   3.736   4.243
    1C        C  259   4.517   3.597   4.246
    1C        C  260   4.471   3.806   4.364
    1C        C  261   4.489   3.740   4.488
    1C        C  262   4.426   3.945   4.607
    1C        C  263   4.475   3.813   4.608
    1C        C  264   4.401   4.014   4.728
    1C        C  265   4.443   3.952   4.848
    1C        C  266   4.319   4.135   4.960
    1C        C  267   4.390   4.015   4.961
    1C        C  268   4.266   2.775   2.066
    1C        C  269   4.199   2.734   2.182
    1C        C  270   4.348   2.893   2.302
    1C        C  271   4.253   2.788   2.301
    1C        C  272   4.384   2.957   2.422
    1C        C  273   4.344   2.896   2.543
    1C        C  274   4.445   3.086   2.664
    1C        C  275   4.379   2.961   2.664
    1C        C  276   4.470   3.155   2.785
    1C        C  277   4.443   3.089   2.906
    1C        C  278   4.502   3.294   3.028
    1C        C  279   4.465   3.157   3.028
    1C        C  280   4.512   3.366   3.149
    1C        C  281   4.492   3.298   3.271
    1C        C  282   4.515   3.512   3.389
    1C        C  283   4.506   3.371   3.391
    1C        C  284   4.511   3.584   3.511
    1C        C  285   4.513   3.516   3.635
    1C        C  286   4.499   3.730   3.753
    1C        C  287   4.514   3.589   3.756
    1C        C  288   4.479   3.798   3.875
    1C        C  289   4.491   3.731   3.999
    1C        C  290   4.431   3.936   4.119
    1C        C  291   4.477   3.802   4.120
    1C        C  292   4.402   4.003   4.239
    1C        C  293   4.428   3.941   4.363
    1C        C  294   4.333   4.134   4.480
    1C        C  295   4.401   4.009   4.483
    1C        C  296   4.291   4.195   4.600
    1C        C  297   4.334   4.139   4.723
    1C        C  298   4.208   4.321   4.840
    1C        C  299   4.289   4.203   4.842
    1C        C  300   4.171   4.405   4.949
    1C        C  301   4.356   2.881   2.066
    1C        C  302   4.471   3.070   2.178
    1C        C  303   4.406   2.943   2.182
    1C        C  304   4.482   3.145   2.298
    1C        C  305   4.449   3.083   2.420
    1C        C  306   4.505   3.288   2.538
    1C        C  307   4.475   3.150   2.542
    1C        C  308   4.516   3.360   2.659
    1C        C  309   4.506   3.292   2.783
    1C        C  310   4.520   3.503   2.900
    1C        C  311   4.517   3.362   2.905
    1C        C  312   4.508   3.575   3.021
    1C        C  313   4.515   3.508   3.146
    1C        C  314   4.490   3.720   3.264
    1C        C  315   4.515   3.581   3.266
    1C        C  316   4.477   3.791   3.386
    1C        C  317   4.497   3.724   3.509
    1C        C  318   4.427   3.927   3.630
    1C        C  319   4.478   3.795   3.630
    1C        C  320   4.394   3.991   3.752
    1C        C  321   4.426   3.929   3.875
    1C        C  322   4.326   4.118   3.992
    1C        C  323   4.400   3.998   3.995
    1C        C  324   4.283   4.176   4.113
    1C        C  325   4.330   4.125   4.236
    1C        C  326   4.190   4.286   4.354
    1C        C  327   4.291   4.188   4.357
    1C        C  328   4.137   4.336   4.475
    1C        C  329   4.190   4.294   4.599
    1C        C  330   4.029   4.440   4.714
    1C        C  331   4.143   4.354   4.718
    1C        C  332   3.975   4.499   4.830
    1C        C  333   4.053   4.480   4.945
    1C        C  334   4.555   3.269   2.063
    1C        C  335   4.533   3.130   2.064
    1C        C  336   4.544   3.353   2.175
    1C        C  337   4.516   3.283   2.295
    1C        C  338   4.527   3.497   2.412
    1C        C  339   4.521   3.356   2.416
    1C        C  340   4.528   3.570   2.533
    1C        C  341   4.522   3.501   2.655
    1C        C  342   4.495   3.712   2.774
    1C        C  343   4.516   3.572   2.777
    1C        C  344   4.480   3.784   2.895
    1C        C  345   4.494   3.715   3.018
    1C        C  346   4.434   3.919   3.140
    1C        C  347   4.479   3.785   3.139
    1C        C  348   4.396   3.984   3.260
    1C        C  349   4.428   3.923   3.383
    1C        C  350   4.323   4.107   3.502
    1C        C  351   4.398   3.987   3.506
    1C        C  352   4.280   4.167   3.623
    1C        C  353   4.320   4.111   3.746
    1C        C  354   4.182   4.271   3.868
    1C        C  355   4.280   4.170   3.868
    1C        C  356   4.131   4.323   3.989
    1C        C  357   4.185   4.277   4.112
    1C        C  358   4.015   4.406   4.231
    1C        C  359   4.134   4.330   4.232
    1C        C  360   3.959   4.455   4.352
    1C        C  361   4.024   4.420   4.473
    1C        C  362   3.832   4.518   4.593
    1C        C  363   3.962   4.463   4.592
    1C        C  364   3.766   4.549   4.714
    1C        C  365   3.842   4.547   4.833
    1C        C  366   3.634   4.584   4.950
    1C        C  367   3.773   4.571   4.953
    1C        C  368   4.506   3.563   2.055
    1C        C  369   4.527   3.493   2.174
    1C        C  370   4.508   3.712   2.289
    1C        C  371   4.524   3.571   2.292
    1C        C  372   4.486   3.780   2.411
    1C        C  373   4.502   3.709   2.532
    1C        C  374   4.434   3.914   2.650
    1C        C  375   4.483   3.782   2.652
    1C        C  376   4.397   3.976   2.772
    1C        C  377   4.428   3.915   2.895
    1C        C  378   4.326   4.101   3.013
    1C        C  379   4.401   3.981   3.017
    1C        C  380   4.281   4.157   3.134
    1C        C  381   4.320   4.103   3.259
    1C        C  382   4.183   4.266   3.377
    1C        C  383   4.280   4.163   3.380
    1C        C  384   4.127   4.314   3.498
    1C        C  385   4.181   4.268   3.620
    1C        C  386   4.016   4.397   3.743
    1C        C  387   4.131   4.315   3.744
    1C        C  388   3.952   4.436   3.863
    1C        C  389   4.011   4.398   3.985
    1C        C  390   3.824   4.495   4.111
    1C        C  391   3.953   4.436   4.108
    1C        C  392   3.756   4.519   4.232
    1C        C  393   3.830   4.511   4.352
    1C        C  394   3.619   4.545   4.476
    1C        C  395   3.760   4.533   4.473
    1C        C  396   3.551   4.562   4.599
    1C        C  397   3.626   4.568   4.718
    1C        C  398   3.412   4.551   4.841
    1C        C  399   3.551   4.573   4.837
    1C        C  400   3.346   4.507   4.956
    1C        C  401   4.501   3.702   2.052
    1C        C  402   4.453   3.917   2.166
    1C        C  403   4.491   3.781   2.167
    1C        C  404   4.421   3.982   2.288
    1C        C  405   4.443   3.914   2.410
    1C        C  406   4.326   4.097   2.525
    1C        C  407   4.406   3.980   2.529
    1C        C  408   4.282   4.152   2.647
    1C        C  409   4.321   4.095   2.771
    1C        C  410   4.179   4.255   2.889
    1C        C  411   4.280   4.156   2.891
    1C        C  412   4.127   4.301   3.011
    1C        C  413   4.180   4.256   3.134
    1C        C  414   4.008   4.383   3.253
    1C        C  415   4.129   4.310   3.254
    1C        C  416   3.945   4.414   3.376
    1C        C  417   4.006   4.387   3.500
    1C        C  418   3.815   4.475   3.621
    1C        C  419   3.947   4.424   3.623
    1C        C  420   3.751   4.501   3.744
    1C        C  421   3.820   4.486   3.867
    1C        C  422   3.615   4.534   3.990
    1C        C  423   3.754   4.511   3.989
    1C        C  424   3.544   4.540   4.113
    1C        C  425   3.616   4.538   4.235
    1C        C  426   3.403   4.539   4.359
    1C        C  427   3.544   4.548   4.356
    1C        C  428   3.335   4.540   4.483
    1C        C  429   3.410   4.559   4.601
    1C        C  430   3.198   4.516   4.725
    1C        C  431   3.337   4.546   4.721
    1C        C  432   3.128   4.488   4.845
    1C        C  433   3.208   4.490   4.960
    1C        C  434   4.385   4.122   2.049
    1C        C  435   4.446   3.996   2.050
    1C        C  436   4.310   4.166   2.162
    1C        C  437   4.343   4.100   2.284
    1C        C  438   4.186   4.253   2.400
    1C        C  439   4.285   4.153   2.402
    1C        C  440   4.133   4.299   2.523
    1C        C  441   4.186   4.256   2.646
    1C        C  442   4.008   4.378   2.766
    1C        C  443   4.128   4.302   2.766
    1C        C  444   3.946   4.412   2.888
    1C        C  445   4.010   4.380   3.011
    1C        C  446   3.813   4.466   3.132
    1C        C  447   3.946   4.418   3.131
    1C        C  448   3.747   4.489   3.255
    1C        C  449   3.815   4.469   3.378
    1C        C  450   3.610   4.528   3.498
    1C        C  451   3.747   4.496   3.499
    1C        C  452   3.543   4.539   3.622
    1C        C  453   3.613   4.531   3.745
    1C        C  454   3.403   4.539   3.867
    1C        C  455   3.545   4.540   3.868
    1C        C  456   3.335   4.530   3.990
    1C        C  457   3.403   4.536   4.113
    1C        C  458   3.195   4.503   4.237
    1C        C  459   3.335   4.527   4.237
    1C        C  460   3.128   4.483   4.360
    1C        C  461   3.197   4.508   4.481
    1C        C  462   3.000   4.434   4.605
    1C        C  463   3.129   4.492   4.604
    1C        C  464   2.933   4.402   4.725
    1C        C  465   2.990   4.447   4.847
    1C        C  466   2.806   4.341   4.963
    1C        C  467   2.911   4.434   4.965
    1C        C  468   4.122   4.285   2.044
    1C        C  469   4.191   4.247   2.160
    1C        C  470   4.008   4.370   2.278
    1C        C  471   4.130   4.296   2.278
    1C        C  472   3.946   4.403   2.401
    1C        C  473   4.013   4.374   2.522
    1C        C  474   3.818   4.465   2.645
    1C        C  475   3.947   4.409   2.642
    1C        C  476   3.751   4.494   2.766
    1C        C  477   3.818   4.472   2.888
    1C        C  478   3.610   4.518   3.009
    1C        C  479   3.748   4.491   3.010
    1C        C  480   3.541   4.529   3.132
    1C        C  481   3.610   4.522   3.255
    1C        C  482   3.397   4.533   3.380
    1C        C  483   3.538   4.535   3.376
    1C        C  484   3.328   4.530   3.503
    1C        C  485   3.402   4.539   3.624
    1C        C  486   3.194   4.495   3.748
    1C        C  487   3.331   4.531   3.746
    1C        C  488   3.130   4.472   3.872
    1C        C  489   3.199   4.492   3.993
    1C        C  490   3.002   4.415   4.116
    1C        C  491   3.129   4.478   4.115
    1C        C  492   2.942   4.382   4.239
    1C        C  493   3.001   4.423   4.361
    1C        C  494   2.830   4.303   4.485
    1C        C  495   2.939   4.392   4.484
    1C        C  496   2.774   4.259   4.608
    1C        C  497   2.818   4.319   4.728
    1C        C  498   2.668   4.168   4.849
    1C        C  499   2.755   4.279   4.848
    1C        C  500   2.606   4.113   4.962
    1C        C  501   4.002   4.354   2.040
    1C        C  502   3.814   4.461   2.158
    1C        C  503   3.942   4.401   2.158
    1C        C  504   3.746   4.477   2.281
    1C        C  505   3.815   4.455   2.403
    1C        C  506   3.609   4.512   2.523
    1C        C  507   3.747   4.481   2.524
    1C        C  508   3.539   4.522   2.645
    1C        C  509   3.611   4.515   2.766
    1C        C  510   3.397   4.526   2.887
    1C        C  511   3.539   4.522   2.887
    1C        C  512   3.328   4.522   3.011
    1C        C  513   3.400   4.532   3.132
    1C        C  514   3.193   4.495   3.257
    1C        C  515   3.331   4.527   3.255
    1C        C  516   3.126   4.469   3.378
    1C        C  517   3.192   4.494   3.501
    1C        C  518   3.002   4.409   3.626
    1C        C  519   3.129   4.471   3.625
    1C        C  520   2.942   4.371   3.749
    1C        C  521   3.003   4.409   3.870
    1C        C  522   2.831   4.290   3.997
    1C        C  523   2.942   4.377   3.994
    1C        C  524   2.783   4.242   4.121
    1C        C  525   2.828   4.299   4.242
    1C        C  526   2.690   4.140   4.367
    1C        C  527   2.776   4.252   4.365
    1C        C  528   2.651   4.085   4.491
    1C        C  529   2.685   4.150   4.612
    1C        C  530   2.581   3.964   4.733
    1C        C  531   2.638   4.094   4.733
    1C        C  532   2.542   3.904   4.856
    1C        C  533   2.527   3.997   4.963
    1C        C  534   3.620   4.563   2.044
    1C        C  535   3.749   4.510   2.044
    1C        C  536   3.537   4.532   2.157
    1C        C  537   3.609   4.512   2.278
    1C        C  538   3.397   4.513   2.402
    1C        C  539   3.538   4.517   2.401
    1C        C  540   3.325   4.504   2.523
    1C        C  541   3.398   4.514   2.644
    1C        C  542   3.189   4.483   2.767
    1C        C  543   3.327   4.513   2.766
    1C        C  544   3.123   4.462   2.891
    1C        C  545   3.192   4.483   3.012
    1C        C  546   3.002   4.398   3.136
    1C        C  547   3.127   4.464   3.136
    1C        C  548   2.943   4.364   3.260
    1C        C  549   3.000   4.404   3.383
    1C        C  550   2.828   4.283   3.506
    1C        C  551   2.938   4.372   3.506
    1C        C  552   2.774   4.239   3.629
    1C        C  553   2.829   4.287   3.750
    1C        C  554   2.698   4.125   3.876
    1C        C  555   2.782   4.239   3.874
    1C        C  556   2.657   4.069   3.999
    1C        C  557   2.693   4.133   4.119
    1C        C  558   2.598   3.950   4.247
    1C        C  559   2.657   4.078   4.244
    1C        C  560   2.570   3.888   4.371
    1C        C  561   2.587   3.959   4.491
    1C        C  562   2.532   3.756   4.617
    1C        C  563   2.553   3.895   4.613
    1C        C  564   2.517   3.686   4.739
    1C        C  565   2.523   3.762   4.859
    1C        C  566   2.535   3.551   4.979
    1C        C  567   2.523   3.690   4.980
    1C        C  568   3.332   4.469   2.043
    1C        C  569   3.396   4.515   2.159
    1C        C  570   3.185   4.479   2.282
    1C        C  571   3.324   4.512   2.281
    1C        C  572   3.116   4.460   2.404
    1C        C  573   3.186   4.480   2.526
    1C        C  574   2.989   4.402   2.650
    1C        C  575   3.116   4.463   2.648
    1C        C  576   2.931   4.362   2.772
    1C        C  577   2.997   4.399   2.892
    1C        C  578   2.826   4.275   3.016
    1C        C  579   2.939   4.361   3.015
    1C        C  580   2.777   4.226   3.139
    1C        C  581   2.832   4.277   3.259
    1C        C  582   2.699   4.117   3.385
    1C        C  583   2.785   4.229   3.383
    1C        C  584   2.662   4.058   3.508
    1C        C  585   2.695   4.123   3.630
    1C        C  586   2.593   3.941   3.758
    1C        C  587   2.658   4.066   3.754
    1C        C  588   2.572   3.876   3.881
    1C        C  589   2.599   3.940   4.004
    1C        C  590   2.532   3.743   4.131
    1C        C  591   2.570   3.879   4.128
    1C        C  592   2.519   3.677   4.256
    1C        C  593   2.533   3.752   4.375
    1C        C  594   2.517   3.540   4.500
    1C        C  595   2.523   3.681   4.497
    1C        C  596   2.523   3.471   4.623
    1C        C  597   2.519   3.544   4.743
    1C        C  598   2.537   3.331   4.865
    1C        C  599   2.530   3.472   4.864
    1C        C  600   2.544   3.255   4.982
    1C        C  601   3.197   4.439   2.047
    1C        C  602   2.983   4.396   2.163
    1C        C  603   3.119   4.440   2.163
    1C        C  604   2.922   4.365   2.287
    1C        C  605   2.986   4.407   2.407
    1C        C  606   2.817   4.278   2.529
    1C        C  607   2.926   4.367   2.528
    1C        C  608   2.765   4.229   2.651
    1C        C  609   2.817   4.279   2.773
    1C        C  610   2.681   4.118   2.896
    1C        C  611   2.767   4.230   2.896
    1C        C  612   2.648   4.058   3.020
    1C        C  613   2.688   4.116   3.142
    1C        C  614   2.593   3.928   3.268
    1C        C  615   2.654   4.056   3.265
    1C        C  616   2.570   3.866   3.392
    1C        C  617   2.596   3.933   3.514
    1C        C  618   2.528   3.736   3.641
    1C        C  619   2.567   3.872   3.637
    1C        C  620   2.521   3.668   3.765
    1C        C  621   2.530   3.741   3.886
    1C        C  622   2.511   3.531   4.011
    1C        C  623   2.519   3.673   4.009
    1C        C  624   2.517   3.464   4.134
    1C        C  625   2.510   3.536   4.255
    1C        C  626   2.547   3.329   4.380
    1C        C  627   2.521   3.468   4.378
    1C        C  628   2.567   3.260   4.502
    1C        C  629   2.551   3.333   4.622
    1C        C  630   2.603   3.126   4.748
    1C        C  631   2.562   3.262   4.744
    1C        C  632   2.622   3.050   4.866
    1C        C  633   2.567   3.117   4.980
    1C        C  634   2.784   4.308   2.056
    1C        C  635   2.895   4.393   2.049
    1C        C  636   2.745   4.237   2.170
    1C        C  637   2.807   4.282   2.289
    1C        C  638   2.673   4.115   2.412
    1C        C  639   2.763   4.224   2.410
    1C        C  640   2.637   4.054   2.534
    1C        C  641   2.679   4.117   2.653
    1C        C  642   2.584   3.929   2.778
    1C        C  643   2.640   4.059   2.775
    1C        C  644   2.561   3.864   2.901
    1C        C  645   2.588   3.930   3.023
    1C        C  646   2.529   3.727   3.151
    1C        C  647   2.565   3.863   3.146
    1C        C  648   2.516   3.658   3.274
    1C        C  649   2.529   3.730   3.394
    1C        C  650   2.514   3.525   3.521
    1C        C  651   2.512   3.667   3.519
    1C        C  652   2.519   3.458   3.644
    1C        C  653   2.514   3.527   3.767
    1C        C  654   2.542   3.319   3.891
    1C        C  655   2.513   3.458   3.890
    1C        C  656   2.565   3.255   4.014
    1C        C  657   2.547   3.326   4.135
    1C        C  658   2.614   3.127   4.261
    1C        C  659   2.564   3.259   4.259
    1C        C  660   2.641   3.061   4.383
    1C        C  661   2.614   3.127   4.506
    1C        C  662   2.713   2.941   4.624
    1C        C  663   2.636   3.059   4.628
    1C        C  664   2.759   2.883   4.745
    1C        C  665   2.706   2.934   4.867
    1C        C  666   2.745   2.870   4.985
    1C        C  667   2.684   4.025   2.059
    1C        C  668   2.683   4.111   2.170
    1C        C  669   2.592   3.916   2.292
    1C        C  670   2.643   4.049   2.290
    1C        C  671   2.561   3.853   2.415
    1C        C  672   2.583   3.923   2.536
    1C        C  673   2.526   3.720   2.663
    1C        C  674   2.562   3.856   2.659
    1C        C  675   2.516   3.653   2.788
    1C        C  676   2.530   3.726   2.908
    1C        C  677   2.514   3.515   3.033
    1C        C  678   2.519   3.656   3.030
    1C        C  679   2.512   3.445   3.155
    1C        C  680   2.510   3.517   3.277
    1C        C  681   2.540   3.310   3.404
    1C        C  682   2.520   3.450   3.401
    1C        C  683   2.562   3.246   3.527
    1C        C  684   2.545   3.319   3.647
    1C        C  685   2.615   3.119   3.774
    1C        C  686   2.562   3.250   3.769
    1C        C  687   2.646   3.057   3.897
    1C        C  688   2.617   3.124   4.018
    1C        C  689   2.719   2.938   4.138
    1C        C  690   2.647   3.060   4.141
    1C        C  691   2.757   2.882   4.262
    1C        C  692   2.713   2.940   4.383
    1C        C  693   2.759   2.883   4.504
    1C        C  694   2.629   3.896   2.058
    1C        C  695   2.533   3.705   2.177
    1C        C  696   2.584   3.836   2.177
    1C        C  697   2.515   3.640   2.301
    1C        C  698   2.525   3.717   2.420
    1C        C  699   2.493   3.510   2.546
    1C        C  700   2.504   3.650   2.543
    1C        C  701   2.505   3.440   2.669
    1C        C  702   2.507   3.512   2.790
    1C        C  703   2.535   3.301   2.913
    1C        C  704   2.513   3.441   2.912
    1C        C  705   2.553   3.234   3.036
    1C        C  706   2.537   3.306   3.157
    1C        C  707   2.605   3.109   3.281
    1C        C  708   2.553   3.240   3.281
    1C        C  709   2.641   3.048   3.403
    1C        C  710   2.618   3.116   3.525
    1C        C  711   2.717   2.935   3.651
    1C        C  712   2.645   3.056   3.651
    1C        C  713   2.765   2.881   3.772
    1C        C  714   2.720   2.937   3.894
    1C        C  715   2.758   2.878   4.016
    1C        C  716   2.457   3.499   2.068
    1C        C  717   2.500   3.632   2.062
    1C        C  718   2.469   3.424   2.189
    1C        C  719   2.490   3.500   2.307
    1C        C  720   2.529   3.293   2.430
    1C        C  721   2.496   3.430   2.430
    1C        C  722   2.548   3.225   2.553
    1C        C  723   2.530   3.301   2.671
    1C        C  724   2.594   3.097   2.793
    1C        C  725   2.547   3.230   2.792
    1C        C  726   2.629   3.035   2.916
    1C        C  727   2.600   3.101   3.037
    1C        C  728   2.707   2.920   3.162
    1C        C  729   2.633   3.040   3.160
    1C        C  730   2.753   2.867   3.285
    1C        C  731   2.720   2.931   3.407
    1C        C  732   2.760   2.875   3.530
    1C        C  733   2.494   3.200   2.077
    1C        C  734   2.489   3.282   2.190
    1C        C  735   2.585   3.087   2.306
    1C        C  736   2.529   3.217   2.310
    1C        C  737   2.616   3.022   2.428
    1C        C  738   2.594   3.092   2.549
    1C        C  739   2.700   2.910   2.672
    1C        C  740   2.626   3.030   2.673
    1C        C  741   2.743   2.855   2.795
    1C        C  742   2.703   2.915   2.916
    1C        C  743   2.752   2.867   3.040
    1C        C  744   2.542   3.069   2.077
    1C        C  745   2.692   2.901   2.188
    1C        C  746   2.613   3.018   2.186
    1C        C  747   2.735   2.843   2.309
    1C        C  748   2.689   2.902   2.429
    1C        C  749   2.738   2.848   2.551
    1C        C  750   2.738   2.839   2.071
    1C        C  751   3.658   2.300   1.997
    1C        O  752   3.672   2.182   2.040
    1C        O  753   3.628   2.292   1.861
    1C        C  754   4.585   3.058   1.946
    1C        O  755   4.530   3.080   1.834
    1C        O  756   4.725   3.050   1.934
    1C        C  757   4.466   4.210   1.961
    1C        O  758   4.558   4.283   2.005
    1C        O  759   4.447   4.205   1.822
    1C        C  760   3.600   4.673   1.947
    1C        O  761   3.546   4.784   1.972
    1C        O  762   3.633   4.668   1.811
    1C        C  763   2.882   4.509   1.958
    1C        O  764   2.947   4.506   1.850
    1C        O  765   2.775   4.598   1.966
    1C        C  766   2.345   3.478   1.974
    1C        O  767   2.351   3.444   1.852
    1C        O  768   2.218   3.533   1.994
    1C        C  769   4.703   3.595   5.048
    1C        O  770   4.706   3.554   5.167
    1C        O  771   4.835   3.620   5.006
    1C        C  772   4.272   4.465   5.040
    1C        O  773   4.276   4.420   5.157
    1C        O  774   4.385   4.527   4.984
    1C        C  775   4.157   2.502   5.048
    1C        O  776   4.221   2.404   5.002
    1C        O  777   4.171   2.520   5.186
    1C        C  778   2.870   4.557   5.036
    1C        O  779   2.818   4.652   4.972
    1C        O  780   2.923   4.601   5.159
    1C        C  781   2.487   3.036   5.076
    1C        O  782   2.415   2.938   5.043
    1C        O  783   2.493   3.063   5.212
    1C        C  784   2.397   3.999   5.034
    1C        O  785   2.307   4.076   4.992
    1C        O  786   2.421   4.011   5.171
    1C        C  787   2.956   2.434   1.993
    1C        O  788   2.959   2.451   1.868
    1C        O  789   2.941   2.298   2.015
    1C        C  790   3.184   2.380   5.078
    1C        O  791   3.135   2.269   5.042
    1C        O  792   3.212   2.407   5.213
    1C        H  793   4.257   3.041   5.045
    1C        H  794   4.228   2.787   5.067
    1C        H  795   4.480   3.141   5.072
    1C        H  796   4.507   3.372   5.066
    1C        H  797   4.541   3.807   5.056
    1C        H  798   4.359   3.952   5.042
    1C        H  799   4.262   4.165   5.046
    1C        H  800   4.021   4.519   5.039
    1C        H  801   3.826   4.618   5.033
    1C        H  802   3.583   4.597   5.043
    1C        H  803   3.399   4.481   5.045
    1C        H  804   3.156   4.484   5.054
    1C        H  805   3.895   2.486   5.071
    1C        H  806   3.670   2.415   5.059
    1C        H  807   3.017   2.582   5.074
    1C        H  808   3.442   2.482   5.080
    1C        H  809   2.885   2.746   5.082
    1C        H  810   2.738   2.923   5.078
    1C        H  811   2.487   3.293   5.064
    1C        H  812   2.565   3.501   5.069
    1C        H  813   2.534   3.742   5.072
    1C        H  814   2.619   4.164   5.055
    1C        H  815   2.765   4.317   5.059
    1C        H  816   2.699   2.867   1.976
    1C        H  817   2.867   2.702   1.977
    1C        H  818   3.216   2.443   1.984
    1C        H  819   3.430   2.463   1.985
    1C        H  820   3.866   2.495   1.978
    1C        H  821   4.058   2.641   1.972
    1C        H  822   4.294   2.695   2.000
    1C        H  823   4.391   2.908   1.969
    1C        H  824   4.592   3.312   1.972
    1C        H  825   4.450   3.510   1.982
    1C        H  826   4.559   3.744   1.971
    1C        H  827   3.767   4.455   1.954
    1C        H  828   3.936   4.332   1.959
    1C        H  829   4.140   4.225   1.957
    1C        H  830   4.487   3.954   1.961
    1C        H  831   2.667   3.830   1.983
    1C        H  832   2.679   4.071   1.962
    1C        H  833   2.701   4.323   1.990
    1C        H  834   3.364   4.514   1.952
    1C        H  835   3.150   4.420   1.952
    1C        H  836   2.504   3.001   2.004
    1C        H  837   2.454   3.239   1.986
    1C        H  838   2.495   3.684   1.968
    2V3OU   H29  839   2.813   3.561   1.591
    2V3OU   C27  840   2.786   3.508   1.686
    2V3OU   H27  841   2.730   3.578   1.753
    2V3OU   H28  842   2.727   3.415   1.664
    2V3OU   O11  843   2.911   3.479   1.749
    2V3OU   C15  844   2.922   3.396   1.859
    2V3OU   C13  845   3.046   3.377   1.923
    2V3OU   C14  846   3.076   3.272   2.011
    2V3OU   C16  847   2.968   3.191   2.046
    2V3OU    H6  848   2.989   3.102   2.108
    2V3OU   C12  849   3.212   3.231   2.051
    2V3OU    O2  850   3.243   3.129   2.117
    2V3OU   C10  851   3.326   3.308   1.998
    2V3OU    C8  852   3.458   3.272   2.024
    2V3OU   O10  853   3.492   3.158   2.090
    2V3OU   H26  854   3.408   3.120   2.121
    2V3OU    C6  855   3.567   3.352   1.978
    2V3OU    C5  856   3.538   3.470   1.911
    2V3OU    C4  857   3.707   3.301   1.980
    2V3OU    H4  858   3.727   3.229   2.065
    2V3OU    H5  859   3.712   3.233   1.889
    2V3OU    C2  860   3.820   3.403   1.975
    2V3OU    O6  861   3.804   3.471   2.100
    2V3OU   H21  862   3.761   3.557   2.088
    2V3OU    C3  863   3.786   3.498   1.861
    2V3OU    H2  864   3.861   3.582   1.857
    2V3OU    H3  865   3.783   3.436   1.767
    2V3OU   C25  866   3.955   3.338   1.944
    2V3OU    O7  867   3.995   3.304   1.833
    2V3OU   C26  868   4.036   3.295   2.065
    2V3OU   H22  869   4.075   3.386   2.119
    2V3OU   H23  870   4.127   3.238   2.032
    2V3OU    O8  871   3.969   3.215   2.159
    2V3OU   H24  872   3.932   3.272   2.229
    2V3OU    C1  873   3.651   3.565   1.880
    2V3OU    H1  874   3.628   3.622   1.785
    2V3OU    O3  875   3.654   3.657   1.990
    2V3OU   C19  876   3.618   3.795   1.989
    2V3OU    H9  877   3.528   3.817   1.924
    2V3OU    O4  878   3.716   3.855   1.906
    2V3OU   C20  879   3.844   3.873   1.967
    2V3OU   H10  880   3.891   3.771   1.976
    2V3OU   C24  881   3.611   3.854   2.130
    2V3OU   H16  882   3.534   3.796   2.187
    2V3OU   H17  883   3.572   3.957   2.113
    2V3OU   C23  884   3.748   3.869   2.196
    2V3OU   H15  885   3.790   3.763   2.209
    2V3OU    N1  886   3.742   3.956   2.312
    2V3OU   H19  887   3.802   3.931   2.388
    2V3OU   H20  888   3.653   3.943   2.357
    2V3OU   C21  889   3.844   3.946   2.101
    2V3OU   H11  890   3.949   3.933   2.143
    2V3OU    O5  891   3.827   4.087   2.095
    2V3OU   H18  892   3.779   4.100   2.179
    2V3OU   C22  893   3.917   3.950   1.857
    2V3OU   H12  894   3.866   4.048   1.842
    2V3OU   H13  895   3.909   3.894   1.761
    2V3OU   H14  896   4.024   3.967   1.884
    2V3OU   C11  897   3.158   3.469   1.898
    2V3OU    O1  898   3.130   3.586   1.866
    2V3OU    C9  899   3.297   3.427   1.927
    2V3OU    C7  900   3.403   3.505   1.882
    2V3OU    O9  901   3.390   3.621   1.808
    2V3OU   H25  902   3.294   3.627   1.797
    2V3OU   C17  903   2.816   3.316   1.904
    2V3OU    H7  904   2.715   3.346   1.874
    2V3OU   C18  905   2.841   3.215   1.996
    2V3OU    H8  906   2.754   3.158   2.032
    3SOL     OW  907   2.168   4.233   0.830
    3SOL    HW1  908   2.177   4.180   0.745
    3SOL    HW2  909   2.254   4.282   0.847
    4SOL     OW  910   6.754   6.366   1.977
    4SOL    HW1  911   6.700   6.450   1.976
    4SOL    HW2  912   6.754   6.328   2.069
    5SOL     OW  913   4.152   1.360   1.846
    5SOL    HW1  914   4.072   1.413   1.819
    5SOL    HW2  915   4.214   1.350   1.768
    6SOL     OW  916   3.651   2.082   2.281
    6SOL    HW1  917   3.561   2.115   2.307
    6SOL    HW2  918   3.682   2.131   2.199
    7SOL     OW  919   6.191   2.227   1.982
    7SOL    HW1  920   6.143   2.140   1.991
    7SOL    HW2  921   6.262   2.233   2.053
    8SOL     OW  922   2.331   6.565   5.048
    8SOL    HW1  923   2.307   6.523   4.961
    8SOL    HW2  924   2.429   6.586   5.049
    9SOL     OW  925   1.623   5.783   5.802
    9SOL    HW1  926   1.716   5.760   5.831
    9SOL    HW2  927   1.617   5.772   5.702
   10SOL     OW  928   0.222   4.522   6.185
   10SOL    HW1  929   0.319   4.505   6.201
   10SOL    HW2  930   0.185   4.581   6.257
   11SOL     OW  931   3.029   0.214   0.500
   11SOL    HW1  932   3.100   0.198   0.432
   11SOL    HW2  933   2.991   0.127   0.531
   12SOL     OW  934   4.609   6.052   3.372
   12SOL    HW1  935   4.659   5.965   3.367
   12SOL    HW2  936   4.515   6.038   3.340
   13SOL     OW  937   3.170   6.297   4.215
   13SOL    HW1  938   3.071   6.284   4.225
   13SOL    HW2  939   3.201   6.255   4.129
   14SOL     OW  940   3.556   5.760   6.209
   14SOL    HW1  941   3.553   5.669   6.250
   14SOL    HW2  942   3.613   5.821   6.264
   15SOL     OW  943   1.432   6.149   0.344
   15SOL    HW1  944   1.520   6.167   0.301
   15SOL    HW2  945   1.419   6.050   0.353
   16SOL     OW  946   6.637   2.052   5.812
   16SOL    HW1  947   6.722   2.085   5.771
   16SOL    HW2  948   6.610   1.967   5.767
   17SOL     OW  949   5.253   6.337   4.545
   17SOL    HW1  950   5.238   6.280   4.464
   17SOL    HW2  951   5.248   6.281   4.627
   18SOL     OW  952   3.032   2.126   6.353
   18SOL    HW1  953   3.066   2.219   6.365
   18SOL    HW2  954   3.077   2.066   6.419
   19SOL     OW  955   0.023   0.001   3.543
   19SOL    HW1  956   6.977   0.045   3.492
   19SOL    HW2  957   0.087   6.986   3.479
   20SOL     OW  958   3.584   1.037   4.203
   20SOL    HW1  959   3.646   0.995   4.138
   20SOL    HW2  960   3.549   0.968   4.266
   21SOL     OW  961   2.915   1.848   2.381
   21SOL    HW1  962   2.922   1.750   2.403
   21SOL    HW2  963   2.872   1.896   2.458
   22SOL     OW  964   1.944   0.401   0.029
   22SOL    HW1  965   1.903   0.345   6.985
   22SOL    HW2  966   2.027   0.444   7.021
   23SOL     OW  967   4.536   6.959   3.645
   23SOL    HW1  968   4.476   6.998   3.714
   23SOL    HW2  969   4.489   6.885   3.597
   24SOL     OW  970   5.300   1.286   4.461
   24SOL    HW1  971   5.281   1.305   4.557
   24SOL    HW2  972   5.351   1.362   4.421
   25SOL     OW  973   2.941   6.011   6.787
   25SOL    HW1  974   2.938   5.920   6.827
   25SOL    HW2  975   2.875   6.017   6.712
   26SOL     OW  976   6.293   0.901   1.489
   26SOL    HW1  977   6.249   0.829   1.435
   26SOL    HW2  978   6.256   0.990   1.462
   27SOL     OW  979   0.058   0.588   2.241
   27SOL    HW1  980   7.000   0.574   2.292
   27SOL    HW2  981   0.046   0.556   2.147
   28SOL     OW  982   4.460   0.721   6.899
   28SOL    HW1  983   4.480   0.818   6.913
   28SOL    HW2  984   4.419   0.708   6.809
   29SOL     OW  985   5.113   2.368   2.189
   29SOL    HW1  986   5.124   2.362   2.090
   29SOL    HW2  987   5.118   2.463   2.217
   30SOL     OW  988   2.871   6.890   5.894
   30SOL    HW1  989   2.901   6.957   5.963
   30SOL    HW2  990   2.913   6.801   5.914
   31SOL     OW  991   0.621   1.102   5.798
   31SOL    HW1  992   0.690   1.165   5.762
   31SOL    HW2  993   0.607   1.027   5.734
   32SOL     OW  994   0.480   2.622   2.902
   32SOL    HW1  995   0.505   2.714   2.872
   32SOL    HW2  996   0.554   2.558   2.880
   33SOL     OW  997   1.901   2.935   6.128
   33SOL    HW1  998   1.805   2.954   6.109
   33SOL    HW2  999   1.933   2.996   6.201
   34SOL     OW 1000   1.853   0.320   4.837
   34SOL    HW1 1001   1.793   0.398   4.856
   34SOL    HW2 1002   1.941   0.353   4.803
   35SOL     OW 1003   4.493   2.334   6.001
   35SOL    HW1 1004   4.440   2.253   5.976
   35SOL    HW2 1005   4.550   2.314   6.081
   36SOL     OW 1006   0.719   0.665   6.270
   36SOL    HW1 1007   0.657   0.715   6.330
   36SOL    HW2 1008   0.668   0.635   6.188
   37SOL     OW 1009   2.333   6.752   1.337
   37SOL    HW1 1010   2.368   6.844   1.350
   37SOL    HW2 1011   2.402   6.696   1.291
   38SOL     OW 1012   0.193   6.247   2.817
   38SOL    HW1 1013   0.156   6.337   2.839
   38SOL    HW2 1014   0.118   6.186   2.792
   39SOL     OW 1015   6.518   4.043   6.198
   39SOL    HW1 1016   6.462   3.998   6.267
   39SOL    HW2 1017   6.611   4.056   6.233
   40SOL     OW 1018   6.307   2.185   2.348
   40SOL    HW1 1019   6.348   2.199   2.258
   40SOL    HW2 1020   6.323   2.266   2.405
   41SOL     OW 1021   1.760   6.369   4.439
   41SOL    HW1 1022   1.770   6.306   4.362
   41SOL    HW2 1023   1.707   6.448   4.410
   42SOL     OW 1024   3.032   6.662   5.889
   42SOL    HW1 1025   3.092   6.742   5.887
   42SOL    HW2 1026   3.084   6.580   5.864
   43SOL     OW 1027   5.829   5.728   6.261
   43SOL    HW1 1028   5.849   5.638   6.220
   43SOL    HW2 1029   5.731   5.735   6.279
   44SOL     OW 1030   6.885   2.419   6.391
   44SOL    HW1 1031   6.896   2.518   6.384
   44SOL    HW2 1032   6.971   2.374   6.367
   45SOL     OW 1033   3.524   0.547   2.854
   45SOL    HW1 1034   3.425   0.533   2.849
   45SOL    HW2 1035   3.561   0.499   2.934
   46SOL     OW 1036   0.731   3.682   4.466
   46SOL    HW1 1037   0.637   3.715   4.472
   46SOL    HW2 1038   0.790   3.756   4.433
   47SOL     OW 1039   6.526   3.329   4.073
   47SOL    HW1 1040   6.540   3.425   4.048
   47SOL    HW2 1041   6.485   3.280   3.997
   48SOL     OW 1042   0.600   2.409   5.238
   48SOL    HW1 1043   0.527   2.347   5.267
   48SOL    HW2 1044   0.564   2.474   5.171
   49SOL     OW 1045   4.708   3.960   1.720
   49SOL    HW1 1046   4.700   4.058   1.701
   49SOL    HW2 1047   4.742   3.947   1.813
   50SOL     OW 1048   6.902   3.209   4.635
   50SOL    HW1 1049   6.973   3.228   4.704
   50SOL    HW2 1050   6.936   3.235   4.545
   51SOL     OW 1051   3.070   5.483   2.375
   51SOL    HW1 1052   2.990   5.430   2.403
   51SOL    HW2 1053   3.153   5.432   2.396
   52SOL     OW 1054   3.429   1.761   3.026
   52SOL    HW1 1055   3.424   1.829   3.098
   52SOL    HW2 1056   3.353   1.697   3.035
   53SOL     OW 1057   4.607   0.523   3.790
   53SOL    HW1 1058   4.646   0.544   3.701
   53SOL    HW2 1059   4.562   0.434   3.787
   54SOL     OW 1060   2.966   4.923   6.448
   54SOL    HW1 1061   2.868   4.901   6.438
   54SOL    HW2 1062   2.998   4.889   6.536
   55SOL     OW 1063   3.948   1.601   5.925
   55SOL    HW1 1064   3.850   1.611   5.937
   55SOL    HW2 1065   3.995   1.659   5.992
   56SOL     OW 1066   1.775   0.521   1.802
   56SOL    HW1 1067   1.797   0.592   1.735
   56SOL    HW2 1068   1.676   0.506   1.803
   57SOL     OW 1069   5.049   0.306   0.798
   57SOL    HW1 1070   5.099   0.261   0.725
   57SOL    HW2 1071   4.957   0.266   0.806
   58SOL     OW 1072   0.527   5.632   6.648
   58SOL    HW1 1073   0.510   5.707   6.585
   58SOL    HW2 1074   0.572   5.666   6.730
   59SOL     OW 1075   1.636   0.858   6.288
   59SOL    HW1 1076   1.724   0.850   6.335
   59SOL    HW2 1077   1.622   0.953   6.260
   60SOL     OW 1078   4.830   0.467   6.053
   60SOL    HW1 1079   4.833   0.385   6.109
   60SOL    HW2 1080   4.842   0.548   6.111
   61SOL     OW 1081   4.969   0.684   4.402
   61SOL    HW1 1082   4.966   0.770   4.452
   61SOL    HW2 1083   5.048   0.685   4.340
   62SOL     OW 1084   0.761   0.807   3.709
   62SOL    HW1 1085   0.691   0.850   3.766
   62SOL    HW2 1086   0.834   0.771   3.767
   63SOL     OW 1087   6.637   2.114   3.525
   63SOL    HW1 1088   6.664   2.087   3.433
   63SOL    HW2 1089   6.600   2.034   3.573
   64SOL     OW 1090   6.727   3.797   6.350
   64SOL    HW1 1091   6.700   3.892   6.368
   64SOL    HW2 1092   6.735   3.747   6.436
   65SOL     OW 1093   6.313   4.202   5.350
   65SOL    HW1 1094   6.408   4.232   5.348
   65SOL    HW2 1095   6.296   4.151   5.435
   66SOL     OW 1096   3.255   0.878   6.773
   66SOL    HW1 1097   3.325   0.820   6.732
   66SOL    HW2 1098   3.241   0.853   6.869
   67SOL     OW 1099   5.380   6.257   5.311
   67SOL    HW1 1100   5.320   6.253   5.231
   67SOL    HW2 1101   5.343   6.199   5.383
   68SOL     OW 1102   6.129   1.200   6.588
   68SOL    HW1 1103   6.209   1.170   6.641
   68SOL    HW2 1104   6.064   1.245   6.649
   69SOL     OW 1105   1.373   4.167   6.069
   69SOL    HW1 1106   1.349   4.257   6.107
   69SOL    HW2 1107   1.461   4.173   6.022
   70SOL     OW 1108   6.695   5.520   2.656
   70SOL    HW1 1109   6.793   5.524   2.677
   70SOL    HW2 1110   6.659   5.431   2.683
   71SOL     OW 1111   3.057   2.191   3.499
   71SOL    HW1 1112   3.006   2.270   3.534
   71SOL    HW2 1113   3.065   2.198   3.399
   72SOL     OW 1114   2.750   5.956   4.515
   72SOL    HW1 1115   2.778   5.891   4.585
   72SOL    HW2 1116   2.805   6.040   4.524
   73SOL     OW 1117   3.292   2.365   6.883
   73SOL    HW1 1118   3.249   2.316   6.808
   73SOL    HW2 1119   3.235   2.358   6.965
   74SOL     OW 1120   5.216   7.026   0.353
   74SOL    HW1 1121   5.280   6.968   0.403
   74SOL    HW2 1122   5.131   6.976   0.335
   75SOL     OW 1123   3.263   5.239   4.969
   75SOL    HW1 1124   3.208   5.311   5.013
   75SOL    HW2 1125   3.360   5.264   4.973
   76SOL     OW 1126   2.192   2.720   1.389
   76SOL    HW1 1127   2.261   2.747   1.456
   76SOL    HW2 1128   2.132   2.651   1.430
   77SOL     OW 1129   5.062   5.725   4.581
   77SOL    HW1 1130   5.139   5.661   4.577
   77SOL    HW2 1131   5.078   5.801   4.518
   78SOL     OW 1132   6.973   6.896   6.327
   78SOL    HW1 1133   7.015   6.950   6.400
   78SOL    HW2 1134   7.014   6.919   6.239
   79SOL     OW 1135   2.934   7.012   0.616
   79SOL    HW1 1136   2.977   6.983   0.702
   79SOL    HW2 1137   2.908   6.932   0.563
   80SOL     OW 1138   6.373   0.700   4.735
   80SOL    HW1 1139   6.397   0.664   4.825
   80SOL    HW2 1140   6.455   0.703   4.677
   81SOL     OW 1141   2.381   0.526   2.702
   81SOL    HW1 1142   2.391   0.612   2.753
   81SOL    HW2 1143   2.288   0.519   2.667
   82SOL     OW 1144   6.742   5.413   0.216
   82SOL    HW1 1145   6.653   5.448   0.187
   82SOL    HW2 1146   6.751   5.423   0.315
   83SOL     OW 1147   6.615   6.969   0.777
   83SOL    HW1 1148   6.695   6.911   0.761
   83SOL    HW2 1149   6.535   6.912   0.793
   84SOL     OW 1150   4.951   3.463   2.845
   84SOL    HW1 1151   4.994   3.401   2.911
   84SOL    HW2 1152   4.882   3.519   2.891
   85SOL     OW 1153   0.509   1.541   5.294
   85SOL    HW1 1154   0.472   1.606   5.360
   85SOL    HW2 1155   0.461   1.550   5.207
   86SOL     OW 1156   0.866   0.400   5.511
   86SOL    HW1 1157   0.871   0.441   5.602
   86SOL    HW2 1158   0.925   0.450   5.448
   87SOL     OW 1159   4.436   2.713   0.515
   87SOL    HW1 1160   4.388   2.699   0.601
   87SOL    HW2 1161   4.377   2.690   0.439
   88SOL     OW 1162   4.819   1.796   0.200
   88SOL    HW1 1163   4.754   1.781   0.125
   88SOL    HW2 1164   4.787   1.870   0.257
   89SOL     OW 1165   1.676   2.650   0.142
   89SOL    HW1 1166   1.656   2.690   0.231
   89SOL    HW2 1167   1.760   2.691   0.105
   90SOL     OW 1168   5.202   0.321   3.983
   90SOL    HW1 1169   5.260   0.254   4.028
   90SOL    HW2 1170   5.159   0.279   3.902
   91SOL     OW 1171   4.825   4.795   4.044
   91SOL    HW1 1172   4.820   4.695   4.048
   91SOL    HW2 1173   4.767   4.828   3.970
   92SOL     OW 1174   2.905   5.314   0.522
   92SOL    HW1 1175   2.879   5.356   0.609
   92SOL    HW2 1176   2.967   5.374   0.472
   93SOL     OW 1177   2.967   4.537   6.007
   93SOL    HW1 1178   2.993   4.448   6.043
   93SOL    HW2 1179   2.896   4.525   5.937
   94SOL     OW 1180   2.996   5.564   6.714
   94SOL    HW1 1181   2.991   5.560   6.814
   94SOL    HW2 1182   2.915   5.610   6.679
   95SOL     OW 1183   0.406   1.590   3.844
   95SOL    HW1 1184   0.350   1.511   3.867
   95SOL    HW2 1185   0.449   1.626   3.927
   96SOL     OW 1186   2.618   0.002   5.963
   96SOL    HW1 1187   2.636   0.060   5.883
   96SOL    HW2 1188   2.702   6.980   5.987
   97SOL     OW 1189   7.023   3.778   5.307
   97SOL    HW1 1190   6.992   3.838   5.234
   97SOL    HW2 1191   0.096   3.771   5.304
   98SOL     OW 1192   6.096   3.469   6.698
   98SOL    HW1 1193   6.172   3.509   6.647
   98SOL    HW2 1194   6.116   3.475   6.796
   99SOL     OW 1195   4.483   3.342   1.054
   99SOL    HW1 1196   4.522   3.263   1.102
   99SOL    HW2 1197   4.470   3.417   1.119
  100SOL     OW 1198   0.559   0.031   6.338
  100SOL    HW1 1199   0.558   0.005   6.434
  100SOL    HW2 1200   0.623   6.999   6.288
  101SOL     OW 1201   0.709   5.826   2.614
  101SOL    HW1 1202   0.792   5.777   2.640
  101SOL    HW2 1203   0.637   5.759   2.593
  102SOL     OW 1204   4.508   1.308   2.879
  102SOL    HW1 1205   4.513   1.406   2.898
  102SOL    HW2 1206   4.484   1.294   2.783
  103SOL     OW 1207   4.428   1.685   1.682
  103SOL    HW1 1208   4.417   1.670   1.781
  103SOL    HW2 1209   4.373   1.617   1.632
  104SOL     OW 1210   6.969   5.733   2.817
  104SOL    HW1 1211   0.030   5.780   2.816
  104SOL    HW2 1212   6.976   5.647   2.766
  105SOL     OW 1213   6.323   1.483   6.439
  105SOL    HW1 1214   6.401   1.446   6.489
  105SOL    HW2 1215   6.240   1.436   6.468
  106SOL     OW 1216   3.324   0.025   5.938
  106SOL    HW1 1217   3.261   7.014   6.005
  106SOL    HW2 1218   3.418   0.006   5.966
  107SOL     OW 1219   1.606   2.302   1.943
  107SOL    HW1 1220   1.646   2.361   2.012
  107SOL    HW2 1221   1.616   2.206   1.970
  108SOL     OW 1222   5.015   4.774   0.022
  108SOL    HW1 1223   5.057   4.691   7.013
  108SOL    HW2 1224   4.925   4.753   0.060
  109SOL     OW 1225   0.718   0.432   1.293
  109SOL    HW1 1226   0.776   0.513   1.304
  109SOL    HW2 1227   0.662   0.442   1.211
  110SOL     OW 1228   4.096   6.329   5.443
  110SOL    HW1 1229   4.126   6.409   5.495
  110SOL    HW2 1230   4.033   6.359   5.370
  111SOL     OW 1231   4.058   0.498   4.037
  111SOL    HW1 1232   4.094   0.462   4.123
  111SOL    HW2 1233   4.124   0.480   3.963
  112SOL     OW 1234   5.628   5.855   6.014
  112SOL    HW1 1235   5.668   5.855   6.106
  112SOL    HW2 1236   5.534   5.889   6.020
  113SOL     OW 1237   6.568   4.494   3.447
  113SOL    HW1 1238   6.611   4.567   3.501
  113SOL    HW2 1239   6.499   4.534   3.387
  114SOL     OW 1240   1.140   0.293   0.602
  114SOL    HW1 1241   1.159   0.199   0.630
  114SOL    HW2 1242   1.147   0.354   0.681
  115SOL     OW 1243   4.333   1.144   4.297
  115SOL    HW1 1244   4.318   1.047   4.314
  115SOL    HW2 1245   4.431   1.162   4.291
  116SOL     OW 1246   6.141   5.228   2.123
  116SOL    HW1 1247   6.234   5.260   2.102
  116SOL    HW2 1248   6.125   5.236   2.222
  117SOL     OW 1249   0.637   1.339   6.631
  117SOL    HW1 1250   0.627   1.253   6.581
  117SOL    HW2 1251   0.727   1.342   6.675
  118SOL     OW 1252   0.325   1.692   2.188
  118SOL    HW1 1253   0.289   1.627   2.254
  118SOL    HW2 1254   0.269   1.775   2.187
  119SOL     OW 1255   0.388   2.426   6.578
  119SOL    HW1 1256   0.420   2.393   6.667
  119SOL    HW2 1257   0.358   2.349   6.523
  120SOL     OW 1258   6.770   6.644   1.240
  120SOL    HW1 1259   6.771   6.663   1.338
  120SOL    HW2 1260   6.747   6.548   1.224
  121SOL     OW 1261   2.578   3.824   0.106
  121SOL    HW1 1262   2.609   3.757   0.038
  121SOL    HW2 1263   2.572   3.780   0.196
  122SOL     OW 1264   1.500   4.161   5.799
  122SOL    HW1 1265   1.418   4.188   5.749
  122SOL    HW2 1266   1.532   4.072   5.766
  123SOL     OW 1267   0.253   2.082   1.213
  123SOL    HW1 1268   0.226   1.996   1.168
  123SOL    HW2 1269   0.320   2.129   1.156
  124SOL     OW 1270   5.688   3.233   0.184
  124SOL    HW1 1271   5.776   3.263   0.145
  124SOL    HW2 1272   5.621   3.222   0.111
  125SOL     OW 1273   2.193   1.564   2.834
  125SOL    HW1 1274   2.281   1.585   2.877
  125SOL    HW2 1275   2.207   1.495   2.763
  126SOL     OW 1276   2.605   4.974   1.161
  126SOL    HW1 1277   2.672   5.039   1.126
  126SOL    HW2 1278   2.641   4.928   1.242
  127SOL     OW 1279   0.043   4.900   6.267
  127SOL    HW1 1280   6.976   4.876   6.243
  127SOL    HW2 1281   0.073   4.842   6.343
  128SOL     OW 1282   4.335   2.854   1.619
  128SOL    HW1 1283   4.394   2.773   1.630
  128SOL    HW2 1284   4.373   2.930   1.673
  129SOL     OW 1285   4.246   3.503   5.721
  129SOL    HW1 1286   4.167   3.534   5.774
  129SOL    HW2 1287   4.218   3.427   5.662
  130SOL     OW 1288   0.807   0.871   4.329
  130SOL    HW1 1289   0.722   0.818   4.326
  130SOL    HW2 1290   0.873   0.832   4.266
  131SOL     OW 1291   4.921   1.223   2.489
  131SOL    HW1 1292   4.837   1.168   2.491
  131SOL    HW2 1293   4.955   1.234   2.583
  132SOL     OW 1294   1.798   3.363   0.904
  132SOL    HW1 1295   1.789   3.401   0.996
  132SOL    HW2 1296   1.894   3.344   0.884
  133SOL     OW 1297   5.577   6.907   3.161
  133SOL    HW1 1298   5.651   6.906   3.094
  133SOL    HW2 1299   5.520   6.826   3.149
  134SOL     OW 1300   5.764   2.632   2.652
  134SOL    HW1 1301   5.820   2.550   2.666
  134SOL    HW2 1302   5.728   2.664   2.739
  135SOL     OW 1303   5.262   2.219   2.764
  135SOL    HW1 1304   5.205   2.284   2.714
  135SOL    HW2 1305   5.261   2.242   2.861
  136SOL     OW 1306   4.461   4.148   6.775
  136SOL    HW1 1307   4.441   4.215   6.847
  136SOL    HW2 1308   4.399   4.163   6.698
  137SOL     OW 1309   3.937   0.031   5.423
  137SOL    HW1 1310   3.983   7.026   5.506
  137SOL    HW2 1311   3.849   7.012   5.412
  138SOL     OW 1312   0.361   4.958   4.558
  138SOL    HW1 1313   0.299   5.036   4.571
  138SOL    HW2 1314   0.323   4.897   4.488
  139SOL     OW 1315   2.192   6.107   5.083
  139SOL    HW1 1316   2.284   6.121   5.047
  139SOL    HW2 1317   2.184   6.013   5.118
  140SOL     OW 1318   6.646   5.607   4.149
  140SOL    HW1 1319   6.715   5.657   4.096
  140SOL    HW2 1320   6.692   5.550   4.217
  141SOL     OW 1321   0.072   1.988   5.369
  141SOL    HW1 1322   7.014   2.032   5.395
  141SOL    HW2 1323   0.053   1.901   5.325
  142SOL     OW 1324   2.215   6.248   1.273
  142SOL    HW1 1325   2.173   6.284   1.190
  142SOL    HW2 1326   2.282   6.178   1.250
  143SOL     OW 1327   5.475   4.627   2.123
  143SOL    HW1 1328   5.452   4.690   2.049
  143SOL    HW2 1329   5.406   4.555   2.128
  144SOL     OW 1330   1.721   6.599   6.200
  144SOL    HW1 1331   1.677   6.631   6.284
  144SOL    HW2 1332   1.802   6.544   6.224
  145SOL     OW 1333   1.240   5.268   0.697
  145SOL    HW1 1334   1.143   5.249   0.704
  145SOL    HW2 1335   1.287   5.240   0.781
  146SOL     OW 1336   4.105   6.330   6.226
  146SOL    HW1 1337   4.032   6.382   6.182
  146SOL    HW2 1338   4.080   6.312   6.321
  147SOL     OW 1339   6.351   2.717   0.345
  147SOL    HW1 1340   6.399   2.791   0.297
  147SOL    HW2 1341   6.266   2.696   0.296
  148SOL     OW 1342   0.236   4.886   5.775
  148SOL    HW1 1343   0.228   4.802   5.829
  148SOL    HW2 1344   0.288   4.867   5.692
  149SOL     OW 1345   3.055   1.361   4.059
  149SOL    HW1 1346   3.119   1.379   4.134
  149SOL    HW2 1347   3.082   1.416   3.980
  150SOL     OW 1348   6.394   5.221   6.199
  150SOL    HW1 1349   6.442   5.271   6.126
  150SOL    HW2 1350   6.412   5.265   6.287
  151SOL     OW 1351   3.516   2.275   1.285
  151SOL    HW1 1352   3.604   2.231   1.267
  151SOL    HW2 1353   3.530   2.352   1.347
  152SOL     OW 1354   1.831   1.016   4.486
  152SOL    HW1 1355   1.740   0.976   4.473
  152SOL    HW2 1356   1.888   0.952   4.538
  153SOL     OW 1357   2.819   0.141   1.834
  153SOL    HW1 1358   2.853   0.196   1.758
  153SOL    HW2 1359   2.733   0.097   1.807
  154SOL     OW 1360   6.928   3.084   2.349
  154SOL    HW1 1361   6.871   3.003   2.336
  154SOL    HW2 1362   7.020   3.067   2.313
  155SOL     OW 1363   0.188   1.330   3.787
  155SOL    HW1 1364   0.211   1.412   3.734
  155SOL    HW2 1365   0.246   1.326   3.868
  156SOL     OW 1366   6.782   1.636   1.463
  156SOL    HW1 1367   6.863   1.683   1.500
  156SOL    HW2 1368   6.722   1.611   1.539
  157SOL     OW 1369   6.203   3.258   1.906
  157SOL    HW1 1370   6.190   3.308   1.991
  157SOL    HW2 1371   6.159   3.307   1.831
  158SOL     OW 1372   2.947   0.197   2.061
  158SOL    HW1 1373   2.907   0.184   1.970
  158SOL    HW2 1374   3.019   0.129   2.076
  159SOL     OW 1375   4.536   4.742   1.062
  159SOL    HW1 1376   4.450   4.721   1.014
  159SOL    HW2 1377   4.517   4.806   1.136
  160SOL     OW 1378   6.587   4.692   6.418
  160SOL    HW1 1379   6.533   4.773   6.394
  160SOL    HW2 1380   6.528   4.611   6.415
  161SOL     OW 1381   1.721   4.891   4.710
  161SOL    HW1 1382   1.650   4.860   4.774
  161SOL    HW2 1383   1.770   4.968   4.750
  162SOL     OW 1384   4.149   6.649   0.240
  162SOL    HW1 1385   4.204   6.691   0.312
  162SOL    HW2 1386   4.204   6.640   0.157
  163SOL     OW 1387   4.410   5.933   1.542
  163SOL    HW1 1388   4.470   5.907   1.617
  163SOL    HW2 1389   4.444   6.016   1.499
  164SOL     OW 1390   6.874   3.676   1.476
  164SOL    HW1 1391   6.894   3.725   1.560
  164SOL    HW2 1392   6.847   3.582   1.497
  165SOL     OW 1393   5.129   3.198   1.239
  165SOL    HW1 1394   5.047   3.248   1.268
  165SOL    HW2 1395   5.210   3.254   1.255
  166SOL     OW 1396   0.035   5.146   3.784
  166SOL    HW1 1397   0.011   5.090   3.705
  166SOL    HW2 1398   0.022   5.093   3.868
  167SOL     OW 1399   6.118   2.019   0.657
  167SOL    HW1 1400   6.050   1.952   0.625
  167SOL    HW2 1401   6.074   2.108   0.667
  168SOL     OW 1402   2.906   4.025   0.698
  168SOL    HW1 1403   2.818   3.990   0.730
  168SOL    HW2 1404   2.964   4.045   0.777
  169SOL     OW 1405   3.604   0.125   2.034
  169SOL    HW1 1406   3.508   0.147   2.017
  169SOL    HW2 1407   3.659   0.208   2.024
  170SOL     OW 1408   0.660   1.785   4.261
  170SOL    HW1 1409   0.647   1.872   4.214
  170SOL    HW2 1410   0.747   1.787   4.311
  171SOL     OW 1411   3.687   4.115   0.057
  171SOL    HW1 1412   3.753   4.157   0.120
  171SOL    HW2 1413   3.706   4.017   0.049
  172SOL     OW 1414   6.259   1.395   4.357
  172SOL    HW1 1415   6.259   1.360   4.451
  172SOL    HW2 1416   6.217   1.486   4.356
  173SOL     OW 1417   6.492   0.415   4.252
  173SOL    HW1 1418   6.564   0.477   4.283
  173SOL    HW2 1419   6.532   0.342   4.197
  174SOL     OW 1420   2.794   5.365   3.537
  174SOL    HW1 1421   2.835   5.357   3.628
  174SOL    HW2 1422   2.863   5.393   3.471
  175SOL     OW 1423   2.228   0.124   1.885
  175SOL    HW1 1424   2.296   0.198   1.880
  175SOL    HW2 1425   2.267   0.040   1.848
  176SOL     OW 1426   1.933   4.235   0.675
  176SOL    HW1 1427   2.025   4.263   0.701
  176SOL    HW2 1428   1.936   4.185   0.589
  177SOL     OW 1429   5.808   2.609   2.976
  177SOL    HW1 1430   5.780   2.704   2.988
  177SOL    HW2 1431   5.763   2.552   3.045
  178SOL     OW 1432   4.560   3.340   6.291
  178SOL    HW1 1433   4.590   3.431   6.260
  178SOL    HW2 1434   4.501   3.351   6.371
  179SOL     OW 1435   2.952   1.392   6.362
  179SOL    HW1 1436   2.862   1.431   6.385
  179SOL    HW2 1437   3.022   1.463   6.370
  180SOL     OW 1438   1.206   1.106   6.553
  180SOL    HW1 1439   1.154   1.037   6.501
  180SOL    HW2 1440   1.185   1.095   6.650
  181SOL     OW 1441   3.391   1.781   7.005
  181SOL    HW1 1442   3.406   1.773   0.076
  181SOL    HW2 1443   3.340   1.702   6.973
  182SOL     OW 1444   4.211   2.326   4.432
  182SOL    HW1 1445   4.181   2.364   4.519
  182SOL    HW2 1446   4.304   2.356   4.412
  183SOL     OW 1447   3.703   0.623   2.504
  183SOL    HW1 1448   3.705   0.712   2.549
  183SOL    HW2 1449   3.716   0.551   2.572
  184SOL     OW 1450   1.393   5.725   3.747
  184SOL    HW1 1451   1.435   5.800   3.796
  184SOL    HW2 1452   1.459   5.683   3.685
  185SOL     OW 1453   1.361   2.803   6.473
  185SOL    HW1 1454   1.333   2.730   6.412
  185SOL    HW2 1455   1.381   2.765   6.564
  186SOL     OW 1456   6.681   0.847   3.374
  186SOL    HW1 1457   6.691   0.920   3.442
  186SOL    HW2 1458   6.689   0.758   3.419
  187SOL     OW 1459   4.798   1.104   3.693
  187SOL    HW1 1460   4.838   1.122   3.783
  187SOL    HW2 1461   4.745   1.019   3.697
  188SOL     OW 1462   6.067   2.520   3.017
  188SOL    HW1 1463   6.075   2.440   2.958
  188SOL    HW2 1464   5.977   2.561   3.006
  189SOL     OW 1465   1.623   5.495   2.812
  189SOL    HW1 1466   1.705   5.553   2.812
  189SOL    HW2 1467   1.547   5.545   2.852
  190SOL     OW 1468   3.846   1.290   5.234
  190SOL    HW1 1469   3.829   1.370   5.292
  190SOL    HW2 1470   3.936   1.253   5.255
  191SOL     OW 1471   5.752   5.355   6.261
  191SOL    HW1 1472   5.838   5.314   6.292
  191SOL    HW2 1473   5.709   5.295   6.193
  192SOL     OW 1474   0.055   6.447   2.027
  192SOL    HW1 1475   0.075   6.504   1.947
  192SOL    HW2 1476   6.984   6.428   2.031
  193SOL     OW 1477   4.864   2.688   6.079
  193SOL    HW1 1478   4.816   2.771   6.108
  193SOL    HW2 1479   4.899   2.701   5.986
  194SOL     OW 1480   3.664   0.959   3.061
  194SOL    HW1 1481   3.750   0.913   3.038
  194SOL    HW2 1482   3.594   0.935   2.995
  195SOL     OW 1483   1.511   6.278   3.911
  195SOL    HW1 1484   1.574   6.208   3.944
  195SOL    HW2 1485   1.470   6.247   3.825
  196SOL     OW 1486   2.601   2.459   6.942
  196SOL    HW1 1487   2.578   2.442   6.846
  196SOL    HW2 1488   2.542   2.403   7.000
  197SOL     OW 1489   2.365   1.693   1.388
  197SOL    HW1 1490   2.392   1.704   1.293
  197SOL    HW2 1491   2.447   1.683   1.445
  198SOL     OW 1492   4.598   0.820   3.136
  198SOL    HW1 1493   4.561   0.891   3.076
  198SOL    HW2 1494   4.660   0.862   3.203
  199SOL     OW 1495   1.540   2.620   4.106
  199SOL    HW1 1496   1.618   2.564   4.076
  199SOL    HW2 1497   1.457   2.565   4.106
  200SOL     OW 1498   0.637   2.621   1.016
  200SOL    HW1 1499   0.626   2.708   1.063
  200SOL    HW2 1500   0.728   2.617   0.974
  201SOL     OW 1501   0.119   0.725   5.885
  201SOL    HW1 1502   0.102   0.769   5.973
  201SOL    HW2 1503   0.034   0.724   5.832
  202SOL     OW 1504   4.506   1.187   6.601
  202SOL    HW1 1505   4.406   1.182   6.596
  202SOL    HW2 1506   4.533   1.279   6.631
  203SOL     OW 1507   6.000   2.467   5.481
  203SOL    HW1 1508   6.057   2.455   5.563
  203SOL    HW2 1509   5.986   2.378   5.438
  204SOL     OW 1510   0.561   0.241   5.754
  204SOL    HW1 1511   0.626   0.168   5.735
  204SOL    HW2 1512   0.469   0.203   5.764
  205SOL     OW 1513   1.656   1.911   2.984
  205SOL    HW1 1514   1.682   1.834   2.926
  205SOL    HW2 1515   1.605   1.878   3.063
  206SOL     OW 1516   0.634   3.397   1.935
  206SOL    HW1 1517   0.569   3.392   2.012
  206SOL    HW2 1518   0.637   3.309   1.889
  207SOL     OW 1519   5.264   1.455   2.945
  207SOL    HW1 1520   5.303   1.523   3.007
  207SOL    HW2 1521   5.211   1.502   2.874
  208SOL     OW 1522   0.041   4.007   5.644
  208SOL    HW1 1523   0.040   4.066   5.563
  208SOL    HW2 1524   0.005   4.057   5.723
  209SOL     OW 1525   6.713   4.394   2.409
  209SOL    HW1 1526   6.709   4.337   2.327
  209SOL    HW2 1527   6.627   4.386   2.459
  210SOL     OW 1528   4.306   2.084   0.385
  210SOL    HW1 1529   4.296   2.065   0.483
  210SOL    HW2 1530   4.331   2.180   0.373
  211SOL     OW 1531   1.361   0.144   2.948
  211SOL    HW1 1532   1.423   0.156   3.025
  211SOL    HW2 1533   1.300   0.223   2.942
  212SOL     OW 1534   1.560   3.952   2.602
  212SOL    HW1 1535   1.539   4.035   2.653
  212SOL    HW2 1536   1.648   3.962   2.555
  213SOL     OW 1537   1.755   6.149   1.092
  213SOL    HW1 1538   1.725   6.240   1.061
  213SOL    HW2 1539   1.787   6.154   1.186
  214SOL     OW 1540   3.880   5.169   2.094
  214SOL    HW1 1541   3.898   5.265   2.115
  214SOL    HW2 1542   3.782   5.151   2.107
  215SOL     OW 1543   2.596   4.614   1.183
  215SOL    HW1 1544   2.536   4.641   1.258
  215SOL    HW2 1545   2.658   4.690   1.161
  216SOL     OW 1546   1.146   0.374   2.548
  216SOL    HW1 1547   1.083   0.451   2.534
  216SOL    HW2 1548   1.095   0.288   2.545
  217SOL     OW 1549   1.099   2.795   5.413
  217SOL    HW1 1550   1.061   2.888   5.409
  217SOL    HW2 1551   1.124   2.766   5.321
  218SOL     OW 1552   0.873   1.708   4.918
  218SOL    HW1 1553   0.808   1.714   4.843
  218SOL    HW2 1554   0.832   1.657   4.994
  219SOL     OW 1555   4.341   0.732   0.463
  219SOL    HW1 1556   4.322   0.706   0.558
  219SOL    HW2 1557   4.281   0.807   0.436
  220SOL     OW 1558   3.016   0.533   0.847
  220SOL    HW1 1559   3.061   0.444   0.834
  220SOL    HW2 1560   3.039   0.568   0.938
  221SOL     OW 1561   5.842   4.685   0.928
  221SOL    HW1 1562   5.771   4.615   0.926
  221SOL    HW2 1563   5.932   4.641   0.926
  222SOL     OW 1564   1.415   4.446   6.520
  222SOL    HW1 1565   1.478   4.520   6.496
  222SOL    HW2 1566   1.408   4.382   6.444
  223SOL     OW 1567   0.234   2.804   5.114
  223SOL    HW1 1568   0.241   2.783   5.211
  223SOL    HW2 1569   0.137   2.805   5.087
  224SOL     OW 1570   3.561   2.211   5.743
  224SOL    HW1 1571   3.645   2.200   5.796
  224SOL    HW2 1572   3.482   2.189   5.801
  225SOL     OW 1573   4.493   3.498   5.818
  225SOL    HW1 1574   4.398   3.520   5.796
  225SOL    HW2 1575   4.528   3.564   5.885
  226SOL     OW 1576   0.909   1.790   6.430
  226SOL    HW1 1577   0.979   1.726   6.397
  226SOL    HW2 1578   0.820   1.746   6.430
  227SOL     OW 1579   2.311   4.360   2.916
  227SOL    HW1 1580   2.340   4.363   2.821
  227SOL    HW2 1581   2.282   4.267   2.939
  228SOL     OW 1582   2.246   0.908   3.162
  228SOL    HW1 1583   2.239   0.911   3.063
  228SOL    HW2 1584   2.164   0.949   3.203
  229SOL     OW 1585   5.104   5.157   6.453
  229SOL    HW1 1586   5.082   5.089   6.523
  229SOL    HW2 1587   5.033   5.228   6.452
  230SOL     OW 1588   4.526   5.920   4.631
  230SOL    HW1 1589   4.596   5.959   4.691
  230SOL    HW2 1590   4.568   5.892   4.545
  231SOL     OW 1591   5.614   1.476   6.856
  231SOL    HW1 1592   5.602   1.522   6.768
  231SOL    HW2 1593   5.640   1.543   6.926
  232SOL     OW 1594   6.943   2.794   6.610
  232SOL    HW1 1595   6.924   2.723   6.541
  232SOL    HW2 1596   7.004   2.863   6.571
  233SOL     OW 1597   3.383   2.009   3.501
  233SOL    HW1 1598   3.353   2.067   3.577
  233SOL    HW2 1599   3.471   2.042   3.467
  234SOL     OW 1600   5.810   1.058   6.203
  234SOL    HW1 1601   5.758   1.092   6.124
  234SOL    HW2 1602   5.747   1.037   6.278
  235SOL     OW 1603   5.114   2.976   2.334
  235SOL    HW1 1604   5.065   3.037   2.396
  235SOL    HW2 1605   5.212   2.993   2.341
  236SOL     OW 1606   5.074   3.408   6.826
  236SOL    HW1 1607   5.172   3.412   6.807
  236SOL    HW2 1608   5.048   3.314   6.847
  237SOL     OW 1609   0.081   4.545   1.961
  237SOL    HW1 1610   0.035   4.631   1.937
  237SOL    HW2 1611   0.106   4.547   2.057
  238SOL     OW 1612   6.587   0.911   0.844
  238SOL    HW1 1613   6.595   0.885   0.940
  238SOL    HW2 1614   6.583   0.829   0.786
  239SOL     OW 1615   0.891   3.996   0.307
  239SOL    HW1 1616   0.932   4.007   0.216
  239SOL    HW2 1617   0.906   4.080   0.360
  240SOL     OW 1618   0.365   3.109   3.405
  240SOL    HW1 1619   0.371   3.199   3.448
  240SOL    HW2 1620   0.390   3.039   3.471
  241SOL     OW 1621   2.698   2.341   4.176
  241SOL    HW1 1622   2.713   2.363   4.272
  241SOL    HW2 1623   2.738   2.252   4.156
  242SOL     OW 1624   3.516   3.819   3.244
  242SOL    HW1 1625   3.549   3.817   3.338
  242SOL    HW2 1626   3.524   3.912   3.208
  243SOL     OW 1627   4.635   1.700   0.006
  243SOL    HW1 1628   4.542   1.677   7.006
  243SOL    HW2 1629   4.700   1.653   6.975
  244SOL     OW 1630   5.902   3.328   6.287
  244SOL    HW1 1631   5.809   3.352   6.259
  244SOL    HW2 1632   5.909   3.332   6.387
  245SOL     OW 1633   3.989   1.698   4.070
  245SOL    HW1 1634   3.970   1.695   3.972
  245SOL    HW2 1635   3.904   1.722   4.119
  246SOL     OW 1636   4.857   1.850   3.159
  246SOL    HW1 1637   4.810   1.848   3.248
  246SOL    HW2 1638   4.948   1.810   3.168
  247SOL     OW 1639   2.567   1.897   0.999
  247SOL    HW1 1640   2.624   1.964   1.048
  247SOL    HW2 1641   2.624   1.845   0.936
  248SOL     OW 1642   2.174   0.895   2.587
  248SOL    HW1 1643   2.102   0.837   2.625
  248SOL    HW2 1644   2.183   0.978   2.643
  249SOL     OW 1645   5.150   6.778   5.408
  249SOL    HW1 1646   5.210   6.821   5.341
  249SOL    HW2 1647   5.182   6.799   5.501
  250SOL     OW 1648   4.196   3.478   0.945
  250SOL    HW1 1649   4.248   3.558   0.976
  250SOL    HW2 1650   4.140   3.444   1.020
  251SOL     OW 1651   4.870   3.353   5.213
  251SOL    HW1 1652   4.797   3.311   5.267
  251SOL    HW2 1653   4.837   3.439   5.175
  252SOL     OW 1654   6.248   0.152   5.455
  252SOL    HW1 1655   6.245   0.229   5.391
  252SOL    HW2 1656   6.163   0.147   5.506
  253SOL     OW 1657   3.774   4.824   5.747
  253SOL    HW1 1658   3.800   4.729   5.737
  253SOL    HW2 1659   3.840   4.871   5.807
  254SOL     OW 1660   6.720   2.375   3.587
  254SOL    HW1 1661   6.635   2.426   3.575
  254SOL    HW2 1662   6.707   2.280   3.562
  255SOL     OW 1663   1.407   4.901   5.751
  255SOL    HW1 1664   1.401   4.971   5.680
  255SOL    HW2 1665   1.476   4.833   5.725
  256SOL     OW 1666   5.670   3.405   6.167
  256SOL    HW1 1667   5.611   3.471   6.214
  256SOL    HW2 1668   5.648   3.404   6.070
  257SOL     OW 1669   5.325   6.731   3.104
  257SOL    HW1 1670   5.346   6.647   3.153
  257SOL    HW2 1671   5.382   6.737   3.022
  258SOL     OW 1672   2.496   4.005   5.618
  258SOL    HW1 1673   2.443   3.925   5.648
  258SOL    HW2 1674   2.531   3.989   5.525
  259SOL     OW 1675   5.430   1.070   2.168
  259SOL    HW1 1676   5.402   1.070   2.264
  259SOL    HW2 1677   5.528   1.084   2.161
  260SOL     OW 1678   3.688   5.210   3.144
  260SOL    HW1 1679   3.746   5.212   3.063
  260SOL    HW2 1680   3.598   5.174   3.119
  261SOL     OW 1681   5.784   4.474   1.456
  261SOL    HW1 1682   5.822   4.382   1.463
  261SOL    HW2 1683   5.847   4.533   1.405
  262SOL     OW 1684   1.668   4.056   0.811
  262SOL    HW1 1685   1.667   3.967   0.766
  262SOL    HW2 1686   1.763   4.081   0.833
  263SOL     OW 1687   1.326   0.503   4.381
  263SOL    HW1 1688   1.246   0.442   4.384
  263SOL    HW2 1689   1.404   0.458   4.424
  264SOL     OW 1690   6.342   2.602   0.621
  264SOL    HW1 1691   6.368   2.684   0.672
  264SOL    HW2 1692   6.318   2.628   0.527
  265SOL     OW 1693   6.077   6.571   3.063
  265SOL    HW1 1694   6.035   6.660   3.081
  265SOL    HW2 1695   6.139   6.548   3.138
  266SOL     OW 1696   4.465   3.236   5.873
  266SOL    HW1 1697   4.449   3.180   5.792
  266SOL    HW2 1698   4.478   3.331   5.845
  267SOL     OW 1699   1.106   1.322   5.455
  267SOL    HW1 1700   1.009   1.299   5.455
  267SOL    HW2 1701   1.122   1.400   5.515
  268SOL     OW 1702   3.258   1.033   6.009
  268SOL    HW1 1703   3.306   1.035   5.922
  268SOL    HW2 1704   3.242   1.127   6.041
  269SOL     OW 1705   2.873   2.618   0.288
  269SOL    HW1 1706   2.901   2.671   0.368
  269SOL    HW2 1707   2.938   2.543   0.273
  270SOL     OW 1708   0.764   6.164   0.514
  270SOL    HW1 1709   0.685   6.103   0.506
  270SOL    HW2 1710   0.738   6.256   0.484
  271SOL     OW 1711   0.107   1.738   6.702
  271SOL    HW1 1712   0.134   1.718   6.796
  271SOL    HW2 1713   0.015   1.702   6.687
  272SOL     OW 1714   3.689   6.203   3.948
  272SOL    HW1 1715   3.613   6.260   3.980
  272SOL    HW2 1716   3.704   6.129   4.015
  273SOL     OW 1717   1.619   4.887   5.276
  273SOL    HW1 1718   1.641   4.833   5.195
  273SOL    HW2 1719   1.594   4.980   5.248
  274SOL     OW 1720   3.583   0.901   3.327
  274SOL    HW1 1721   3.601   0.879   3.231
  274SOL    HW2 1722   3.637   0.842   3.386
  275SOL     OW 1723   6.871   6.486   2.827
  275SOL    HW1 1724   6.872   6.562   2.893
  275SOL    HW2 1725   6.863   6.400   2.877
  276SOL     OW 1726   0.404   6.884   3.597
  276SOL    HW1 1727   0.354   6.863   3.512
  276SOL    HW2 1728   0.472   6.955   3.579
  277SOL     OW 1729   1.854   3.722   6.963
  277SOL    HW1 1730   1.945   3.735   6.922
  277SOL    HW2 1731   1.856   3.641   7.023
  278SOL     OW 1732   0.100   3.576   2.835
  278SOL    HW1 1733   0.090   3.479   2.856
  278SOL    HW2 1734   0.147   3.587   2.747
  279SOL     OW 1735   5.074   2.792   4.332
  279SOL    HW1 1736   5.131   2.833   4.404
  279SOL    HW2 1737   5.117   2.807   4.243
  280SOL     OW 1738   2.523   5.509   1.522
  280SOL    HW1 1739   2.543   5.574   1.596
  280SOL    HW2 1740   2.518   5.417   1.560
  281SOL     OW 1741   2.112   4.484   1.590
  281SOL    HW1 1742   2.027   4.445   1.625
  281SOL    HW2 1743   2.184   4.414   1.590
  282SOL     OW 1744   2.956   1.153   5.001
  282SOL    HW1 1745   2.939   1.114   4.911
  282SOL    HW2 1746   2.999   1.243   4.992
  283SOL     OW 1747   5.826   2.385   6.888
  283SOL    HW1 1748   5.855   2.376   6.792
  283SOL    HW2 1749   5.800   2.479   6.906
  284SOL     OW 1750   1.064   3.457   3.960
  284SOL    HW1 1751   0.993   3.495   4.020
  284SOL    HW2 1752   1.020   3.413   3.882
  285SOL     OW 1753   5.337   4.861   4.024
  285SOL    HW1 1754   5.253   4.915   4.031
  285SOL    HW2 1755   5.401   4.908   3.962
  286SOL     OW 1756   3.460   4.181   6.659
  286SOL    HW1 1757   3.401   4.255   6.690
  286SOL    HW2 1758   3.534   4.167   6.725
  287SOL     OW 1759   1.564   3.392   1.325
  287SOL    HW1 1760   1.623   3.434   1.256
  287SOL    HW2 1761   1.542   3.460   1.395
  288SOL     OW 1762   3.788   1.604   6.261
  288SOL    HW1 1763   3.714   1.540   6.240
  288SOL    HW2 1764   3.750   1.688   6.300
  289SOL     OW 1765   1.823   4.369   5.202
  289SOL    HW1 1766   1.738   4.347   5.153
  289SOL    HW2 1767   1.801   4.401   5.294
  290SOL     OW 1768   6.901   1.544   5.038
  290SOL    HW1 1769   6.994   1.576   5.056
  290SOL    HW2 1770   6.838   1.621   5.048
  291SOL     OW 1771   0.968   1.237   3.689
  291SOL    HW1 1772   0.992   1.168   3.758
  291SOL    HW2 1773   0.872   1.262   3.699
  292SOL     OW 1774   2.201   1.032   3.511
  292SOL    HW1 1775   2.135   0.998   3.444
  292SOL    HW2 1776   2.269   1.088   3.465
  293SOL     OW 1777   4.946   5.938   3.728
  293SOL    HW1 1778   4.984   5.864   3.673
  293SOL    HW2 1779   4.978   5.930   3.822
  294SOL     OW 1780   5.340   6.364   6.758
  294SOL    HW1 1781   5.304   6.281   6.715
  294SOL    HW2 1782   5.288   6.443   6.726
  295SOL     OW 1783   4.710   0.574   3.031
  295SOL    HW1 1784   4.748   0.525   3.110
  295SOL    HW2 1785   4.660   0.654   3.063
  296SOL     OW 1786   3.670   1.407   3.033
  296SOL    HW1 1787   3.728   1.336   2.994
  296SOL    HW2 1788   3.588   1.419   2.976
  297SOL     OW 1789   2.240   3.996   3.224
  297SOL    HW1 1790   2.303   4.021   3.298
  297SOL    HW2 1791   2.146   3.997   3.258
  298SOL     OW 1792   5.886   5.946   0.600
  298SOL    HW1 1793   5.832   6.024   0.567
  298SOL    HW2 1794   5.977   5.950   0.560
  299SOL     OW 1795   6.308   2.550   4.871
  299SOL    HW1 1796   6.385   2.524   4.812
  299SOL    HW2 1797   6.222   2.536   4.822
  300SOL     OW 1798   6.499   0.770   2.940
  300SOL    HW1 1799   6.507   0.842   3.010
  300SOL    HW2 1800   6.590   0.749   2.904
  301SOL     OW 1801   5.847   3.499   6.949
  301SOL    HW1 1802   5.882   3.592   6.936
  301SOL    HW2 1803   5.747   3.499   6.943
  302SOL     OW 1804   0.938   0.373   3.718
  302SOL    HW1 1805   0.855   0.379   3.663
  302SOL    HW2 1806   0.981   0.284   3.703
  303SOL     OW 1807   5.090   0.991   2.813
  303SOL    HW1 1808   5.089   0.976   2.912
  303SOL    HW2 1809   5.130   0.911   2.768
  304SOL     OW 1810   2.183   0.167   3.138
  304SOL    HW1 1811   2.176   0.260   3.173
  304SOL    HW2 1812   2.274   0.131   3.159
  305SOL     OW 1813   0.799   4.016   6.938
  305SOL    HW1 1814   0.804   3.947   6.865
  305SOL    HW2 1815   0.708   4.057   6.939
  306SOL     OW 1816   2.448   1.027   3.778
  306SOL    HW1 1817   2.366   1.054   3.828
  306SOL    HW2 1818   2.524   1.017   3.841
  307SOL     OW 1819   4.588   0.353   1.095
  307SOL    HW1 1820   4.576   0.255   1.113
  307SOL    HW2 1821   4.661   0.366   1.028
  308SOL     OW 1822   1.240   6.099   3.014
  308SOL    HW1 1823   1.150   6.057   2.997
  308SOL    HW2 1824   1.234   6.157   3.095
  309SOL     OW 1825   3.540   4.537   5.358
  309SOL    HW1 1826   3.480   4.608   5.321
  309SOL    HW2 1827   3.521   4.450   5.312
  310SOL     OW 1828   0.031   6.481   5.891
  310SOL    HW1 1829   0.000   6.392   5.925
  310SOL    HW2 1830   0.115   6.507   5.938
  311SOL     OW 1831   0.174   5.822   1.719
  311SOL    HW1 1832   0.244   5.751   1.720
  311SOL    HW2 1833   0.179   5.877   1.802
  312SOL     OW 1834   5.229   1.483   5.147
  312SOL    HW1 1835   5.257   1.400   5.101
  312SOL    HW2 1836   5.214   1.464   5.244
  313SOL     OW 1837   2.184   4.448   2.027
  313SOL    HW1 1838   2.088   4.461   2.055
  313SOL    HW2 1839   2.218   4.532   1.985
  314SOL     OW 1840   3.344   5.640   0.601
  314SOL    HW1 1841   3.396   5.724   0.585
  314SOL    HW2 1842   3.340   5.621   0.699
  315SOL     OW 1843   0.564   2.681   3.417
  315SOL    HW1 1844   0.615   2.741   3.355
  315SOL    HW2 1845   0.494   2.631   3.366
  316SOL     OW 1846   2.284   2.961   3.855
  316SOL    HW1 1847   2.336   2.885   3.815
  316SOL    HW2 1848   2.248   3.018   3.782
  317SOL     OW 1849   0.064   1.276   0.320
  317SOL    HW1 1850   0.075   1.320   0.409
  317SOL    HW2 1851   6.995   1.254   0.305
  318SOL     OW 1852   1.524   4.690   0.596
  318SOL    HW1 1853   1.514   4.775   0.545
  318SOL    HW2 1854   1.561   4.711   0.687
  319SOL     OW 1855   1.073   7.023   1.242
  319SOL    HW1 1856   1.075   0.052   1.324
  319SOL    HW2 1857   1.081   0.053   1.161
  320SOL     OW 1858   6.299   3.135   0.970
  320SOL    HW1 1859   6.289   3.224   1.013
  320SOL    HW2 1860   6.296   3.063   1.039
  321SOL     OW 1861   1.891   2.191   1.984
  321SOL    HW1 1862   1.919   2.243   2.065
  321SOL    HW2 1863   1.919   2.240   1.901
  322SOL     OW 1864   3.884   2.839   5.131
  322SOL    HW1 1865   3.874   2.901   5.054
  322SOL    HW2 1866   3.881   2.745   5.099
  323SOL     OW 1867   0.045   4.592   0.905
  323SOL    HW1 1868   0.062   4.535   0.986
  323SOL    HW2 1869   7.004   4.548   0.847
  324SOL     OW 1870   1.022   3.106   4.786
  324SOL    HW1 1871   0.949   3.082   4.849
  324SOL    HW2 1872   1.101   3.139   4.838
  325SOL     OW 1873   1.914   2.995   1.797
  325SOL    HW1 1874   1.854   3.057   1.847
  325SOL    HW2 1875   1.883   2.901   1.811
  326SOL     OW 1876   2.008   6.643   6.575
  326SOL    HW1 1877   1.934   6.576   6.584
  326SOL    HW2 1878   2.023   6.665   6.479
  327SOL     OW 1879   6.542   4.774   4.833
  327SOL    HW1 1880   6.575   4.841   4.766
  327SOL    HW2 1881   6.502   4.696   4.785
  328SOL     OW 1882   4.332   4.822   2.158
  328SOL    HW1 1883   4.322   4.748   2.091
  328SOL    HW2 1884   4.261   4.814   2.227
  329SOL     OW 1885   3.307   3.466   3.214
  329SOL    HW1 1886   3.337   3.371   3.204
  329SOL    HW2 1887   3.224   3.480   3.161
  330SOL     OW 1888   3.597   6.573   1.591
  330SOL    HW1 1889   3.549   6.648   1.545
  330SOL    HW2 1890   3.541   6.540   1.668
  331SOL     OW 1891   4.670   5.246   5.821
  331SOL    HW1 1892   4.619   5.198   5.749
  331SOL    HW2 1893   4.768   5.235   5.805
  332SOL     OW 1894   3.080   1.547   3.853
  332SOL    HW1 1895   2.981   1.536   3.839
  332SOL    HW2 1896   3.110   1.633   3.812
  333SOL     OW 1897   3.848   6.684   5.762
  333SOL    HW1 1898   3.927   6.623   5.774
  333SOL    HW2 1899   3.841   6.712   5.667
  334SOL     OW 1900   3.504   6.920   2.327
  334SOL    HW1 1901   3.475   6.952   2.417
  334SOL    HW2 1902   3.604   6.918   2.323
  335SOL     OW 1903   3.515   5.393   3.562
  335SOL    HW1 1904   3.486   5.386   3.658
  335SOL    HW2 1905   3.564   5.479   3.548
  336SOL     OW 1906   3.279   1.155   3.433
  336SOL    HW1 1907   3.285   1.068   3.385
  336SOL    HW2 1908   3.207   1.151   3.502
  337SOL     OW 1909   0.498   3.556   1.718
  337SOL    HW1 1910   0.561   3.478   1.714
  337SOL    HW2 1911   0.489   3.585   1.813
  338SOL     OW 1912   2.782   3.025   1.707
  338SOL    HW1 1913   2.746   3.108   1.748
  338SOL    HW2 1914   2.876   3.010   1.739
  339SOL     OW 1915   3.998   6.796   3.325
  339SOL    HW1 1916   3.929   6.753   3.267
  339SOL    HW2 1917   4.035   6.729   3.389
  340SOL     OW 1918   4.990   4.154   4.536
  340SOL    HW1 1919   5.070   4.191   4.583
  340SOL    HW2 1920   4.969   4.211   4.457
  341SOL     OW 1921   5.631   5.724   3.860
  341SOL    HW1 1922   5.639   5.823   3.864
  341SOL    HW2 1923   5.548   5.699   3.810
  342SOL     OW 1924   6.003   5.134   0.466
  342SOL    HW1 1925   5.913   5.168   0.495
  342SOL    HW2 1926   6.047   5.203   0.408
  343SOL     OW 1927   3.744   6.626   1.853
  343SOL    HW1 1928   3.811   6.667   1.790
  343SOL    HW2 1929   3.721   6.534   1.821
  344SOL     OW 1930   2.039   5.305   0.498
  344SOL    HW1 1931   1.994   5.274   0.581
  344SOL    HW2 1932   2.137   5.286   0.503
  345SOL     OW 1933   1.046   0.560   5.343
  345SOL    HW1 1934   1.005   0.649   5.324
  345SOL    HW2 1935   1.015   0.494   5.275
  346SOL     OW 1936   1.525   0.321   3.190
  346SOL    HW1 1937   1.564   0.321   3.098
  346SOL    HW2 1938   1.535   0.230   3.230
  347SOL     OW 1939   5.435   0.077   6.529
  347SOL    HW1 1940   5.467   0.171   6.541
  347SOL    HW2 1941   5.493   0.016   6.583
  348SOL     OW 1942   3.858   5.221   1.303
  348SOL    HW1 1943   3.891   5.209   1.209
  348SOL    HW2 1944   3.788   5.293   1.305
  349SOL     OW 1945   0.586   4.560   2.418
  349SOL    HW1 1946   0.549   4.488   2.477
  349SOL    HW2 1947   0.522   4.637   2.415
  350SOL     OW 1948   3.636   3.557   1.520
  350SOL    HW1 1949   3.665   3.653   1.522
  350SOL    HW2 1950   3.543   3.550   1.558
  351SOL     OW 1951   2.819   1.493   0.158
  351SOL    HW1 1952   2.797   1.547   0.239
  351SOL    HW2 1953   2.876   1.415   0.184
  352SOL     OW 1954   3.213   0.473   6.008
  352SOL    HW1 1955   3.179   0.509   5.921
  352SOL    HW2 1956   3.212   0.545   6.077
  353SOL     OW 1957   1.551   6.019   0.964
  353SOL    HW1 1958   1.470   5.997   1.019
  353SOL    HW2 1959   1.629   6.035   1.025
  354SOL     OW 1960   4.144   1.753   7.007
  354SOL    HW1 1961   4.088   1.791   6.934
  354SOL    HW2 1962   4.100   1.671   0.016
  355SOL     OW 1963   6.890   3.156   2.628
  355SOL    HW1 1964   6.907   3.126   2.534
  355SOL    HW2 1965   6.812   3.219   2.629
  356SOL     OW 1966   4.454   4.619   4.109
  356SOL    HW1 1967   4.523   4.591   4.043
  356SOL    HW2 1968   4.370   4.645   4.061
  357SOL     OW 1969   0.452   5.847   5.133
  357SOL    HW1 1970   0.541   5.887   5.153
  357SOL    HW2 1971   0.379   5.907   5.167
  358SOL     OW 1972   5.903   0.270   1.665
  358SOL    HW1 1973   5.949   0.190   1.627
  358SOL    HW2 1974   5.909   0.346   1.600
  359SOL     OW 1975   1.687   2.495   2.648
  359SOL    HW1 1976   1.668   2.477   2.551
  359SOL    HW2 1977   1.611   2.545   2.689
  360SOL     OW 1978   4.650   7.025   6.583
  360SOL    HW1 1979   4.603   6.946   6.621
  360SOL    HW2 1980   4.626   0.079   6.635
  361SOL     OW 1981   5.332   5.972   3.182
  361SOL    HW1 1982   5.392   6.027   3.125
  361SOL    HW2 1983   5.382   5.891   3.214
  362SOL     OW 1984   2.714   4.239   0.591
  362SOL    HW1 1985   2.781   4.179   0.635
  362SOL    HW2 1986   2.622   4.209   0.617
  363SOL     OW 1987   4.473   5.265   4.324
  363SOL    HW1 1988   4.430   5.177   4.300
  363SOL    HW2 1989   4.530   5.253   4.405
  364SOL     OW 1990   1.393   5.799   5.637
  364SOL    HW1 1991   1.382   5.718   5.695
  364SOL    HW2 1992   1.408   5.879   5.694
  365SOL     OW 1993   5.374   6.113   2.324
  365SOL    HW1 1994   5.409   6.019   2.334
  365SOL    HW2 1995   5.276   6.114   2.345
  366SOL     OW 1996   6.175   1.343   6.975
  366SOL    HW1 1997   6.253   1.316   0.003
  366SOL    HW2 1998   6.093   1.346   0.003
  367SOL     OW 1999   5.760   3.305   1.188
  367SOL    HW1 2000   5.815   3.227   1.158
  367SOL    HW2 2001   5.757   3.373   1.115
  368SOL     OW 2002   1.397   4.323   5.320
  368SOL    HW1 2003   1.401   4.406   5.265
  368SOL    HW2 2004   1.464   4.257   5.284
  369SOL     OW 2005   0.369   4.249   1.662
  369SOL    HW1 2006   0.364   4.172   1.725
  369SOL    HW2 2007   0.462   4.260   1.628
  370SOL     OW 2008   2.682   1.399   5.795
  370SOL    HW1 2009   2.589   1.371   5.775
  370SOL    HW2 2010   2.746   1.332   5.759
  371SOL     OW 2011   2.985   2.889   0.281
  371SOL    HW1 2012   2.992   2.913   0.184
  371SOL    HW2 2013   2.927   2.955   0.327
  372SOL     OW 2014   6.925   6.485   6.202
  372SOL    HW1 2015   6.844   6.540   6.180
  372SOL    HW2 2016   6.938   6.415   6.131
  373SOL     OW 2017   0.252   6.074   0.731
  373SOL    HW1 2018   0.221   6.042   0.642
  373SOL    HW2 2019   0.211   6.164   0.750
  374SOL     OW 2020   3.350   0.272   1.998
  374SOL    HW1 2021   3.301   0.275   1.911
  374SOL    HW2 2022   3.379   0.365   2.022
  375SOL     OW 2023   6.737   4.902   3.177
  375SOL    HW1 2024   6.813   4.838   3.186
  375SOL    HW2 2025   6.692   4.913   3.266
  376SOL     OW 2026   1.998   2.711   4.231
  376SOL    HW1 2027   2.051   2.773   4.172
  376SOL    HW2 2028   2.021   2.616   4.209
  377SOL     OW 2029   5.024   2.210   3.098
  377SOL    HW1 2030   5.000   2.257   3.013
  377SOL    HW2 2031   4.941   2.179   3.144
  378SOL     OW 2032   4.742   3.196   5.456
  378SOL    HW1 2033   4.672   3.265   5.475
  378SOL    HW2 2034   4.703   3.105   5.467
  379SOL     OW 2035   5.897   3.901   1.303
  379SOL    HW1 2036   5.849   3.822   1.264
  379SOL    HW2 2037   5.831   3.972   1.324
  380SOL     OW 2038   1.850   1.758   1.372
  380SOL    HW1 2039   1.791   1.831   1.405
  380SOL    HW2 2040   1.946   1.785   1.382
  381SOL     OW 2041   3.280   4.433   1.146
  381SOL    HW1 2042   3.233   4.349   1.118
  381SOL    HW2 2043   3.303   4.487   1.065
  382SOL     OW 2044   3.290   6.010   0.382
  382SOL    HW1 2045   3.227   5.981   0.309
  382SOL    HW2 2046   3.340   5.930   0.417
  383SOL     OW 2047   6.348   2.403   0.329
  383SOL    HW1 2048   6.448   2.401   0.330
  383SOL    HW2 2049   6.316   2.496   0.346
  384SOL     OW 2050   0.863   5.290   4.957
  384SOL    HW1 2051   0.882   5.216   4.894
  384SOL    HW2 2052   0.767   5.319   4.947
  385SOL     OW 2053   4.358   6.356   0.385
  385SOL    HW1 2054   4.350   6.432   0.321
  385SOL    HW2 2055   4.269   6.338   0.427
  386SOL     OW 2056   3.908   6.521   5.328
  386SOL    HW1 2057   3.822   6.484   5.294
  386SOL    HW2 2058   3.948   6.582   5.260
  387SOL     OW 2059   0.323   0.583   5.489
  387SOL    HW1 2060   0.318   0.668   5.436
  387SOL    HW2 2061   0.326   0.505   5.426
  388SOL     OW 2062   0.220   2.500   5.256
  388SOL    HW1 2063   0.146   2.463   5.312
  388SOL    HW2 2064   0.246   2.590   5.292
  389SOL     OW 2065   4.297   4.653   1.291
  389SOL    HW1 2066   4.292   4.669   1.389
  389SOL    HW2 2067   4.322   4.738   1.244
  390SOL     OW 2068   3.498   1.807   0.620
  390SOL    HW1 2069   3.419   1.867   0.605
  390SOL    HW2 2070   3.466   1.719   0.656
  391SOL     OW 2071   3.009   3.961   6.406
  391SOL    HW1 2072   3.060   3.996   6.484
  391SOL    HW2 2073   2.923   4.012   6.397
  392SOL     OW 2074   1.752   3.900   1.920
  392SOL    HW1 2075   1.806   3.899   2.004
  392SOL    HW2 2076   1.698   3.984   1.915
  393SOL     OW 2077   0.897   4.503   1.055
  393SOL    HW1 2078   0.823   4.470   1.114
  393SOL    HW2 2079   0.928   4.593   1.086
  394SOL     OW 2080   6.418   1.376   6.135
  394SOL    HW1 2081   6.481   1.440   6.178
  394SOL    HW2 2082   6.390   1.306   6.201
  395SOL     OW 2083   5.540   4.635   1.369
  395SOL    HW1 2084   5.611   4.580   1.413
  395SOL    HW2 2085   5.580   4.687   1.293
  396SOL     OW 2086   2.851   1.492   2.607
  396SOL    HW1 2087   2.758   1.522   2.586
  396SOL    HW2 2088   2.851   1.393   2.624
  397SOL     OW 2089   4.308   1.261   5.235
  397SOL    HW1 2090   4.254   1.343   5.255
  397SOL    HW2 2091   4.263   1.181   5.275
  398SOL     OW 2092   2.584   0.948   4.580
  398SOL    HW1 2093   2.648   0.895   4.637
  398SOL    HW2 2094   2.502   0.969   4.633
  399SOL     OW 2095   5.613   6.421   3.786
  399SOL    HW1 2096   5.614   6.332   3.832
  399SOL    HW2 2097   5.595   6.408   3.689
  400SOL     OW 2098   6.724   0.493   4.814
  400SOL    HW1 2099   6.716   0.490   4.714
  400SOL    HW2 2100   6.706   0.402   4.851
  401SOL     OW 2101   6.936   5.620   5.790
  401SOL    HW1 2102   6.857   5.561   5.777
  401SOL    HW2 2103   6.910   5.701   5.842
  402SOL     OW 2104   6.878   0.477   2.436
  402SOL    HW1 2105   6.939   0.510   2.508
  402SOL    HW2 2106   6.797   0.536   2.433
  403SOL     OW 2107   3.024   0.877   6.059
  403SOL    HW1 2108   2.933   0.896   6.023
  403SOL    HW2 2109   3.090   0.938   6.016
  404SOL     OW 2110   4.012   4.820   4.456
  404SOL    HW1 2111   4.074   4.777   4.391
  404SOL    HW2 2112   3.954   4.750   4.498
  405SOL     OW 2113   2.730   4.682   3.727
  405SOL    HW1 2114   2.807   4.676   3.664
  405SOL    HW2 2115   2.673   4.761   3.702
  406SOL     OW 2116   0.394   5.281   5.835
  406SOL    HW1 2117   0.310   5.238   5.803
  406SOL    HW2 2118   0.372   5.360   5.891
  407SOL     OW 2119   2.091   3.023   4.627
  407SOL    HW1 2120   2.153   2.998   4.701
  407SOL    HW2 2121   2.086   2.948   4.561
  408SOL     OW 2122   3.052   1.230   3.571
  408SOL    HW1 2123   2.960   1.263   3.552
  408SOL    HW2 2124   3.102   1.299   3.624
  409SOL     OW 2125   1.076   4.049   2.483
  409SOL    HW1 2126   1.048   4.121   2.546
  409SOL    HW2 2127   1.001   3.984   2.471
  410SOL     OW 2128   2.014   2.108   1.413
  410SOL    HW1 2129   1.998   2.180   1.480
  410SOL    HW2 2130   2.063   2.033   1.456
  411SOL     OW 2131   0.816   2.250   1.255
  411SOL    HW1 2132   0.803   2.297   1.168
  411SOL    HW2 2133   0.801   2.314   1.330
  412SOL     OW 2134   1.768   4.784   1.771
  412SOL    HW1 2135   1.704   4.758   1.698
  412SOL    HW2 2136   1.764   4.883   1.786
  413SOL     OW 2137   5.140   5.311   2.669
  413SOL    HW1 2138   5.162   5.238   2.605
  413SOL    HW2 2139   5.047   5.344   2.652
  414SOL     OW 2140   2.529   6.217   3.691
  414SOL    HW1 2141   2.442   6.168   3.682
  414SOL    HW2 2142   2.554   6.223   3.787
  415SOL     OW 2143   6.556   0.537   0.434
  415SOL    HW1 2144   6.477   0.579   0.390
  415SOL    HW2 2145   6.640   0.571   0.391
  416SOL     OW 2146   4.899   3.405   4.660
  416SOL    HW1 2147   4.960   3.384   4.584
  416SOL    HW2 2148   4.861   3.497   4.648
  417SOL     OW 2149   3.684   2.135   6.472
  417SOL    HW1 2150   3.622   2.131   6.394
  417SOL    HW2 2151   3.706   2.230   6.492
  418SOL     OW 2152   4.073   6.127   4.833
  418SOL    HW1 2153   4.004   6.171   4.774
  418SOL    HW2 2154   4.059   6.157   4.927
  419SOL     OW 2155   0.995   0.078   1.498
  419SOL    HW1 2156   0.980   0.174   1.525
  419SOL    HW2 2157   0.968   0.018   1.573
  420SOL     OW 2158   5.592   1.218   6.201
  420SOL    HW1 2159   5.505   1.172   6.186
  420SOL    HW2 2160   5.618   1.269   6.119
  421SOL     OW 2161   5.210   3.461   2.507
  421SOL    HW1 2162   5.252   3.414   2.430
  421SOL    HW2 2163   5.115   3.431   2.517
  422SOL     OW 2164   4.975   3.342   1.705
  422SOL    HW1 2165   4.904   3.273   1.691
  422SOL    HW2 2166   4.936   3.419   1.755
  423SOL     OW 2167   3.604   1.339   5.963
  423SOL    HW1 2168   3.615   1.376   5.871
  423SOL    HW2 2169   3.608   1.239   5.959
  424SOL     OW 2170   1.162   4.039   3.178
  424SOL    HW1 2171   1.233   4.088   3.229
  424SOL    HW2 2172   1.192   4.027   3.084
  425SOL     OW 2173   2.283   0.801   5.340
  425SOL    HW1 2174   2.242   0.884   5.376
  425SOL    HW2 2175   2.229   0.722   5.367
  426SOL     OW 2176   2.556   2.605   4.145
  426SOL    HW1 2177   2.590   2.513   4.165
  426SOL    HW2 2178   2.527   2.649   4.230
  427SOL     OW 2179   3.719   2.092   3.210
  427SOL    HW1 2180   3.708   1.993   3.203
  427SOL    HW2 2181   3.653   2.138   3.150
  428SOL     OW 2182   2.456   1.679   6.110
  428SOL    HW1 2183   2.455   1.778   6.124
  428SOL    HW2 2184   2.485   1.659   6.016
  429SOL     OW 2185   1.238   6.186   4.103
  429SOL    HW1 2186   1.330   6.153   4.125
  429SOL    HW2 2187   1.210   6.150   4.014
  430SOL     OW 2188   1.392   0.146   3.737
  430SOL    HW1 2189   1.317   0.168   3.675
  430SOL    HW2 2190   1.477   0.182   3.700
  431SOL     OW 2191   3.314   1.730   1.932
  431SOL    HW1 2192   3.266   1.813   1.958
  431SOL    HW2 2193   3.369   1.698   2.009
  432SOL     OW 2194   4.146   2.288   1.551
  432SOL    HW1 2195   4.245   2.279   1.563
  432SOL    HW2 2196   4.127   2.344   1.471
  433SOL     OW 2197   2.367   6.068   0.194
  433SOL    HW1 2198   2.299   6.136   0.220
  433SOL    HW2 2199   2.377   6.067   0.095
  434SOL     OW 2200   4.141   5.783   3.750
  434SOL    HW1 2201   4.230   5.787   3.795
  434SOL    HW2 2202   4.132   5.697   3.700
  435SOL     OW 2203   3.242   1.449   6.167
  435SOL    HW1 2204   3.215   1.483   6.258
  435SOL    HW2 2205   3.329   1.491   6.141
  436SOL     OW 2206   4.869   6.858   2.942
  436SOL    HW1 2207   4.949   6.916   2.955
  436SOL    HW2 2208   4.872   6.782   3.007
  437SOL     OW 2209   6.776   0.601   5.043
  437SOL    HW1 2210   6.755   0.555   4.957
  437SOL    HW2 2211   6.821   0.688   5.025
  438SOL     OW 2212   0.549   4.011   2.855
  438SOL    HW1 2213   0.574   4.100   2.892
  438SOL    HW2 2214   0.467   4.021   2.797
  439SOL     OW 2215   6.399   0.543   3.856
  439SOL    HW1 2216   6.354   0.542   3.946
  439SOL    HW2 2217   6.454   0.461   3.845
  440SOL     OW 2218   4.529   0.779   0.755
  440SOL    HW1 2219   4.592   0.703   0.737
  440SOL    HW2 2220   4.435   0.748   0.741
  441SOL     OW 2221   0.029   4.354   2.833
  441SOL    HW1 2222   0.053   4.258   2.846
  441SOL    HW2 2223   0.044   4.379   2.737
  442SOL     OW 2224   5.409   2.954   6.068
  442SOL    HW1 2225   5.425   3.027   6.002
  442SOL    HW2 2226   5.477   2.882   6.055
  443SOL     OW 2227   4.955   3.158   2.490
  443SOL    HW1 2228   4.885   3.134   2.423
  443SOL    HW2 2229   4.945   3.254   2.517
  444SOL     OW 2230   3.967   1.111   1.381
  444SOL    HW1 2231   3.882   1.137   1.334
  444SOL    HW2 2232   3.951   1.111   1.480
  445SOL     OW 2233   1.109   5.569   2.350
  445SOL    HW1 2234   1.159   5.653   2.330
  445SOL    HW2 2235   1.172   5.498   2.382
  446SOL     OW 2236   5.580   6.867   1.465
  446SOL    HW1 2237   5.661   6.815   1.437
  446SOL    HW2 2238   5.574   6.951   1.411
  447SOL     OW 2239   6.667   4.370   0.752
  447SOL    HW1 2240   6.673   4.290   0.693
  447SOL    HW2 2241   6.571   4.395   0.764
  448SOL     OW 2242   2.654   6.859   3.522
  448SOL    HW1 2243   2.680   6.764   3.503
  448SOL    HW2 2244   2.732   6.909   3.559
  449SOL     OW 2245   2.057   3.734   4.826
  449SOL    HW1 2246   1.964   3.701   4.838
  449SOL    HW2 2247   2.060   3.832   4.842
  450SOL     OW 2248   0.677   5.004   3.494
  450SOL    HW1 2249   0.740   5.008   3.571
  450SOL    HW2 2250   0.672   4.910   3.460
  451SOL     OW 2251   0.769   2.250   2.652
  451SOL    HW1 2252   0.825   2.329   2.625
  451SOL    HW2 2253   0.730   2.267   2.742
  452SOL     OW 2254   5.028   5.765   2.230
  452SOL    HW1 2255   5.030   5.773   2.131
  452SOL    HW2 2256   5.112   5.803   2.269
  453SOL     OW 2257   3.620   0.497   6.718
  453SOL    HW1 2258   3.608   0.486   6.817
  453SOL    HW2 2259   3.717   0.485   6.695
  454SOL     OW 2260   6.569   3.733   6.821
  454SOL    HW1 2261   6.568   3.653   6.761
  454SOL    HW2 2262   6.663   3.763   6.835
  455SOL     OW 2263   5.814   4.394   6.334
  455SOL    HW1 2264   5.870   4.395   6.251
  455SOL    HW2 2265   5.736   4.456   6.323
  456SOL     OW 2266   3.355   0.508   2.369
  456SOL    HW1 2267   3.344   0.564   2.287
  456SOL    HW2 2268   3.427   0.547   2.426
  457SOL     OW 2269   2.526   0.724   0.028
  457SOL    HW1 2270   2.493   0.712   0.122
  457SOL    HW2 2271   2.479   0.660   6.996
  458SOL     OW 2272   3.238   0.909   3.358
  458SOL    HW1 2273   3.305   0.848   3.316
  458SOL    HW2 2274   3.155   0.858   3.378
  459SOL     OW 2275   3.124   0.345   3.939
  459SOL    HW1 2276   3.064   0.423   3.922
  459SOL    HW2 2277   3.150   0.343   4.036
  460SOL     OW 2278   1.113   1.584   5.551
  460SOL    HW1 2279   1.081   1.675   5.523
  460SOL    HW2 2280   1.211   1.577   5.535
  461SOL     OW 2281   0.454   4.851   6.162
  461SOL    HW1 2282   0.439   4.833   6.260
  461SOL    HW2 2283   0.394   4.926   6.133
  462SOL     OW 2284   2.973   3.806   4.982
  462SOL    HW1 2285   3.042   3.826   4.913
  462SOL    HW2 2286   2.990   3.861   5.064
  463SOL     OW 2287   5.538   6.717   2.920
  463SOL    HW1 2288   5.637   6.725   2.916
  463SOL    HW2 2289   5.496   6.785   2.861
  464SOL     OW 2290   3.859   5.318   5.771
  464SOL    HW1 2291   3.882   5.337   5.675
  464SOL    HW2 2292   3.922   5.249   5.807
  465SOL     OW 2293   0.975   3.554   0.491
  465SOL    HW1 2294   1.030   3.478   0.527
  465SOL    HW2 2295   1.029   3.638   0.495
  466SOL     OW 2296   4.208   5.563   4.760
  466SOL    HW1 2297   4.140   5.525   4.697
  466SOL    HW2 2298   4.293   5.580   4.710
  467SOL     OW 2299   6.408   0.099   1.373
  467SOL    HW1 2300   6.383   0.170   1.439
  467SOL    HW2 2301   6.466   0.031   1.418
  468SOL     OW 2302   3.509   0.168   7.013
  468SOL    HW1 2303   3.525   0.248   0.042
  468SOL    HW2 2304   3.541   0.086   0.033
  469SOL     OW 2305   3.101   4.982   6.032
  469SOL    HW1 2306   3.074   5.057   5.972
  469SOL    HW2 2307   3.020   4.931   6.060
  470SOL     OW 2308   1.929   5.102   2.915
  470SOL    HW1 2309   1.921   5.049   3.000
  470SOL    HW2 2310   1.996   5.175   2.926
  471SOL     OW 2311   2.054   2.272   4.404
  471SOL    HW1 2312   2.118   2.245   4.476
  471SOL    HW2 2313   1.978   2.324   4.445
  472SOL     OW 2314   6.016   3.740   6.602
  472SOL    HW1 2315   6.055   3.759   6.512
  472SOL    HW2 2316   6.033   3.645   6.626
  473SOL     OW 2317   7.003   2.814   2.060
  473SOL    HW1 2318   6.978   2.790   2.154
  473SOL    HW2 2319   0.073   2.796   2.046
  474SOL     OW 2320   5.259   6.142   3.656
  474SOL    HW1 2321   5.292   6.222   3.605
  474SOL    HW2 2322   5.224   6.171   3.745
  475SOL     OW 2323   5.898   1.817   0.685
  475SOL    HW1 2324   5.934   1.734   0.726
  475SOL    HW2 2325   5.831   1.858   0.747
  476SOL     OW 2326   0.859   4.636   1.368
  476SOL    HW1 2327   0.822   4.726   1.391
  476SOL    HW2 2328   0.951   4.646   1.332
  477SOL     OW 2329   1.811   4.492   4.082
  477SOL    HW1 2330   1.837   4.396   4.093
  477SOL    HW2 2331   1.884   4.541   4.035
  478SOL     OW 2332   5.099   6.007   1.788
  478SOL    HW1 2333   5.192   6.018   1.822
  478SOL    HW2 2334   5.052   6.095   1.790
  479SOL     OW 2335   3.552   3.813   3.503
  479SOL    HW1 2336   3.500   3.897   3.485
  479SOL    HW2 2337   3.597   3.820   3.592
  480SOL     OW 2338   2.239   0.310   2.918
  480SOL    HW1 2339   2.316   0.283   2.860
  480SOL    HW2 2340   2.229   0.245   2.993
  481SOL     OW 2341   0.118   6.963   0.475
  481SOL    HW1 2342   0.121   6.868   0.506
  481SOL    HW2 2343   0.056   7.015   0.534
  482SOL     OW 2344   4.191   5.430   1.554
  482SOL    HW1 2345   4.262   5.500   1.566
  482SOL    HW2 2346   4.178   5.413   1.456
  483SOL     OW 2347   5.142   1.975   3.627
  483SOL    HW1 2348   5.212   1.916   3.587
  483SOL    HW2 2349   5.096   2.026   3.554
  484SOL     OW 2350   2.193   4.655   4.687
  484SOL    HW1 2351   2.155   4.670   4.596
  484SOL    HW2 2352   2.272   4.715   4.701
  485SOL     OW 2353   5.415   3.135   1.732
  485SOL    HW1 2354   5.394   3.207   1.798
  485SOL    HW2 2355   5.338   3.071   1.726
  486SOL     OW 2356   5.949   6.431   6.313
  486SOL    HW1 2357   5.958   6.334   6.288
  486SOL    HW2 2358   6.019   6.454   6.382
  487SOL     OW 2359   6.518   6.606   5.483
  487SOL    HW1 2360   6.583   6.545   5.439
  487SOL    HW2 2361   6.548   6.701   5.472
  488SOL     OW 2362   1.696   6.240   3.334
  488SOL    HW1 2363   1.698   6.178   3.255
  488SOL    HW2 2364   1.754   6.320   3.315
  489SOL     OW 2365   1.092   6.484   6.332
  489SOL    HW1 2366   1.063   6.422   6.259
  489SOL    HW2 2367   1.156   6.551   6.296
  490SOL     OW 2368   1.010   3.986   5.050
  490SOL    HW1 2369   1.029   3.928   4.970
  490SOL    HW2 2370   0.996   3.928   5.130
  491SOL     OW 2371   0.904   2.706   0.677
  491SOL    HW1 2372   0.809   2.686   0.701
  491SOL    HW2 2373   0.965   2.660   0.742
  492SOL     OW 2374   1.745   2.525   5.826
  492SOL    HW1 2375   1.650   2.520   5.855
  492SOL    HW2 2376   1.767   2.618   5.797
  493SOL     OW 2377   2.240   5.559   4.887
  493SOL    HW1 2378   2.214   5.499   4.811
  493SOL    HW2 2379   2.172   5.631   4.897
  494SOL     OW 2380   2.622   6.281   4.963
  494SOL    HW1 2381   2.691   6.332   4.911
  494SOL    HW2 2382   2.586   6.340   5.036
  495SOL     OW 2383   3.836   4.305   6.137
  495SOL    HW1 2384   3.879   4.299   6.047
  495SOL    HW2 2385   3.746   4.346   6.129
  496SOL     OW 2386   4.858   1.495   3.109
  496SOL    HW1 2387   4.842   1.475   3.012
  496SOL    HW2 2388   4.913   1.422   3.149
  497SOL     OW 2389   3.713   2.100   0.390
  497SOL    HW1 2390   3.745   2.040   0.464
  497SOL    HW2 2391   3.792   2.131   0.337
  498SOL     OW 2392   1.040   6.819   1.757
  498SOL    HW1 2393   0.959   6.795   1.704
  498SOL    HW2 2394   1.041   6.917   1.775
  499SOL     OW 2395   2.823   5.998   6.538
  499SOL    HW1 2396   2.864   6.084   6.509
  499SOL    HW2 2397   2.846   5.926   6.472
  500SOL     OW 2398   6.153   2.400   0.547
  500SOL    HW1 2399   6.188   2.366   0.460
  500SOL    HW2 2400   6.225   2.448   0.596
  501SOL     OW 2401   1.137   0.870   3.740
  501SOL    HW1 2402   1.162   0.952   3.688
  501SOL    HW2 2403   1.127   0.793   3.678
  502SOL     OW 2404   2.095   4.945   6.683
  502SOL    HW1 2405   2.045   4.898   6.756
  502SOL    HW2 2406   2.179   4.984   6.720
  503SOL     OW 2407   3.736   4.767   6.704
  503SOL    HW1 2408   3.711   4.671   6.689
  503SOL    HW2 2409   3.664   4.812   6.756
  504SOL     OW 2410   6.318   6.157   2.041
  504SOL    HW1 2411   6.371   6.238   2.069
  504SOL    HW2 2412   6.222   6.170   2.067
  505SOL     OW 2413   4.834   6.704   5.120
  505SOL    HW1 2414   4.899   6.674   5.190
  505SOL    HW2 2415   4.745   6.720   5.163
  506SOL     OW 2416   4.313   4.917   2.946
  506SOL    HW1 2417   4.237   4.856   2.922
  506SOL    HW2 2418   4.400   4.875   2.919
  507SOL     OW 2419   3.295   1.087   0.896
  507SOL    HW1 2420   3.197   1.066   0.900
  507SOL    HW2 2421   3.347   1.017   0.945
  508SOL     OW 2422   6.808   4.624   3.154
  508SOL    HW1 2423   6.833   4.633   3.250
  508SOL    HW2 2424   6.861   4.549   3.113
  509SOL     OW 2425   4.439   6.753   6.266
  509SOL    HW1 2426   4.430   6.723   6.171
  509SOL    HW2 2427   4.508   6.826   6.272
  510SOL     OW 2428   0.189   3.395   0.456
  510SOL    HW1 2429   0.198   3.345   0.542
  510SOL    HW2 2430   0.276   3.439   0.433
  511SOL     OW 2431   1.313   1.640   0.416
  511SOL    HW1 2432   1.268   1.724   0.388
  511SOL    HW2 2433   1.412   1.653   0.414
  512SOL     OW 2434   6.671   2.549   5.464
  512SOL    HW1 2435   6.731   2.560   5.385
  512SOL    HW2 2436   6.717   2.582   5.546
  513SOL     OW 2437   5.474   0.858   2.906
  513SOL    HW1 2438   5.543   0.786   2.915
  513SOL    HW2 2439   5.496   0.933   2.968
  514SOL     OW 2440   6.339   6.799   4.419
  514SOL    HW1 2441   6.256   6.767   4.465
  514SOL    HW2 2442   6.415   6.738   4.441
  515SOL     OW 2443   3.918   0.655   5.989
  515SOL    HW1 2444   3.875   0.600   6.060
  515SOL    HW2 2445   3.950   0.596   5.915
  516SOL     OW 2446   2.198   6.017   1.498
  516SOL    HW1 2447   2.238   5.962   1.570
  516SOL    HW2 2448   2.270   6.053   1.439
  517SOL     OW 2449   3.448   5.712   1.349
  517SOL    HW1 2450   3.356   5.749   1.343
  517SOL    HW2 2451   3.450   5.638   1.416
  518SOL     OW 2452   2.068   3.547   4.156
  518SOL    HW1 2453   2.085   3.504   4.067
  518SOL    HW2 2454   2.125   3.502   4.226
  519SOL     OW 2455   0.264   0.239   2.829
  519SOL    HW1 2456   0.200   0.171   2.794
  519SOL    HW2 2457   0.217   0.297   2.895
  520SOL     OW 2458   0.925   3.189   0.384
  520SOL    HW1 2459   0.994   3.247   0.341
  520SOL    HW2 2460   0.856   3.247   0.428
  521SOL     OW 2461   6.406   5.499   4.955
  521SOL    HW1 2462   6.375   5.593   4.941
  521SOL    HW2 2463   6.333   5.446   4.998
  522SOL     OW 2464   3.693   3.824   1.559
  522SOL    HW1 2465   3.605   3.817   1.606
  522SOL    HW2 2466   3.749   3.894   1.603
  523SOL     OW 2467   0.541   6.784   1.271
  523SOL    HW1 2468   0.589   6.709   1.226
  523SOL    HW2 2469   0.597   6.820   1.346
  524SOL     OW 2470   0.093   2.154   1.780
  524SOL    HW1 2471   0.157   2.078   1.765
  524SOL    HW2 2472   0.018   2.148   1.714
  525SOL     OW 2473   1.261   3.407   5.704
  525SOL    HW1 2474   1.304   3.403   5.614
  525SOL    HW2 2475   1.298   3.335   5.763
  526SOL     OW 2476   2.554   6.603   4.390
  526SOL    HW1 2477   2.643   6.570   4.421
  526SOL    HW2 2478   2.547   6.593   4.291
  527SOL     OW 2479   0.569   0.943   0.225
  527SOL    HW1 2480   0.553   0.930   0.127
  527SOL    HW2 2481   0.597   0.856   0.266
  528SOL     OW 2482   6.862   3.234   4.084
  528SOL    HW1 2483   6.960   3.223   4.099
  528SOL    HW2 2484   6.813   3.153   4.116
  529SOL     OW 2485   1.450   0.423   6.530
  529SOL    HW1 2486   1.479   0.509   6.488
  529SOL    HW2 2487   1.416   0.361   6.459
  530SOL     OW 2488   4.366   3.953   0.777
  530SOL    HW1 2489   4.386   3.936   0.873
  530SOL    HW2 2490   4.448   3.988   0.731
  531SOL     OW 2491   1.439   0.749   1.096
  531SOL    HW1 2492   1.471   0.693   1.021
  531SOL    HW2 2493   1.430   0.694   1.179
  532SOL     OW 2494   2.410   2.351   0.649
  532SOL    HW1 2495   2.493   2.404   0.665
  532SOL    HW2 2496   2.351   2.354   0.730
  533SOL     OW 2497   3.861   0.394   4.331
  533SOL    HW1 2498   3.861   0.494   4.331
  533SOL    HW2 2499   3.946   0.361   4.373
  534SOL     OW 2500   1.296   5.191   1.288
  534SOL    HW1 2501   1.347   5.170   1.371
  534SOL    HW2 2502   1.218   5.249   1.311
  535SOL     OW 2503   5.392   3.732   3.702
  535SOL    HW1 2504   5.307   3.705   3.748
  535SOL    HW2 2505   5.376   3.817   3.651
  536SOL     OW 2506   6.721   6.534   2.591
  536SOL    HW1 2507   6.762   6.491   2.671
  536SOL    HW2 2508   6.753   6.629   2.585
  537SOL     OW 2509   3.550   1.211   4.412
  537SOL    HW1 2510   3.550   1.306   4.382
  537SOL    HW2 2511   3.561   1.151   4.333
  538SOL     OW 2512   2.810   4.702   5.668
  538SOL    HW1 2513   2.861   4.776   5.625
  538SOL    HW2 2514   2.799   4.627   5.603
  539SOL     OW 2515   1.201   0.085   0.176
  539SOL    HW1 2516   1.145   0.168   0.182
  539SOL    HW2 2517   1.274   0.089   0.245
  540SOL     OW 2518   0.722   0.414   4.328
  540SOL    HW1 2519   0.707   0.502   4.374
  540SOL    HW2 2520   0.718   0.427   4.229
  541SOL     OW 2521   4.571   5.577   4.396
  541SOL    HW1 2522   4.511   5.604   4.471
  541SOL    HW2 2523   4.616   5.490   4.419
  542SOL     OW 2524   3.383   0.371   6.308
  542SOL    HW1 2525   3.448   0.351   6.381
  542SOL    HW2 2526   3.404   0.313   6.229
  543SOL     OW 2527   6.039   2.169   4.263
  543SOL    HW1 2528   5.996   2.241   4.208
  543SOL    HW2 2529   6.070   2.207   4.350
  544SOL     OW 2530   1.128   3.984   1.246
  544SOL    HW1 2531   1.148   4.082   1.246
  544SOL    HW2 2532   1.107   3.955   1.153
  545SOL     OW 2533   5.909   1.573   1.089
  545SOL    HW1 2534   5.904   1.555   1.187
  545SOL    HW2 2535   5.885   1.490   1.039
  546SOL     OW 2536   0.704   4.146   2.515
  546SOL    HW1 2537   0.701   4.144   2.415
  546SOL    HW2 2538   0.692   4.054   2.551
  547SOL     OW 2539   3.920   1.222   6.277
  547SOL    HW1 2540   3.930   1.185   6.185
  547SOL    HW2 2541   3.977   1.303   6.288
  548SOL     OW 2542   3.130   2.911   0.042
  548SOL    HW1 2543   3.118   2.980   6.998
  548SOL    HW2 2544   3.115   2.820   0.002
  549SOL     OW 2545   6.395   1.857   1.310
  549SOL    HW1 2546   6.322   1.830   1.247
  549SOL    HW2 2547   6.408   1.785   1.379
  550SOL     OW 2548   0.136   5.272   3.249
  550SOL    HW1 2549   0.121   5.235   3.341
  550SOL    HW2 2550   0.219   5.231   3.210
  551SOL     OW 2551   6.496   0.917   0.328
  551SOL    HW1 2552   6.449   0.952   0.247
  551SOL    HW2 2553   6.430   0.872   0.388
  552SOL     OW 2554   5.948   5.187   5.649
  552SOL    HW1 2555   6.006   5.264   5.675
  552SOL    HW2 2556   5.852   5.215   5.652
  553SOL     OW 2557   3.471   0.792   6.044
  553SOL    HW1 2558   3.410   0.868   6.068
  553SOL    HW2 2559   3.467   0.722   6.115
  554SOL     OW 2560   5.914   6.084   0.848
  554SOL    HW1 2561   5.902   6.013   0.778
  554SOL    HW2 2562   5.957   6.165   0.807
  555SOL     OW 2563   1.752   4.299   5.983
  555SOL    HW1 2564   1.771   4.216   5.930
  555SOL    HW2 2565   1.768   4.282   6.080
  556SOL     OW 2566   5.407   0.683   3.781
  556SOL    HW1 2567   5.447   0.764   3.823
  556SOL    HW2 2568   5.479   0.620   3.753
  557SOL     OW 2569   6.557   4.657   6.741
  557SOL    HW1 2570   6.599   4.660   6.650
  557SOL    HW2 2571   6.601   4.586   6.795
  558SOL     OW 2572   3.234   3.736   2.477
  558SOL    HW1 2573   3.262   3.735   2.573
  558SOL    HW2 2574   3.156   3.799   2.465
  559SOL     OW 2575   6.269   6.674   5.600
  559SOL    HW1 2576   6.345   6.630   5.649
  559SOL    HW2 2577   6.295   6.768   5.579
  560SOL     OW 2578   6.500   3.191   2.953
  560SOL    HW1 2579   6.587   3.177   2.906
  560SOL    HW2 2580   6.449   3.105   2.956
  561SOL     OW 2581   0.943   2.908   6.465
  561SOL    HW1 2582   1.021   2.968   6.444
  561SOL    HW2 2583   0.858   2.952   6.436
  562SOL     OW 2584   4.194   0.472   5.242
  562SOL    HW1 2585   4.205   0.397   5.307
  562SOL    HW2 2586   4.156   0.437   5.156
  563SOL     OW 2587   1.906   1.693   4.596
  563SOL    HW1 2588   1.831   1.673   4.659
  563SOL    HW2 2589   1.972   1.619   4.598
  564SOL     OW 2590   0.130   2.404   5.024
  564SOL    HW1 2591   0.043   2.452   5.011
  564SOL    HW2 2592   0.179   2.445   5.101
  565SOL     OW 2593   3.856   3.205   3.855
  565SOL    HW1 2594   3.838   3.279   3.790
  565SOL    HW2 2595   3.837   3.117   3.812
  566SOL     OW 2596   3.131   6.694   3.015
  566SOL    HW1 2597   3.094   6.648   2.935
  566SOL    HW2 2598   3.121   6.635   3.095
  567SOL     OW 2599   2.178   3.024   6.789
  567SOL    HW1 2600   2.204   3.084   6.713
  567SOL    HW2 2601   2.193   2.929   6.762
  568SOL     OW 2602   6.949   6.664   0.320
  568SOL    HW1 2603   7.022   6.714   0.367
  568SOL    HW2 2604   6.946   6.569   0.354
  569SOL     OW 2605   6.692   1.978   0.450
  569SOL    HW1 2606   6.640   1.926   0.382
  569SOL    HW2 2607   6.748   2.047   0.404
  570SOL     OW 2608   2.762   0.385   5.852
  570SOL    HW1 2609   2.717   0.469   5.821
  570SOL    HW2 2610   2.705   0.306   5.829
  571SOL     OW 2611   2.670   5.285   2.243
  571SOL    HW1 2612   2.705   5.226   2.170
  571SOL    HW2 2613   2.639   5.372   2.203
  572SOL     OW 2614   2.332   6.766   3.838
  572SOL    HW1 2615   2.308   6.681   3.885
  572SOL    HW2 2616   2.393   6.820   3.896
  573SOL     OW 2617   6.934   1.063   5.693
  573SOL    HW1 2618   6.877   0.986   5.665
  573SOL    HW2 2619   6.984   1.098   5.614
  574SOL     OW 2620   2.712   2.126   5.911
  574SOL    HW1 2621   2.731   2.035   5.874
  574SOL    HW2 2622   2.736   2.128   6.008
  575SOL     OW 2623   3.139   3.953   0.885
  575SOL    HW1 2624   3.184   3.914   0.805
  575SOL    HW2 2625   3.159   3.898   0.966
  576SOL     OW 2626   2.275   2.935   3.070
  576SOL    HW1 2627   2.284   2.938   3.170
  576SOL    HW2 2628   2.220   3.012   3.039
  577SOL     OW 2629   0.657   1.377   2.002
  577SOL    HW1 2630   0.575   1.433   2.010
  577SOL    HW2 2631   0.676   1.334   2.090
  578SOL     OW 2632   2.268   5.869   6.724
  578SOL    HW1 2633   2.258   5.801   6.651
  578SOL    HW2 2634   2.224   5.955   6.696
  579SOL     OW 2635   2.352   4.645   1.938
  579SOL    HW1 2636   2.368   4.743   1.948
  579SOL    HW2 2637   2.437   4.600   1.909
  580SOL     OW 2638   4.329   5.192   5.001
  580SOL    HW1 2639   4.412   5.159   5.045
  580SOL    HW2 2640   4.319   5.290   5.018
  581SOL     OW 2641   1.744   2.789   4.200
  581SOL    HW1 2642   1.677   2.732   4.152
  581SOL    HW2 2643   1.828   2.736   4.214
  582SOL     OW 2644   5.653   5.343   3.507
  582SOL    HW1 2645   5.693   5.404   3.576
  582SOL    HW2 2646   5.677   5.375   3.416
  583SOL     OW 2647   3.577   5.206   5.662
  583SOL    HW1 2648   3.658   5.238   5.614
  583SOL    HW2 2649   3.603   5.136   5.728
  584SOL     OW 2650   4.554   0.971   7.027
  584SOL    HW1 2651   4.602   0.998   6.944
  584SOL    HW2 2652   4.620   0.953   0.072
  585SOL     OW 2653   2.600   6.575   1.454
  585SOL    HW1 2654   2.557   6.524   1.379
  585SOL    HW2 2655   2.698   6.552   1.457
  586SOL     OW 2656   4.467   0.004   0.924
  586SOL    HW1 2657   4.498   6.939   0.900
  586SOL    HW2 2658   4.502   0.028   1.014
  587SOL     OW 2659   5.135   2.103   2.240
  587SOL    HW1 2660   5.126   2.071   2.335
  587SOL    HW2 2661   5.131   2.203   2.237
  588SOL     OW 2662   0.900   5.482   2.002
  588SOL    HW1 2663   0.809   5.515   1.976
  588SOL    HW2 2664   0.901   5.382   2.002
  589SOL     OW 2665   3.709   6.063   1.394
  589SOL    HW1 2666   3.648   6.143   1.393
  589SOL    HW2 2667   3.699   6.014   1.307
  590SOL     OW 2668   4.601   1.471   0.330
  590SOL    HW1 2669   4.661   1.415   0.387
  590SOL    HW2 2670   4.605   1.566   0.362
  591SOL     OW 2671   4.338   6.002   4.805
  591SOL    HW1 2672   4.399   5.979   4.729
  591SOL    HW2 2673   4.285   6.083   4.781
  592SOL     OW 2674   4.345   2.404   4.130
  592SOL    HW1 2675   4.253   2.408   4.169
  592SOL    HW2 2676   4.396   2.329   4.173
  593SOL     OW 2677   3.357   1.051   5.756
  593SOL    HW1 2678   3.363   1.087   5.663
  593SOL    HW2 2679   3.336   0.954   5.753
  594SOL     OW 2680   6.028   1.155   2.092
  594SOL    HW1 2681   5.952   1.213   2.061
  594SOL    HW2 2682   6.109   1.211   2.105
  595SOL     OW 2683   5.387   6.229   2.712
  595SOL    HW1 2684   5.349   6.137   2.707
  595SOL    HW2 2685   5.473   6.233   2.661
  596SOL     OW 2686   6.843   4.332   4.154
  596SOL    HW1 2687   6.906   4.393   4.202
  596SOL    HW2 2688   6.836   4.359   4.058
  597SOL     OW 2689   2.967   0.719   6.345
  597SOL    HW1 2690   2.941   0.630   6.383
  597SOL    HW2 2691   2.893   0.754   6.288
  598SOL     OW 2692   3.356   3.228   4.414
  598SOL    HW1 2693   3.326   3.178   4.495
  598SOL    HW2 2694   3.288   3.219   4.341
  599SOL     OW 2695   1.286   5.781   2.101
  599SOL    HW1 2696   1.365   5.838   2.080
  599SOL    HW2 2697   1.213   5.837   2.139
  600SOL     OW 2698   6.953   3.963   5.067
  600SOL    HW1 2699   0.023   3.983   5.052
  600SOL    HW2 2700   6.899   4.042   5.039
  601SOL     OW 2701   1.519   0.601   5.081
  601SOL    HW1 2702   1.434   0.600   5.134
  601SOL    HW2 2703   1.594   0.568   5.137
  602SOL     OW 2704   2.769   6.058   4.086
  602SOL    HW1 2705   2.788   5.981   4.025
  602SOL    HW2 2706   2.715   6.026   4.164
  603SOL     OW 2707   1.747   1.271   5.273
  603SOL    HW1 2708   1.681   1.297   5.343
  603SOL    HW2 2709   1.815   1.344   5.263
  604SOL     OW 2710   6.373   2.368   1.594
  604SOL    HW1 2711   6.375   2.366   1.694
  604SOL    HW2 2712   6.355   2.275   1.560
  605SOL     OW 2713   0.049   5.387   2.513
  605SOL    HW1 2714   6.997   5.349   2.466
  605SOL    HW2 2715   0.127   5.388   2.450
  606SOL     OW 2716   4.023   0.023   4.739
  606SOL    HW1 2717   4.119   0.011   4.765
  606SOL    HW2 2718   4.009   0.116   4.705
  607SOL     OW 2719   1.212   4.694   6.237
  607SOL    HW1 2720   1.276   4.733   6.171
  607SOL    HW2 2721   1.145   4.637   6.189
  608SOL     OW 2722   3.224   1.037   5.033
  608SOL    HW1 2723   3.128   1.061   5.050
  608SOL    HW2 2724   3.233   0.938   5.026
  609SOL     OW 2725   3.907   2.500   1.651
  609SOL    HW1 2726   3.978   2.430   1.648
  609SOL    HW2 2727   3.906   2.550   1.565
  610SOL     OW 2728   4.921   3.472   0.609
  610SOL    HW1 2729   4.975   3.459   0.691
  610SOL    HW2 2730   4.962   3.421   0.533
  611SOL     OW 2731   3.801   0.415   2.341
  611SOL    HW1 2732   3.895   0.383   2.343
  611SOL    HW2 2733   3.795   0.503   2.389
  612SOL     OW 2734   4.123   4.611   5.995
  612SOL    HW1 2735   4.068   4.528   6.005
  612SOL    HW2 2736   4.132   4.633   5.898
  613SOL     OW 2737   4.187   5.266   5.293
  613SOL    HW1 2738   4.112   5.294   5.233
  613SOL    HW2 2739   4.262   5.332   5.285
  614SOL     OW 2740   4.811   5.540   5.735
  614SOL    HW1 2741   4.879   5.499   5.674
  614SOL    HW2 2742   4.729   5.563   5.681
  615SOL     OW 2743   0.403   4.928   1.131
  615SOL    HW1 2744   0.313   4.929   1.087
  615SOL    HW2 2745   0.404   4.858   1.202
  616SOL     OW 2746   5.845   3.217   3.233
  616SOL    HW1 2747   5.775   3.218   3.162
  616SOL    HW2 2748   5.802   3.228   3.323
  617SOL     OW 2749   2.320   4.989   6.150
  617SOL    HW1 2750   2.234   4.999   6.201
  617SOL    HW2 2751   2.331   5.067   6.088
  618SOL     OW 2752   1.481   1.147   2.357
  618SOL    HW1 2753   1.449   1.082   2.288
  618SOL    HW2 2754   1.403   1.199   2.392
  619SOL     OW 2755   1.044   1.578   6.330
  619SOL    HW1 2756   1.025   1.496   6.385
  619SOL    HW2 2757   1.137   1.574   6.294
  620SOL     OW 2758   4.962   3.574   0.127
  620SOL    HW1 2759   4.968   3.474   0.133
  620SOL    HW2 2760   4.943   3.612   0.217
  621SOL     OW 2761   0.416   4.541   1.148
  621SOL    HW1 2762   0.427   4.625   1.202
  621SOL    HW2 2763   0.418   4.564   1.051
  622SOL     OW 2764   2.084   1.847   0.339
  622SOL    HW1 2765   2.183   1.834   0.329
  622SOL    HW2 2766   2.039   1.758   0.335
  623SOL     OW 2767   0.446   4.536   6.389
  623SOL    HW1 2768   0.491   4.511   6.303
  623SOL    HW2 2769   0.452   4.635   6.403
  624SOL     OW 2770   0.935   2.776   2.846
  624SOL    HW1 2771   1.030   2.754   2.867
  624SOL    HW2 2772   0.915   2.870   2.873
  625SOL     OW 2773   2.594   1.594   2.582
  625SOL    HW1 2774   2.523   1.567   2.517
  625SOL    HW2 2775   2.609   1.692   2.577
  626SOL     OW 2776   2.460   6.298   4.684
  626SOL    HW1 2777   2.489   6.394   4.692
  626SOL    HW2 2778   2.463   6.255   4.775
  627SOL     OW 2779   5.086   0.658   0.304
  627SOL    HW1 2780   5.182   0.636   0.322
  627SOL    HW2 2781   5.053   0.721   0.374
  628SOL     OW 2782   5.044   4.244   3.927
  628SOL    HW1 2783   5.125   4.245   3.986
  628SOL    HW2 2784   5.013   4.338   3.913
  629SOL     OW 2785   0.670   0.037   1.145
  629SOL    HW1 2786   0.732   6.998   1.104
  629SOL    HW2 2787   0.657   0.016   1.242
  630SOL     OW 2788   4.440   1.864   0.969
  630SOL    HW1 2789   4.367   1.926   0.939
  630SOL    HW2 2790   4.527   1.893   0.931
  631SOL     OW 2791   2.321   6.930   5.549
  631SOL    HW1 2792   2.328   6.896   5.643
  631SOL    HW2 2793   2.412   6.956   5.516
  632SOL     OW 2794   2.227   0.901   1.411
  632SOL    HW1 2795   2.204   0.810   1.378
  632SOL    HW2 2796   2.224   0.965   1.334
  633SOL     OW 2797   2.913   0.042   6.091
  633SOL    HW1 2798   2.844   0.054   6.162
  633SOL    HW2 2799   2.962   0.128   6.078
  634SOL     OW 2800   3.636   5.515   0.957
  634SOL    HW1 2801   3.651   5.584   0.886
  634SOL    HW2 2802   3.724   5.488   0.997
  635SOL     OW 2803   2.902   6.856   2.865
  635SOL    HW1 2804   2.942   6.912   2.792
  635SOL    HW2 2805   2.975   6.810   2.915
  636SOL     OW 2806   4.882   4.983   6.965
  636SOL    HW1 2807   4.932   4.903   6.996
  636SOL    HW2 2808   4.874   4.981   6.865
  637SOL     OW 2809   4.813   4.415   1.345
  637SOL    HW1 2810   4.823   4.369   1.433
  637SOL    HW2 2811   4.725   4.391   1.304
  638SOL     OW 2812   4.799   1.360   1.969
  638SOL    HW1 2813   4.699   1.366   1.960
  638SOL    HW2 2814   4.842   1.389   1.883
  639SOL     OW 2815   4.070   4.756   2.282
  639SOL    HW1 2816   4.036   4.664   2.265
  639SOL    HW2 2817   4.025   4.821   2.220
  640SOL     OW 2818   3.108   4.352   5.333
  640SOL    HW1 2819   3.088   4.442   5.371
  640SOL    HW2 2820   3.158   4.298   5.401
  641SOL     OW 2821   0.012   5.985   5.091
  641SOL    HW1 2822   0.087   6.024   5.038
  641SOL    HW2 2823   7.009   6.051   5.159
  642SOL     OW 2824   0.296   5.268   4.981
  642SOL    HW1 2825   0.379   5.214   4.967
  642SOL    HW2 2826   0.273   5.268   5.079
  643SOL     OW 2827   6.019   5.531   6.180
  643SOL    HW1 2828   6.010   5.434   6.159
  643SOL    HW2 2829   6.078   5.575   6.111
  644SOL     OW 2830   0.721   6.838   2.551
  644SOL    HW1 2831   0.702   6.834   2.649
  644SOL    HW2 2832   0.758   6.928   2.528
  645SOL     OW 2833   5.913   2.804   3.910
  645SOL    HW1 2834   5.900   2.832   4.005
  645SOL    HW2 2835   5.986   2.735   3.905
  646SOL     OW 2836   1.446   1.341   4.725
  646SOL    HW1 2837   1.468   1.301   4.814
  646SOL    HW2 2838   1.516   1.313   4.659
  647SOL     OW 2839   6.182   3.041   0.192
  647SOL    HW1 2840   6.108   2.976   0.175
  647SOL    HW2 2841   6.216   3.030   0.286
  648SOL     OW 2842   5.870   3.682   2.185
  648SOL    HW1 2843   5.770   3.676   2.177
  648SOL    HW2 2844   5.894   3.721   2.273
  649SOL     OW 2845   4.069   4.686   0.719
  649SOL    HW1 2846   4.057   4.684   0.620
  649SOL    HW2 2847   3.979   4.681   0.763
  650SOL     OW 2848   5.001   4.694   0.526
  650SOL    HW1 2849   5.098   4.670   0.524
  650SOL    HW2 2850   4.981   4.744   0.610
  651SOL     OW 2851   1.075   6.032   0.357
  651SOL    HW1 2852   1.004   5.997   0.295
  651SOL    HW2 2853   1.105   6.123   0.326
  652SOL     OW 2854   4.409   1.046   2.342
  652SOL    HW1 2855   4.316   1.079   2.353
  652SOL    HW2 2856   4.408   0.949   2.318
  653SOL     OW 2857   3.800   4.924   3.946
  653SOL    HW1 2858   3.871   4.904   4.014
  653SOL    HW2 2859   3.717   4.956   3.993
  654SOL     OW 2860   7.015   4.973   0.138
  654SOL    HW1 2861   6.926   4.955   0.096
  654SOL    HW2 2862   7.006   5.043   0.208
  655SOL     OW 2863   0.880   0.507   0.942
  655SOL    HW1 2864   0.892   0.604   0.959
  655SOL    HW2 2865   0.951   0.456   0.992
  656SOL     OW 2866   2.513   6.623   2.121
  656SOL    HW1 2867   2.575   6.616   2.043
  656SOL    HW2 2868   2.434   6.679   2.096
  657SOL     OW 2869   3.546   1.313   0.609
  657SOL    HW1 2870   3.549   1.216   0.586
  657SOL    HW2 2871   3.630   1.357   0.579
  658SOL     OW 2872   2.829   3.866   6.787
  658SOL    HW1 2873   2.784   3.955   6.800
  658SOL    HW2 2874   2.794   3.801   6.855
  659SOL     OW 2875   2.967   6.757   6.987
  659SOL    HW1 2876   2.885   6.760   6.930
  659SOL    HW2 2877   3.040   6.810   6.942
  660SOL     OW 2878   3.724   5.564   2.885
  660SOL    HW1 2879   3.747   5.469   2.866
  660SOL    HW2 2880   3.786   5.624   2.834
  661SOL     OW 2881   4.808   5.661   2.518
  661SOL    HW1 2882   4.708   5.660   2.514
  661SOL    HW2 2883   4.841   5.573   2.552
  662SOL     OW 2884   3.586   1.435   6.201
  662SOL    HW1 2885   3.522   1.511   6.197
  662SOL    HW2 2886   3.607   1.404   6.108
  663SOL     OW 2887   2.450   4.870   5.477
  663SOL    HW1 2888   2.530   4.896   5.530
  663SOL    HW2 2889   2.375   4.933   5.497
  664SOL     OW 2890   6.659   0.720   6.733
  664SOL    HW1 2891   6.652   0.651   6.661
  664SOL    HW2 2892   6.614   0.686   6.816
  665SOL     OW 2893   2.186   5.559   3.195
  665SOL    HW1 2894   2.179   5.581   3.097
  665SOL    HW2 2895   2.154   5.466   3.210
  666SOL     OW 2896   4.064   0.727   1.880
  666SOL    HW1 2897   4.012   0.771   1.806
  666SOL    HW2 2898   4.081   0.794   1.953
  667SOL     OW 2899   1.210   6.245   2.313
  667SOL    HW1 2900   1.112   6.228   2.329
  667SOL    HW2 2901   1.248   6.171   2.258
  668SOL     OW 2902   5.453   3.873   6.429
  668SOL    HW1 2903   5.523   3.910   6.368
  668SOL    HW2 2904   5.372   3.931   6.426
  669SOL     OW 2905   5.230   1.215   3.080
  669SOL    HW1 2906   5.152   1.238   3.139
  669SOL    HW2 2907   5.260   1.296   3.030
  670SOL     OW 2908   1.677   2.277   3.592
  670SOL    HW1 2909   1.736   2.262   3.671
  670SOL    HW2 2910   1.586   2.303   3.623
  671SOL     OW 2911   2.463   6.399   1.284
  671SOL    HW1 2912   2.383   6.361   1.239
  671SOL    HW2 2913   2.544   6.383   1.227
  672SOL     OW 2914   0.771   0.031   2.386
  672SOL    HW1 2915   0.768   0.130   2.403
  672SOL    HW2 2916   0.860   0.006   2.347
  673SOL     OW 2917   5.292   6.790   0.538
  673SOL    HW1 2918   5.280   6.860   0.608
  673SOL    HW2 2919   5.379   6.804   0.491
  674SOL     OW 2920   0.161   0.693   4.995
  674SOL    HW1 2921   0.123   0.623   5.055
  674SOL    HW2 2922   0.256   0.671   4.974
  675SOL     OW 2923   6.374   2.989   2.583
  675SOL    HW1 2924   6.375   2.965   2.681
  675SOL    HW2 2925   6.290   2.953   2.542
  676SOL     OW 2926   2.359   5.210   5.987
  676SOL    HW1 2927   2.282   5.272   5.970
  676SOL    HW2 2928   2.421   5.213   5.909
  677SOL     OW 2929   4.665   0.980   1.258
  677SOL    HW1 2930   4.628   1.055   1.313
  677SOL    HW2 2931   4.667   0.897   1.312
  678SOL     OW 2932   2.212   4.465   5.446
  678SOL    HW1 2933   2.272   4.388   5.424
  678SOL    HW2 2934   2.168   4.498   5.363
  679SOL     OW 2935   5.047   1.976   5.083
  679SOL    HW1 2936   5.060   2.036   5.004
  679SOL    HW2 2937   5.060   1.881   5.055
  680SOL     OW 2938   5.215   6.915   4.020
  680SOL    HW1 2939   5.263   6.998   4.047
  680SOL    HW2 2940   5.279   6.838   4.022
  681SOL     OW 2941   4.957   5.489   1.777
  681SOL    HW1 2942   5.035   5.493   1.840
  681SOL    HW2 2943   4.969   5.555   1.704
  682SOL     OW 2944   0.900   0.551   2.999
  682SOL    HW1 2945   0.805   0.531   2.975
  682SOL    HW2 2946   0.952   0.465   3.004
  683SOL     OW 2947   4.129   3.444   1.292
  683SOL    HW1 2948   4.043   3.486   1.263
  683SOL    HW2 2949   4.110   3.369   1.355
  684SOL     OW 2950   6.575   0.151   5.570
  684SOL    HW1 2951   6.515   0.089   5.520
  684SOL    HW2 2952   6.626   0.100   5.639
  685SOL     OW 2953   3.736   0.401   2.985
  685SOL    HW1 2954   3.834   0.381   2.990
  685SOL    HW2 2955   3.685   0.316   2.978
  686SOL     OW 2956   4.099   1.368   4.639
  686SOL    HW1 2957   4.149   1.340   4.557
  686SOL    HW2 2958   4.003   1.342   4.630
  687SOL     OW 2959   1.553   1.880   4.604
  687SOL    HW1 2960   1.651   1.888   4.584
  687SOL    HW2 2961   1.508   1.829   4.530
  688SOL     OW 2962   6.698   1.449   6.801
  688SOL    HW1 2963   6.730   1.446   6.895
  688SOL    HW2 2964   6.733   1.369   6.751
  689SOL     OW 2965   1.515   5.248   5.719
  689SOL    HW1 2966   1.423   5.232   5.753
  689SOL    HW2 2967   1.551   5.164   5.677
  690SOL     OW 2968   6.103   3.619   2.473
  690SOL    HW1 2969   6.067   3.563   2.397
  690SOL    HW2 2970   6.027   3.654   2.528
  691SOL     OW 2971   4.192   1.962   6.651
  691SOL    HW1 2972   4.269   1.903   6.675
  691SOL    HW2 2973   4.128   1.965   6.728
  692SOL     OW 2974   3.200   1.407   4.611
  692SOL    HW1 2975   3.128   1.385   4.546
  692SOL    HW2 2976   3.256   1.325   4.627
  693SOL     OW 2977   5.437   6.002   3.527
  693SOL    HW1 2978   5.416   6.048   3.440
  693SOL    HW2 2979   5.387   6.047   3.601
  694SOL     OW 2980   4.309   5.762   4.930
  694SOL    HW1 2981   4.279   5.846   4.886
  694SOL    HW2 2982   4.292   5.685   4.869
  695SOL     OW 2983   3.092   6.705   4.372
  695SOL    HW1 2984   3.006   6.696   4.322
  695SOL    HW2 2985   3.125   6.799   4.364
  696SOL     OW 2986   5.128   4.324   2.985
  696SOL    HW1 2987   5.159   4.416   2.961
  696SOL    HW2 2988   5.152   4.260   2.911
  697SOL     OW 2989   0.537   4.898   2.089
  697SOL    HW1 2990   0.600   4.860   2.156
  697SOL    HW2 2991   0.454   4.842   2.086
  698SOL     OW 2992   5.357   6.698   1.069
  698SOL    HW1 2993   5.374   6.627   1.001
  698SOL    HW2 2994   5.380   6.788   1.031
  699SOL     OW 2995   2.905   2.179   0.936
  699SOL    HW1 2996   2.819   2.204   0.891
  699SOL    HW2 2997   2.895   2.089   0.979
  700SOL     OW 2998   3.844   6.844   2.469
  700SOL    HW1 2999   3.911   6.778   2.435
  700SOL    HW2 3000   3.878   6.937   2.456
  701SOL     OW 3001   5.990   5.194   1.372
  701SOL    HW1 3002   5.962   5.099   1.387
  701SOL    HW2 3003   6.040   5.201   1.286
  702SOL     OW 3004   2.822   0.970   4.208
  702SOL    HW1 3005   2.728   0.963   4.241
  702SOL    HW2 3006   2.880   1.005   4.281
  703SOL     OW 3007   3.247   2.439   6.101
  703SOL    HW1 3008   3.180   2.502   6.062
  703SOL    HW2 3009   3.207   2.347   6.106
  704SOL     OW 3010   1.480   3.054   6.097
  704SOL    HW1 3011   1.501   2.961   6.066
  704SOL    HW2 3012   1.394   3.054   6.147
  705SOL     OW 3013   6.878   6.219   4.416
  705SOL    HW1 3014   6.793   6.219   4.362
  705SOL    HW2 3015   6.855   6.216   4.513
  706SOL     OW 3016   4.766   1.161   4.894
  706SOL    HW1 3017   4.821   1.121   4.968
  706SOL    HW2 3018   4.672   1.127   4.900
  707SOL     OW 3019   3.504   4.946   3.423
  707SOL    HW1 3020   3.576   4.885   3.390
  707SOL    HW2 3021   3.528   5.041   3.403
  708SOL     OW 3022   3.448   0.947   3.650
  708SOL    HW1 3023   3.398   0.950   3.563
  708SOL    HW2 3024   3.384   0.959   3.726
  709SOL     OW 3025   2.453   0.378   1.531
  709SOL    HW1 3026   2.358   0.405   1.544
  709SOL    HW2 3027   2.504   0.397   1.615
  710SOL     OW 3028   4.754   2.839   1.774
  710SOL    HW1 3029   4.736   2.920   1.830
  710SOL    HW2 3030   4.718   2.854   1.682
  711SOL     OW 3031   0.269   2.437   5.892
  711SOL    HW1 3032   0.318   2.350   5.904
  711SOL    HW2 3033   0.295   2.499   5.966
  712SOL     OW 3034   4.944   3.079   0.574
  712SOL    HW1 3035   5.027   3.083   0.630
  712SOL    HW2 3036   4.929   2.986   0.541
  713SOL     OW 3037   4.047   2.685   5.327
  713SOL    HW1 3038   4.106   2.629   5.268
  713SOL    HW2 3039   4.006   2.758   5.273
  714SOL     OW 3040   5.631   4.743   3.466
  714SOL    HW1 3041   5.606   4.835   3.435
  714SOL    HW2 3042   5.711   4.749   3.526
  715SOL     OW 3043   6.384   5.478   5.911
  715SOL    HW1 3044   6.390   5.455   5.814
  715SOL    HW2 3045   6.469   5.451   5.956
  716SOL     OW 3046   1.867   0.927   2.475
  716SOL    HW1 3047   1.775   0.892   2.456
  716SOL    HW2 3048   1.934   0.873   2.426
  717SOL     OW 3049   5.491   4.986   3.836
  717SOL    HW1 3050   5.489   4.894   3.797
  717SOL    HW2 3051   5.521   5.051   3.766
  718SOL     OW 3052   5.168   1.851   4.450
  718SOL    HW1 3053   5.194   1.937   4.406
  718SOL    HW2 3054   5.133   1.788   4.382
  719SOL     OW 3055   5.641   0.313   2.885
  719SOL    HW1 3056   5.580   0.242   2.921
  719SOL    HW2 3057   5.696   0.351   2.959
  720SOL     OW 3058   2.066   1.177   0.370
  720SOL    HW1 3059   2.127   1.240   0.322
  720SOL    HW2 3060   2.119   1.124   0.436
  721SOL     OW 3061   6.946   2.386   2.856
  721SOL    HW1 3062   6.975   2.370   2.762
  721SOL    HW2 3063   7.022   2.368   2.918
  722SOL     OW 3064   4.401   6.895   6.748
  722SOL    HW1 3065   4.349   6.976   6.719
  722SOL    HW2 3066   4.376   6.818   6.690
  723SOL     OW 3067   2.374   5.934   3.858
  723SOL    HW1 3068   2.454   5.881   3.886
  723SOL    HW2 3069   2.321   5.882   3.792
  724SOL     OW 3070   0.913   0.609   3.859
  724SOL    HW1 3071   0.954   0.521   3.837
  724SOL    HW2 3072   0.933   0.633   3.954
  725SOL     OW 3073   1.904   4.438   2.128
  725SOL    HW1 3074   1.941   4.403   2.214
  725SOL    HW2 3075   1.854   4.365   2.081
  726SOL     OW 3076   1.962   4.939   0.694
  726SOL    HW1 3077   1.988   4.918   0.789
  726SOL    HW2 3078   1.912   4.861   0.656
  727SOL     OW 3079   4.782   4.863   5.291
  727SOL    HW1 3080   4.790   4.764   5.290
  727SOL    HW2 3081   4.872   4.904   5.274
  728SOL     OW 3082   6.895   3.108   4.929
  728SOL    HW1 3083   6.878   3.131   5.025
  728SOL    HW2 3084   6.844   3.025   4.905
  729SOL     OW 3085   0.301   3.588   1.515
  729SOL    HW1 3086   0.301   3.615   1.419
  729SOL    HW2 3087   0.393   3.556   1.541
  730SOL     OW 3088   4.736   0.740   2.518
  730SOL    HW1 3089   4.743   0.817   2.581
  730SOL    HW2 3090   4.723   0.656   2.570
  731SOL     OW 3091   4.085   4.482   6.426
  731SOL    HW1 3092   4.069   4.579   6.408
  731SOL    HW2 3093   4.156   4.448   6.364
  732SOL     OW 3094   4.680   1.580   3.315
  732SOL    HW1 3095   4.749   1.578   3.243
  732SOL    HW2 3096   4.658   1.486   3.343
  733SOL     OW 3097   6.235   6.512   3.508
  733SOL    HW1 3098   6.324   6.502   3.553
  733SOL    HW2 3099   6.162   6.501   3.576
  734SOL     OW 3100   5.800   5.688   2.907
  734SOL    HW1 3101   5.816   5.783   2.935
  734SOL    HW2 3102   5.719   5.684   2.849
  735SOL     OW 3103   5.365   0.851   2.059
  735SOL    HW1 3104   5.315   0.890   1.981
  735SOL    HW2 3105   5.403   0.925   2.114
  736SOL     OW 3106   1.443   1.724   4.404
  736SOL    HW1 3107   1.375   1.767   4.345
  736SOL    HW2 3108   1.398   1.658   4.464
  737SOL     OW 3109   5.186   1.441   6.223
  737SOL    HW1 3110   5.110   1.464   6.162
  737SOL    HW2 3111   5.155   1.444   6.318
  738SOL     OW 3112   2.707   4.272   1.291
  738SOL    HW1 3113   2.646   4.213   1.342
  738SOL    HW2 3114   2.658   4.355   1.264
  739SOL     OW 3115   3.089   6.925   4.805
  739SOL    HW1 3116   3.013   6.971   4.850
  739SOL    HW2 3117   3.085   6.827   4.825
  740SOL     OW 3118   5.684   2.159   3.232
  740SOL    HW1 3119   5.655   2.188   3.141
  740SOL    HW2 3120   5.606   2.118   3.281
  741SOL     OW 3121   2.907   0.409   3.478
  741SOL    HW1 3122   2.973   0.479   3.504
  741SOL    HW2 3123   2.937   0.320   3.511
  742SOL     OW 3124   1.732   0.169   1.512
  742SOL    HW1 3125   1.798   0.144   1.583
  742SOL    HW2 3126   1.678   0.247   1.543
  743SOL     OW 3127   0.840   6.091   3.512
  743SOL    HW1 3128   0.822   6.045   3.426
  743SOL    HW2 3129   0.844   6.190   3.497
  744SOL     OW 3130   5.262   1.388   0.187
  744SOL    HW1 3131   5.164   1.374   0.197
  744SOL    HW2 3132   5.284   1.414   0.093
  745SOL     OW 3133   2.493   5.528   5.027
  745SOL    HW1 3134   2.410   5.511   4.975
  745SOL    HW2 3135   2.488   5.483   5.115
  746SOL     OW 3136   5.859   4.778   5.985
  746SOL    HW1 3137   5.907   4.817   6.063
  746SOL    HW2 3138   5.917   4.709   5.942
  747SOL     OW 3139   5.641   5.593   3.128
  747SOL    HW1 3140   5.664   5.645   3.211
  747SOL    HW2 3141   5.711   5.609   3.059
  748SOL     OW 3142   5.159   5.602   2.591
  748SOL    HW1 3143   5.176   5.604   2.492
  748SOL    HW2 3144   5.155   5.507   2.621
  749SOL     OW 3145   5.184   4.411   3.466
  749SOL    HW1 3146   5.188   4.511   3.465
  749SOL    HW2 3147   5.273   4.375   3.495
  750SOL     OW 3148   2.541   1.868   2.065
  750SOL    HW1 3149   2.580   1.777   2.050
  750SOL    HW2 3150   2.442   1.860   2.076
  751SOL     OW 3151   4.892   0.746   0.100
  751SOL    HW1 3152   4.957   0.702   0.162
  751SOL    HW2 3153   4.853   0.677   0.040
  752SOL     OW 3154   3.308   2.611   5.372
  752SOL    HW1 3155   3.276   2.587   5.464
  752SOL    HW2 3156   3.267   2.548   5.306
  753SOL     OW 3157   3.436   4.202   4.767
  753SOL    HW1 3158   3.429   4.110   4.730
  753SOL    HW2 3159   3.485   4.260   4.701
  754SOL     OW 3160   5.270   0.692   6.378
  754SOL    HW1 3161   5.180   0.719   6.410
  754SOL    HW2 3162   5.304   0.761   6.313
  755SOL     OW 3163   3.808   4.542   5.397
  755SOL    HW1 3164   3.709   4.534   5.382
  755SOL    HW2 3165   3.855   4.466   5.354
  756SOL     OW 3166   2.454   5.245   6.545
  756SOL    HW1 3167   2.542   5.207   6.573
  756SOL    HW2 3168   2.453   5.256   6.445
  757SOL     OW 3169   2.129   0.049   2.152
  757SOL    HW1 3170   2.187   0.102   2.213
  757SOL    HW2 3171   2.132   0.089   2.060
  758SOL     OW 3172   3.368   1.880   4.091
  758SOL    HW1 3173   3.292   1.945   4.094
  758SOL    HW2 3174   3.452   1.928   4.064
  759SOL     OW 3175   0.563   2.794   4.444
  759SOL    HW1 3176   0.583   2.736   4.365
  759SOL    HW2 3177   0.465   2.791   4.464
  760SOL     OW 3178   6.689   6.465   3.875
  760SOL    HW1 3179   6.708   6.380   3.826
  760SOL    HW2 3180   6.663   6.444   3.969
  761SOL     OW 3181   4.660   4.149   5.478
  761SOL    HW1 3182   4.619   4.155   5.569
  761SOL    HW2 3183   4.753   4.113   5.486
  762SOL     OW 3184   2.928   5.784   4.730
  762SOL    HW1 3185   2.863   5.794   4.805
  762SOL    HW2 3186   2.910   5.698   4.682
  763SOL     OW 3187   5.649   0.962   6.520
  763SOL    HW1 3188   5.612   0.890   6.578
  763SOL    HW2 3189   5.664   1.044   6.576
  764SOL     OW 3190   5.246   6.568   5.058
  764SOL    HW1 3191   5.210   6.659   5.038
  764SOL    HW2 3192   5.190   6.499   5.012
  765SOL     OW 3193   0.521   6.599   0.595
  765SOL    HW1 3194   0.498   6.694   0.614
  765SOL    HW2 3195   0.444   6.540   0.622
  766SOL     OW 3196   1.431   2.603   5.280
  766SOL    HW1 3197   1.491   2.576   5.204
  766SOL    HW2 3198   1.440   2.536   5.354
  767SOL     OW 3199   0.576   6.708   4.216
  767SOL    HW1 3200   0.665   6.673   4.248
  767SOL    HW2 3201   0.591   6.777   4.146
  768SOL     OW 3202   2.550   6.129   2.581
  768SOL    HW1 3203   2.624   6.062   2.593
  768SOL    HW2 3204   2.470   6.100   2.633
  769SOL     OW 3205   2.988   2.083   5.177
  769SOL    HW1 3206   2.902   2.130   5.197
  769SOL    HW2 3207   3.057   2.150   5.150
  770SOL     OW 3208   1.834   4.662   4.581
  770SOL    HW1 3209   1.783   4.732   4.632
  770SOL    HW2 3210   1.848   4.582   4.640
  771SOL     OW 3211   1.197   5.782   3.289
  771SOL    HW1 3212   1.188   5.770   3.387
  771SOL    HW2 3213   1.250   5.865   3.271
  772SOL     OW 3214   5.375   4.661   6.983
  772SOL    HW1 3215   5.440   4.606   6.931
  772SOL    HW2 3216   5.283   4.624   6.972
  773SOL     OW 3217   0.674   3.495   3.800
  773SOL    HW1 3218   0.580   3.467   3.783
  773SOL    HW2 3219   0.675   3.585   3.842
  774SOL     OW 3220   2.571   0.633   3.238
  774SOL    HW1 3221   2.504   0.566   3.271
  774SOL    HW2 3222   2.568   0.637   3.138
  775SOL     OW 3223   2.289   4.300   4.181
  775SOL    HW1 3224   2.247   4.295   4.090
  775SOL    HW2 3225   2.269   4.216   4.232
  776SOL     OW 3226   2.439   6.211   6.362
  776SOL    HW1 3227   2.450   6.122   6.317
  776SOL    HW2 3228   2.341   6.228   6.377
  777SOL     OW 3229   2.130   3.765   6.898
  777SOL    HW1 3230   2.129   3.835   6.827
  777SOL    HW2 3231   2.187   3.688   6.870
  778SOL     OW 3232   3.289   6.770   1.605
  778SOL    HW1 3233   3.299   6.752   1.702
  778SOL    HW2 3234   3.312   6.688   1.553
  779SOL     OW 3235   0.449   2.106   2.860
  779SOL    HW1 3236   0.475   2.198   2.888
  779SOL    HW2 3237   0.532   2.051   2.846
  780SOL     OW 3238   1.456   1.696   5.526
  780SOL    HW1 3239   1.469   1.602   5.495
  780SOL    HW2 3240   1.443   1.756   5.447
  781SOL     OW 3241   0.699   3.991   0.804
  781SOL    HW1 3242   0.780   3.934   0.821
  781SOL    HW2 3243   0.722   4.063   0.739
  782SOL     OW 3244   1.583   3.558   5.555
  782SOL    HW1 3245   1.663   3.606   5.521
  782SOL    HW2 3246   1.610   3.495   5.628
  783SOL     OW 3247   5.661   4.532   6.601
  783SOL    HW1 3248   5.641   4.619   6.646
  783SOL    HW2 3249   5.758   4.511   6.610
  784SOL     OW 3250   3.184   6.510   0.710
  784SOL    HW1 3251   3.140   6.421   0.719
  784SOL    HW2 3252   3.232   6.533   0.795
  785SOL     OW 3253   0.832   6.970   4.642
  785SOL    HW1 3254   0.822   6.924   4.554
  785SOL    HW2 3255   0.889   0.024   4.630
  786SOL     OW 3256   6.738   1.263   3.060
  786SOL    HW1 3257   6.834   1.234   3.068
  786SOL    HW2 3258   6.689   1.237   3.143
  787SOL     OW 3259   2.716   0.132   0.704
  787SOL    HW1 3260   2.791   0.070   0.682
  787SOL    HW2 3261   2.692   0.186   0.624
  788SOL     OW 3262   3.640   3.358   1.199
  788SOL    HW1 3263   3.722   3.323   1.245
  788SOL    HW2 3264   3.561   3.348   1.259
  789SOL     OW 3265   4.591   5.535   1.562
  789SOL    HW1 3266   4.620   5.526   1.657
  789SOL    HW2 3267   4.609   5.449   1.513
  790SOL     OW 3268   0.801   3.307   2.555
  790SOL    HW1 3269   0.809   3.332   2.458
  790SOL    HW2 3270   0.883   3.259   2.584
  791SOL     OW 3271   3.076   5.185   4.704
  791SOL    HW1 3272   3.036   5.192   4.795
  791SOL    HW2 3273   3.176   5.183   4.711
  792SOL     OW 3274   1.085   1.397   0.990
  792SOL    HW1 3275   1.017   1.323   0.986
  792SOL    HW2 3276   1.164   1.367   1.042
  793SOL     OW 3277   3.304   6.128   4.023
  793SOL    HW1 3278   3.303   6.029   4.032
  793SOL    HW2 3279   3.242   6.155   3.949
  794SOL     OW 3280   3.608   3.319   3.475
  794SOL    HW1 3281   3.592   3.416   3.460
  794SOL    HW2 3282   3.584   3.268   3.392
  795SOL     OW 3283   3.954   0.125   6.270
  795SOL    HW1 3284   3.867   0.136   6.222
  795SOL    HW2 3285   4.009   0.055   6.224
  796SOL     OW 3286   1.335   3.457   6.736
  796SOL    HW1 3287   1.263   3.388   6.740
  796SOL    HW2 3288   1.416   3.425   6.786
  797SOL     OW 3289   4.875   6.717   1.027
  797SOL    HW1 3290   4.935   6.796   1.030
  797SOL    HW2 3291   4.916   6.642   1.080
  798SOL     OW 3292   3.877   6.641   0.204
  798SOL    HW1 3293   3.825   6.693   0.272
  798SOL    HW2 3294   3.975   6.657   0.219
  799SOL     OW 3295   1.518   2.328   6.576
  799SOL    HW1 3296   1.548   2.423   6.576
  799SOL    HW2 3297   1.510   2.295   6.670
  800SOL     OW 3298   6.343   2.090   1.492
  800SOL    HW1 3299   6.309   2.046   1.575
  800SOL    HW2 3300   6.340   2.024   1.417
  801SOL     OW 3301   1.847   5.409   5.458
  801SOL    HW1 3302   1.825   5.381   5.551
  801SOL    HW2 3303   1.864   5.329   5.402
  802SOL     OW 3304   5.873   3.037   7.026
  802SOL    HW1 3305   5.888   2.989   0.085
  802SOL    HW2 3306   5.856   2.970   6.953
  803SOL     OW 3307   2.291   1.560   5.458
  803SOL    HW1 3308   2.201   1.589   5.491
  803SOL    HW2 3309   2.351   1.640   5.449
  804SOL     OW 3310   6.544   0.418   1.871
  804SOL    HW1 3311   6.571   0.491   1.934
  804SOL    HW2 3312   6.465   0.370   1.909
  805SOL     OW 3313   3.598   0.374   3.787
  805SOL    HW1 3314   3.685   0.333   3.814
  805SOL    HW2 3315   3.610   0.472   3.774
  806SOL     OW 3316   1.875   6.243   5.370
  806SOL    HW1 3317   1.945   6.247   5.441
  806SOL    HW2 3318   1.787   6.274   5.407
  807SOL     OW 3319   0.819   6.277   5.741
  807SOL    HW1 3320   0.848   6.274   5.836
  807SOL    HW2 3321   0.898   6.293   5.682
  808SOL     OW 3322   5.618   2.765   0.461
  808SOL    HW1 3323   5.589   2.798   0.551
  808SOL    HW2 3324   5.663   2.840   0.411
  809SOL     OW 3325   1.193   4.905   0.194
  809SOL    HW1 3326   1.226   4.819   0.156
  809SOL    HW2 3327   1.105   4.890   0.241
  810SOL     OW 3328   3.231   3.801   0.258
  810SOL    HW1 3329   3.279   3.889   0.250
  810SOL    HW2 3330   3.247   3.748   0.175
  811SOL     OW 3331   5.458   4.715   4.227
  811SOL    HW1 3332   5.476   4.784   4.296
  811SOL    HW2 3333   5.393   4.751   4.160
  812SOL     OW 3334   0.658   2.518   1.833
  812SOL    HW1 3335   0.651   2.601   1.779
  812SOL    HW2 3336   0.670   2.439   1.772
  813SOL     OW 3337   1.387   1.813   5.068
  813SOL    HW1 3338   1.348   1.892   5.020
  813SOL    HW2 3339   1.395   1.736   5.004
  814SOL     OW 3340   1.054   5.302   3.416
  814SOL    HW1 3341   1.077   5.221   3.470
  814SOL    HW2 3342   0.976   5.282   3.357
  815SOL     OW 3343   4.792   2.236   3.615
  815SOL    HW1 3344   4.858   2.192   3.554
  815SOL    HW2 3345   4.711   2.179   3.623
  816SOL     OW 3346   5.580   3.596   6.985
  816SOL    HW1 3347   5.541   3.685   6.960
  816SOL    HW2 3348   5.536   3.563   0.041
  817SOL     OW 3349   0.948   4.932   6.799
  817SOL    HW1 3350   1.034   4.893   6.765
  817SOL    HW2 3351   0.879   4.928   6.727
  818SOL     OW 3352   6.095   2.605   3.908
  818SOL    HW1 3353   6.088   2.507   3.891
  818SOL    HW2 3354   6.127   2.621   4.001
  819SOL     OW 3355   5.062   2.626   2.249
  819SOL    HW1 3356   5.079   2.702   2.186
  819SOL    HW2 3357   5.039   2.662   2.339
  820SOL     OW 3358   2.739   1.936   5.408
  820SOL    HW1 3359   2.821   1.933   5.464
  820SOL    HW2 3360   2.736   1.855   5.348
  821SOL     OW 3361   5.510   3.931   5.093
  821SOL    HW1 3362   5.499   3.843   5.047
  821SOL    HW2 3363   5.601   3.968   5.074
  822SOL     OW 3364   0.500   4.482   3.428
  822SOL    HW1 3365   0.537   4.445   3.513
  822SOL    HW2 3366   0.526   4.422   3.352
  823SOL     OW 3367   0.649   3.663   5.857
  823SOL    HW1 3368   0.665   3.616   5.943
  823SOL    HW2 3369   0.583   3.611   5.802
  824SOL     OW 3370   5.704   1.284   5.611
  824SOL    HW1 3371   5.616   1.309   5.652
  824SOL    HW2 3372   5.778   1.328   5.662
  825SOL     OW 3373   7.026   5.959   0.900
  825SOL    HW1 3374   0.062   6.035   0.908
  825SOL    HW2 3375   0.047   5.873   0.908
  826SOL     OW 3376   3.851   0.995   5.417
  826SOL    HW1 3377   3.859   0.964   5.512
  826SOL    HW2 3378   3.755   1.014   5.396
  827SOL     OW 3379   3.377   3.780   4.122
  827SOL    HW1 3380   3.348   3.684   4.117
  827SOL    HW2 3381   3.304   3.839   4.088
  828SOL     OW 3382   6.189   5.537   5.145
  828SOL    HW1 3383   6.124   5.552   5.069
  828SOL    HW2 3384   6.138   5.513   5.228
  829SOL     OW 3385   3.132   3.048   2.629
  829SOL    HW1 3386   3.103   2.987   2.702
  829SOL    HW2 3387   3.119   3.002   2.540
  830SOL     OW 3388   6.553   4.892   0.307
  830SOL    HW1 3389   6.612   4.964   0.270
  830SOL    HW2 3390   6.518   4.836   0.233
  831SOL     OW 3391   5.812   6.464   1.194
  831SOL    HW1 3392   5.882   6.409   1.239
  831SOL    HW2 3393   5.834   6.475   1.097
  832SOL     OW 3394   3.280   2.128   4.845
  832SOL    HW1 3395   3.221   2.055   4.811
  832SOL    HW2 3396   3.226   2.193   4.898
  833SOL     OW 3397   1.956   3.252   6.462
  833SOL    HW1 3398   1.933   3.226   6.368
  833SOL    HW2 3399   1.875   3.290   6.506
  834SOL     OW 3400   4.994   3.752   6.719
  834SOL    HW1 3401   4.938   3.689   6.773
  834SOL    HW2 3402   5.086   3.716   6.710
  835SOL     OW 3403   0.903   6.598   4.720
  835SOL    HW1 3404   0.827   6.618   4.782
  835SOL    HW2 3405   0.904   6.501   4.699
  836SOL     OW 3406   3.279   1.296   4.907
  836SOL    HW1 3407   3.364   1.334   4.942
  836SOL    HW2 3408   3.279   1.197   4.919
  837SOL     OW 3409   1.405   0.709   0.679
  837SOL    HW1 3410   1.394   0.733   0.583
  837SOL    HW2 3411   1.497   0.734   0.710
  838SOL     OW 3412   1.896   5.733   3.279
  838SOL    HW1 3413   1.968   5.677   3.319
  838SOL    HW2 3414   1.818   5.737   3.341
  839SOL     OW 3415   1.734   1.598   0.920
  839SOL    HW1 3416   1.681   1.645   0.849
  839SOL    HW2 3417   1.739   1.656   1.002
  840SOL     OW 3418   4.927   5.983   0.246
  840SOL    HW1 3419   4.961   6.056   0.187
  840SOL    HW2 3420   4.861   5.928   0.195
  841SOL     OW 3421   3.983   4.970   5.843
  841SOL    HW1 3422   3.923   5.025   5.900
  841SOL    HW2 3423   4.078   4.982   5.873
  842SOL     OW 3424   3.202   0.376   0.102
  842SOL    HW1 3425   3.193   0.305   0.033
  842SOL    HW2 3426   3.120   0.433   0.102
  843SOL     OW 3427   1.537   1.769   2.156
  843SOL    HW1 3428   1.456   1.787   2.214
  843SOL    HW2 3429   1.578   1.856   2.129
  844SOL     OW 3430   6.329   6.819   1.105
  844SOL    HW1 3431   6.405   6.859   1.157
  844SOL    HW2 3432   6.246   6.823   1.160
  845SOL     OW 3433   3.606   1.498   2.548
  845SOL    HW1 3434   3.641   1.419   2.598
  845SOL    HW2 3435   3.653   1.581   2.579
  846SOL     OW 3436   2.931   1.683   0.309
  846SOL    HW1 3437   2.984   1.609   0.266
  846SOL    HW2 3438   2.976   1.710   0.394
  847SOL     OW 3439   2.403   4.687   1.342
  847SOL    HW1 3440   2.440   4.647   1.427
  847SOL    HW2 3441   2.382   4.783   1.357
  848SOL     OW 3442   6.853   6.280   6.374
  848SOL    HW1 3443   6.875   6.358   6.316
  848SOL    HW2 3444   6.925   6.211   6.367
  849SOL     OW 3445   5.959   4.300   0.375
  849SOL    HW1 3446   6.037   4.363   0.378
  849SOL    HW2 3447   5.881   4.345   0.330
  850SOL     OW 3448   0.254   0.486   5.726
  850SOL    HW1 3449   0.291   0.527   5.643
  850SOL    HW2 3450   0.253   0.554   5.799
  851SOL     OW 3451   6.709   3.121   6.028
  851SOL    HW1 3452   6.697   3.170   6.114
  851SOL    HW2 3453   6.691   3.182   5.952
  852SOL     OW 3454   0.086   3.753   2.213
  852SOL    HW1 3455   0.162   3.708   2.259
  852SOL    HW2 3456   0.033   3.684   2.162
  853SOL     OW 3457   2.320   3.964   0.133
  853SOL    HW1 3458   2.414   3.933   0.124
  853SOL    HW2 3459   2.292   4.010   0.049
  854SOL     OW 3460   5.530   6.517   6.512
  854SOL    HW1 3461   5.596   6.444   6.530
  854SOL    HW2 3462   5.487   6.546   6.597
  855SOL     OW 3463   5.934   0.775   0.357
  855SOL    HW1 3464   5.906   0.838   0.429
  855SOL    HW2 3465   5.928   0.681   0.390
  856SOL     OW 3466   2.069   6.470   0.148
  856SOL    HW1 3467   2.061   6.560   0.105
  856SOL    HW2 3468   2.063   6.399   0.078
  857SOL     OW 3469   6.554   5.180   4.712
  857SOL    HW1 3470   6.466   5.227   4.705
  857SOL    HW2 3471   6.543   5.084   4.685
  858SOL     OW 3472   3.658   3.716   0.537
  858SOL    HW1 3473   3.739   3.659   0.548
  858SOL    HW2 3474   3.678   3.808   0.572
  859SOL     OW 3475   4.208   6.912   5.078
  859SOL    HW1 3476   4.255   6.917   4.990
  859SOL    HW2 3477   4.261   6.854   5.140
  860SOL     OW 3478   5.461   3.159   5.888
  860SOL    HW1 3479   5.515   3.243   5.887
  860SOL    HW2 3480   5.365   3.181   5.872
  861SOL     OW 3481   2.140   6.307   2.582
  861SOL    HW1 3482   2.060   6.299   2.640
  861SOL    HW2 3483   2.138   6.395   2.534
  862SOL     OW 3484   1.568   4.568   3.639
  862SOL    HW1 3485   1.586   4.473   3.664
  862SOL    HW2 3486   1.582   4.579   3.540
  863SOL     OW 3487   0.075   0.910   6.690
  863SOL    HW1 3488   0.138   0.977   6.729
  863SOL    HW2 3489   0.127   0.833   6.653
  864SOL     OW 3490   5.088   0.134   5.432
  864SOL    HW1 3491   5.040   0.177   5.509
  864SOL    HW2 3492   5.022   0.092   5.371
  865SOL     OW 3493   1.729   5.897   4.579
  865SOL    HW1 3494   1.708   5.990   4.610
  865SOL    HW2 3495   1.824   5.892   4.549
  866SOL     OW 3496   2.466   6.204   2.030
  866SOL    HW1 3497   2.442   6.251   2.115
  866SOL    HW2 3498   2.385   6.159   1.993
  867SOL     OW 3499   5.496   2.169   0.070
  867SOL    HW1 3500   5.595   2.171   0.061
  867SOL    HW2 3501   5.469   2.094   0.131
  868SOL     OW 3502   6.741   2.220   2.228
  868SOL    HW1 3503   6.813   2.173   2.177
  868SOL    HW2 3504   6.727   2.175   2.316
  869SOL     OW 3505   0.141   3.779   3.540
  869SOL    HW1 3506   0.169   3.870   3.571
  869SOL    HW2 3507   0.128   3.719   3.619
  870SOL     OW 3508   3.499   5.256   1.480
  870SOL    HW1 3509   3.491   5.236   1.577
  870SOL    HW2 3510   3.458   5.182   1.426
  871SOL     OW 3511   4.769   1.813   3.422
  871SOL    HW1 3512   4.736   1.845   3.511
  871SOL    HW2 3513   4.716   1.733   3.394
  872SOL     OW 3514   6.904   2.800   4.584
  872SOL    HW1 3515   6.958   2.777   4.664
  872SOL    HW2 3516   6.809   2.770   4.597
  873SOL     OW 3517   4.301   6.377   6.025
  873SOL    HW1 3518   4.235   6.369   6.099
  873SOL    HW2 3519   4.391   6.346   6.057
  874SOL     OW 3520   5.174   4.099   0.674
  874SOL    HW1 3521   5.165   4.034   0.599
  874SOL    HW2 3522   5.215   4.054   0.753
  875SOL     OW 3523   4.939   5.503   0.949
  875SOL    HW1 3524   5.027   5.467   0.979
  875SOL    HW2 3525   4.937   5.510   0.849
  876SOL     OW 3526   0.406   5.905   2.021
  876SOL    HW1 3527   0.337   5.843   2.060
  876SOL    HW2 3528   0.363   5.993   2.001
  877SOL     OW 3529   2.981   4.501   6.780
  877SOL    HW1 3530   3.023   4.526   6.867
  877SOL    HW2 3531   2.882   4.515   6.786
  878SOL     OW 3532   4.169   6.764   4.055
  878SOL    HW1 3533   4.077   6.755   4.016
  878SOL    HW2 3534   4.236   6.773   3.981
  879SOL     OW 3535   4.717   0.257   0.198
  879SOL    HW1 3536   4.682   0.351   0.201
  879SOL    HW2 3537   4.810   0.258   0.162
  880SOL     OW 3538   3.071   3.492   3.087
  880SOL    HW1 3539   3.012   3.558   3.134
  880SOL    HW2 3540   3.035   3.475   2.995
  881SOL     OW 3541   4.701   2.455   5.853
  881SOL    HW1 3542   4.640   2.520   5.898
  881SOL    HW2 3543   4.678   2.362   5.881
  882SOL     OW 3544   0.749   3.580   5.276
  882SOL    HW1 3545   0.808   3.632   5.338
  882SOL    HW2 3546   0.804   3.510   5.228
  883SOL     OW 3547   3.242   0.527   2.893
  883SOL    HW1 3548   3.232   0.446   2.834
  883SOL    HW2 3549   3.201   0.508   2.982
  884SOL     OW 3550   4.841   2.959   5.137
  884SOL    HW1 3551   4.887   3.045   5.114
  884SOL    HW2 3552   4.803   2.965   5.229
  885SOL     OW 3553   3.226   1.349   5.713
  885SOL    HW1 3554   3.312   1.310   5.680
  885SOL    HW2 3555   3.217   1.330   5.811
  886SOL     OW 3556   3.567   0.922   0.113
  886SOL    HW1 3557   3.575   1.022   0.113
  886SOL    HW2 3558   3.638   0.883   0.054
  887SOL     OW 3559   4.120   0.760   3.718
  887SOL    HW1 3560   4.211   0.720   3.703
  887SOL    HW2 3561   4.125   0.859   3.703
  888SOL     OW 3562   0.638   0.592   3.180
  888SOL    HW1 3563   0.595   0.631   3.099
  888SOL    HW2 3564   0.619   0.494   3.184
  889SOL     OW 3565   0.694   4.194   6.678
  889SOL    HW1 3566   0.768   4.139   6.640
  889SOL    HW2 3567   0.624   4.133   6.717
  890SOL     OW 3568   1.997   5.698   3.763
  890SOL    HW1 3569   1.941   5.752   3.700
  890SOL    HW2 3570   1.983   5.732   3.857
  891SOL     OW 3571   5.303   5.361   0.793
  891SOL    HW1 3572   5.363   5.291   0.830
  891SOL    HW2 3573   5.297   5.438   0.858
  892SOL     OW 3574   2.291   4.176   5.727
  892SOL    HW1 3575   2.228   4.219   5.663
  892SOL    HW2 3576   2.359   4.123   5.677
  893SOL     OW 3577   2.375   6.394   3.213
  893SOL    HW1 3578   2.469   6.428   3.208
  893SOL    HW2 3579   2.344   6.395   3.308
  894SOL     OW 3580   1.481   3.878   1.537
  894SOL    HW1 3581   1.528   3.948   1.483
  894SOL    HW2 3582   1.385   3.872   1.507
  895SOL     OW 3583   0.511   5.325   3.182
  895SOL    HW1 3584   0.504   5.416   3.224
  895SOL    HW2 3585   0.593   5.279   3.215
  896SOL     OW 3586   6.486   5.537   6.977
  896SOL    HW1 3587   6.482   5.468   0.022
  896SOL    HW2 3588   6.393   5.562   6.949
  897SOL     OW 3589   5.242   0.967   0.443
  897SOL    HW1 3590   5.271   0.974   0.539
  897SOL    HW2 3591   5.142   0.969   0.438
  898SOL     OW 3592   3.326   5.280   2.906
  898SOL    HW1 3593   3.376   5.364   2.884
  898SOL    HW2 3594   3.237   5.303   2.946
  899SOL     OW 3595   1.029   5.230   6.164
  899SOL    HW1 3596   1.053   5.200   6.256
  899SOL    HW2 3597   1.012   5.150   6.106
  900SOL     OW 3598   5.997   6.648   6.951
  900SOL    HW1 3599   5.952   6.675   0.008
  900SOL    HW2 3600   6.009   6.549   6.949
  901SOL     OW 3601   1.861   0.535   2.363
  901SOL    HW1 3602   1.933   0.466   2.359
  901SOL    HW2 3603   1.902   0.626   2.359
  902SOL     OW 3604   5.941   3.365   0.601
  902SOL    HW1 3605   5.974   3.421   0.524
  902SOL    HW2 3606   5.871   3.302   0.568
  903SOL     OW 3607   0.096   2.260   6.758
  903SOL    HW1 3608   0.133   2.218   6.675
  903SOL    HW2 3609   0.086   2.358   6.745
  904SOL     OW 3610   3.011   2.193   3.841
  904SOL    HW1 3611   2.984   2.203   3.745
  904SOL    HW2 3612   2.930   2.170   3.896
  905SOL     OW 3613   5.763   2.663   0.250
  905SOL    HW1 3614   5.668   2.670   0.280
  905SOL    HW2 3615   5.815   2.612   0.318
  906SOL     OW 3616   0.649   2.269   5.839
  906SOL    HW1 3617   0.733   2.293   5.887
  906SOL    HW2 3618   0.660   2.288   5.741
  907SOL     OW 3619   5.205   3.725   7.013
  907SOL    HW1 3620   5.218   3.699   6.917
  907SOL    HW2 3621   5.138   3.663   0.027
  908SOL     OW 3622   2.791   4.752   2.215
  908SOL    HW1 3623   2.751   4.716   2.131
  908SOL    HW2 3624   2.891   4.748   2.209
  909SOL     OW 3625   4.379   5.072   6.239
  909SOL    HW1 3626   4.474   5.102   6.232
  909SOL    HW2 3627   4.348   5.082   6.334
  910SOL     OW 3628   2.574   2.773   1.751
  910SOL    HW1 3629   2.625   2.847   1.708
  910SOL    HW2 3630   2.630   2.690   1.754
  911SOL     OW 3631   1.932   6.024   6.100
  911SOL    HW1 3632   2.027   6.024   6.131
  911SOL    HW2 3633   1.876   5.973   6.166
  912SOL     OW 3634   5.158   3.104   3.523
  912SOL    HW1 3635   5.155   3.158   3.439
  912SOL    HW2 3636   5.145   3.007   3.501
  913SOL     OW 3637   5.308   6.488   3.215
  913SOL    HW1 3638   5.285   6.520   3.307
  913SOL    HW2 3639   5.390   6.431   3.219
  914SOL     OW 3640   2.632   0.136   6.595
  914SOL    HW1 3641   2.702   0.161   6.663
  914SOL    HW2 3642   2.542   0.160   6.631
  915SOL     OW 3643   6.047   5.580   0.718
  915SOL    HW1 3644   5.965   5.638   0.723
  915SOL    HW2 3645   6.079   5.560   0.811
  916SOL     OW 3646   0.842   2.485   2.517
  916SOL    HW1 3647   0.895   2.472   2.433
  916SOL    HW2 3648   0.784   2.566   2.507
  917SOL     OW 3649   0.474   6.884   0.590
  917SOL    HW1 3650   0.554   6.916   0.539
  917SOL    HW2 3651   0.395   6.877   0.529
  918SOL     OW 3652   1.958   6.170   0.915
  918SOL    HW1 3653   1.871   6.171   0.963
  918SOL    HW2 3654   2.029   6.210   0.973
  919SOL     OW 3655   5.864   1.579   3.361
  919SOL    HW1 3656   5.859   1.644   3.286
  919SOL    HW2 3657   5.891   1.627   3.445
  920SOL     OW 3658   2.493   4.801   1.714
  920SOL    HW1 3659   2.452   4.712   1.690
  920SOL    HW2 3660   2.420   4.865   1.738
  921SOL     OW 3661   5.180   5.888   4.373
  921SOL    HW1 3662   5.260   5.943   4.398
  921SOL    HW2 3663   5.210   5.800   4.338
  922SOL     OW 3664   3.645   3.860   4.124
  922SOL    HW1 3665   3.550   3.829   4.122
  922SOL    HW2 3666   3.693   3.816   4.199
  923SOL     OW 3667   1.818   2.553   5.404
  923SOL    HW1 3668   1.905   2.528   5.361
  923SOL    HW2 3669   1.782   2.474   5.454
  924SOL     OW 3670   6.701   3.852   2.210
  924SOL    HW1 3671   6.737   3.791   2.280
  924SOL    HW2 3672   6.630   3.910   2.251
  925SOL     OW 3673   5.924   1.766   0.164
  925SOL    HW1 3674   5.890   1.732   0.252
  925SOL    HW2 3675   5.940   1.689   0.103
  926SOL     OW 3676   0.612   1.745   2.236
  926SOL    HW1 3677   0.518   1.751   2.202
  926SOL    HW2 3678   0.617   1.675   2.308
  927SOL     OW 3679   5.724   3.960   3.751
  927SOL    HW1 3680   5.671   3.999   3.675
  927SOL    HW2 3681   5.672   3.884   3.791
  928SOL     OW 3682   3.382   5.913   6.738
  928SOL    HW1 3683   3.377   5.815   6.722
  928SOL    HW2 3684   3.402   5.960   6.652
  929SOL     OW 3685   6.374   1.422   5.682
  929SOL    HW1 3686   6.414   1.346   5.631
  929SOL    HW2 3687   6.428   1.439   5.764
  930SOL     OW 3688   4.916   5.119   6.223
  930SOL    HW1 3689   4.951   5.027   6.237
  930SOL    HW2 3690   4.949   5.179   6.295
  931SOL     OW 3691   6.263   2.662   3.427
  931SOL    HW1 3692   6.265   2.617   3.338
  931SOL    HW2 3693   6.327   2.739   3.427
  932SOL     OW 3694   3.981   0.579   3.558
  932SOL    HW1 3695   3.991   0.491   3.605
  932SOL    HW2 3696   4.056   0.640   3.585
  933SOL     OW 3697   1.625   4.925   2.922
  933SOL    HW1 3698   1.634   5.010   2.973
  933SOL    HW2 3699   1.621   4.945   2.824
  934SOL     OW 3700   1.907   5.334   6.400
  934SOL    HW1 3701   1.985   5.294   6.448
  934SOL    HW2 3702   1.856   5.393   6.462
  935SOL     OW 3703   5.751   3.519   3.219
  935SOL    HW1 3704   5.682   3.581   3.181
  935SOL    HW2 3705   5.706   3.441   3.262
  936SOL     OW 3706   1.570   0.585   6.254
  936SOL    HW1 3707   1.550   0.670   6.303
  936SOL    HW2 3708   1.668   0.581   6.233
  937SOL     OW 3709   4.763   0.681   5.406
  937SOL    HW1 3710   4.710   0.672   5.491
  937SOL    HW2 3711   4.833   0.751   5.418
  938SOL     OW 3712   6.789   5.476   4.338
  938SOL    HW1 3713   6.757   5.466   4.432
  938SOL    HW2 3714   6.881   5.438   4.329
  939SOL     OW 3715   6.984   0.027   5.058
  939SOL    HW1 3716   6.988   6.990   5.134
  939SOL    HW2 3717   6.913   7.024   4.993
  940SOL     OW 3718   2.260   5.122   0.623
  940SOL    HW1 3719   2.175   5.116   0.677
  940SOL    HW2 3720   2.334   5.075   0.671
  941SOL     OW 3721   3.886   0.274   6.814
  941SOL    HW1 3722   3.925   0.184   6.834
  941SOL    HW2 3723   3.860   0.278   6.718
  942SOL     OW 3724   0.110   5.507   0.509
  942SOL    HW1 3725   0.020   5.523   0.549
  942SOL    HW2 3726   0.175   5.572   0.547
  943SOL     OW 3727   3.036   4.896   2.610
  943SOL    HW1 3728   3.028   4.951   2.693
  943SOL    HW2 3729   3.130   4.863   2.601
  944SOL     OW 3730   0.838   6.639   4.286
  944SOL    HW1 3731   0.861   6.626   4.190
  944SOL    HW2 3732   0.875   6.563   4.339
  945SOL     OW 3733   1.016   5.696   5.889
  945SOL    HW1 3734   0.999   5.705   5.791
  945SOL    HW2 3735   1.063   5.777   5.923
  946SOL     OW 3736   4.704   4.280   3.635
  946SOL    HW1 3737   4.688   4.228   3.719
  946SOL    HW2 3738   4.797   4.317   3.636
  947SOL     OW 3739   3.554   4.165   4.000
  947SOL    HW1 3740   3.467   4.171   4.048
  947SOL    HW2 3741   3.627   4.203   4.057
  948SOL     OW 3742   4.598   1.567   2.482
  948SOL    HW1 3743   4.568   1.519   2.399
  948SOL    HW2 3744   4.572   1.514   2.562
  949SOL     OW 3745   3.123   6.519   6.910
  949SOL    HW1 3746   3.030   6.547   6.934
  949SOL    HW2 3747   3.138   6.536   6.812
  950SOL     OW 3748   6.921   6.229   2.464
  950SOL    HW1 3749   6.865   6.220   2.547
  950SOL    HW2 3750   6.994   6.295   2.480
  951SOL     OW 3751   1.557   0.348   3.606
  951SOL    HW1 3752   1.623   0.408   3.652
  951SOL    HW2 3753   1.597   0.257   3.595
  952SOL     OW 3754   4.009   1.627   1.975
  952SOL    HW1 3755   3.971   1.661   2.061
  952SOL    HW2 3756   3.971   1.679   1.899
  953SOL     OW 3757   6.924   5.262   5.118
  953SOL    HW1 3758   6.944   5.180   5.171
  953SOL    HW2 3759   6.874   5.237   5.035
  954SOL     OW 3760   4.835   5.867   2.734
  954SOL    HW1 3761   4.793   5.815   2.808
  954SOL    HW2 3762   4.858   5.806   2.659
  955SOL     OW 3763   1.096   4.449   6.642
  955SOL    HW1 3764   1.107   4.365   6.694
  955SOL    HW2 3765   1.182   4.501   6.642
  956SOL     OW 3766   6.517   0.477   1.178
  956SOL    HW1 3767   6.465   0.394   1.155
  956SOL    HW2 3768   6.566   0.509   1.097
  957SOL     OW 3769   6.253   2.294   3.653
  957SOL    HW1 3770   6.166   2.312   3.698
  957SOL    HW2 3771   6.237   2.257   3.562
  958SOL     OW 3772   5.666   6.766   2.158
  958SOL    HW1 3773   5.582   6.717   2.137
  958SOL    HW2 3774   5.740   6.734   2.098
  959SOL     OW 3775   3.746   6.734   3.789
  959SOL    HW1 3776   3.667   6.795   3.789
  959SOL    HW2 3777   3.717   6.641   3.808
  960SOL     OW 3778   1.087   0.336   0.151
  960SOL    HW1 3779   1.015   0.364   0.215
  960SOL    HW2 3780   1.059   0.360   0.058
  961SOL     OW 3781   3.444   6.464   2.896
  961SOL    HW1 3782   3.428   6.534   2.826
  961SOL    HW2 3783   3.368   6.400   2.897
  962SOL     OW 3784   6.458   7.020   4.942
  962SOL    HW1 3785   6.444   7.001   4.845
  962SOL    HW2 3786   6.378   6.990   4.994
  963SOL     OW 3787   4.755   2.685   1.177
  963SOL    HW1 3788   4.760   2.747   1.098
  963SOL    HW2 3789   4.665   2.692   1.219
  964SOL     OW 3790   5.110   4.262   5.021
  964SOL    HW1 3791   5.034   4.266   4.956
  964SOL    HW2 3792   5.121   4.169   5.054
  965SOL     OW 3793   5.686   2.545   3.436
  965SOL    HW1 3794   5.589   2.545   3.412
  965SOL    HW2 3795   5.741   2.523   3.356
  966SOL     OW 3796   4.935   1.989   3.872
  966SOL    HW1 3797   4.968   1.941   3.952
  966SOL    HW2 3798   5.009   1.998   3.805
  967SOL     OW 3799   4.807   4.111   6.043
  967SOL    HW1 3800   4.737   4.156   5.987
  967SOL    HW2 3801   4.827   4.021   6.005
  968SOL     OW 3802   4.153   0.103   1.608
  968SOL    HW1 3803   4.181   0.186   1.656
  968SOL    HW2 3804   4.077   0.124   1.546
  969SOL     OW 3805   3.263   4.265   5.789
  969SOL    HW1 3806   3.320   4.303   5.716
  969SOL    HW2 3807   3.188   4.328   5.809
  970SOL     OW 3808   5.773   0.491   6.007
  970SOL    HW1 3809   5.835   0.425   6.048
  970SOL    HW2 3810   5.754   0.464   5.912
  971SOL     OW 3811   6.191   3.985   2.874
  971SOL    HW1 3812   6.260   4.041   2.920
  971SOL    HW2 3813   6.108   4.038   2.860
  972SOL     OW 3814   0.123   2.452   0.821
  972SOL    HW1 3815   0.025   2.432   0.817
  972SOL    HW2 3816   0.175   2.366   0.816
  973SOL     OW 3817   7.017   3.448   6.319
  973SOL    HW1 3818   6.967   3.519   6.269
  973SOL    HW2 3819   7.021   3.365   6.263
  974SOL     OW 3820   6.926   4.759   4.260
  974SOL    HW1 3821   6.979   4.837   4.293
  974SOL    HW2 3822   6.834   4.763   4.299
  975SOL     OW 3823   2.413   0.327   1.901
  975SOL    HW1 3824   2.402   0.375   1.989
  975SOL    HW2 3825   2.484   0.372   1.847
  976SOL     OW 3826   6.447   4.337   2.005
  976SOL    HW1 3827   6.440   4.299   2.097
  976SOL    HW2 3828   6.509   4.281   1.950
  977SOL     OW 3829   0.301   1.464   2.680
  977SOL    HW1 3830   0.265   1.532   2.616
  977SOL    HW2 3831   0.325   1.510   2.766
  978SOL     OW 3832   5.666   2.392   2.159
  978SOL    HW1 3833   5.646   2.486   2.186
  978SOL    HW2 3834   5.764   2.376   2.162
  979SOL     OW 3835   6.347   3.686   0.251
  979SOL    HW1 3836   6.293   3.766   0.276
  979SOL    HW2 3837   6.321   3.609   0.310
  980SOL     OW 3838   3.496   1.513   5.417
  980SOL    HW1 3839   3.593   1.524   5.397
  980SOL    HW2 3840   3.442   1.565   5.350
  981SOL     OW 3841   6.827   6.690   5.037
  981SOL    HW1 3842   6.878   6.656   4.958
  981SOL    HW2 3843   6.880   6.761   5.083
  982SOL     OW 3844   0.124   1.774   5.189
  982SOL    HW1 3845   0.119   1.674   5.194
  982SOL    HW2 3846   0.136   1.802   5.094
  983SOL     OW 3847   0.557   3.748   3.914
  983SOL    HW1 3848   0.608   3.785   3.992
  983SOL    HW2 3849   0.484   3.688   3.947
  984SOL     OW 3850   1.747   1.456   2.946
  984SOL    HW1 3851   1.678   1.395   2.986
  984SOL    HW2 3852   1.701   1.535   2.904
  985SOL     OW 3853   6.226   3.468   4.346
  985SOL    HW1 3854   6.233   3.566   4.331
  985SOL    HW2 3855   6.243   3.447   4.442
  986SOL     OW 3856   5.272   4.621   1.284
  986SOL    HW1 3857   5.368   4.626   1.312
  986SOL    HW2 3858   5.264   4.562   1.203
  987SOL     OW 3859   5.825   4.741   3.649
  987SOL    HW1 3860   5.906   4.767   3.598
  987SOL    HW2 3861   5.822   4.791   3.736
  988SOL     OW 3862   3.245   3.992   1.634
  988SOL    HW1 3863   3.256   4.074   1.690
  988SOL    HW2 3864   3.149   3.979   1.613
  989SOL     OW 3865   0.436   1.686   1.285
  989SOL    HW1 3866   0.356   1.727   1.243
  989SOL    HW2 3867   0.415   1.593   1.315
  990SOL     OW 3868   4.042   0.314   3.663
  990SOL    HW1 3869   4.002   0.224   3.679
  990SOL    HW2 3870   4.139   0.304   3.642
  991SOL     OW 3871   6.661   4.498   3.965
  991SOL    HW1 3872   6.655   4.415   3.909
  991SOL    HW2 3873   6.571   4.520   4.002
  992SOL     OW 3874   0.715   2.904   1.049
  992SOL    HW1 3875   0.674   2.951   0.971
  992SOL    HW2 3876   0.675   2.941   1.134
  993SOL     OW 3877   1.959   5.399   0.917
  993SOL    HW1 3878   1.902   5.394   0.999
  993SOL    HW2 3879   2.015   5.481   0.921
  994SOL     OW 3880   3.232   6.792   1.028
  994SOL    HW1 3881   3.283   6.877   1.035
  994SOL    HW2 3882   3.293   6.718   1.001
  995SOL     OW 3883   5.211   3.683   5.588
  995SOL    HW1 3884   5.171   3.591   5.593
  995SOL    HW2 3885   5.283   3.684   5.518
  996SOL     OW 3886   3.606   6.142   5.642
  996SOL    HW1 3887   3.644   6.129   5.550
  996SOL    HW2 3888   3.552   6.062   5.667
  997SOL     OW 3889   1.483   6.065   4.116
  997SOL    HW1 3890   1.474   6.017   4.029
  997SOL    HW2 3891   1.559   6.026   4.168
  998SOL     OW 3892   5.759   0.242   6.388
  998SOL    HW1 3893   5.787   0.148   6.410
  998SOL    HW2 3894   5.679   0.266   6.444
  999SOL     OW 3895   4.892   3.510   1.954
  999SOL    HW1 3896   4.856   3.496   2.046
  999SOL    HW2 3897   4.816   3.517   1.889
 1000SOL     OW 3898   3.765   1.631   1.611
 1000SOL    HW1 3899   3.728   1.666   1.525
 1000SOL    HW2 3900   3.828   1.699   1.650
 1001SOL     OW 3901   2.490   6.840   2.464
 1001SOL    HW1 3902   2.516   6.843   2.560
 1001SOL    HW2 3903   2.572   6.833   2.407
 1002SOL     OW 3904   5.640   3.028   1.402
 1002SOL    HW1 3905   5.604   2.962   1.336
 1002SOL    HW2 3906   5.698   2.980   1.468
 1003SOL     OW 3907   0.971   6.234   2.528
 1003SOL    HW1 3908   0.957   6.311   2.465
 1003SOL    HW2 3909   0.980   6.149   2.476
 1004SOL     OW 3910   5.097   1.684   3.780
 1004SOL    HW1 3911   5.191   1.688   3.745
 1004SOL    HW2 3912   5.098   1.658   3.876
 1005SOL     OW 3913   1.653   4.845   4.200
 1005SOL    HW1 3914   1.623   4.894   4.118
 1005SOL    HW2 3915   1.641   4.903   4.280
 1006SOL     OW 3916   2.007   3.622   0.498
 1006SOL    HW1 3917   1.999   3.720   0.482
 1006SOL    HW2 3918   2.002   3.573   0.410
 1007SOL     OW 3919   4.633   1.964   6.502
 1007SOL    HW1 3920   4.725   1.955   6.463
 1007SOL    HW2 3921   4.639   1.958   6.602
 1008SOL     OW 3922   0.573   4.386   5.056
 1008SOL    HW1 3923   0.638   4.342   4.994
 1008SOL    HW2 3924   0.480   4.358   5.032
 1009SOL     OW 3925   6.524   5.057   5.522
 1009SOL    HW1 3926   6.624   5.063   5.526
 1009SOL    HW2 3927   6.487   5.139   5.480
 1010SOL     OW 3928   2.203   3.665   1.275
 1010SOL    HW1 3929   2.253   3.612   1.343
 1010SOL    HW2 3930   2.235   3.640   1.183
 1011SOL     OW 3931   0.684   4.860   2.747
 1011SOL    HW1 3932   0.588   4.872   2.772
 1011SOL    HW2 3933   0.742   4.897   2.820
 1012SOL     OW 3934   5.947   0.232   2.453
 1012SOL    HW1 3935   5.868   0.292   2.470
 1012SOL    HW2 3936   6.030   0.276   2.485
 1013SOL     OW 3937   6.619   0.757   6.413
 1013SOL    HW1 3938   6.635   0.852   6.388
 1013SOL    HW2 3939   6.669   0.697   6.350
 1014SOL     OW 3940   0.777   4.823   4.393
 1014SOL    HW1 3941   0.869   4.817   4.431
 1014SOL    HW2 3942   0.781   4.866   4.303
 1015SOL     OW 3943   3.752   0.035   6.123
 1015SOL    HW1 3944   3.811   6.995   6.079
 1015SOL    HW2 3945   3.662   7.023   6.139
 1016SOL     OW 3946   5.357   4.079   1.706
 1016SOL    HW1 3947   5.265   4.042   1.722
 1016SOL    HW2 3948   5.400   4.099   1.794
 1017SOL     OW 3949   2.261   1.384   2.653
 1017SOL    HW1 3950   2.197   1.307   2.658
 1017SOL    HW2 3951   2.308   1.382   2.565
 1018SOL     OW 3952   0.387   4.870   3.708
 1018SOL    HW1 3953   0.381   4.897   3.612
 1018SOL    HW2 3954   0.298   4.884   3.752
 1019SOL     OW 3955   0.032   5.187   0.710
 1019SOL    HW1 3956   7.017   5.115   0.765
 1019SOL    HW2 3957   0.127   5.162   0.690
 1020SOL     OW 3958   0.159   0.143   1.057
 1020SOL    HW1 3959   0.209   0.059   1.037
 1020SOL    HW2 3960   0.124   0.139   1.151
 1021SOL     OW 3961   6.502   5.812   1.850
 1021SOL    HW1 3962   6.486   5.790   1.754
 1021SOL    HW2 3963   6.414   5.823   1.897
 1022SOL     OW 3964   2.720   6.412   6.065
 1022SOL    HW1 3965   2.739   6.319   6.094
 1022SOL    HW2 3966   2.710   6.415   5.966
 1023SOL     OW 3967   0.367   1.717   3.341
 1023SOL    HW1 3968   0.416   1.721   3.428
 1023SOL    HW2 3969   0.295   1.787   3.340
 1024SOL     OW 3970   1.225   1.970   4.908
 1024SOL    HW1 3971   1.134   1.988   4.945
 1024SOL    HW2 3972   1.277   2.055   4.906
 1025SOL     OW 3973   4.874   3.594   6.906
 1025SOL    HW1 3974   4.876   3.597   7.005
 1025SOL    HW2 3975   4.939   3.525   6.873
 1026SOL     OW 3976   2.852   2.589   1.354
 1026SOL    HW1 3977   2.837   2.679   1.395
 1026SOL    HW2 3978   2.770   2.561   1.303
 1027SOL     OW 3979   0.761   6.588   1.197
 1027SOL    HW1 3980   0.705   6.523   1.249
 1027SOL    HW2 3981   0.848   6.544   1.172
 1028SOL     OW 3982   0.773   5.960   2.908
 1028SOL    HW1 3983   0.705   5.968   2.982
 1028SOL    HW2 3984   0.777   5.865   2.878
 1029SOL     OW 3985   1.217   2.015   5.614
 1029SOL    HW1 3986   1.232   1.922   5.649
 1029SOL    HW2 3987   1.121   2.024   5.587
 1030SOL     OW 3988   3.107   3.674   1.605
 1030SOL    HW1 3989   3.153   3.595   1.565
 1030SOL    HW2 3990   3.029   3.643   1.660
 1031SOL     OW 3991   3.568   3.301   1.620
 1031SOL    HW1 3992   3.630   3.230   1.653
 1031SOL    HW2 3993   3.621   3.372   1.573
 1032SOL     OW 3994   1.891   1.633   5.913
 1032SOL    HW1 3995   1.969   1.571   5.902
 1032SOL    HW2 3996   1.917   1.709   5.971
 1033SOL     OW 3997   0.903   6.069   2.122
 1033SOL    HW1 3998   0.885   6.143   2.057
 1033SOL    HW2 3999   0.821   6.052   2.177
 1034SOL     OW 4000   3.506   6.920   4.691
 1034SOL    HW1 4001   3.416   6.951   4.724
 1034SOL    HW2 4002   3.565   7.000   4.675
 1035SOL     OW 4003   0.547   1.471   6.061
 1035SOL    HW1 4004   0.449   1.483   6.074
 1035SOL    HW2 4005   0.577   1.519   5.979
 1036SOL     OW 4006   5.167   1.724   0.897
 1036SOL    HW1 4007   5.214   1.810   0.877
 1036SOL    HW2 4008   5.186   1.698   0.992
 1037SOL     OW 4009   1.615   2.481   2.951
 1037SOL    HW1 4010   1.539   2.418   2.936
 1037SOL    HW2 4011   1.701   2.432   2.939
 1038SOL     OW 4012   2.861   0.179   6.762
 1038SOL    HW1 4013   2.957   0.203   6.750
 1038SOL    HW2 4014   2.806   0.263   6.773
 1039SOL     OW 4015   3.572   3.586   3.971
 1039SOL    HW1 4016   3.472   3.593   3.975
 1039SOL    HW2 4017   3.604   3.532   4.048
 1040SOL     OW 4018   4.012   0.778   2.724
 1040SOL    HW1 4019   3.921   0.796   2.760
 1040SOL    HW2 4020   4.080   0.833   2.773
 1041SOL     OW 4021   6.464   6.129   5.599
 1041SOL    HW1 4022   6.472   6.171   5.509
 1041SOL    HW2 4023   6.529   6.172   5.662
 1042SOL     OW 4024   4.915   4.407   2.251
 1042SOL    HW1 4025   4.829   4.400   2.300
 1042SOL    HW2 4026   4.920   4.494   2.203
 1043SOL     OW 4027   3.341   1.340   3.249
 1043SOL    HW1 4028   3.439   1.357   3.259
 1043SOL    HW2 4029   3.310   1.280   3.323
 1044SOL     OW 4030   5.911   4.904   1.506
 1044SOL    HW1 4031   5.931   4.817   1.462
 1044SOL    HW2 4032   5.834   4.891   1.570
 1045SOL     OW 4033   2.285   0.461   3.869
 1045SOL    HW1 4034   2.304   0.509   3.783
 1045SOL    HW2 4035   2.315   0.365   3.861
 1046SOL     OW 4036   3.425   1.492   1.117
 1046SOL    HW1 4037   3.417   1.460   1.022
 1046SOL    HW2 4038   3.480   1.427   1.169
 1047SOL     OW 4039   3.602   7.023   3.211
 1047SOL    HW1 4040   3.522   0.010   3.268
 1047SOL    HW2 4041   3.603   6.929   3.178
 1048SOL     OW 4042   1.606   5.957   2.246
 1048SOL    HW1 4043   1.662   6.007   2.312
 1048SOL    HW2 4044   1.566   6.021   2.181
 1049SOL     OW 4045   3.971   7.023   5.124
 1049SOL    HW1 4046   4.060   6.981   5.109
 1049SOL    HW2 4047   3.954   0.002   5.223
 1050SOL     OW 4048   3.213   5.199   3.755
 1050SOL    HW1 4049   3.208   5.147   3.840
 1050SOL    HW2 4050   3.262   5.146   3.686
 1051SOL     OW 4051   0.024   0.189   0.322
 1051SOL    HW1 4052   0.124   0.193   0.327
 1051SOL    HW2 4053   7.013   0.275   0.355
 1052SOL     OW 4054   3.842   0.337   0.055
 1052SOL    HW1 4055   3.914   0.356   0.122
 1052SOL    HW2 4056   3.884   0.311   6.996
 1053SOL     OW 4057   6.268   3.388   2.595
 1053SOL    HW1 4058   6.215   3.473   2.592
 1053SOL    HW2 4059   6.357   3.403   2.551
 1054SOL     OW 4060   3.536   4.375   0.394
 1054SOL    HW1 4061   3.520   4.348   0.298
 1054SOL    HW2 4062   3.489   4.311   0.454
 1055SOL     OW 4063   4.292   5.863   6.792
 1055SOL    HW1 4064   4.233   5.905   6.861
 1055SOL    HW2 4065   4.270   5.766   6.784
 1056SOL     OW 4066   2.374   4.485   6.942
 1056SOL    HW1 4067   2.297   4.477   6.878
 1056SOL    HW2 4068   2.357   4.427   7.022
 1057SOL     OW 4069   3.472   1.703   1.704
 1057SOL    HW1 4070   3.411   1.702   1.784
 1057SOL    HW2 4071   3.558   1.748   1.729
 1058SOL     OW 4072   2.962   1.887   2.847
 1058SOL    HW1 4073   2.990   1.805   2.897
 1058SOL    HW2 4074   3.011   1.892   2.760
 1059SOL     OW 4075   2.442   6.027   1.381
 1059SOL    HW1 4076   2.521   5.984   1.423
 1059SOL    HW2 4077   2.455   6.033   1.282
 1060SOL     OW 4078   6.721   6.068   5.406
 1060SOL    HW1 4079   6.667   6.047   5.325
 1060SOL    HW2 4080   6.816   6.083   5.379
 1061SOL     OW 4081   6.987   4.054   0.599
 1061SOL    HW1 4082   6.996   3.956   0.584
 1061SOL    HW2 4083   6.959   4.070   0.694
 1062SOL     OW 4084   3.672   6.458   5.242
 1062SOL    HW1 4085   3.599   6.457   5.310
 1062SOL    HW2 4086   3.674   6.370   5.194
 1063SOL     OW 4087   1.238   6.486   5.767
 1063SOL    HW1 4088   1.321   6.461   5.816
 1063SOL    HW2 4089   1.217   6.582   5.783
 1064SOL     OW 4090   0.703   4.794   0.885
 1064SOL    HW1 4091   0.621   4.737   0.882
 1064SOL    HW2 4092   0.679   4.888   0.858
 1065SOL     OW 4093   4.059   0.302   4.472
 1065SOL    HW1 4094   3.997   0.306   4.551
 1065SOL    HW2 4095   4.131   0.235   4.490
 1066SOL     OW 4096   4.675   0.160   2.268
 1066SOL    HW1 4097   4.766   0.125   2.246
 1066SOL    HW2 4098   4.644   0.220   2.194
 1067SOL     OW 4099   3.027   1.298   0.227
 1067SOL    HW1 4100   3.018   1.317   0.325
 1067SOL    HW2 4101   3.087   1.366   0.185
 1068SOL     OW 4102   6.133   3.037   1.426
 1068SOL    HW1 4103   6.223   3.015   1.461
 1068SOL    HW2 4104   6.092   3.108   1.483
 1069SOL     OW 4105   6.512   4.231   1.181
 1069SOL    HW1 4106   6.544   4.144   1.219
 1069SOL    HW2 4107   6.542   4.306   1.239
 1070SOL     OW 4108   1.231   0.868   2.212
 1070SOL    HW1 4109   1.256   0.815   2.131
 1070SOL    HW2 4110   1.303   0.859   2.281
 1071SOL     OW 4111   6.986   2.844   5.047
 1071SOL    HW1 4112   6.923   2.831   4.970
 1071SOL    HW2 4113   6.967   2.932   5.091
 1072SOL     OW 4114   3.122   1.228   2.432
 1072SOL    HW1 4115   3.185   1.292   2.475
 1072SOL    HW2 4116   3.088   1.164   2.500
 1073SOL     OW 4117   5.082   1.739   3.238
 1073SOL    HW1 4118   5.155   1.674   3.218
 1073SOL    HW2 4119   5.060   1.736   3.336
 1074SOL     OW 4120   3.249   5.123   1.868
 1074SOL    HW1 4121   3.163   5.169   1.844
 1074SOL    HW2 4122   3.230   5.032   1.905
 1075SOL     OW 4123   5.748   2.623   5.103
 1075SOL    HW1 4124   5.802   2.638   5.020
 1075SOL    HW2 4125   5.652   2.645   5.085
 1076SOL     OW 4126   2.066   3.989   4.927
 1076SOL    HW1 4127   2.160   4.022   4.939
 1076SOL    HW2 4128   2.015   4.003   5.011
 1077SOL     OW 4129   6.496   0.280   0.159
 1077SOL    HW1 4130   6.494   0.227   0.074
 1077SOL    HW2 4131   6.565   0.243   0.221
 1078SOL     OW 4132   6.710   6.243   3.711
 1078SOL    HW1 4133   6.749   6.164   3.758
 1078SOL    HW2 4134   6.690   6.219   3.616
 1079SOL     OW 4135   0.919   5.687   2.726
 1079SOL    HW1 4136   1.000   5.744   2.731
 1079SOL    HW2 4137   0.942   5.593   2.752
 1080SOL     OW 4138   1.999   4.935   5.401
 1080SOL    HW1 4139   1.955   4.878   5.470
 1080SOL    HW2 4140   2.072   4.882   5.357
 1081SOL     OW 4141   6.062   5.670   4.673
 1081SOL    HW1 4142   6.147   5.703   4.631
 1081SOL    HW2 4143   5.989   5.669   4.605
 1082SOL     OW 4144   5.847   6.993   6.438
 1082SOL    HW1 4145   5.794   6.916   6.473
 1082SOL    HW2 4146   5.924   6.958   6.384
 1083SOL     OW 4147   5.483   4.486   0.846
 1083SOL    HW1 4148   5.445   4.405   0.890
 1083SOL    HW2 4149   5.420   4.563   0.860
 1084SOL     OW 4150   0.062   0.099   6.619
 1084SOL    HW1 4151   0.147   0.147   6.594
 1084SOL    HW2 4152   7.015   0.133   6.562
 1085SOL     OW 4153   2.244   3.997   4.256
 1085SOL    HW1 4154   2.336   3.974   4.288
 1085SOL    HW2 4155   2.196   3.914   4.227
 1086SOL     OW 4156   6.087   4.648   6.933
 1086SOL    HW1 4157   6.016   4.590   6.893
 1086SOL    HW2 4158   6.174   4.632   6.886
 1087SOL     OW 4159   1.829   0.624   5.513
 1087SOL    HW1 4160   1.746   0.663   5.472
 1087SOL    HW2 4161   1.815   0.614   5.611
 1088SOL     OW 4162   6.912   4.710   3.381
 1088SOL    HW1 4163   6.984   4.777   3.394
 1088SOL    HW2 4164   6.878   4.680   3.470
 1089SOL     OW 4165   6.384   4.545   4.640
 1089SOL    HW1 4166   6.379   4.615   4.569
 1089SOL    HW2 4167   6.292   4.510   4.658
 1090SOL     OW 4168   5.330   1.381   4.703
 1090SOL    HW1 4169   5.406   1.399   4.765
 1090SOL    HW2 4170   5.297   1.467   4.665
 1091SOL     OW 4171   2.224   3.027   3.563
 1091SOL    HW1 4172   2.257   2.936   3.538
 1091SOL    HW2 4173   2.130   3.039   3.531
 1092SOL     OW 4174   0.755   4.934   0.548
 1092SOL    HW1 4175   0.792   5.011   0.497
 1092SOL    HW2 4176   0.688   4.967   0.615
 1093SOL     OW 4177   1.999   6.898   1.244
 1093SOL    HW1 4178   2.079   6.885   1.185
 1093SOL    HW2 4179   1.968   6.809   1.277
 1094SOL     OW 4180   1.268   0.314   3.289
 1094SOL    HW1 4181   1.357   0.334   3.247
 1094SOL    HW2 4182   1.229   0.232   3.248
 1095SOL     OW 4183   6.706   3.190   0.128
 1095SOL    HW1 4184   6.729   3.137   0.209
 1095SOL    HW2 4185   6.706   3.131   0.047
 1096SOL     OW 4186   2.932   5.410   1.326
 1096SOL    HW1 4187   2.898   5.324   1.366
 1096SOL    HW2 4188   2.855   5.469   1.303
 1097SOL     OW 4189   2.363   5.506   3.741
 1097SOL    HW1 4190   2.355   5.606   3.741
 1097SOL    HW2 4191   2.407   5.477   3.656
 1098SOL     OW 4192   6.098   4.900   0.315
 1098SOL    HW1 4193   6.177   4.872   0.370
 1098SOL    HW2 4194   6.074   4.995   0.337
 1099SOL     OW 4195   4.602   1.546   6.112
 1099SOL    HW1 4196   4.671   1.610   6.148
 1099SOL    HW2 4197   4.516   1.559   6.162
 1100SOL     OW 4198   3.767   1.250   3.472
 1100SOL    HW1 4199   3.722   1.252   3.383
 1100SOL    HW2 4200   3.698   1.262   3.544
 1101SOL     OW 4201   6.088   3.030   5.852
 1101SOL    HW1 4202   6.028   3.023   5.773
 1101SOL    HW2 4203   6.102   3.127   5.875
 1102SOL     OW 4204   2.007   0.912   4.667
 1102SOL    HW1 4205   1.983   1.009   4.671
 1102SOL    HW2 4206   2.046   0.885   4.755
 1103SOL     OW 4207   3.143   0.479   6.376
 1103SOL    HW1 4208   3.127   0.485   6.474
 1103SOL    HW2 4209   3.233   0.437   6.359
 1104SOL     OW 4210   0.655   3.750   3.268
 1104SOL    HW1 4211   0.696   3.666   3.232
 1104SOL    HW2 4212   0.581   3.780   3.208
 1105SOL     OW 4213   5.378   1.261   5.057
 1105SOL    HW1 4214   5.368   1.176   5.005
 1105SOL    HW2 4215   5.463   1.307   5.029
 1106SOL     OW 4216   0.751   1.407   0.477
 1106SOL    HW1 4217   0.703   1.320   0.470
 1106SOL    HW2 4218   0.826   1.399   0.543
 1107SOL     OW 4219   0.492   0.798   7.021
 1107SOL    HW1 4220   0.501   0.846   6.934
 1107SOL    HW2 4221   0.438   0.715   7.008
 1108SOL     OW 4222   2.895   6.298   4.201
 1108SOL    HW1 4223   2.847   6.212   4.180
 1108SOL    HW2 4224   2.869   6.367   4.134
 1109SOL     OW 4225   5.605   1.625   4.648
 1109SOL    HW1 4226   5.540   1.649   4.576
 1109SOL    HW2 4227   5.598   1.691   4.723
 1110SOL     OW 4228   3.797   0.448   2.696
 1110SOL    HW1 4229   3.897   0.455   2.705
 1110SOL    HW2 4230   3.755   0.467   2.785
 1111SOL     OW 4231   4.704   3.570   6.227
 1111SOL    HW1 4232   4.755   3.568   6.141
 1111SOL    HW2 4233   4.768   3.572   6.304
 1112SOL     OW 4234   5.767   0.504   2.344
 1112SOL    HW1 4235   5.727   0.459   2.424
 1112SOL    HW2 4236   5.706   0.494   2.266
 1113SOL     OW 4237   6.190   4.571   2.373
 1113SOL    HW1 4238   6.252   4.575   2.295
 1113SOL    HW2 4239   6.131   4.652   2.372
 1114SOL     OW 4240   4.635   2.866   5.735
 1114SOL    HW1 4241   4.626   2.849   5.637
 1114SOL    HW2 4242   4.562   2.927   5.765
 1115SOL     OW 4243   2.617   4.020   6.138
 1115SOL    HW1 4244   2.649   4.013   6.044
 1115SOL    HW2 4245   2.594   3.928   6.172
 1116SOL     OW 4246   4.759   0.673   6.222
 1116SOL    HW1 4247   4.676   0.618   6.215
 1116SOL    HW2 4248   4.782   0.685   6.319
 1117SOL     OW 4249   1.024   2.783   1.606
 1117SOL    HW1 4250   1.111   2.802   1.561
 1117SOL    HW2 4251   0.956   2.852   1.580
 1118SOL     OW 4252   3.208   5.055   0.129
 1118SOL    HW1 4253   3.223   5.120   0.204
 1118SOL    HW2 4254   3.132   4.995   0.152
 1119SOL     OW 4255   4.167   5.113   3.742
 1119SOL    HW1 4256   4.211   5.203   3.751
 1119SOL    HW2 4257   4.210   5.061   3.669
 1120SOL     OW 4258   6.868   5.709   1.106
 1120SOL    HW1 4259   6.930   5.781   1.075
 1120SOL    HW2 4260   6.921   5.635   1.147
 1121SOL     OW 4261   0.570   4.543   4.305
 1121SOL    HW1 4262   0.574   4.510   4.211
 1121SOL    HW2 4263   0.647   4.506   4.357
 1122SOL     OW 4264   5.757   2.575   1.931
 1122SOL    HW1 4265   5.675   2.517   1.931
 1122SOL    HW2 4266   5.822   2.540   1.998
 1123SOL     OW 4267   4.128   2.156   3.238
 1123SOL    HW1 4268   4.053   2.149   3.305
 1123SOL    HW2 4269   4.096   2.122   3.150
 1124SOL     OW 4270   2.245   2.892   4.830
 1124SOL    HW1 4271   2.173   2.868   4.896
 1124SOL    HW2 4272   2.319   2.938   4.878
 1125SOL     OW 4273   1.182   3.713   4.015
 1125SOL    HW1 4274   1.269   3.664   4.013
 1125SOL    HW2 4275   1.112   3.659   3.969
 1126SOL     OW 4276   4.171   5.653   5.172
 1126SOL    HW1 4277   4.190   5.728   5.109
 1126SOL    HW2 4278   4.084   5.669   5.218
 1127SOL     OW 4279   5.435   5.762   3.298
 1127SOL    HW1 4280   5.471   5.670   3.306
 1127SOL    HW2 4281   5.491   5.825   3.351
 1128SOL     OW 4282   6.355   1.441   3.257
 1128SOL    HW1 4283   6.267   1.456   3.302
 1128SOL    HW2 4284   6.341   1.386   3.174
 1129SOL     OW 4285   1.783   0.464   1.233
 1129SOL    HW1 4286   1.772   0.442   1.136
 1129SOL    HW2 4287   1.843   0.396   1.276
 1130SOL     OW 4288   2.091   5.295   3.196
 1130SOL    HW1 4289   2.145   5.232   3.252
 1130SOL    HW2 4290   2.087   5.261   3.102
 1131SOL     OW 4291   1.326   6.659   4.161
 1131SOL    HW1 4292   1.399   6.624   4.102
 1131SOL    HW2 4293   1.259   6.586   4.177
 1132SOL     OW 4294   4.041   1.297   3.121
 1132SOL    HW1 4295   4.096   1.352   3.058
 1132SOL    HW2 4296   3.973   1.246   3.068
 1133SOL     OW 4297   0.607   6.636   5.201
 1133SOL    HW1 4298   0.512   6.613   5.219
 1133SOL    HW2 4299   0.667   6.568   5.244
 1134SOL     OW 4300   4.511   0.047   1.464
 1134SOL    HW1 4301   4.500   0.010   1.556
 1134SOL    HW2 4302   4.502   0.147   1.467
 1135SOL     OW 4303   1.820   6.060   3.763
 1135SOL    HW1 4304   1.835   6.148   3.718
 1135SOL    HW2 4305   1.879   6.053   3.843
 1136SOL     OW 4306   2.969   5.652   2.116
 1136SOL    HW1 4307   2.914   5.632   2.197
 1136SOL    HW2 4308   2.935   5.736   2.073
 1137SOL     OW 4309   0.482   5.767   6.399
 1137SOL    HW1 4310   0.424   5.687   6.414
 1137SOL    HW2 4311   0.547   5.748   6.326
 1138SOL     OW 4312   2.232   3.112   5.260
 1138SOL    HW1 4313   2.321   3.073   5.234
 1138SOL    HW2 4314   2.242   3.163   5.345
 1139SOL     OW 4315   2.854   5.045   4.320
 1139SOL    HW1 4316   2.941   5.090   4.303
 1139SOL    HW2 4317   2.835   5.045   4.418
 1140SOL     OW 4318   1.771   1.223   2.092
 1140SOL    HW1 4319   1.725   1.307   2.065
 1140SOL    HW2 4320   1.784   1.222   2.192
 1141SOL     OW 4321   6.236   4.883   5.944
 1141SOL    HW1 4322   6.282   4.808   5.992
 1141SOL    HW2 4323   6.175   4.931   6.007
 1142SOL     OW 4324   2.467   0.077   3.131
 1142SOL    HW1 4325   2.502   0.052   3.221
 1142SOL    HW2 4326   2.534   0.053   3.061
 1143SOL     OW 4327   0.770   3.959   1.810
 1143SOL    HW1 4328   0.799   4.019   1.735
 1143SOL    HW2 4329   0.769   3.864   1.778
 1144SOL     OW 4330   5.539   4.334   2.090
 1144SOL    HW1 4331   5.515   4.255   2.034
 1144SOL    HW2 4332   5.525   4.418   2.038
 1145SOL     OW 4333   0.952   1.855   0.089
 1145SOL    HW1 4334   0.884   1.925   0.066
 1145SOL    HW2 4335   1.040   1.878   0.048
 1146SOL     OW 4336   0.471   1.361   1.616
 1146SOL    HW1 4337   0.534   1.297   1.661
 1146SOL    HW2 4338   0.402   1.392   1.682
 1147SOL     OW 4339   3.311   6.269   1.248
 1147SOL    HW1 4340   3.307   6.263   1.149
 1147SOL    HW2 4341   3.305   6.177   1.287
 1148SOL     OW 4342   3.784   6.335   2.290
 1148SOL    HW1 4343   3.859   6.400   2.300
 1148SOL    HW2 4344   3.700   6.383   2.269
 1149SOL     OW 4345   5.350   2.068   1.536
 1149SOL    HW1 4346   5.443   2.104   1.544
 1149SOL    HW2 4347   5.285   2.143   1.524
 1150SOL     OW 4348   1.148   4.296   6.862
 1150SOL    HW1 4349   1.107   4.218   6.814
 1150SOL    HW2 4350   1.077   4.343   6.915
 1151SOL     OW 4351   6.740   5.163   3.767
 1151SOL    HW1 4352   6.813   5.098   3.746
 1151SOL    HW2 4353   6.689   5.130   3.846
 1152SOL     OW 4354   5.033   0.710   6.512
 1152SOL    HW1 4355   5.051   0.612   6.527
 1152SOL    HW2 4356   4.939   0.722   6.482
 1153SOL     OW 4357   6.207   6.960   1.441
 1153SOL    HW1 4358   6.270   0.001   1.405
 1153SOL    HW2 4359   6.175   6.902   1.366
 1154SOL     OW 4360   1.471   3.271   2.109
 1154SOL    HW1 4361   1.398   3.213   2.072
 1154SOL    HW2 4362   1.510   3.228   2.191
 1155SOL     OW 4363   2.507   6.560   4.657
 1155SOL    HW1 4364   2.596   6.586   4.696
 1155SOL    HW2 4365   2.506   6.579   4.559
 1156SOL     OW 4366   4.109   1.546   5.078
 1156SOL    HW1 4367   4.069   1.462   5.041
 1156SOL    HW2 4368   4.059   1.625   5.042
 1157SOL     OW 4369   4.076   0.432   5.832
 1157SOL    HW1 4370   4.049   0.336   5.826
 1157SOL    HW2 4371   4.013   0.488   5.779
 1158SOL     OW 4372   6.084   5.665   2.971
 1158SOL    HW1 4373   5.986   5.676   2.952
 1158SOL    HW2 4374   6.117   5.745   3.020
 1159SOL     OW 4375   6.722   6.178   2.677
 1159SOL    HW1 4376   6.637   6.231   2.673
 1159SOL    HW2 4377   6.705   6.091   2.723
 1160SOL     OW 4378   4.447   0.079   0.542
 1160SOL    HW1 4379   4.434   0.019   0.463
 1160SOL    HW2 4380   4.544   0.099   0.552
 1161SOL     OW 4381   7.019   5.458   0.110
 1161SOL    HW1 4382   6.923   5.433   0.118
 1161SOL    HW2 4383   0.024   5.436   0.018
 1162SOL     OW 4384   2.213   2.769   5.433
 1162SOL    HW1 4385   2.200   2.738   5.527
 1162SOL    HW2 4386   2.131   2.819   5.403
 1163SOL     OW 4387   6.141   4.418   1.686
 1163SOL    HW1 4388   6.064   4.383   1.738
 1163SOL    HW2 4389   6.207   4.460   1.749
 1164SOL     OW 4390   4.842   1.856   4.174
 1164SOL    HW1 4391   4.778   1.919   4.218
 1164SOL    HW2 4392   4.820   1.762   4.199
 1165SOL     OW 4393   4.027   6.106   3.520
 1165SOL    HW1 4394   4.108   6.067   3.563
 1165SOL    HW2 4395   3.972   6.153   3.589
 1166SOL     OW 4396   2.408   6.286   6.746
 1166SOL    HW1 4397   2.353   6.359   6.787
 1166SOL    HW2 4398   2.460   6.323   6.668
 1167SOL     OW 4399   5.296   4.436   2.410
 1167SOL    HW1 4400   5.251   4.453   2.497
 1167SOL    HW2 4401   5.244   4.368   2.358
 1168SOL     OW 4402   6.058   2.301   2.864
 1168SOL    HW1 4403   6.157   2.311   2.872
 1168SOL    HW2 4404   6.034   2.204   2.857
 1169SOL     OW 4405   5.627   1.001   5.018
 1169SOL    HW1 4406   5.641   1.085   5.071
 1169SOL    HW2 4407   5.710   0.946   5.020
 1170SOL     OW 4408   4.749   0.011   3.456
 1170SOL    HW1 4409   4.667   7.026   3.512
 1170SOL    HW2 4410   4.725   0.065   3.375
 1171SOL     OW 4411   1.405   0.530   0.913
 1171SOL    HW1 4412   1.384   0.584   0.831
 1171SOL    HW2 4413   1.348   0.448   0.913
 1172SOL     OW 4414   6.630   3.966   7.013
 1172SOL    HW1 4415   6.655   3.895   0.050
 1172SOL    HW2 4416   6.663   3.941   6.922
 1173SOL     OW 4417   2.843   1.150   1.481
 1173SOL    HW1 4418   2.830   1.244   1.510
 1173SOL    HW2 4419   2.940   1.126   1.487
 1174SOL     OW 4420   3.761   3.886   1.302
 1174SOL    HW1 4421   3.725   3.879   1.395
 1174SOL    HW2 4422   3.686   3.880   1.236
 1175SOL     OW 4423   3.909   3.215   5.105
 1175SOL    HW1 4424   4.003   3.234   5.078
 1175SOL    HW2 4425   3.862   3.168   5.030
 1176SOL     OW 4426   5.232   3.778   6.232
 1176SOL    HW1 4427   5.203   3.839   6.306
 1176SOL    HW2 4428   5.159   3.711   6.215
 1177SOL     OW 4429   6.365   2.228   4.716
 1177SOL    HW1 4430   6.275   2.221   4.760
 1177SOL    HW2 4431   6.361   2.297   4.644
 1178SOL     OW 4432   3.120   4.702   0.417
 1178SOL    HW1 4433   3.174   4.621   0.392
 1178SOL    HW2 4434   3.176   4.763   0.472
 1179SOL     OW 4435   2.633   5.823   0.194
 1179SOL    HW1 4436   2.724   5.816   0.235
 1179SOL    HW2 4437   2.571   5.870   0.257
 1180SOL     OW 4438   3.076   5.947   0.741
 1180SOL    HW1 4439   2.988   5.936   0.695
 1180SOL    HW2 4440   3.142   5.988   0.677
 1181SOL     OW 4441   0.858   5.739   6.433
 1181SOL    HW1 4442   0.809   5.822   6.459
 1181SOL    HW2 4443   0.795   5.675   6.389
 1182SOL     OW 4444   3.455   5.527   2.915
 1182SOL    HW1 4445   3.436   5.598   2.982
 1182SOL    HW2 4446   3.553   5.524   2.896
 1183SOL     OW 4447   1.626   4.138   6.706
 1183SOL    HW1 4448   1.534   4.122   6.671
 1183SOL    HW2 4449   1.626   4.218   6.765
 1184SOL     OW 4450   1.211   0.060   5.139
 1184SOL    HW1 4451   1.155   0.143   5.135
 1184SOL    HW2 4452   1.289   0.069   5.077
 1185SOL     OW 4453   6.857   1.229   6.733
 1185SOL    HW1 4454   6.919   1.240   6.811
 1185SOL    HW2 4455   6.910   1.231   6.648
 1186SOL     OW 4456   4.936   5.789   4.209
 1186SOL    HW1 4457   4.974   5.852   4.277
 1186SOL    HW2 4458   4.837   5.800   4.205
 1187SOL     OW 4459   6.647   0.105   6.120
 1187SOL    HW1 4460   6.664   0.174   6.050
 1187SOL    HW2 4461   6.587   0.143   6.190
 1188SOL     OW 4462   2.886   6.284   4.774
 1188SOL    HW1 4463   2.860   6.281   4.677
 1188SOL    HW2 4464   2.955   6.355   4.788
 1189SOL     OW 4465   6.561   3.504   2.881
 1189SOL    HW1 4466   6.485   3.453   2.921
 1189SOL    HW2 4467   6.624   3.533   2.953
 1190SOL     OW 4468   1.926   6.063   3.462
 1190SOL    HW1 4469   1.927   5.986   3.524
 1190SOL    HW2 4470   2.011   6.066   3.409
 1191SOL     OW 4471   4.048   5.330   3.183
 1191SOL    HW1 4472   4.065   5.240   3.142
 1191SOL    HW2 4473   3.963   5.327   3.236
 1192SOL     OW 4474   3.743   5.793   3.042
 1192SOL    HW1 4475   3.816   5.839   2.992
 1192SOL    HW2 4476   3.712   5.714   2.989
 1193SOL     OW 4477   6.098   4.555   4.430
 1193SOL    HW1 4478   6.092   4.529   4.526
 1193SOL    HW2 4479   6.064   4.480   4.373
 1194SOL     OW 4480   5.558   0.426   1.075
 1194SOL    HW1 4481   5.599   0.433   1.166
 1194SOL    HW2 4482   5.539   0.330   1.054
 1195SOL     OW 4483   6.313   4.513   1.853
 1195SOL    HW1 4484   6.353   4.443   1.912
 1195SOL    HW2 4485   6.339   4.603   1.887
 1196SOL     OW 4486   0.078   6.668   3.710
 1196SOL    HW1 4487   0.153   6.607   3.738
 1196SOL    HW2 4488   0.002   6.658   3.774
 1197SOL     OW 4489   3.293   0.898   0.038
 1197SOL    HW1 4490   3.388   0.899   0.071
 1197SOL    HW2 4491   3.242   0.826   0.086
 1198SOL     OW 4492   1.492   2.561   1.056
 1198SOL    HW1 4493   1.585   2.564   1.020
 1198SOL    HW2 4494   1.468   2.466   1.076
 1199SOL     OW 4495   4.776   5.179   1.550
 1199SOL    HW1 4496   4.769   5.091   1.597
 1199SOL    HW2 4497   4.858   5.226   1.581
 1200SOL     OW 4498   3.441   3.205   2.863
 1200SOL    HW1 4499   3.426   3.172   2.770
 1200SOL    HW2 4500   3.532   3.246   2.869
 1201SOL     OW 4501   1.422   1.226   4.977
 1201SOL    HW1 4502   1.352   1.249   5.045
 1201SOL    HW2 4503   1.509   1.268   5.004
 1202SOL     OW 4504   1.119   5.383   6.620
 1202SOL    HW1 4505   1.136   5.454   6.551
 1202SOL    HW2 4506   1.076   5.304   6.577
 1203SOL     OW 4507   4.808   5.784   6.218
 1203SOL    HW1 4508   4.871   5.759   6.145
 1203SOL    HW2 4509   4.788   5.882   6.214
 1204SOL     OW 4510   2.692   0.489   1.434
 1204SOL    HW1 4511   2.621   0.418   1.434
 1204SOL    HW2 4512   2.651   0.577   1.455
 1205SOL     OW 4513   5.094   3.969   1.746
 1205SOL    HW1 4514   5.048   3.894   1.793
 1205SOL    HW2 4515   5.032   4.046   1.736
 1206SOL     OW 4516   3.267   3.115   4.658
 1206SOL    HW1 4517   3.211   3.080   4.733
 1206SOL    HW2 4518   3.341   3.171   4.696
 1207SOL     OW 4519   2.868   6.785   1.640
 1207SOL    HW1 4520   2.906   6.819   1.726
 1207SOL    HW2 4521   2.778   6.744   1.658
 1208SOL     OW 4522   3.504   4.289   0.132
 1208SOL    HW1 4523   3.573   4.230   0.090
 1208SOL    HW2 4524   3.419   4.283   0.081
 1209SOL     OW 4525   3.887   0.413   5.343
 1209SOL    HW1 4526   3.869   0.505   5.377
 1209SOL    HW2 4527   3.983   0.389   5.359
 1210SOL     OW 4528   2.868   0.208   3.815
 1210SOL    HW1 4529   2.869   0.200   3.915
 1210SOL    HW2 4530   2.780   0.246   3.786
 1211SOL     OW 4531   1.060   3.898   0.975
 1211SOL    HW1 4532   1.122   3.870   0.901
 1211SOL    HW2 4533   1.020   3.987   0.953
 1212SOL     OW 4534   0.463   0.245   6.639
 1212SOL    HW1 4535   0.506   0.292   6.562
 1212SOL    HW2 4536   0.363   0.253   6.630
 1213SOL     OW 4537   6.038   2.950   0.493
 1213SOL    HW1 4538   6.004   2.904   0.576
 1213SOL    HW2 4539   6.133   2.978   0.507
 1214SOL     OW 4540   0.101   1.913   0.965
 1214SOL    HW1 4541   0.039   1.958   0.901
 1214SOL    HW2 4542   0.193   1.909   0.924
 1215SOL     OW 4543   1.672   4.508   4.319
 1215SOL    HW1 4544   1.734   4.449   4.371
 1215SOL    HW2 4545   1.712   4.527   4.230
 1216SOL     OW 4546   4.273   0.451   6.965
 1216SOL    HW1 4547   4.368   0.463   6.995
 1216SOL    HW2 4548   4.216   0.523   7.005
 1217SOL     OW 4549   1.926   4.692   0.528
 1217SOL    HW1 4550   1.992   4.685   0.454
 1217SOL    HW2 4551   1.835   4.711   0.490
 1218SOL     OW 4552   0.946   4.886   3.980
 1218SOL    HW1 4553   1.035   4.932   3.981
 1218SOL    HW2 4554   0.959   4.790   4.005
 1219SOL     OW 4555   4.720   6.122   2.113
 1219SOL    HW1 4556   4.636   6.175   2.125
 1219SOL    HW2 4557   4.738   6.111   2.015
 1220SOL     OW 4558   1.272   4.889   2.949
 1220SOL    HW1 4559   1.278   4.972   2.893
 1220SOL    HW2 4560   1.189   4.838   2.924
 1221SOL     OW 4561   5.649   3.196   5.374
 1221SOL    HW1 4562   5.724   3.137   5.403
 1221SOL    HW2 4563   5.569   3.178   5.431
 1222SOL     OW 4564   6.370   6.812   6.655
 1222SOL    HW1 4565   6.455   6.814   6.707
 1222SOL    HW2 4566   6.296   6.852   6.709
 1223SOL     OW 4567   3.705   6.974   0.448
 1223SOL    HW1 4568   3.775   6.975   0.519
 1223SOL    HW2 4569   3.734   0.004   0.371
 1224SOL     OW 4570   2.600   0.193   1.201
 1224SOL    HW1 4571   2.542   0.251   1.144
 1224SOL    HW2 4572   2.550   0.164   1.282
 1225SOL     OW 4573   3.430   3.999   6.235
 1225SOL    HW1 4574   3.506   3.946   6.198
 1225SOL    HW2 4575   3.463   4.089   6.264
 1226SOL     OW 4576   2.146   4.592   1.338
 1226SOL    HW1 4577   2.127   4.575   1.435
 1226SOL    HW2 4578   2.244   4.611   1.326
 1227SOL     OW 4579   6.840   3.629   7.009
 1227SOL    HW1 4580   6.879   3.546   0.021
 1227SOL    HW2 4581   6.768   3.665   0.042
 1228SOL     OW 4582   3.715   2.672   6.255
 1228SOL    HW1 4583   3.748   2.580   6.234
 1228SOL    HW2 4584   3.616   2.671   6.259
 1229SOL     OW 4585   4.269   4.785   6.544
 1229SOL    HW1 4586   4.204   4.791   6.468
 1229SOL    HW2 4587   4.317   4.698   6.540
 1230SOL     OW 4588   4.335   0.037   3.762
 1230SOL    HW1 4589   4.319   0.103   3.836
 1230SOL    HW2 4590   4.252   0.028   3.708
 1231SOL     OW 4591   2.053   3.379   4.992
 1231SOL    HW1 4592   2.003   3.464   5.012
 1231SOL    HW2 4593   2.109   3.354   5.070
 1232SOL     OW 4594   1.160   2.625   5.211
 1232SOL    HW1 4595   1.258   2.618   5.224
 1232SOL    HW2 4596   1.122   2.535   5.189
 1233SOL     OW 4597   1.125   2.485   5.464
 1233SOL    HW1 4598   1.114   2.550   5.389
 1233SOL    HW2 4599   1.223   2.473   5.483
 1234SOL     OW 4600   6.636   4.415   4.292
 1234SOL    HW1 4601   6.565   4.421   4.222
 1234SOL    HW2 4602   6.721   4.382   4.250
 1235SOL     OW 4603   6.499   5.449   2.924
 1235SOL    HW1 4604   6.542   5.360   2.907
 1235SOL    HW2 4605   6.542   5.491   3.004
 1236SOL     OW 4606   4.950   1.076   6.365
 1236SOL    HW1 4607   4.945   1.176   6.371
 1236SOL    HW2 4608   4.899   1.045   6.285
 1237SOL     OW 4609   2.685   4.916   6.375
 1237SOL    HW1 4610   2.615   4.923   6.304
 1237SOL    HW2 4611   2.660   4.975   6.452
 1238SOL     OW 4612   2.158   1.197   1.305
 1238SOL    HW1 4613   2.163   1.206   1.206
 1238SOL    HW2 4614   2.221   1.261   1.348
 1239SOL     OW 4615   6.956   6.072   6.790
 1239SOL    HW1 4616   6.900   6.067   6.708
 1239SOL    HW2 4617   0.002   6.004   6.785
 1240SOL     OW 4618   5.459   5.990   1.742
 1240SOL    HW1 4619   5.493   5.921   1.679
 1240SOL    HW2 4620   5.457   6.079   1.695
 1241SOL     OW 4621   6.447   3.381   4.521
 1241SOL    HW1 4622   6.499   3.378   4.607
 1241SOL    HW2 4623   6.509   3.364   4.445
 1242SOL     OW 4624   1.612   3.294   0.698
 1242SOL    HW1 4625   1.580   3.383   0.668
 1242SOL    HW2 4626   1.669   3.305   0.780
 1243SOL     OW 4627   2.070   5.460   5.075
 1243SOL    HW1 4628   1.981   5.485   5.038
 1243SOL    HW2 4629   2.142   5.484   5.009
 1244SOL     OW 4630   0.466   0.804   3.415
 1244SOL    HW1 4631   0.513   0.848   3.338
 1244SOL    HW2 4632   0.514   0.720   3.440
 1245SOL     OW 4633   3.086   3.475   6.953
 1245SOL    HW1 4634   3.145   3.550   6.984
 1245SOL    HW2 4635   3.120   3.389   6.990
 1246SOL     OW 4636   2.687   6.870   2.019
 1246SOL    HW1 4637   2.656   6.815   1.941
 1246SOL    HW2 4638   2.608   6.896   2.074
 1247SOL     OW 4639   2.527   6.633   6.448
 1247SOL    HW1 4640   2.596   6.687   6.400
 1247SOL    HW2 4641   2.517   6.669   6.541
 1248SOL     OW 4642   1.455   5.921   3.115
 1248SOL    HW1 4643   1.395   5.985   3.066
 1248SOL    HW2 4644   1.551   5.947   3.099
 1249SOL     OW 4645   6.058   3.367   3.311
 1249SOL    HW1 4646   6.059   3.375   3.411
 1249SOL    HW2 4647   5.990   3.298   3.285
 1250SOL     OW 4648   1.337   4.814   3.854
 1250SOL    HW1 4649   1.289   4.749   3.795
 1250SOL    HW2 4650   1.435   4.804   3.841
 1251SOL     OW 4651   4.094   0.676   4.366
 1251SOL    HW1 4652   4.057   0.693   4.275
 1251SOL    HW2 4653   4.035   0.717   4.435
 1252SOL     OW 4654   3.167   3.871   5.905
 1252SOL    HW1 4655   3.083   3.875   5.853
 1252SOL    HW2 4656   3.146   3.856   6.002
 1253SOL     OW 4657   3.682   5.425   2.428
 1253SOL    HW1 4658   3.643   5.422   2.336
 1253SOL    HW2 4659   3.752   5.496   2.432
 1254SOL     OW 4660   6.180   2.015   3.093
 1254SOL    HW1 4661   6.252   2.010   3.161
 1254SOL    HW2 4662   6.143   1.924   3.075
 1255SOL     OW 4663   0.313   0.060   5.794
 1255SOL    HW1 4664   0.231   0.116   5.786
 1255SOL    HW2 4665   0.294   7.009   5.853
 1256SOL     OW 4666   6.374   0.099   2.859
 1256SOL    HW1 4667   6.334   0.046   2.933
 1256SOL    HW2 4668   6.325   0.187   2.851
 1257SOL     OW 4669   6.913   0.623   3.457
 1257SOL    HW1 4670   6.948   0.682   3.529
 1257SOL    HW2 4671   6.827   0.580   3.487
 1258SOL     OW 4672   0.775   6.706   2.988
 1258SOL    HW1 4673   0.853   6.731   2.931
 1258SOL    HW2 4674   0.795   6.728   3.084
 1259SOL     OW 4675   4.210   1.966   5.061
 1259SOL    HW1 4676   4.291   1.968   5.002
 1259SOL    HW2 4677   4.139   1.911   5.019
 1260SOL     OW 4678   1.051   1.214   0.039
 1260SOL    HW1 4679   1.125   1.279   0.059
 1260SOL    HW2 4680   0.964   1.254   0.067
 1261SOL     OW 4681   0.594   5.271   0.462
 1261SOL    HW1 4682   0.548   5.269   0.373
 1261SOL    HW2 4683   0.553   5.342   0.519
 1262SOL     OW 4684   5.130   5.515   1.971
 1262SOL    HW1 4685   5.224   5.541   1.946
 1262SOL    HW2 4686   5.132   5.460   2.054
 1263SOL     OW 4687   0.927   2.285   3.473
 1263SOL    HW1 4688   0.889   2.370   3.437
 1263SOL    HW2 4689   1.016   2.268   3.430
 1264SOL     OW 4690   0.956   3.143   5.585
 1264SOL    HW1 4691   1.012   3.072   5.543
 1264SOL    HW2 4692   1.004   3.182   5.663
 1265SOL     OW 4693   5.929   6.066   5.188
 1265SOL    HW1 4694   6.015   6.106   5.156
 1265SOL    HW2 4695   5.893   6.005   5.118
 1266SOL     OW 4696   1.354   0.482   4.850
 1266SOL    HW1 4697   1.416   0.539   4.796
 1266SOL    HW2 4698   1.397   0.459   4.937
 1267SOL     OW 4699   4.890   0.447   2.332
 1267SOL    HW1 4700   4.865   0.460   2.428
 1267SOL    HW2 4701   4.836   0.509   2.275
 1268SOL     OW 4702   4.074   2.331   5.331
 1268SOL    HW1 4703   4.127   2.255   5.293
 1268SOL    HW2 4704   4.107   2.417   5.292
 1269SOL     OW 4705   6.148   2.262   3.400
 1269SOL    HW1 4706   6.087   2.339   3.383
 1269SOL    HW2 4707   6.213   2.254   3.325
 1270SOL     OW 4708   1.358   4.521   2.469
 1270SOL    HW1 4709   1.351   4.590   2.398
 1270SOL    HW2 4710   1.303   4.549   2.548
 1271SOL     OW 4711   1.405   1.724   1.627
 1271SOL    HW1 4712   1.482   1.708   1.566
 1271SOL    HW2 4713   1.322   1.685   1.587
 1272SOL     OW 4714   6.994   4.135   0.200
 1272SOL    HW1 4715   7.003   4.228   0.235
 1272SOL    HW2 4716   0.047   4.112   0.146
 1273SOL     OW 4717   1.315   4.282   4.975
 1273SOL    HW1 4718   1.373   4.282   4.893
 1273SOL    HW2 4719   1.324   4.370   5.022
 1274SOL     OW 4720   0.849   5.012   2.089
 1274SOL    HW1 4721   0.772   5.074   2.077
 1274SOL    HW2 4722   0.819   4.918   2.074
 1275SOL     OW 4723   2.923   0.644   3.035
 1275SOL    HW1 4724   2.981   0.562   3.039
 1275SOL    HW2 4725   2.889   0.665   3.127
 1276SOL     OW 4726   5.100   4.418   4.186
 1276SOL    HW1 4727   5.125   4.455   4.097
 1276SOL    HW2 4728   5.158   4.459   4.256
 1277SOL     OW 4729   0.153   5.937   6.733
 1277SOL    HW1 4730   0.235   5.994   6.728
 1277SOL    HW2 4731   0.149   5.877   6.653
 1278SOL     OW 4732   1.523   6.152   2.739
 1278SOL    HW1 4733   1.465   6.193   2.668
 1278SOL    HW2 4734   1.539   6.219   2.811
 1279SOL     OW 4735   2.820   2.336   6.448
 1279SOL    HW1 4736   2.914   2.305   6.463
 1279SOL    HW2 4737   2.803   2.417   6.505
 1280SOL     OW 4738   3.192   1.320   3.018
 1280SOL    HW1 4739   3.111   1.376   3.034
 1280SOL    HW2 4740   3.252   1.325   3.097
 1281SOL     OW 4741   3.761   5.944   4.039
 1281SOL    HW1 4742   3.772   5.904   4.130
 1281SOL    HW2 4743   3.850   5.954   3.996
 1282SOL     OW 4744   6.885   2.890   0.789
 1282SOL    HW1 4745   6.926   2.815   0.840
 1282SOL    HW2 4746   6.956   2.959   0.770
 1283SOL     OW 4747   5.788   3.495   5.096
 1283SOL    HW1 4748   5.819   3.403   5.071
 1283SOL    HW2 4749   5.856   3.562   5.065
 1284SOL     OW 4750   4.010   1.811   1.132
 1284SOL    HW1 4751   4.076   1.864   1.186
 1284SOL    HW2 4752   4.047   1.720   1.116
 1285SOL     OW 4753   3.354   1.188   4.612
 1285SOL    HW1 4754   3.398   1.152   4.694
 1285SOL    HW2 4755   3.424   1.213   4.545
 1286SOL     OW 4756   4.691   2.200   2.001
 1286SOL    HW1 4757   4.768   2.151   2.041
 1286SOL    HW2 4758   4.608   2.144   2.010
 1287SOL     OW 4759   6.399   4.439   5.003
 1287SOL    HW1 4760   6.366   4.498   4.930
 1287SOL    HW2 4761   6.353   4.464   5.089
 1288SOL     OW 4762   4.429   3.871   6.760
 1288SOL    HW1 4763   4.509   3.812   6.775
 1288SOL    HW2 4764   4.448   3.962   6.798
 1289SOL     OW 4765   0.235   0.369   1.846
 1289SOL    HW1 4766   0.216   0.449   1.789
 1289SOL    HW2 4767   0.282   0.300   1.792
 1290SOL     OW 4768   1.186   0.240   6.644
 1290SOL    HW1 4769   1.139   0.314   6.693
 1290SOL    HW2 4770   1.119   0.188   6.591
 1291SOL     OW 4771   6.856   5.025   2.468
 1291SOL    HW1 4772   6.800   5.102   2.439
 1291SOL    HW2 4773   6.841   5.006   2.565
 1292SOL     OW 4774   1.170   6.020   2.114
 1292SOL    HW1 4775   1.194   6.082   2.040
 1292SOL    HW2 4776   1.075   6.038   2.143
 1293SOL     OW 4777   3.037   1.219   6.592
 1293SOL    HW1 4778   3.000   1.142   6.540
 1293SOL    HW2 4779   3.005   1.305   6.553
 1294SOL     OW 4780   2.055   4.248   5.610
 1294SOL    HW1 4781   2.096   4.317   5.551
 1294SOL    HW2 4782   1.971   4.213   5.567
 1295SOL     OW 4783   0.074   3.361   1.216
 1295SOL    HW1 4784   0.085   3.457   1.242
 1295SOL    HW2 4785   7.004   3.341   1.205
 1296SOL     OW 4786   5.644   6.847   6.213
 1296SOL    HW1 4787   5.642   6.810   6.120
 1296SOL    HW2 4788   5.730   6.895   6.228
 1297SOL     OW 4789   0.234   0.355   2.293
 1297SOL    HW1 4790   0.326   0.394   2.307
 1297SOL    HW2 4791   0.167   0.429   2.294
 1298SOL     OW 4792   5.666   5.625   2.199
 1298SOL    HW1 4793   5.634   5.637   2.293
 1298SOL    HW2 4794   5.745   5.563   2.199
 1299SOL     OW 4795   1.913   3.472   4.562
 1299SOL    HW1 4796   2.013   3.469   4.560
 1299SOL    HW2 4797   1.882   3.513   4.647
 1300SOL     OW 4798   1.773   4.286   1.177
 1300SOL    HW1 4799   1.848   4.352   1.179
 1300SOL    HW2 4800   1.808   4.197   1.144
 1301SOL     OW 4801   0.978   1.056   1.565
 1301SOL    HW1 4802   0.966   1.155   1.562
 1301SOL    HW2 4803   0.888   1.011   1.566
 1302SOL     OW 4804   5.390   6.270   6.009
 1302SOL    HW1 4805   5.351   6.362   6.000
 1302SOL    HW2 4806   5.427   6.241   5.920
 1303SOL     OW 4807   4.479   6.651   1.626
 1303SOL    HW1 4808   4.403   6.660   1.562
 1303SOL    HW2 4809   4.465   6.714   1.703
 1304SOL     OW 4810   0.434   0.741   1.255
 1304SOL    HW1 4811   0.480   0.726   1.167
 1304SOL    HW2 4812   0.423   0.839   1.270
 1305SOL     OW 4813   5.622   4.014   0.003
 1305SOL    HW1 4814   5.528   3.989   7.007
 1305SOL    HW2 4815   5.646   4.101   6.988
 1306SOL     OW 4816   1.625   5.455   4.759
 1306SOL    HW1 4817   1.703   5.485   4.814
 1306SOL    HW2 4818   1.592   5.532   4.704
 1307SOL     OW 4819   2.163   2.527   3.906
 1307SOL    HW1 4820   2.166   2.508   4.004
 1307SOL    HW2 4821   2.068   2.527   3.875
 1308SOL     OW 4822   6.597   5.320   6.006
 1308SOL    HW1 4823   6.654   5.269   5.942
 1308SOL    HW2 4824   6.650   5.396   6.044
 1309SOL     OW 4825   5.543   4.580   6.358
 1309SOL    HW1 4826   5.598   4.541   6.432
 1309SOL    HW2 4827   5.494   4.660   6.391
 1310SOL     OW 4828   0.904   3.893   4.125
 1310SOL    HW1 4829   0.882   3.799   4.100
 1310SOL    HW2 4830   0.895   3.952   4.045
 1311SOL     OW 4831   6.943   5.710   0.254
 1311SOL    HW1 4832   7.018   5.646   0.236
 1311SOL    HW2 4833   6.875   5.703   0.181
 1312SOL     OW 4834   1.703   0.599   5.805
 1312SOL    HW1 4835   1.630   0.532   5.819
 1312SOL    HW2 4836   1.684   0.681   5.858
 1313SOL     OW 4837   6.456   5.074   2.803
 1313SOL    HW1 4838   6.375   5.113   2.847
 1313SOL    HW2 4839   6.510   5.023   2.870
 1314SOL     OW 4840   2.742   1.726   4.869
 1314SOL    HW1 4841   2.720   1.649   4.930
 1314SOL    HW2 4842   2.817   1.779   4.908
 1315SOL     OW 4843   5.625   0.352   4.307
 1315SOL    HW1 4844   5.717   0.338   4.271
 1315SOL    HW2 4845   5.629   0.373   4.404
 1316SOL     OW 4846   4.369   0.742   4.891
 1316SOL    HW1 4847   4.416   0.793   4.818
 1316SOL    HW2 4848   4.429   0.669   4.923
 1317SOL     OW 4849   2.732   3.278   5.538
 1317SOL    HW1 4850   2.786   3.194   5.536
 1317SOL    HW2 4851   2.794   3.357   5.534
 1318SOL     OW 4852   1.947   2.657   6.979
 1318SOL    HW1 4853   1.956   2.601   6.896
 1318SOL    HW2 4854   2.015   2.627   0.018
 1319SOL     OW 4855   6.909   6.380   0.429
 1319SOL    HW1 4856   6.831   6.405   0.372
 1319SOL    HW2 4857   6.902   6.424   0.518
 1320SOL     OW 4858   3.456   2.860   6.373
 1320SOL    HW1 4859   3.410   2.776   6.343
 1320SOL    HW2 4860   3.472   2.920   6.295
 1321SOL     OW 4861   5.760   2.102   6.298
 1321SOL    HW1 4862   5.711   2.188   6.316
 1321SOL    HW2 4863   5.695   2.033   6.267
 1322SOL     OW 4864   3.275   1.152   6.735
 1322SOL    HW1 4865   3.190   1.166   6.684
 1322SOL    HW2 4866   3.274   1.062   6.778
 1323SOL     OW 4867   3.626   0.340   0.569
 1323SOL    HW1 4868   3.597   0.413   0.509
 1323SOL    HW2 4869   3.566   0.261   0.558
 1324SOL     OW 4870   1.116   3.534   0.070
 1324SOL    HW1 4871   1.215   3.522   0.071
 1324SOL    HW2 4872   1.093   3.629   0.091
 1325SOL     OW 4873   2.330   5.867   6.186
 1325SOL    HW1 4874   2.251   5.927   6.174
 1325SOL    HW2 4875   2.300   5.782   6.231
 1326SOL     OW 4876   4.729   4.173   3.904
 1326SOL    HW1 4877   4.697   4.141   3.993
 1326SOL    HW2 4878   4.824   4.146   3.891
 1327SOL     OW 4879   0.299   6.652   0.885
 1327SOL    HW1 4880   0.356   6.692   0.814
 1327SOL    HW2 4881   0.357   6.612   0.956
 1328SOL     OW 4882   0.889   3.389   5.841
 1328SOL    HW1 4883   0.830   3.415   5.764
 1328SOL    HW2 4884   0.931   3.471   5.879
 1329SOL     OW 4885   0.116   2.619   3.651
 1329SOL    HW1 4886   0.126   2.541   3.590
 1329SOL    HW2 4887   0.021   2.651   3.650
 1330SOL     OW 4888   6.684   2.261   0.851
 1330SOL    HW1 4889   6.628   2.197   0.797
 1330SOL    HW2 4890   6.639   2.278   0.939
 1331SOL     OW 4891   4.290   1.944   2.463
 1331SOL    HW1 4892   4.239   1.942   2.549
 1331SOL    HW2 4893   4.377   1.895   2.475
 1332SOL     OW 4894   1.988   0.659   0.522
 1332SOL    HW1 4895   2.023   0.616   0.439
 1332SOL    HW2 4896   1.927   0.734   0.498
 1333SOL     OW 4897   3.312   4.061   2.846
 1333SOL    HW1 4898   3.391   4.078   2.788
 1333SOL    HW2 4899   3.263   3.980   2.814
 1334SOL     OW 4900   6.836   1.674   2.578
 1334SOL    HW1 4901   6.806   1.743   2.644
 1334SOL    HW2 4902   6.837   1.584   2.621
 1335SOL     OW 4903   1.976   4.197   1.508
 1335SOL    HW1 4904   1.987   4.281   1.455
 1335SOL    HW2 4905   1.957   4.121   1.446
 1336SOL     OW 4906   3.773   0.647   5.467
 1336SOL    HW1 4907   3.703   0.697   5.518
 1336SOL    HW2 4908   3.775   0.679   5.372
 1337SOL     OW 4909   6.106   1.382   3.643
 1337SOL    HW1 4910   6.160   1.410   3.563
 1337SOL    HW2 4911   6.072   1.463   3.690
 1338SOL     OW 4912   6.021   3.758   4.637
 1338SOL    HW1 4913   6.056   3.729   4.727
 1338SOL    HW2 4914   6.008   3.677   4.579
 1339SOL     OW 4915   0.233   0.322   6.513
 1339SOL    HW1 4916   0.266   0.352   6.423
 1339SOL    HW2 4917   0.157   0.379   6.541
 1340SOL     OW 4918   5.289   1.252   1.548
 1340SOL    HW1 4919   5.266   1.332   1.492
 1340SOL    HW2 4920   5.332   1.183   1.490
 1341SOL     OW 4921   4.615   6.989   6.296
 1341SOL    HW1 4922   4.698   6.987   6.241
 1341SOL    HW2 4923   4.634   0.008   6.383
 1342SOL     OW 4924   3.229   6.000   1.142
 1342SOL    HW1 4925   3.146   6.044   1.108
 1342SOL    HW2 4926   3.214   5.901   1.146
 1343SOL     OW 4927   5.560   5.375   2.670
 1343SOL    HW1 4928   5.615   5.300   2.706
 1343SOL    HW2 4929   5.504   5.342   2.594
 1344SOL     OW 4930   0.066   6.990   4.501
 1344SOL    HW1 4931   0.068   6.899   4.460
 1344SOL    HW2 4932   0.114   0.026   4.440
 1345SOL     OW 4933   0.408   5.298   1.892
 1345SOL    HW1 4934   0.410   5.199   1.884
 1345SOL    HW2 4935   0.428   5.339   1.803
 1346SOL     OW 4936   2.430   5.089   5.743
 1346SOL    HW1 4937   2.361   5.073   5.672
 1346SOL    HW2 4938   2.513   5.038   5.720
 1347SOL     OW 4939   1.518   0.333   6.992
 1347SOL    HW1 4940   1.566   0.319   0.051
 1347SOL    HW2 4941   1.525   0.251   6.936
 1348SOL     OW 4942   6.939   6.169   5.284
 1348SOL    HW1 4943   7.010   6.223   5.328
 1348SOL    HW2 4944   6.871   6.231   5.244
 1349SOL     OW 4945   5.442   4.091   3.830
 1349SOL    HW1 4946   5.403   4.078   3.739
 1349SOL    HW2 4947   5.411   4.018   3.891
 1350SOL     OW 4948   3.441   3.986   0.257
 1350SOL    HW1 4949   3.495   4.036   0.189
 1350SOL    HW2 4950   3.435   4.040   0.341
 1351SOL     OW 4951   6.780   2.862   4.855
 1351SOL    HW1 4952   6.778   2.922   4.775
 1351SOL    HW2 4953   6.746   2.772   4.831
 1352SOL     OW 4954   7.019   0.063   2.820
 1352SOL    HW1 4955   0.059   0.025   2.758
 1352SOL    HW2 4956   6.933   0.080   2.771
 1353SOL     OW 4957   0.755   1.756   1.056
 1353SOL    HW1 4958   0.769   1.722   0.963
 1353SOL    HW2 4959   0.733   1.680   1.116
 1354SOL     OW 4960   6.136   4.219   2.365
 1354SOL    HW1 4961   6.175   4.298   2.318
 1354SOL    HW2 4962   6.047   4.243   2.403
 1355SOL     OW 4963   6.214   3.544   4.729
 1355SOL    HW1 4964   6.240   3.625   4.676
 1355SOL    HW2 4965   6.220   3.463   4.670
 1356SOL     OW 4966   3.622   2.847   1.780
 1356SOL    HW1 4967   3.548   2.782   1.766
 1356SOL    HW2 4968   3.633   2.865   1.878
 1357SOL     OW 4969   6.856   3.354   5.484
 1357SOL    HW1 4970   6.939   3.404   5.458
 1357SOL    HW2 4971   6.815   3.397   5.564
 1358SOL     OW 4972   1.245   6.668   6.988
 1358SOL    HW1 4973   1.323   6.714   6.946
 1358SOL    HW2 4974   1.205   6.603   6.923
 1359SOL     OW 4975   6.377   4.299   1.651
 1359SOL    HW1 4976   6.297   4.358   1.649
 1359SOL    HW2 4977   6.350   4.205   1.631
 1360SOL     OW 4978   3.098   2.385   6.358
 1360SOL    HW1 4979   3.157   2.384   6.278
 1360SOL    HW2 4980   3.134   2.449   6.426
 1361SOL     OW 4981   0.009   4.053   4.478
 1361SOL    HW1 4982   0.026   4.037   4.381
 1361SOL    HW2 4983   6.941   4.079   4.492
 1362SOL     OW 4984   3.593   2.880   2.388
 1362SOL    HW1 4985   3.675   2.862   2.333
 1362SOL    HW2 4986   3.608   2.848   2.482
 1363SOL     OW 4987   0.326   5.516   5.586
 1363SOL    HW1 4988   0.247   5.576   5.573
 1363SOL    HW2 4989   0.303   5.424   5.557
 1364SOL     OW 4990   4.544   4.289   0.635
 1364SOL    HW1 4991   4.529   4.325   0.727
 1364SOL    HW2 4992   4.615   4.342   0.589
 1365SOL     OW 4993   0.765   3.494   6.827
 1365SOL    HW1 4994   0.785   3.397   6.842
 1365SOL    HW2 4995   0.737   3.509   6.732
 1366SOL     OW 4996   1.855   0.108   5.123
 1366SOL    HW1 4997   1.861   0.150   5.033
 1366SOL    HW2 4998   1.873   0.010   5.115
 1367SOL     OW 4999   2.415   0.855   2.430
 1367SOL    HW1 5000   2.348   0.853   2.505
 1367SOL    HW2 5001   2.505   0.876   2.467
 1368SOL     OW 5002   6.165   6.732   4.602
 1368SOL    HW1 5003   6.169   6.809   4.666
 1368SOL    HW2 5004   6.214   6.654   4.641
 1369SOL     OW 5005   1.128   0.527   3.317
 1369SOL    HW1 5006   1.029   0.520   3.305
 1369SOL    HW2 5007   1.170   0.438   3.302
 1370SOL     OW 5008   2.977   0.988   1.807
 1370SOL    HW1 5009   2.945   1.078   1.836
 1370SOL    HW2 5010   3.049   0.998   1.739
 1371SOL     OW 5011   3.488   0.635   6.321
 1371SOL    HW1 5012   3.445   0.700   6.384
 1371SOL    HW2 5013   3.425   0.560   6.303
 1372SOL     OW 5014   2.661   2.061   2.270
 1372SOL    HW1 5015   2.644   1.986   2.206
 1372SOL    HW2 5016   2.625   2.146   2.233
 1373SOL     OW 5017   0.487   5.936   0.879
 1373SOL    HW1 5018   0.533   5.863   0.829
 1373SOL    HW2 5019   0.408   5.968   0.827
 1374SOL     OW 5020   4.352   2.382   0.474
 1374SOL    HW1 5021   4.254   2.364   0.486
 1374SOL    HW2 5022   4.365   2.462   0.416
 1375SOL     OW 5023   0.047   4.365   6.031
 1375SOL    HW1 5024   0.123   4.415   6.071
 1375SOL    HW2 5025   0.010   4.417   5.953
 1376SOL     OW 5026   4.923   2.774   2.870
 1376SOL    HW1 5027   5.015   2.796   2.838
 1376SOL    HW2 5028   4.865   2.751   2.792
 1377SOL     OW 5029   0.191   5.529   5.203
 1377SOL    HW1 5030   0.174   5.430   5.202
 1377SOL    HW2 5031   0.221   5.558   5.112
 1378SOL     OW 5032   1.228   2.538   0.312
 1378SOL    HW1 5033   1.158   2.600   0.276
 1378SOL    HW2 5034   1.319   2.573   0.288
 1379SOL     OW 5035   4.123   6.230   2.334
 1379SOL    HW1 5036   4.075   6.143   2.346
 1379SOL    HW2 5037   4.122   6.281   2.420
 1380SOL     OW 5038   6.467   6.760   2.931
 1380SOL    HW1 5039   6.551   6.793   2.888
 1380SOL    HW2 5040   6.487   6.678   2.985
 1381SOL     OW 5041   6.453   1.611   1.002
 1381SOL    HW1 5042   6.479   1.538   0.939
 1381SOL    HW2 5043   6.465   1.699   0.956
 1382SOL     OW 5044   5.489   4.328   6.550
 1382SOL    HW1 5045   5.554   4.404   6.559
 1382SOL    HW2 5046   5.512   4.256   6.616
 1383SOL     OW 5047   2.636   0.052   0.958
 1383SOL    HW1 5048   2.613   0.113   1.033
 1383SOL    HW2 5049   2.639   0.104   0.872
 1384SOL     OW 5050   2.932   2.231   2.612
 1384SOL    HW1 5051   2.842   2.250   2.572
 1384SOL    HW2 5052   3.003   2.269   2.553
 1385SOL     OW 5053   0.068   3.227   3.131
 1385SOL    HW1 5054   0.032   3.157   3.069
 1385SOL    HW2 5055   0.021   3.313   3.114
 1386SOL     OW 5056   2.005   2.172   4.155
 1386SOL    HW1 5057   1.914   2.200   4.123
 1386SOL    HW2 5058   2.015   2.194   4.252
 1387SOL     OW 5059   2.494   0.314   5.109
 1387SOL    HW1 5060   2.432   0.386   5.139
 1387SOL    HW2 5061   2.467   0.282   5.018
 1388SOL     OW 5062   6.458   1.065   4.170
 1388SOL    HW1 5063   6.365   1.098   4.153
 1388SOL    HW2 5064   6.456   0.997   4.243
 1389SOL     OW 5065   5.636   0.445   4.732
 1389SOL    HW1 5066   5.630   0.363   4.788
 1389SOL    HW2 5067   5.675   0.423   4.643
 1390SOL     OW 5068   4.824   2.532   2.682
 1390SOL    HW1 5069   4.757   2.566   2.616
 1390SOL    HW2 5070   4.777   2.507   2.767
 1391SOL     OW 5071   5.080   0.552   4.724
 1391SOL    HW1 5072   5.040   0.643   4.734
 1391SOL    HW2 5073   5.029   0.487   4.780
 1392SOL     OW 5074   4.684   5.575   6.539
 1392SOL    HW1 5075   4.700   5.554   6.442
 1392SOL    HW2 5076   4.606   5.637   6.547
 1393SOL     OW 5077   6.067   0.778   0.087
 1393SOL    HW1 5078   6.102   0.822   0.169
 1393SOL    HW2 5079   6.076   0.840   0.009
 1394SOL     OW 5080   4.770   6.327   4.166
 1394SOL    HW1 5081   4.794   6.419   4.196
 1394SOL    HW2 5082   4.670   6.316   4.168
 1395SOL     OW 5083   1.563   5.041   2.116
 1395SOL    HW1 5084   1.506   5.110   2.160
 1395SOL    HW2 5085   1.538   5.033   2.020
 1396SOL     OW 5086   1.853   1.689   4.074
 1396SOL    HW1 5087   1.798   1.666   4.154
 1396SOL    HW2 5088   1.936   1.736   4.103
 1397SOL     OW 5089   0.039   5.102   4.668
 1397SOL    HW1 5090   0.013   5.014   4.628
 1397SOL    HW2 5091   0.024   5.099   4.767
 1398SOL     OW 5092   0.278   0.577   0.508
 1398SOL    HW1 5093   0.363   0.526   0.493
 1398SOL    HW2 5094   0.226   0.532   0.581
 1399SOL     OW 5095   4.341   0.353   0.314
 1399SOL    HW1 5096   4.318   0.332   0.409
 1399SOL    HW2 5097   4.345   0.453   0.302
 1400SOL     OW 5098   6.506   0.250   5.112
 1400SOL    HW1 5099   6.576   0.273   5.045
 1400SOL    HW2 5100   6.484   0.153   5.106
 1401SOL     OW 5101   5.340   0.326   3.341
 1401SOL    HW1 5102   5.275   0.251   3.345
 1401SOL    HW2 5103   5.432   0.292   3.361
 1402SOL     OW 5104   6.970   4.760   1.904
 1402SOL    HW1 5105   6.875   4.776   1.878
 1402SOL    HW2 5106   6.999   4.831   1.969
 1403SOL     OW 5107   2.981   2.977   6.362
 1403SOL    HW1 5108   2.908   3.031   6.319
 1403SOL    HW2 5109   3.055   2.963   6.297
 1404SOL     OW 5110   4.354   6.704   0.439
 1404SOL    HW1 5111   4.353   6.764   0.519
 1404SOL    HW2 5112   4.435   6.646   0.442
 1405SOL     OW 5113   1.094   3.673   1.125
 1405SOL    HW1 5114   1.059   3.760   1.092
 1405SOL    HW2 5115   1.034   3.599   1.093
 1406SOL     OW 5116   2.669   2.998   0.914
 1406SOL    HW1 5117   2.614   2.986   0.997
 1406SOL    HW2 5118   2.634   2.938   0.842
 1407SOL     OW 5119   0.368   3.259   0.957
 1407SOL    HW1 5120   0.309   3.193   1.005
 1407SOL    HW2 5121   0.443   3.287   1.018
 1408SOL     OW 5122   6.021   6.322   0.777
 1408SOL    HW1 5123   5.942   6.324   0.839
 1408SOL    HW2 5124   6.094   6.378   0.816
 1409SOL     OW 5125   6.597   1.798   5.710
 1409SOL    HW1 5126   6.670   1.730   5.704
 1409SOL    HW2 5127   6.510   1.752   5.726
 1410SOL     OW 5128   4.098   1.332   5.954
 1410SOL    HW1 5129   4.043   1.415   5.943
 1410SOL    HW2 5130   4.039   1.254   5.971
 1411SOL     OW 5131   3.482   5.066   0.079
 1411SOL    HW1 5132   3.385   5.082   0.096
 1411SOL    HW2 5133   3.522   5.018   0.156
 1412SOL     OW 5134   2.440   3.516   0.297
 1412SOL    HW1 5135   2.501   3.594   0.314
 1412SOL    HW2 5136   2.492   3.444   0.251
 1413SOL     OW 5137   1.370   1.518   5.137
 1413SOL    HW1 5138   1.272   1.507   5.120
 1413SOL    HW2 5139   1.411   1.569   5.062
 1414SOL     OW 5140   1.555   4.229   2.680
 1414SOL    HW1 5141   1.635   4.267   2.635
 1414SOL    HW2 5142   1.473   4.250   2.627
 1415SOL     OW 5143   2.235   1.894   4.746
 1415SOL    HW1 5144   2.319   1.847   4.774
 1415SOL    HW2 5145   2.231   1.897   4.646
 1416SOL     OW 5146   4.400   0.366   4.723
 1416SOL    HW1 5147   4.425   0.412   4.808
 1416SOL    HW2 5148   4.357   0.432   4.661
 1417SOL     OW 5149   3.299   3.052   6.003
 1417SOL    HW1 5150   3.322   2.990   5.928
 1417SOL    HW2 5151   3.306   3.147   5.971
 1418SOL     OW 5152   3.783   4.520   5.807
 1418SOL    HW1 5153   3.713   4.531   5.878
 1418SOL    HW2 5154   3.750   4.458   5.736
 1419SOL     OW 5155   2.312   4.836   2.509
 1419SOL    HW1 5156   2.333   4.787   2.425
 1419SOL    HW2 5157   2.214   4.836   2.524
 1420SOL     OW 5158   2.627   6.554   3.149
 1420SOL    HW1 5159   2.708   6.571   3.205
 1420SOL    HW2 5160   2.605   6.637   3.096
 1421SOL     OW 5161   1.311   4.711   5.346
 1421SOL    HW1 5162   1.289   4.710   5.249
 1421SOL    HW2 5163   1.246   4.653   5.395
 1422SOL     OW 5164   2.077   3.831   6.162
 1422SOL    HW1 5165   2.170   3.858   6.183
 1422SOL    HW2 5166   2.059   3.739   6.199
 1423SOL     OW 5167   4.491   0.501   4.963
 1423SOL    HW1 5168   4.578   0.451   4.958
 1423SOL    HW2 5169   4.460   0.505   5.058
 1424SOL     OW 5170   6.476   2.926   0.200
 1424SOL    HW1 5171   6.500   2.963   0.110
 1424SOL    HW2 5172   6.441   3.000   0.258
 1425SOL     OW 5173   5.056   6.239   3.403
 1425SOL    HW1 5174   4.996   6.160   3.405
 1425SOL    HW2 5175   5.002   6.322   3.385
 1426SOL     OW 5176   3.476   2.221   0.265
 1426SOL    HW1 5177   3.480   2.297   0.199
 1426SOL    HW2 5178   3.565   2.176   0.269
 1427SOL     OW 5179   1.834   0.456   4.018
 1427SOL    HW1 5180   1.919   0.490   3.977
 1427SOL    HW2 5181   1.766   0.529   4.019
 1428SOL     OW 5182   0.963   2.931   3.926
 1428SOL    HW1 5183   0.868   2.900   3.916
 1428SOL    HW2 5184   0.971   2.987   4.009
 1429SOL     OW 5185   6.156   1.086   1.280
 1429SOL    HW1 5186   6.098   1.017   1.236
 1429SOL    HW2 5187   6.233   1.107   1.220
 1430SOL     OW 5188   1.858   3.655   4.283
 1430SOL    HW1 5189   1.904   3.714   4.348
 1430SOL    HW2 5190   1.926   3.605   4.229
 1431SOL     OW 5191   2.492   1.326   6.369
 1431SOL    HW1 5192   2.487   1.266   6.449
 1431SOL    HW2 5193   2.410   1.316   6.314
 1432SOL     OW 5194   3.102   0.425   2.437
 1432SOL    HW1 5195   3.190   0.455   2.401
 1432SOL    HW2 5196   3.040   0.404   2.361
 1433SOL     OW 5197   2.274   0.073   4.040
 1433SOL    HW1 5198   2.350   0.127   4.076
 1433SOL    HW2 5199   2.264   7.017   4.094
 1434SOL     OW 5200   0.275   3.261   0.689
 1434SOL    HW1 5201   0.227   3.179   0.657
 1434SOL    HW2 5202   0.291   3.254   0.787
 1435SOL     OW 5203   1.615   6.808   3.849
 1435SOL    HW1 5204   1.664   6.721   3.862
 1435SOL    HW2 5205   1.661   6.880   3.901
 1436SOL     OW 5206   5.469   1.870   6.909
 1436SOL    HW1 5207   5.476   1.964   6.943
 1436SOL    HW2 5208   5.454   1.872   6.810
 1437SOL     OW 5209   3.726   0.561   6.198
 1437SOL    HW1 5210   3.644   0.608   6.232
 1437SOL    HW2 5211   3.710   0.462   6.197
 1438SOL     OW 5212   2.757   0.448   2.050
 1438SOL    HW1 5213   2.754   0.496   2.137
 1438SOL    HW2 5214   2.787   0.354   2.065
 1439SOL     OW 5215   0.207   4.842   0.093
 1439SOL    HW1 5216   0.118   4.873   0.127
 1439SOL    HW2 5217   0.231   4.895   0.011
 1440SOL     OW 5218   3.773   3.308   3.073
 1440SOL    HW1 5219   3.775   3.408   3.083
 1440SOL    HW2 5220   3.783   3.284   2.977
 1441SOL     OW 5221   6.438   2.885   3.989
 1441SOL    HW1 5222   6.417   2.905   4.084
 1441SOL    HW2 5223   6.406   2.793   3.966
 1442SOL     OW 5224   5.620   5.560   0.162
 1442SOL    HW1 5225   5.677   5.609   0.227
 1442SOL    HW2 5226   5.662   5.563   0.071
 1443SOL     OW 5227   0.584   2.836   2.818
 1443SOL    HW1 5228   0.510   2.865   2.758
 1443SOL    HW2 5229   0.659   2.903   2.814
 1444SOL     OW 5230   4.711   1.085   4.066
 1444SOL    HW1 5231   4.792   1.055   4.117
 1444SOL    HW2 5232   4.655   1.006   4.044
 1445SOL     OW 5233   6.480   1.858   0.894
 1445SOL    HW1 5234   6.544   1.881   0.967
 1445SOL    HW2 5235   6.406   1.924   0.892
 1446SOL     OW 5236   4.151   0.582   1.447
 1446SOL    HW1 5237   4.165   0.593   1.348
 1446SOL    HW2 5238   4.064   0.623   1.473
 1447SOL     OW 5239   6.029   0.950   5.680
 1447SOL    HW1 5240   5.932   0.973   5.674
 1447SOL    HW2 5241   6.051   0.879   5.614
 1448SOL     OW 5242   5.457   0.697   6.578
 1448SOL    HW1 5243   5.378   0.697   6.516
 1448SOL    HW2 5244   5.437   0.640   6.657
 1449SOL     OW 5245   4.320   5.634   1.131
 1449SOL    HW1 5246   4.269   5.707   1.177
 1449SOL    HW2 5247   4.368   5.579   1.199
 1450SOL     OW 5248   5.543   2.773   3.593
 1450SOL    HW1 5249   5.614   2.739   3.531
 1450SOL    HW2 5250   5.521   2.868   3.569
 1451SOL     OW 5251   1.702   6.630   2.957
 1451SOL    HW1 5252   1.775   6.572   2.921
 1451SOL    HW2 5253   1.737   6.680   3.036
 1452SOL     OW 5254   4.502   1.068   4.956
 1452SOL    HW1 5255   4.458   1.002   5.016
 1452SOL    HW2 5256   4.471   1.160   4.979
 1453SOL     OW 5257   5.299   4.497   4.805
 1453SOL    HW1 5258   5.373   4.488   4.873
 1453SOL    HW2 5259   5.214   4.520   4.852
 1454SOL     OW 5260   4.198   3.780   1.338
 1454SOL    HW1 5261   4.284   3.729   1.337
 1454SOL    HW2 5262   4.125   3.724   1.300
 1455SOL     OW 5263   1.895   2.529   1.785
 1455SOL    HW1 5264   1.968   2.490   1.842
 1455SOL    HW2 5265   1.866   2.616   1.825
 1456SOL     OW 5266   6.561   5.969   3.877
 1456SOL    HW1 5267   6.508   5.927   3.803
 1456SOL    HW2 5268   6.656   5.941   3.869
 1457SOL     OW 5269   1.797   0.279   2.984
 1457SOL    HW1 5270   1.867   0.339   3.021
 1457SOL    HW2 5271   1.729   0.334   2.935
 1458SOL     OW 5272   6.225   5.188   7.012
 1458SOL    HW1 5273   6.191   5.099   6.979
 1458SOL    HW2 5274   6.162   5.223   0.054
 1459SOL     OW 5275   2.439   0.209   0.692
 1459SOL    HW1 5276   2.348   0.179   0.722
 1459SOL    HW2 5277   2.507   0.140   0.714
 1460SOL     OW 5278   1.019   6.728   0.097
 1460SOL    HW1 5279   1.104   6.717   0.045
 1460SOL    HW2 5280   1.039   6.720   0.195
 1461SOL     OW 5281   5.371   5.201   1.539
 1461SOL    HW1 5282   5.375   5.219   1.441
 1461SOL    HW2 5283   5.280   5.164   1.562
 1462SOL     OW 5284   5.191   0.532   6.076
 1462SOL    HW1 5285   5.110   0.504   6.025
 1462SOL    HW2 5286   5.173   0.618   6.125
 1463SOL     OW 5287   0.648   1.183   4.926
 1463SOL    HW1 5288   0.575   1.171   4.858
 1463SOL    HW2 5289   0.614   1.158   5.016
 1464SOL     OW 5290   0.092   6.296   0.838
 1464SOL    HW1 5291   0.115   6.386   0.803
 1464SOL    HW2 5292   0.134   6.283   0.928
 1465SOL     OW 5293   0.227   0.034   4.759
 1465SOL    HW1 5294   0.324   0.037   4.736
 1465SOL    HW2 5295   0.187   6.978   4.721
 1466SOL     OW 5296   5.751   5.195   3.909
 1466SOL    HW1 5297   5.695   5.194   3.827
 1466SOL    HW2 5298   5.839   5.151   3.891
 1467SOL     OW 5299   0.100   3.042   3.353
 1467SOL    HW1 5300   0.192   3.070   3.383
 1467SOL    HW2 5301   0.069   3.103   3.280
 1468SOL     OW 5302   5.844   5.913   3.061
 1468SOL    HW1 5303   5.845   5.949   3.154
 1468SOL    HW2 5304   5.850   5.989   2.996
 1469SOL     OW 5305   0.218   1.109   2.814
 1469SOL    HW1 5306   0.278   1.189   2.823
 1469SOL    HW2 5307   0.224   1.053   2.897
 1470SOL     OW 5308   6.964   0.916   3.404
 1470SOL    HW1 5309   0.005   0.844   3.396
 1470SOL    HW2 5310   6.889   0.898   3.341
 1471SOL     OW 5311   6.856   0.274   0.026
 1471SOL    HW1 5312   6.868   0.373   0.028
 1471SOL    HW2 5313   6.904   0.236   6.974
 1472SOL     OW 5314   4.602   0.259   5.232
 1472SOL    HW1 5315   4.616   0.201   5.313
 1472SOL    HW2 5316   4.516   0.233   5.188
 1473SOL     OW 5317   6.075   4.138   3.960
 1473SOL    HW1 5318   6.030   4.152   3.872
 1473SOL    HW2 5319   6.138   4.213   3.978
 1474SOL     OW 5320   4.636   5.595   3.615
 1474SOL    HW1 5321   4.607   5.532   3.687
 1474SOL    HW2 5322   4.639   5.546   3.528
 1475SOL     OW 5323   0.318   0.864   2.559
 1475SOL    HW1 5324   0.363   0.952   2.545
 1475SOL    HW2 5325   0.291   0.826   2.471
 1476SOL     OW 5326   6.467   1.782   1.638
 1476SOL    HW1 5327   6.548   1.800   1.694
 1476SOL    HW2 5328   6.479   1.696   1.589
 1477SOL     OW 5329   2.885   6.289   3.527
 1477SOL    HW1 5330   2.874   6.249   3.618
 1477SOL    HW2 5331   2.899   6.215   3.460
 1478SOL     OW 5332   6.722   4.676   1.516
 1478SOL    HW1 5333   6.674   4.599   1.559
 1478SOL    HW2 5334   6.729   4.752   1.581
 1479SOL     OW 5335   1.711   5.442   0.594
 1479SOL    HW1 5336   1.767   5.359   0.594
 1479SOL    HW2 5337   1.686   5.465   0.688
 1480SOL     OW 5338   2.662   1.213   0.082
 1480SOL    HW1 5339   2.723   1.264   0.022
 1480SOL    HW2 5340   2.623   1.136   0.031
 1481SOL     OW 5341   6.262   2.196   6.245
 1481SOL    HW1 5342   6.269   2.253   6.164
 1481SOL    HW2 5343   6.170   2.157   6.251
 1482SOL     OW 5344   5.705   0.597   6.487
 1482SOL    HW1 5345   5.729   0.642   6.401
 1482SOL    HW2 5346   5.626   0.643   6.528
 1483SOL     OW 5347   6.006   2.043   6.347
 1483SOL    HW1 5348   5.910   2.055   6.322
 1483SOL    HW2 5349   6.016   2.054   6.446
 1484SOL     OW 5350   6.232   5.885   3.080
 1484SOL    HW1 5351   6.196   5.950   3.014
 1484SOL    HW2 5352   6.183   5.894   3.167
 1485SOL     OW 5353   5.145   3.128   3.852
 1485SOL    HW1 5354   5.069   3.104   3.912
 1485SOL    HW2 5355   5.119   3.110   3.757
 1486SOL     OW 5356   4.858   2.340   2.292
 1486SOL    HW1 5357   4.935   2.338   2.229
 1486SOL    HW2 5358   4.807   2.425   2.281
 1487SOL     OW 5359   6.271   1.562   5.304
 1487SOL    HW1 5360   6.287   1.485   5.243
 1487SOL    HW2 5361   6.213   1.533   5.380
 1488SOL     OW 5362   4.090   1.832   3.226
 1488SOL    HW1 5363   4.004   1.821   3.175
 1488SOL    HW2 5364   4.088   1.916   3.278
 1489SOL     OW 5365   3.929   5.849   4.968
 1489SOL    HW1 5366   4.010   5.908   4.975
 1489SOL    HW2 5367   3.898   5.848   4.873
 1490SOL     OW 5368   2.033   2.819   0.651
 1490SOL    HW1 5369   2.097   2.754   0.611
 1490SOL    HW2 5370   2.035   2.812   0.750
 1491SOL     OW 5371   0.388   2.888   4.903
 1491SOL    HW1 5372   0.338   2.960   4.856
 1491SOL    HW2 5373   0.329   2.844   4.971
 1492SOL     OW 5374   5.583   2.638   2.452
 1492SOL    HW1 5375   5.655   2.636   2.521
 1492SOL    HW2 5376   5.624   2.655   2.362
 1493SOL     OW 5377   4.889   0.577   4.932
 1493SOL    HW1 5378   4.831   0.652   4.962
 1493SOL    HW2 5379   4.833   0.496   4.913
 1494SOL     OW 5380   5.314   3.056   5.530
 1494SOL    HW1 5381   5.368   3.136   5.553
 1494SOL    HW2 5382   5.226   3.085   5.491
 1495SOL     OW 5383   2.143   2.972   2.722
 1495SOL    HW1 5384   2.127   2.876   2.743
 1495SOL    HW2 5385   2.166   3.022   2.806
 1496SOL     OW 5386   0.933   1.295   2.593
 1496SOL    HW1 5387   0.888   1.308   2.505
 1496SOL    HW2 5388   1.032   1.308   2.583
 1497SOL     OW 5389   5.547   5.108   5.403
 1497SOL    HW1 5390   5.538   5.018   5.361
 1497SOL    HW2 5391   5.462   5.160   5.390
 1498SOL     OW 5392   2.330   6.359   0.685
 1498SOL    HW1 5393   2.360   6.428   0.618
 1498SOL    HW2 5394   2.400   6.288   0.693
 1499SOL     OW 5395   0.303   4.355   5.528
 1499SOL    HW1 5396   0.313   4.424   5.456
 1499SOL    HW2 5397   0.380   4.291   5.524
 1500SOL     OW 5398   4.799   6.977   5.843
 1500SOL    HW1 5399   4.880   7.018   5.801
 1500SOL    HW2 5400   4.743   6.934   5.773
 1501SOL     OW 5401   3.893   6.876   5.991
 1501SOL    HW1 5402   3.980   6.885   6.039
 1501SOL    HW2 5403   3.892   6.790   5.939
 1502SOL     OW 5404   6.386   6.073   6.891
 1502SOL    HW1 5405   6.447   5.995   6.882
 1502SOL    HW2 5406   6.303   6.046   6.938
 1503SOL     OW 5407   2.897   3.392   6.051
 1503SOL    HW1 5408   2.973   3.419   6.111
 1503SOL    HW2 5409   2.905   3.440   5.963
 1504SOL     OW 5410   2.191   5.762   4.508
 1504SOL    HW1 5411   2.141   5.678   4.486
 1504SOL    HW2 5412   2.125   5.837   4.521
 1505SOL     OW 5413   4.799   5.310   0.572
 1505SOL    HW1 5414   4.885   5.260   0.558
 1505SOL    HW2 5415   4.729   5.274   0.509
 1506SOL     OW 5416   0.717   5.694   3.749
 1506SOL    HW1 5417   0.659   5.622   3.712
 1506SOL    HW2 5418   0.803   5.697   3.698
 1507SOL     OW 5419   1.646   1.502   6.623
 1507SOL    HW1 5420   1.745   1.502   6.638
 1507SOL    HW2 5421   1.616   1.595   6.602
 1508SOL     OW 5422   5.172   0.192   0.166
 1508SOL    HW1 5423   5.072   0.187   0.162
 1508SOL    HW2 5424   5.206   0.120   0.226
 1509SOL     OW 5425   4.947   2.309   0.328
 1509SOL    HW1 5426   5.026   2.270   0.375
 1509SOL    HW2 5427   4.957   2.409   0.325
 1510SOL     OW 5428   6.984   1.554   3.829
 1510SOL    HW1 5429   0.006   1.524   3.748
 1510SOL    HW2 5430   0.021   1.568   3.904
 1511SOL     OW 5431   1.910   2.572   1.142
 1511SOL    HW1 5432   1.968   2.621   1.077
 1511SOL    HW2 5433   1.903   2.625   1.227
 1512SOL     OW 5434   6.513   0.426   2.351
 1512SOL    HW1 5435   6.464   0.466   2.274
 1512SOL    HW2 5436   6.512   0.327   2.344
 1513SOL     OW 5437   3.691   1.284   2.278
 1513SOL    HW1 5438   3.725   1.221   2.209
 1513SOL    HW2 5439   3.719   1.377   2.255
 1514SOL     OW 5440   5.109   1.693   5.029
 1514SOL    HW1 5441   5.142   1.612   5.078
 1514SOL    HW2 5442   5.063   1.664   4.944
 1515SOL     OW 5443   6.894   4.398   4.470
 1515SOL    HW1 5444   6.803   4.359   4.464
 1515SOL    HW2 5445   6.921   4.435   4.381
 1516SOL     OW 5446   1.024   1.829   1.103
 1516SOL    HW1 5447   1.027   1.893   1.179
 1516SOL    HW2 5448   0.931   1.796   1.090
 1517SOL     OW 5449   3.717   5.443   3.259
 1517SOL    HW1 5450   3.633   5.496   3.249
 1517SOL    HW2 5451   3.713   5.362   3.200
 1518SOL     OW 5452   0.932   4.813   1.065
 1518SOL    HW1 5453   0.834   4.827   1.054
 1518SOL    HW2 5454   0.978   4.826   0.977
 1519SOL     OW 5455   6.760   4.785   0.704
 1519SOL    HW1 5456   6.661   4.768   0.699
 1519SOL    HW2 5457   6.789   4.781   0.799
 1520SOL     OW 5458   1.454   3.494   3.192
 1520SOL    HW1 5459   1.361   3.524   3.171
 1520SOL    HW2 5460   1.512   3.508   3.111
 1521SOL     OW 5461   2.576   4.301   6.128
 1521SOL    HW1 5462   2.608   4.207   6.114
 1521SOL    HW2 5463   2.576   4.322   6.225
 1522SOL     OW 5464   6.391   2.414   6.460
 1522SOL    HW1 5465   6.393   2.317   6.436
 1522SOL    HW2 5466   6.484   2.447   6.473
 1523SOL     OW 5467   0.168   1.440   0.784
 1523SOL    HW1 5468   0.114   1.397   0.856
 1523SOL    HW2 5469   0.221   1.516   0.822
 1524SOL     OW 5470   6.896   1.132   2.706
 1524SOL    HW1 5471   6.896   1.035   2.684
 1524SOL    HW2 5472   6.805   1.159   2.738
 1525SOL     OW 5473   4.568   2.127   6.279
 1525SOL    HW1 5474   4.626   2.098   6.203
 1525SOL    HW2 5475   4.597   2.080   6.363
 1526SOL     OW 5476   0.111   2.388   1.497
 1526SOL    HW1 5477   0.089   2.429   1.585
 1526SOL    HW2 5478   0.200   2.422   1.466
 1527SOL     OW 5479   2.980   1.148   5.287
 1527SOL    HW1 5480   2.888   1.131   5.321
 1527SOL    HW2 5481   2.985   1.125   5.190
 1528SOL     OW 5482   5.434   6.377   3.508
 1528SOL    HW1 5483   5.387   6.303   3.461
 1528SOL    HW2 5484   5.378   6.460   3.504
 1529SOL     OW 5485   2.845   0.553   6.054
 1529SOL    HW1 5486   2.933   0.600   6.059
 1529SOL    HW2 5487   2.843   0.495   5.972
 1530SOL     OW 5488   3.910   6.401   1.656
 1530SOL    HW1 5489   3.979   6.332   1.677
 1530SOL    HW2 5490   3.832   6.391   1.717
 1531SOL     OW 5491   0.013   6.804   4.857
 1531SOL    HW1 5492   0.054   6.880   4.907
 1531SOL    HW2 5493   6.975   6.839   4.790
 1532SOL     OW 5494   3.200   1.642   5.123
 1532SOL    HW1 5495   3.187   1.615   5.028
 1532SOL    HW2 5496   3.297   1.652   5.142
 1533SOL     OW 5497   5.987   2.885   6.751
 1533SOL    HW1 5498   5.994   2.792   6.788
 1533SOL    HW2 5499   5.931   2.883   6.668
 1534SOL     OW 5500   0.368   6.463   1.883
 1534SOL    HW1 5501   0.275   6.460   1.848
 1534SOL    HW2 5502   0.406   6.370   1.885
 1535SOL     OW 5503   5.105   5.207   4.479
 1535SOL    HW1 5504   5.188   5.169   4.438
 1535SOL    HW2 5505   5.042   5.234   4.407
 1536SOL     OW 5506   2.358   5.847   4.292
 1536SOL    HW1 5507   2.318   5.780   4.355
 1536SOL    HW2 5508   2.452   5.820   4.271
 1537SOL     OW 5509   1.613   5.340   4.325
 1537SOL    HW1 5510   1.686   5.311   4.264
 1537SOL    HW2 5511   1.537   5.377   4.271
 1538SOL     OW 5512   2.759   5.598   6.568
 1538SOL    HW1 5513   2.790   5.523   6.510
 1538SOL    HW2 5514   2.673   5.573   6.611
 1539SOL     OW 5515   3.371   4.680   1.692
 1539SOL    HW1 5516   3.291   4.676   1.752
 1539SOL    HW2 5517   3.453   4.659   1.746
 1540SOL     OW 5518   0.418   6.182   4.562
 1540SOL    HW1 5519   0.431   6.262   4.504
 1540SOL    HW2 5520   0.327   6.184   4.603
 1541SOL     OW 5521   5.195   2.280   1.505
 1541SOL    HW1 5522   5.222   2.376   1.510
 1541SOL    HW2 5523   5.178   2.255   1.410
 1542SOL     OW 5524   0.998   6.472   1.114
 1542SOL    HW1 5525   0.992   6.425   1.025
 1542SOL    HW2 5526   1.082   6.526   1.116
 1543SOL     OW 5527   2.979   3.882   4.134
 1543SOL    HW1 5528   2.934   3.798   4.164
 1543SOL    HW2 5529   2.990   3.943   4.212
 1544SOL     OW 5530   3.774   4.000   2.706
 1544SOL    HW1 5531   3.820   3.971   2.791
 1544SOL    HW2 5532   3.843   4.024   2.638
 1545SOL     OW 5533   5.991   0.433   4.817
 1545SOL    HW1 5534   5.984   0.465   4.911
 1545SOL    HW2 5535   6.044   0.499   4.763
 1546SOL     OW 5536   1.020   6.798   6.162
 1546SOL    HW1 5537   1.052   6.812   6.256
 1546SOL    HW2 5538   1.050   6.874   6.105
 1547SOL     OW 5539   3.561   6.027   6.959
 1547SOL    HW1 5540   3.580   5.928   6.954
 1547SOL    HW2 5541   3.481   6.047   6.903
 1548SOL     OW 5542   5.591   4.011   4.646
 1548SOL    HW1 5543   5.659   3.943   4.677
 1548SOL    HW2 5544   5.555   4.060   4.725
 1549SOL     OW 5545   6.772   1.810   1.233
 1549SOL    HW1 5546   6.767   1.776   1.139
 1549SOL    HW2 5547   6.765   1.734   1.297
 1550SOL     OW 5548   2.529   5.828   4.811
 1550SOL    HW1 5549   2.520   5.871   4.721
 1550SOL    HW2 5550   2.492   5.735   4.807
 1551SOL     OW 5551   1.646   2.707   0.419
 1551SOL    HW1 5552   1.564   2.650   0.422
 1551SOL    HW2 5553   1.712   2.675   0.487
 1552SOL     OW 5554   0.513   0.458   0.528
 1552SOL    HW1 5555   0.459   0.391   0.578
 1552SOL    HW2 5556   0.598   0.415   0.496
 1553SOL     OW 5557   6.059   1.162   6.291
 1553SOL    HW1 5558   6.061   1.165   6.391
 1553SOL    HW2 5559   5.982   1.105   6.262
 1554SOL     OW 5560   3.170   1.758   1.359
 1554SOL    HW1 5561   3.075   1.726   1.357
 1554SOL    HW2 5562   3.189   1.799   1.448
 1555SOL     OW 5563   4.072   1.100   5.330
 1555SOL    HW1 5564   4.000   1.047   5.375
 1555SOL    HW2 5565   4.080   1.071   5.235
 1556SOL     OW 5566   4.015   1.583   0.588
 1556SOL    HW1 5567   3.996   1.587   0.686
 1556SOL    HW2 5568   4.096   1.527   0.572
 1557SOL     OW 5569   1.802   2.647   0.657
 1557SOL    HW1 5570   1.833   2.553   0.645
 1557SOL    HW2 5571   1.880   2.709   0.650
 1558SOL     OW 5572   5.824   3.025   6.410
 1558SOL    HW1 5573   5.917   3.057   6.428
 1558SOL    HW2 5574   5.766   3.102   6.384
 1559SOL     OW 5575   1.952   4.484   3.392
 1559SOL    HW1 5576   1.872   4.424   3.403
 1559SOL    HW2 5577   1.968   4.534   3.477
 1560SOL     OW 5578   4.202   1.591   1.327
 1560SOL    HW1 5579   4.185   1.607   1.424
 1560SOL    HW2 5580   4.238   1.675   1.285
 1561SOL     OW 5581   6.191   5.947   1.016
 1561SOL    HW1 5582   6.100   5.974   1.049
 1561SOL    HW2 5583   6.222   5.867   1.068
 1562SOL     OW 5584   3.979   6.501   2.348
 1562SOL    HW1 5585   4.013   6.520   2.440
 1562SOL    HW2 5586   3.999   6.578   2.288
 1563SOL     OW 5587   3.850   2.114   4.090
 1563SOL    HW1 5588   3.927   2.161   4.132
 1563SOL    HW2 5589   3.878   2.074   4.003
 1564SOL     OW 5590   1.325   2.408   3.122
 1564SOL    HW1 5591   1.409   2.449   3.158
 1564SOL    HW2 5592   1.346   2.356   3.039
 1565SOL     OW 5593   3.911   1.086   4.206
 1565SOL    HW1 5594   3.969   1.110   4.284
 1565SOL    HW2 5595   3.885   1.169   4.157
 1566SOL     OW 5596   4.680   4.655   2.945
 1566SOL    HW1 5597   4.583   4.641   2.927
 1566SOL    HW2 5598   4.728   4.567   2.940
 1567SOL     OW 5599   4.974   0.354   5.264
 1567SOL    HW1 5600   4.912   0.308   5.202
 1567SOL    HW2 5601   5.069   0.333   5.239
 1568SOL     OW 5602   2.308   5.526   2.142
 1568SOL    HW1 5603   2.235   5.559   2.083
 1568SOL    HW2 5604   2.315   5.585   2.223
 1569SOL     OW 5605   3.384   0.306   3.456
 1569SOL    HW1 5606   3.331   0.343   3.532
 1569SOL    HW2 5607   3.369   0.362   3.375
 1570SOL     OW 5608   3.569   6.396   6.558
 1570SOL    HW1 5609   3.560   6.495   6.565
 1570SOL    HW2 5610   3.607   6.360   6.644
 1571SOL     OW 5611   1.135   2.515   4.633
 1571SOL    HW1 5612   1.169   2.504   4.540
 1571SOL    HW2 5613   1.038   2.539   4.630
 1572SOL     OW 5614   2.139   5.101   1.902
 1572SOL    HW1 5615   2.099   5.019   1.943
 1572SOL    HW2 5616   2.163   5.082   1.806
 1573SOL     OW 5617   5.563   5.422   0.392
 1573SOL    HW1 5618   5.615   5.479   0.455
 1573SOL    HW2 5619   5.577   5.454   0.299
 1574SOL     OW 5620   6.980   3.526   3.346
 1574SOL    HW1 5621   7.023   3.497   3.260
 1574SOL    HW2 5622   6.985   3.625   3.353
 1575SOL     OW 5623   0.011   1.137   0.627
 1575SOL    HW1 5624   6.957   1.083   0.647
 1575SOL    HW2 5625   7.012   1.226   0.592
 1576SOL     OW 5626   0.984   0.290   2.197
 1576SOL    HW1 5627   1.040   0.369   2.175
 1576SOL    HW2 5628   0.939   0.304   2.286
 1577SOL     OW 5629   4.428   6.030   5.346
 1577SOL    HW1 5630   4.372   6.033   5.429
 1577SOL    HW2 5631   4.375   6.067   5.269
 1578SOL     OW 5632   5.312   1.176   0.961
 1578SOL    HW1 5633   5.368   1.103   1.000
 1578SOL    HW2 5634   5.273   1.231   1.034
 1579SOL     OW 5635   1.633   2.602   1.486
 1579SOL    HW1 5636   1.610   2.660   1.565
 1579SOL    HW2 5637   1.609   2.507   1.506
 1580SOL     OW 5638   3.261   3.710   2.758
 1580SOL    HW1 5639   3.251   3.613   2.778
 1580SOL    HW2 5640   3.171   3.754   2.762
 1581SOL     OW 5641   6.218   4.080   5.587
 1581SOL    HW1 5642   6.295   4.109   5.645
 1581SOL    HW2 5643   6.133   4.114   5.626
 1582SOL     OW 5644   4.175   6.499   5.023
 1582SOL    HW1 5645   4.111   6.566   5.062
 1582SOL    HW2 5646   4.260   6.500   5.075
 1583SOL     OW 5647   1.441   6.150   5.158
 1583SOL    HW1 5648   1.522   6.105   5.122
 1583SOL    HW2 5649   1.378   6.172   5.082
 1584SOL     OW 5650   0.425   5.253   0.241
 1584SOL    HW1 5651   0.425   5.154   0.250
 1584SOL    HW2 5652   0.331   5.286   0.239
 1585SOL     OW 5653   4.087   6.402   3.295
 1585SOL    HW1 5654   3.989   6.423   3.297
 1585SOL    HW2 5655   4.101   6.305   3.311
 1586SOL     OW 5656   3.266   4.981   3.561
 1586SOL    HW1 5657   3.356   4.946   3.533
 1586SOL    HW2 5658   3.195   4.933   3.511
 1587SOL     OW 5659   2.222   6.295   6.019
 1587SOL    HW1 5660   2.130   6.308   5.982
 1587SOL    HW2 5661   2.257   6.382   6.052
 1588SOL     OW 5662   5.597   1.072   3.059
 1588SOL    HW1 5663   5.660   1.029   2.995
 1588SOL    HW2 5664   5.633   1.065   3.151
 1589SOL     OW 5665   5.940   4.733   3.963
 1589SOL    HW1 5666   5.905   4.650   3.918
 1589SOL    HW2 5667   5.954   4.715   4.060
 1590SOL     OW 5668   6.052   2.669   3.605
 1590SOL    HW1 5669   6.090   2.711   3.688
 1590SOL    HW2 5670   6.124   2.664   3.536
 1591SOL     OW 5671   1.086   6.480   2.034
 1591SOL    HW1 5672   1.153   6.512   1.966
 1591SOL    HW2 5673   1.112   6.513   2.125
 1592SOL     OW 5674   6.971   4.151   6.664
 1592SOL    HW1 5675   6.977   4.052   6.656
 1592SOL    HW2 5676   0.023   4.193   6.620
 1593SOL     OW 5677   2.933   0.462   0.409
 1593SOL    HW1 5678   2.945   0.375   0.456
 1593SOL    HW2 5679   2.911   0.533   0.475
 1594SOL     OW 5680   6.304   0.331   1.990
 1594SOL    HW1 5681   6.323   0.252   2.049
 1594SOL    HW2 5682   6.257   0.402   2.043
 1595SOL     OW 5683   0.144   4.033   7.009
 1595SOL    HW1 5684   0.219   4.022   0.047
 1595SOL    HW2 5685   0.100   3.945   6.992
 1596SOL     OW 5686   4.842   5.063   2.578
 1596SOL    HW1 5687   4.884   5.141   2.530
 1596SOL    HW2 5688   4.795   5.097   2.659
 1597SOL     OW 5689   3.924   6.419   6.589
 1597SOL    HW1 5690   3.956   6.507   6.623
 1597SOL    HW2 5691   3.915   6.355   6.665
 1598SOL     OW 5692   1.886   5.288   0.281
 1598SOL    HW1 5693   1.942   5.243   0.211
 1598SOL    HW2 5694   1.934   5.283   0.369
 1599SOL     OW 5695   4.678   5.204   3.521
 1599SOL    HW1 5696   4.776   5.203   3.541
 1599SOL    HW2 5697   4.663   5.236   3.427
 1600SOL     OW 5698   4.690   6.868   2.508
 1600SOL    HW1 5699   4.639   6.946   2.542
 1600SOL    HW2 5700   4.637   6.821   2.437
 1601SOL     OW 5701   6.544   6.652   4.520
 1601SOL    HW1 5702   6.569   6.670   4.615
 1601SOL    HW2 5703   6.622   6.672   4.461
 1602SOL     OW 5704   3.890   5.066   3.691
 1602SOL    HW1 5705   3.840   5.001   3.749
 1602SOL    HW2 5706   3.985   5.070   3.721
 1603SOL     OW 5707   3.292   5.504   2.719
 1603SOL    HW1 5708   3.309   5.502   2.620
 1603SOL    HW2 5709   3.374   5.536   2.766
 1604SOL     OW 5710   4.203   5.452   2.193
 1604SOL    HW1 5711   4.152   5.418   2.273
 1604SOL    HW2 5712   4.273   5.386   2.169
 1605SOL     OW 5713   4.566   5.437   0.991
 1605SOL    HW1 5714   4.528   5.452   1.083
 1605SOL    HW2 5715   4.622   5.515   0.964
 1606SOL     OW 5716   3.711   6.351   4.634
 1606SOL    HW1 5717   3.628   6.300   4.616
 1606SOL    HW2 5718   3.786   6.288   4.653
 1607SOL     OW 5719   4.374   6.117   3.269
 1607SOL    HW1 5720   4.384   6.134   3.171
 1607SOL    HW2 5721   4.277   6.106   3.292
 1608SOL     OW 5722   5.925   0.768   3.246
 1608SOL    HW1 5723   5.877   0.687   3.211
 1608SOL    HW2 5724   5.859   0.841   3.262
 1609SOL     OW 5725   3.539   6.515   6.900
 1609SOL    HW1 5726   3.506   6.427   6.864
 1609SOL    HW2 5727   3.619   6.499   6.958
 1610SOL     OW 5728   5.380   0.291   0.638
 1610SOL    HW1 5729   5.444   0.214   0.646
 1610SOL    HW2 5730   5.296   0.260   0.595
 1611SOL     OW 5731   1.064   4.108   1.619
 1611SOL    HW1 5732   0.973   4.103   1.578
 1611SOL    HW2 5733   1.096   4.016   1.640
 1612SOL     OW 5734   3.970   6.882   1.965
 1612SOL    HW1 5735   3.926   6.929   1.889
 1612SOL    HW2 5736   3.939   6.922   2.051
 1613SOL     OW 5737   7.005   5.343   2.204
 1613SOL    HW1 5738   6.959   5.431   2.220
 1613SOL    HW2 5739   0.048   5.355   2.134
 1614SOL     OW 5740   6.671   2.125   6.125
 1614SOL    HW1 5741   6.661   2.224   6.114
 1614SOL    HW2 5742   6.599   2.091   6.186
 1615SOL     OW 5743   1.378   4.789   6.059
 1615SOL    HW1 5744   1.364   4.706   6.005
 1615SOL    HW2 5745   1.436   4.853   6.009
 1616SOL     OW 5746   2.360   1.479   4.555
 1616SOL    HW1 5747   2.379   1.576   4.538
 1616SOL    HW2 5748   2.344   1.432   4.468
 1617SOL     OW 5749   5.611   6.132   3.339
 1617SOL    HW1 5750   5.698   6.098   3.303
 1617SOL    HW2 5751   5.629   6.192   3.417
 1618SOL     OW 5752   3.035   5.080   2.845
 1618SOL    HW1 5753   2.963   5.130   2.799
 1618SOL    HW2 5754   3.091   5.143   2.899
 1619SOL     OW 5755   1.386   5.112   6.621
 1619SOL    HW1 5756   1.433   5.109   6.709
 1619SOL    HW2 5757   1.406   5.199   6.575
 1620SOL     OW 5758   3.837   5.473   6.218
 1620SOL    HW1 5759   3.932   5.443   6.230
 1620SOL    HW2 5760   3.810   5.459   6.122
 1621SOL     OW 5761   5.072   6.457   0.880
 1621SOL    HW1 5762   5.093   6.489   0.972
 1621SOL    HW2 5763   4.974   6.468   0.862
 1622SOL     OW 5764   0.366   4.254   4.002
 1622SOL    HW1 5765   0.292   4.292   3.948
 1622SOL    HW2 5766   0.401   4.171   3.957
 1623SOL     OW 5767   0.698   1.957   3.743
 1623SOL    HW1 5768   0.696   1.871   3.692
 1623SOL    HW2 5769   0.634   2.022   3.701
 1624SOL     OW 5770   4.314   1.616   0.902
 1624SOL    HW1 5771   4.356   1.690   0.954
 1624SOL    HW2 5772   4.336   1.626   0.805
 1625SOL     OW 5773   1.039   5.550   0.908
 1625SOL    HW1 5774   0.960   5.578   0.962
 1625SOL    HW2 5775   1.114   5.525   0.970
 1626SOL     OW 5776   2.854   1.964   1.083
 1626SOL    HW1 5777   2.810   1.896   1.142
 1626SOL    HW2 5778   2.924   2.013   1.134
 1627SOL     OW 5779   4.220   1.769   4.187
 1627SOL    HW1 5780   4.269   1.704   4.245
 1627SOL    HW2 5781   4.142   1.723   4.143
 1628SOL     OW 5782   5.071   6.625   0.253
 1628SOL    HW1 5783   5.045   6.714   0.291
 1628SOL    HW2 5784   5.115   6.638   0.164
 1629SOL     OW 5785   2.022   0.878   3.665
 1629SOL    HW1 5786   1.953   0.872   3.593
 1629SOL    HW2 5787   2.096   0.938   3.634
 1630SOL     OW 5788   0.142   3.357   0.052
 1630SOL    HW1 5789   0.043   3.345   0.056
 1630SOL    HW2 5790   0.168   3.441   0.099
 1631SOL     OW 5791   6.778   3.060   0.353
 1631SOL    HW1 5792   6.726   3.101   0.428
 1631SOL    HW2 5793   6.784   2.961   0.366
 1632SOL     OW 5794   6.765   4.768   2.460
 1632SOL    HW1 5795   6.684   4.783   2.518
 1632SOL    HW2 5796   6.810   4.855   2.443
 1633SOL     OW 5797   4.938   3.068   4.011
 1633SOL    HW1 5798   4.859   3.035   3.959
 1633SOL    HW2 5799   4.953   3.008   4.089
 1634SOL     OW 5800   5.493   0.598   4.527
 1634SOL    HW1 5801   5.404   0.569   4.492
 1634SOL    HW2 5802   5.518   0.539   4.604
 1635SOL     OW 5803   3.423   5.642   3.946
 1635SOL    HW1 5804   3.405   5.560   3.891
 1635SOL    HW2 5805   3.513   5.678   3.924
 1636SOL     OW 5806   5.936   6.427   1.502
 1636SOL    HW1 5807   6.024   6.449   1.460
 1636SOL    HW2 5808   5.917   6.491   1.577
 1637SOL     OW 5809   0.302   0.218   2.055
 1637SOL    HW1 5810   0.269   0.245   2.145
 1637SOL    HW2 5811   0.260   0.276   1.985
 1638SOL     OW 5812   6.682   2.999   2.243
 1638SOL    HW1 5813   6.652   2.904   2.243
 1638SOL    HW2 5814   6.644   3.047   2.321
 1639SOL     OW 5815   5.091   2.432   2.696
 1639SOL    HW1 5816   5.142   2.498   2.640
 1639SOL    HW2 5817   5.004   2.472   2.724
 1640SOL     OW 5818   5.958   0.114   6.905
 1640SOL    HW1 5819   5.959   0.142   6.809
 1640SOL    HW2 5820   6.046   0.138   6.948
 1641SOL     OW 5821   6.553   2.595   3.127
 1641SOL    HW1 5822   6.572   2.518   3.067
 1641SOL    HW2 5823   6.455   2.616   3.125
 1642SOL     OW 5824   6.074   2.167   5.657
 1642SOL    HW1 5825   6.014   2.097   5.696
 1642SOL    HW2 5826   6.168   2.150   5.687
 1643SOL     OW 5827   2.630   5.727   3.644
 1643SOL    HW1 5828   2.613   5.726   3.742
 1643SOL    HW2 5829   2.603   5.640   3.603
 1644SOL     OW 5830   6.052   2.915   1.179
 1644SOL    HW1 5831   6.123   2.844   1.183
 1644SOL    HW2 5832   6.062   2.976   1.258
 1645SOL     OW 5833   1.998   0.855   5.539
 1645SOL    HW1 5834   1.987   0.873   5.637
 1645SOL    HW2 5835   1.947   0.773   5.515
 1646SOL     OW 5836   1.214   5.474   1.099
 1646SOL    HW1 5837   1.280   5.548   1.114
 1646SOL    HW2 5838   1.180   5.442   1.188
 1647SOL     OW 5839   5.844   2.854   4.168
 1647SOL    HW1 5840   5.843   2.947   4.204
 1647SOL    HW2 5841   5.751   2.816   4.172
 1648SOL     OW 5842   5.272   6.273   1.231
 1648SOL    HW1 5843   5.238   6.361   1.200
 1648SOL    HW2 5844   5.252   6.262   1.328
 1649SOL     OW 5845   3.261   6.865   3.765
 1649SOL    HW1 5846   3.234   6.959   3.786
 1649SOL    HW2 5847   3.351   6.865   3.723
 1650SOL     OW 5848   2.730   4.612   6.366
 1650SOL    HW1 5849   2.703   4.674   6.439
 1650SOL    HW2 5850   2.718   4.658   6.278
 1651SOL     OW 5851   1.228   2.992   3.862
 1651SOL    HW1 5852   1.131   2.967   3.867
 1651SOL    HW2 5853   1.281   2.930   3.920
 1652SOL     OW 5854   0.613   2.624   1.414
 1652SOL    HW1 5855   0.623   2.709   1.464
 1652SOL    HW2 5856   0.542   2.568   1.456
 1653SOL     OW 5857   6.839   4.553   3.727
 1653SOL    HW1 5858   6.899   4.597   3.794
 1653SOL    HW2 5859   6.878   4.465   3.701
 1654SOL     OW 5860   0.535   3.166   2.140
 1654SOL    HW1 5861   0.631   3.178   2.115
 1654SOL    HW2 5862   0.489   3.255   2.138
 1655SOL     OW 5863   0.265   6.699   4.656
 1655SOL    HW1 5864   0.223   6.609   4.646
 1655SOL    HW2 5865   0.260   6.748   4.569
 1656SOL     OW 5866   1.601   4.632   4.016
 1656SOL    HW1 5867   1.593   4.701   4.088
 1656SOL    HW2 5868   1.671   4.566   4.041
 1657SOL     OW 5869   1.155   6.820   5.083
 1657SOL    HW1 5870   1.161   6.920   5.077
 1657SOL    HW2 5871   1.136   6.794   5.178
 1658SOL     OW 5872   6.270   0.150   6.841
 1658SOL    HW1 5873   6.304   0.064   6.878
 1658SOL    HW2 5874   6.228   0.134   6.752
 1659SOL     OW 5875   4.835   6.690   6.475
 1659SOL    HW1 5876   4.840   6.788   6.454
 1659SOL    HW2 5877   4.854   6.676   6.572
 1660SOL     OW 5878   2.289   0.220   2.300
 1660SOL    HW1 5879   2.316   0.163   2.377
 1660SOL    HW2 5880   2.370   0.246   2.248
 1661SOL     OW 5881   4.172   4.710   2.802
 1661SOL    HW1 5882   4.137   4.744   2.714
 1661SOL    HW2 5883   4.100   4.719   2.871
 1662SOL     OW 5884   0.217   1.225   5.087
 1662SOL    HW1 5885   0.139   1.164   5.102
 1662SOL    HW2 5886   0.302   1.175   5.103
 1663SOL     OW 5887   4.174   5.120   0.663
 1663SOL    HW1 5888   4.253   5.179   0.684
 1663SOL    HW2 5889   4.206   5.027   0.647
 1664SOL     OW 5890   1.194   7.009   5.404
 1664SOL    HW1 5891   1.130   0.037   5.457
 1664SOL    HW2 5892   1.203   0.019   5.312
 1665SOL     OW 5893   2.121   3.795   0.148
 1665SOL    HW1 5894   2.206   3.844   0.168
 1665SOL    HW2 5895   2.114   3.779   0.050
 1666SOL     OW 5896   5.982   6.644   6.122
 1666SOL    HW1 5897   6.071   6.621   6.084
 1666SOL    HW2 5898   5.957   6.577   6.192
 1667SOL     OW 5899   1.033   6.377   1.373
 1667SOL    HW1 5900   1.018   6.401   1.278
 1667SOL    HW2 5901   0.963   6.311   1.403
 1668SOL     OW 5902   5.734   4.630   3.009
 1668SOL    HW1 5903   5.684   4.706   2.967
 1668SOL    HW2 5904   5.813   4.666   3.059
 1669SOL     OW 5905   6.240   3.603   5.355
 1669SOL    HW1 5906   6.271   3.689   5.396
 1669SOL    HW2 5907   6.266   3.527   5.414
 1670SOL     OW 5908   2.214   5.046   5.553
 1670SOL    HW1 5909   2.156   5.069   5.630
 1670SOL    HW2 5910   2.158   5.030   5.472
 1671SOL     OW 5911   5.871   1.836   1.058
 1671SOL    HW1 5912   5.816   1.878   0.986
 1671SOL    HW2 5913   5.848   1.739   1.065
 1672SOL     OW 5914   1.069   3.388   6.860
 1672SOL    HW1 5915   1.009   3.315   6.892
 1672SOL    HW2 5916   1.090   3.450   6.935
 1673SOL     OW 5917   2.330   1.546   4.829
 1673SOL    HW1 5918   2.320   1.529   4.731
 1673SOL    HW2 5919   2.330   1.645   4.846
 1674SOL     OW 5920   4.572   1.957   3.111
 1674SOL    HW1 5921   4.657   1.905   3.115
 1674SOL    HW2 5922   4.573   2.015   3.030
 1675SOL     OW 5923   5.485   0.721   0.817
 1675SOL    HW1 5924   5.481   0.652   0.745
 1675SOL    HW2 5925   5.572   0.770   0.811
 1676SOL     OW 5926   1.534   1.295   3.026
 1676SOL    HW1 5927   1.527   1.202   2.987
 1676SOL    HW2 5928   1.502   1.294   3.120
 1677SOL     OW 5929   3.713   4.114   3.598
 1677SOL    HW1 5930   3.787   4.110   3.665
 1677SOL    HW2 5931   3.628   4.084   3.641
 1678SOL     OW 5932   1.140   0.021   0.630
 1678SOL    HW1 5933   1.076   0.001   0.704
 1678SOL    HW2 5934   1.220   6.989   0.639
 1679SOL     OW 5935   1.418   2.170   5.507
 1679SOL    HW1 5936   1.335   2.115   5.518
 1679SOL    HW2 5937   1.497   2.119   5.541
 1680SOL     OW 5938   4.955   2.456   3.731
 1680SOL    HW1 5939   4.968   2.430   3.827
 1680SOL    HW2 5940   4.919   2.377   3.681
 1681SOL     OW 5941   2.013   6.073   3.987
 1681SOL    HW1 5942   1.967   6.152   4.027
 1681SOL    HW2 5943   2.095   6.103   3.938
 1682SOL     OW 5944   3.092   0.420   5.265
 1682SOL    HW1 5945   3.064   0.365   5.344
 1682SOL    HW2 5946   3.191   0.413   5.254
 1683SOL     OW 5947   6.104   5.237   2.395
 1683SOL    HW1 5948   6.005   5.226   2.400
 1683SOL    HW2 5949   6.140   5.261   2.486
 1684SOL     OW 5950   2.572   4.517   1.840
 1684SOL    HW1 5951   2.562   4.417   1.845
 1684SOL    HW2 5952   2.640   4.546   1.907
 1685SOL     OW 5953   0.584   0.706   5.396
 1685SOL    HW1 5954   0.563   0.667   5.486
 1685SOL    HW2 5955   0.501   0.709   5.340
 1686SOL     OW 5956   4.818   5.802   3.012
 1686SOL    HW1 5957   4.841   5.713   3.051
 1686SOL    HW2 5958   4.901   5.859   3.010
 1687SOL     OW 5959   6.031   3.653   2.782
 1687SOL    HW1 5960   6.051   3.737   2.833
 1687SOL    HW2 5961   5.996   3.584   2.845
 1688SOL     OW 5962   1.960   1.694   3.677
 1688SOL    HW1 5963   1.994   1.632   3.607
 1688SOL    HW2 5964   2.031   1.708   3.746
 1689SOL     OW 5965   5.191   0.642   1.405
 1689SOL    HW1 5966   5.124   0.639   1.479
 1689SOL    HW2 5967   5.282   0.659   1.443
 1690SOL     OW 5968   0.658   4.059   4.518
 1690SOL    HW1 5969   0.658   4.156   4.543
 1690SOL    HW2 5970   0.745   4.036   4.473
 1691SOL     OW 5971   4.691   2.911   5.409
 1691SOL    HW1 5972   4.715   2.815   5.426
 1691SOL    HW2 5973   4.591   2.921   5.408
 1692SOL     OW 5974   5.772   5.328   1.214
 1692SOL    HW1 5975   5.760   5.229   1.211
 1692SOL    HW2 5976   5.843   5.351   1.280
 1693SOL     OW 5977   5.405   0.046   5.230
 1693SOL    HW1 5978   5.441   7.005   5.293
 1693SOL    HW2 5979   5.312   0.020   5.202
 1694SOL     OW 5980   4.740   1.130   5.329
 1694SOL    HW1 5981   4.793   1.081   5.398
 1694SOL    HW2 5982   4.643   1.126   5.352
 1695SOL     OW 5983   4.045   0.968   6.500
 1695SOL    HW1 5984   4.108   0.895   6.472
 1695SOL    HW2 5985   4.025   1.027   6.421
 1696SOL     OW 5986   4.199   6.299   0.827
 1696SOL    HW1 5987   4.257   6.380   0.830
 1696SOL    HW2 5988   4.243   6.223   0.876
 1697SOL     OW 5989   6.073   2.275   1.725
 1697SOL    HW1 5990   6.132   2.238   1.797
 1697SOL    HW2 5991   6.053   2.371   1.745
 1698SOL     OW 5992   3.850   1.188   1.677
 1698SOL    HW1 5993   3.880   1.281   1.697
 1698SOL    HW2 5994   3.879   1.127   1.750
 1699SOL     OW 5995   2.471   0.378   0.075
 1699SOL    HW1 5996   2.403   0.374   0.002
 1699SOL    HW2 5997   2.554   0.330   0.045
 1700SOL     OW 5998   5.955   2.898   2.777
 1700SOL    HW1 5999   5.856   2.892   2.781
 1700SOL    HW2 6000   5.982   2.957   2.700
 1701SOL     OW 6001   0.189   5.680   4.449
 1701SOL    HW1 6002   0.228   5.589   4.436
 1701SOL    HW2 6003   0.102   5.687   4.401
 1702SOL     OW 6004   2.201   2.595   5.670
 1702SOL    HW1 6005   2.159   2.594   5.761
 1702SOL    HW2 6006   2.297   2.566   5.677
 1703SOL     OW 6007   3.275   1.952   0.600
 1703SOL    HW1 6008   3.278   1.996   0.511
 1703SOL    HW2 6009   3.212   2.000   0.660
 1704SOL     OW 6010   2.292   2.228   1.187
 1704SOL    HW1 6011   2.310   2.163   1.261
 1704SOL    HW2 6012   2.203   2.271   1.201
 1705SOL     OW 6013   4.199   1.922   0.617
 1705SOL    HW1 6014   4.117   1.894   0.566
 1705SOL    HW2 6015   4.274   1.858   0.597
 1706SOL     OW 6016   4.282   2.646   0.284
 1706SOL    HW1 6017   4.250   2.565   0.235
 1706SOL    HW2 6018   4.236   2.727   0.248
 1707SOL     OW 6019   4.406   2.155   2.126
 1707SOL    HW1 6020   4.365   2.103   2.051
 1707SOL    HW2 6021   4.449   2.092   2.191
 1708SOL     OW 6022   3.487   5.181   1.735
 1708SOL    HW1 6023   3.396   5.159   1.770
 1708SOL    HW2 6024   3.550   5.106   1.757
 1709SOL     OW 6025   4.568   5.491   0.628
 1709SOL    HW1 6026   4.655   5.447   0.651
 1709SOL    HW2 6027   4.586   5.582   0.591
 1710SOL     OW 6028   4.052   5.053   3.121
 1710SOL    HW1 6029   4.055   4.966   3.072
 1710SOL    HW2 6030   4.007   5.040   3.209
 1711SOL     OW 6031   3.695   4.768   6.161
 1711SOL    HW1 6032   3.794   4.783   6.169
 1711SOL    HW2 6033   3.678   4.677   6.124
 1712SOL     OW 6034   0.144   1.880   3.358
 1712SOL    HW1 6035   0.087   1.892   3.439
 1712SOL    HW2 6036   0.085   1.880   3.276
 1713SOL     OW 6037   4.071   0.716   3.118
 1713SOL    HW1 6038   4.166   0.710   3.087
 1713SOL    HW2 6039   4.065   0.779   3.196
 1714SOL     OW 6040   3.796   3.443   0.364
 1714SOL    HW1 6041   3.759   3.424   0.454
 1714SOL    HW2 6042   3.856   3.523   0.368
 1715SOL     OW 6043   1.514   6.797   2.888
 1715SOL    HW1 6044   1.581   6.725   2.907
 1715SOL    HW2 6045   1.562   6.881   2.860
 1716SOL     OW 6046   4.570   0.318   3.056
 1716SOL    HW1 6047   4.604   0.408   3.027
 1716SOL    HW2 6048   4.626   0.246   3.015
 1717SOL     OW 6049   3.779   6.200   5.235
 1717SOL    HW1 6050   3.735   6.175   5.322
 1717SOL    HW2 6051   3.744   6.140   5.163
 1718SOL     OW 6052   1.286   3.132   1.633
 1718SOL    HW1 6053   1.285   3.032   1.634
 1718SOL    HW2 6054   1.313   3.164   1.543
 1719SOL     OW 6055   1.179   5.265   2.020
 1719SOL    HW1 6056   1.218   5.356   2.005
 1719SOL    HW2 6057   1.111   5.269   2.093
 1720SOL     OW 6058   6.749   2.906   5.789
 1720SOL    HW1 6059   6.807   2.977   5.748
 1720SOL    HW2 6060   6.693   2.948   5.861
 1721SOL     OW 6061   2.150   1.797   1.015
 1721SOL    HW1 6062   2.244   1.791   1.047
 1721SOL    HW2 6063   2.111   1.706   1.005
 1722SOL     OW 6064   3.020   2.172   3.209
 1722SOL    HW1 6065   2.927   2.138   3.221
 1722SOL    HW2 6066   3.053   2.145   3.119
 1723SOL     OW 6067   5.636   3.050   0.385
 1723SOL    HW1 6068   5.549   3.006   0.362
 1723SOL    HW2 6069   5.671   3.098   0.304
 1724SOL     OW 6070   6.916   2.304   1.112
 1724SOL    HW1 6071   6.950   2.216   1.145
 1724SOL    HW2 6072   6.817   2.301   1.103
 1725SOL     OW 6073   1.427   5.737   0.098
 1725SOL    HW1 6074   1.342   5.779   0.068
 1725SOL    HW2 6075   1.408   5.672   0.171
 1726SOL     OW 6076   5.437   4.304   3.472
 1726SOL    HW1 6077   5.408   4.221   3.425
 1726SOL    HW2 6078   5.492   4.360   3.409
 1727SOL     OW 6079   3.324   2.898   3.219
 1727SOL    HW1 6080   3.225   2.883   3.223
 1727SOL    HW2 6081   3.371   2.822   3.264
 1728SOL     OW 6082   4.457   2.414   4.451
 1728SOL    HW1 6083   4.504   2.391   4.536
 1728SOL    HW2 6084   4.497   2.361   4.376
 1729SOL     OW 6085   1.865   3.937   2.173
 1729SOL    HW1 6086   1.795   3.933   2.245
 1729SOL    HW2 6087   1.950   3.898   2.207
 1730SOL     OW 6088   2.841   5.038   5.336
 1730SOL    HW1 6089   2.752   5.080   5.352
 1730SOL    HW2 6090   2.835   4.978   5.256
 1731SOL     OW 6091   5.932   4.199   3.733
 1731SOL    HW1 6092   5.917   4.287   3.690
 1731SOL    HW2 6093   5.857   4.137   3.711
 1732SOL     OW 6094   1.633   3.817   6.498
 1732SOL    HW1 6095   1.672   3.826   6.590
 1732SOL    HW2 6096   1.627   3.907   6.455
 1733SOL     OW 6097   2.593   3.995   6.920
 1733SOL    HW1 6098   2.591   3.936   7.001
 1733SOL    HW2 6099   2.506   3.986   6.871
 1734SOL     OW 6100   0.360   2.811   0.960
 1734SOL    HW1 6101   0.346   2.804   0.861
 1734SOL    HW2 6102   0.347   2.722   1.002
 1735SOL     OW 6103   4.034   4.916   5.545
 1735SOL    HW1 6104   4.044   4.926   5.644
 1735SOL    HW2 6105   3.936   4.919   5.522
 1736SOL     OW 6106   4.776   3.274   0.943
 1736SOL    HW1 6107   4.828   3.346   0.898
 1736SOL    HW2 6108   4.780   3.191   0.888
 1737SOL     OW 6109   4.578   1.465   5.224
 1737SOL    HW1 6110   4.583   1.419   5.313
 1737SOL    HW2 6111   4.515   1.542   5.229
 1738SOL     OW 6112   1.476   3.165   4.512
 1738SOL    HW1 6113   1.487   3.100   4.436
 1738SOL    HW2 6114   1.565   3.202   4.538
 1739SOL     OW 6115   5.366   0.264   4.344
 1739SOL    HW1 6116   5.298   0.308   4.404
 1739SOL    HW2 6117   5.451   0.316   4.347
 1740SOL     OW 6118   6.165   2.674   4.432
 1740SOL    HW1 6119   6.070   2.685   4.404
 1740SOL    HW2 6120   6.193   2.753   4.487
 1741SOL     OW 6121   1.201   2.077   4.561
 1741SOL    HW1 6122   1.289   2.032   4.577
 1741SOL    HW2 6123   1.132   2.036   4.621
 1742SOL     OW 6124   6.045   6.655   5.781
 1742SOL    HW1 6125   6.119   6.705   5.737
 1742SOL    HW2 6126   6.072   6.559   5.794
 1743SOL     OW 6127   1.494   0.674   2.968
 1743SOL    HW1 6128   1.505   0.665   3.067
 1743SOL    HW2 6129   1.512   0.769   2.941
 1744SOL     OW 6130   3.862   1.881   4.490
 1744SOL    HW1 6131   3.944   1.927   4.524
 1744SOL    HW2 6132   3.822   1.935   4.416
 1745SOL     OW 6133   6.569   6.959   1.544
 1745SOL    HW1 6134   6.544   6.916   1.630
 1745SOL    HW2 6135   6.663   6.934   1.520
 1746SOL     OW 6136   1.935   4.148   3.934
 1746SOL    HW1 6137   1.878   4.172   4.012
 1746SOL    HW2 6138   2.024   4.194   3.941
 1747SOL     OW 6139   4.223   0.023   2.236
 1747SOL    HW1 6140   4.137   0.023   2.288
 1747SOL    HW2 6141   4.265   0.114   2.243
 1748SOL     OW 6142   6.681   2.403   4.562
 1748SOL    HW1 6143   6.641   2.377   4.474
 1748SOL    HW2 6144   6.766   2.453   4.548
 1749SOL     OW 6145   1.733   4.958   1.010
 1749SOL    HW1 6146   1.794   5.017   1.062
 1749SOL    HW2 6147   1.775   4.868   0.997
 1750SOL     OW 6148   3.687   6.937   5.402
 1750SOL    HW1 6149   3.636   6.904   5.322
 1750SOL    HW2 6150   3.631   7.003   5.452
 1751SOL     OW 6151   5.412   2.872   5.210
 1751SOL    HW1 6152   5.421   2.862   5.309
 1751SOL    HW2 6153   5.333   2.930   5.189
 1752SOL     OW 6154   6.900   0.549   1.783
 1752SOL    HW1 6155   6.919   0.451   1.788
 1752SOL    HW2 6156   6.833   0.574   1.852
 1753SOL     OW 6157   6.167   1.661   1.476
 1753SOL    HW1 6158   6.156   1.719   1.396
 1753SOL    HW2 6159   6.224   1.582   1.453
 1754SOL     OW 6160   3.358   5.849   4.472
 1754SOL    HW1 6161   3.407   5.815   4.553
 1754SOL    HW2 6162   3.421   5.898   4.413
 1755SOL     OW 6163   6.641   6.607   4.799
 1755SOL    HW1 6164   6.620   6.659   4.882
 1755SOL    HW2 6165   6.739   6.587   4.796
 1756SOL     OW 6166   4.985   6.734   5.795
 1756SOL    HW1 6167   4.901   6.737   5.741
 1756SOL    HW2 6168   5.051   6.798   5.757
 1757SOL     OW 6169   2.243   4.824   5.283
 1757SOL    HW1 6170   2.316   4.828   5.351
 1757SOL    HW2 6171   2.259   4.747   5.221
 1758SOL     OW 6172   1.601   6.713   4.839
 1758SOL    HW1 6173   1.538   6.702   4.762
 1758SOL    HW2 6174   1.608   6.628   4.890
 1759SOL     OW 6175   1.713   6.996   0.263
 1759SOL    HW1 6176   1.615   6.975   0.258
 1759SOL    HW2 6177   1.753   6.991   0.172
 1760SOL     OW 6178   6.556   1.257   4.586
 1760SOL    HW1 6179   6.458   1.237   4.588
 1760SOL    HW2 6180   6.579   1.303   4.500
 1761SOL     OW 6181   6.144   1.440   2.133
 1761SOL    HW1 6182   6.197   1.396   2.205
 1761SOL    HW2 6183   6.066   1.488   2.173
 1762SOL     OW 6184   0.382   2.036   6.188
 1762SOL    HW1 6185   0.475   2.028   6.152
 1762SOL    HW2 6186   0.342   1.945   6.197
 1763SOL     OW 6187   1.063   3.400   4.390
 1763SOL    HW1 6188   1.124   3.353   4.326
 1763SOL    HW2 6189   1.042   3.340   4.466
 1764SOL     OW 6190   1.019   5.408   2.738
 1764SOL    HW1 6191   1.022   5.411   2.638
 1764SOL    HW2 6192   0.978   5.322   2.767
 1765SOL     OW 6193   5.402   3.040   2.351
 1765SOL    HW1 6194   5.439   2.983   2.277
 1765SOL    HW2 6195   5.441   3.132   2.345
 1766SOL     OW 6196   4.858   4.809   4.321
 1766SOL    HW1 6197   4.947   4.855   4.317
 1766SOL    HW2 6198   4.815   4.811   4.231
 1767SOL     OW 6199   0.999   4.626   2.389
 1767SOL    HW1 6200   1.062   4.689   2.343
 1767SOL    HW2 6201   0.949   4.573   2.321
 1768SOL     OW 6202   5.183   6.442   2.161
 1768SOL    HW1 6203   5.107   6.495   2.124
 1768SOL    HW2 6204   5.209   6.478   2.251
 1769SOL     OW 6205   4.842   0.507   6.798
 1769SOL    HW1 6206   4.864   0.498   6.701
 1769SOL    HW2 6207   4.924   0.489   6.852
 1770SOL     OW 6208   1.967   5.535   6.679
 1770SOL    HW1 6209   2.043   5.495   6.627
 1770SOL    HW2 6210   1.884   5.532   6.623
 1771SOL     OW 6211   1.283   3.532   5.947
 1771SOL    HW1 6212   1.306   3.487   6.034
 1771SOL    HW2 6213   1.289   3.466   5.873
 1772SOL     OW 6214   2.336   4.660   3.546
 1772SOL    HW1 6215   2.354   4.736   3.609
 1772SOL    HW2 6216   2.287   4.694   3.466
 1773SOL     OW 6217   0.951   6.752   5.714
 1773SOL    HW1 6218   0.856   6.736   5.741
 1773SOL    HW2 6219   0.974   6.848   5.728
 1774SOL     OW 6220   4.889   5.539   0.680
 1774SOL    HW1 6221   4.852   5.602   0.612
 1774SOL    HW2 6222   4.891   5.447   0.642
 1775SOL     OW 6223   2.319   5.505   6.322
 1775SOL    HW1 6224   2.360   5.589   6.358
 1775SOL    HW2 6225   2.391   5.449   6.281
 1776SOL     OW 6226   4.828   1.847   5.860
 1776SOL    HW1 6227   4.897   1.920   5.856
 1776SOL    HW2 6228   4.849   1.785   5.937
 1777SOL     OW 6229   4.962   6.206   6.379
 1777SOL    HW1 6230   4.966   6.306   6.381
 1777SOL    HW2 6231   4.867   6.176   6.386
 1778SOL     OW 6232   5.874   6.928   4.153
 1778SOL    HW1 6233   5.863   6.952   4.057
 1778SOL    HW2 6234   5.959   6.877   4.165
 1779SOL     OW 6235   5.789   5.873   4.181
 1779SOL    HW1 6236   5.831   5.936   4.115
 1779SOL    HW2 6237   5.801   5.910   4.273
 1780SOL     OW 6238   1.621   5.913   5.042
 1780SOL    HW1 6239   1.579   5.959   4.963
 1780SOL    HW2 6240   1.684   5.975   5.087
 1781SOL     OW 6241   3.965   0.836   4.170
 1781SOL    HW1 6242   3.932   0.930   4.179
 1781SOL    HW2 6243   3.946   0.804   4.077
 1782SOL     OW 6244   0.985   1.737   2.596
 1782SOL    HW1 6245   0.896   1.697   2.615
 1782SOL    HW2 6246   1.016   1.709   2.505
 1783SOL     OW 6247   2.382   4.082   6.651
 1783SOL    HW1 6248   2.285   4.102   6.643
 1783SOL    HW2 6249   2.398   3.986   6.629
 1784SOL     OW 6250   2.868   6.976   1.357
 1784SOL    HW1 6251   2.937   6.910   1.388
 1784SOL    HW2 6252   2.825   7.018   1.436
 1785SOL     OW 6253   1.490   6.569   4.631
 1785SOL    HW1 6254   1.522   6.482   4.593
 1785SOL    HW2 6255   1.390   6.572   4.627
 1786SOL     OW 6256   1.026   6.501   0.536
 1786SOL    HW1 6257   1.027   6.486   0.634
 1786SOL    HW2 6258   0.932   6.521   0.507
 1787SOL     OW 6259   2.547   3.746   6.230
 1787SOL    HW1 6260   2.587   3.679   6.168
 1787SOL    HW2 6261   2.524   3.702   6.317
 1788SOL     OW 6262   4.594   3.583   0.844
 1788SOL    HW1 6263   4.589   3.483   0.839
 1788SOL    HW2 6264   4.535   3.616   0.918
 1789SOL     OW 6265   6.023   3.861   2.042
 1789SOL    HW1 6266   6.086   3.885   2.116
 1789SOL    HW2 6267   5.965   3.785   2.070
 1790SOL     OW 6268   2.587   2.493   4.447
 1790SOL    HW1 6269   2.662   2.538   4.497
 1790SOL    HW2 6270   2.599   2.394   4.453
 1791SOL     OW 6271   4.957   6.614   3.093
 1791SOL    HW1 6272   4.925   6.577   3.180
 1791SOL    HW2 6273   5.025   6.685   3.111
 1792SOL     OW 6274   0.113   1.482   5.177
 1792SOL    HW1 6275   0.177   1.409   5.152
 1792SOL    HW2 6276   0.034   1.443   5.223
 1793SOL     OW 6277   6.883   1.537   6.132
 1793SOL    HW1 6278   6.904   1.444   6.103
 1793SOL    HW2 6279   6.938   1.560   6.212
 1794SOL     OW 6280   1.361   0.240   6.352
 1794SOL    HW1 6281   1.302   0.214   6.428
 1794SOL    HW2 6282   1.338   0.184   6.272
 1795SOL     OW 6283   6.315   4.054   1.585
 1795SOL    HW1 6284   6.377   3.983   1.551
 1795SOL    HW2 6285   6.229   4.011   1.614
 1796SOL     OW 6286   0.871   0.602   6.517
 1796SOL    HW1 6287   0.843   0.622   6.423
 1796SOL    HW2 6288   0.959   0.555   6.517
 1797SOL     OW 6289   2.155   5.368   5.905
 1797SOL    HW1 6290   2.063   5.333   5.919
 1797SOL    HW2 6291   2.151   5.452   5.851
 1798SOL     OW 6292   3.071   3.539   5.072
 1798SOL    HW1 6293   3.012   3.598   5.017
 1798SOL    HW2 6294   3.098   3.587   5.156
 1799SOL     OW 6295   3.452   1.566   0.769
 1799SOL    HW1 6296   3.457   1.467   0.753
 1799SOL    HW2 6297   3.529   1.594   0.826
 1800SOL     OW 6298   6.200   3.834   4.990
 1800SOL    HW1 6299   6.289   3.787   4.989
 1800SOL    HW2 6300   6.210   3.923   5.034
 1801SOL     OW 6301   1.576   1.318   2.614
 1801SOL    HW1 6302   1.597   1.358   2.524
 1801SOL    HW2 6303   1.630   1.234   2.625
 1802SOL     OW 6304   6.983   4.963   4.021
 1802SOL    HW1 6305   6.941   5.048   4.051
 1802SOL    HW2 6306   6.913   4.898   3.992
 1803SOL     OW 6307   0.514   6.529   3.129
 1803SOL    HW1 6308   0.584   6.491   3.190
 1803SOL    HW2 6309   0.558   6.572   3.050
 1804SOL     OW 6310   1.919   3.229   6.193
 1804SOL    HW1 6311   1.886   3.304   6.135
 1804SOL    HW2 6312   2.019   3.226   6.188
 1805SOL     OW 6313   0.099   5.810   6.514
 1805SOL    HW1 6314   0.142   5.847   6.431
 1805SOL    HW2 6315   0.003   5.837   6.516
 1806SOL     OW 6316   0.219   1.665   1.851
 1806SOL    HW1 6317   0.293   1.639   1.913
 1806SOL    HW2 6318   0.144   1.600   1.861
 1807SOL     OW 6319   0.108   2.724   2.581
 1807SOL    HW1 6320   0.022   2.735   2.531
 1807SOL    HW2 6321   0.184   2.757   2.524
 1808SOL     OW 6322   5.116   2.294   6.148
 1808SOL    HW1 6323   5.118   2.383   6.194
 1808SOL    HW2 6324   5.054   2.298   6.070
 1809SOL     OW 6325   4.339   0.663   5.396
 1809SOL    HW1 6326   4.276   0.615   5.335
 1809SOL    HW2 6327   4.410   0.600   5.427
 1810SOL     OW 6328   0.222   0.427   3.978
 1810SOL    HW1 6329   0.130   0.425   3.939
 1810SOL    HW2 6330   0.245   0.336   4.013
 1811SOL     OW 6331   3.998   5.571   1.724
 1811SOL    HW1 6332   4.056   5.624   1.663
 1811SOL    HW2 6333   4.041   5.565   1.814
 1812SOL     OW 6334   4.569   6.352   6.140
 1812SOL    HW1 6335   4.566   6.253   6.133
 1812SOL    HW2 6336   4.636   6.389   6.076
 1813SOL     OW 6337   4.530   4.364   2.681
 1813SOL    HW1 6338   4.500   4.440   2.624
 1813SOL    HW2 6339   4.590   4.303   2.628
 1814SOL     OW 6340   0.284   5.954   0.212
 1814SOL    HW1 6341   0.277   5.995   0.121
 1814SOL    HW2 6342   0.192   5.937   0.248
 1815SOL     OW 6343   5.720   6.259   1.441
 1815SOL    HW1 6344   5.770   6.345   1.442
 1815SOL    HW2 6345   5.748   6.204   1.363
 1816SOL     OW 6346   4.139   5.158   5.564
 1816SOL    HW1 6347   4.173   5.198   5.479
 1816SOL    HW2 6348   4.105   5.066   5.545
 1817SOL     OW 6349   0.497   1.724   3.579
 1817SOL    HW1 6350   0.506   1.707   3.677
 1817SOL    HW2 6351   0.572   1.781   3.548
 1818SOL     OW 6352   2.194   0.773   0.663
 1818SOL    HW1 6353   2.247   0.688   0.666
 1818SOL    HW2 6354   2.099   0.752   0.639
 1819SOL     OW 6355   1.947   4.668   3.655
 1819SOL    HW1 6356   1.850   4.692   3.662
 1819SOL    HW2 6357   2.003   4.750   3.672
 1820SOL     OW 6358   3.350   7.010   5.402
 1820SOL    HW1 6359   3.339   6.947   5.325
 1820SOL    HW2 6360   3.411   0.057   5.375
 1821SOL     OW 6361   2.979   2.156   2.899
 1821SOL    HW1 6362   2.958   2.200   2.811
 1821SOL    HW2 6363   2.972   2.057   2.888
 1822SOL     OW 6364   6.925   2.727   2.335
 1822SOL    HW1 6365   6.913   2.798   2.405
 1822SOL    HW2 6366   6.875   2.645   2.362
 1823SOL     OW 6367   3.854   5.849   2.290
 1823SOL    HW1 6368   3.857   5.899   2.376
 1823SOL    HW2 6369   3.947   5.841   2.253
 1824SOL     OW 6370   4.286   3.174   1.788
 1824SOL    HW1 6371   4.214   3.118   1.829
 1824SOL    HW2 6372   4.374   3.151   1.829
 1825SOL     OW 6373   1.785   1.890   4.998
 1825SOL    HW1 6374   1.768   1.803   5.044
 1825SOL    HW2 6375   1.880   1.893   4.967
 1826SOL     OW 6376   3.387   2.255   1.779
 1826SOL    HW1 6377   3.480   2.280   1.806
 1826SOL    HW2 6378   3.370   2.288   1.686
 1827SOL     OW 6379   5.554   4.853   0.784
 1827SOL    HW1 6380   5.641   4.900   0.774
 1827SOL    HW2 6381   5.546   4.782   0.714
 1828SOL     OW 6382   1.441   2.957   5.175
 1828SOL    HW1 6383   1.408   2.894   5.105
 1828SOL    HW2 6384   1.386   3.041   5.173
 1829SOL     OW 6385   3.988   0.309   2.906
 1829SOL    HW1 6386   4.046   0.279   2.830
 1829SOL    HW2 6387   4.037   0.295   2.992
 1830SOL     OW 6388   5.141   7.025   5.165
 1830SOL    HW1 6389   5.107   0.064   5.099
 1830SOL    HW2 6390   5.096   0.012   5.253
 1831SOL     OW 6391   4.114   5.341   1.282
 1831SOL    HW1 6392   4.109   5.418   1.218
 1831SOL    HW2 6393   4.024   5.327   1.324
 1832SOL     OW 6394   2.382   3.156   0.399
 1832SOL    HW1 6395   2.373   3.067   0.354
 1832SOL    HW2 6396   2.410   3.225   0.332
 1833SOL     OW 6397   5.426   0.739   0.408
 1833SOL    HW1 6398   5.354   0.805   0.428
 1833SOL    HW2 6399   5.424   0.666   0.476
 1834SOL     OW 6400   1.192   2.841   5.955
 1834SOL    HW1 6401   1.182   2.860   5.857
 1834SOL    HW2 6402   1.289   2.845   5.980
 1835SOL     OW 6403   6.849   6.447   0.973
 1835SOL    HW1 6404   6.915   6.495   0.915
 1835SOL    HW2 6405   6.893   6.423   1.059
 1836SOL     OW 6406   5.039   2.712   1.829
 1836SOL    HW1 6407   5.107   2.652   1.872
 1836SOL    HW2 6408   5.034   2.691   1.731
 1837SOL     OW 6409   3.412   2.647   6.220
 1837SOL    HW1 6410   3.463   2.670   6.137
 1837SOL    HW2 6411   3.317   2.627   6.196
 1838SOL     OW 6412   6.060   0.881   0.745
 1838SOL    HW1 6413   6.035   0.795   0.791
 1838SOL    HW2 6414   6.094   0.860   0.653
 1839SOL     OW 6415   6.875   1.171   0.009
 1839SOL    HW1 6416   6.880   1.254   6.982
 1839SOL    HW2 6417   6.965   1.128   0.014
 1840SOL     OW 6418   4.634   6.499   3.608
 1840SOL    HW1 6419   4.681   6.565   3.549
 1840SOL    HW2 6420   4.588   6.547   3.682
 1841SOL     OW 6421   1.940   0.414   1.995
 1841SOL    HW1 6422   1.892   0.356   2.061
 1841SOL    HW2 6423   1.873   0.466   1.942
 1842SOL     OW 6424   1.474   5.862   0.394
 1842SOL    HW1 6425   1.545   5.826   0.455
 1842SOL    HW2 6426   1.455   5.795   0.322
 1843SOL     OW 6427   2.392   1.287   5.025
 1843SOL    HW1 6428   2.310   1.273   4.970
 1843SOL    HW2 6429   2.463   1.330   4.970
 1844SOL     OW 6430   5.787   2.311   6.031
 1844SOL    HW1 6431   5.757   2.297   5.936
 1844SOL    HW2 6432   5.877   2.271   6.043
 1845SOL     OW 6433   1.263   1.582   3.132
 1845SOL    HW1 6434   1.165   1.581   3.116
 1845SOL    HW2 6435   1.290   1.499   3.180
 1846SOL     OW 6436   4.228   1.947   1.977
 1846SOL    HW1 6437   4.163   1.986   1.912
 1846SOL    HW2 6438   4.182   1.932   2.065
 1847SOL     OW 6439   1.832   5.674   5.363
 1847SOL    HW1 6440   1.842   5.583   5.402
 1847SOL    HW2 6441   1.892   5.738   5.411
 1848SOL     OW 6442   2.910   6.133   3.298
 1848SOL    HW1 6443   2.969   6.203   3.257
 1848SOL    HW2 6444   2.893   6.061   3.231
 1849SOL     OW 6445   4.985   2.970   1.918
 1849SOL    HW1 6446   4.988   2.872   1.897
 1849SOL    HW2 6447   4.889   2.999   1.927
 1850SOL     OW 6448   5.035   0.948   1.009
 1850SOL    HW1 6449   5.093   0.911   1.081
 1850SOL    HW2 6450   5.033   1.048   1.015
 1851SOL     OW 6451   0.392   4.528   5.334
 1851SOL    HW1 6452   0.369   4.563   5.243
 1851SOL    HW2 6453   0.482   4.483   5.330
 1852SOL     OW 6454   0.027   0.212   3.066
 1852SOL    HW1 6455   7.026   0.153   2.990
 1852SOL    HW2 6456   6.974   0.258   3.104
 1853SOL     OW 6457   0.269   2.763   5.381
 1853SOL    HW1 6458   0.196   2.779   5.447
 1853SOL    HW2 6459   0.350   2.814   5.408
 1854SOL     OW 6460   0.715   0.050   3.249
 1854SOL    HW1 6461   0.692   0.065   3.153
 1854SOL    HW2 6462   0.804   0.091   3.268
 1855SOL     OW 6463   4.713   2.758   4.554
 1855SOL    HW1 6464   4.665   2.733   4.470
 1855SOL    HW2 6465   4.725   2.676   4.611
 1856SOL     OW 6466   3.450   2.775   0.957
 1856SOL    HW1 6467   3.469   2.677   0.956
 1856SOL    HW2 6468   3.527   2.824   0.997
 1857SOL     OW 6469   4.363   1.660   0.612
 1857SOL    HW1 6470   4.447   1.664   0.557
 1857SOL    HW2 6471   4.296   1.602   0.565
 1858SOL     OW 6472   4.590   2.536   4.070
 1858SOL    HW1 6473   4.492   2.520   4.053
 1858SOL    HW2 6474   4.620   2.617   4.019
 1859SOL     OW 6475   6.729   1.985   4.173
 1859SOL    HW1 6476   6.712   1.901   4.224
 1859SOL    HW2 6477   6.643   2.023   4.140
 1860SOL     OW 6478   1.753   1.628   4.825
 1860SOL    HW1 6479   1.669   1.593   4.867
 1860SOL    HW2 6480   1.831   1.576   4.858
 1861SOL     OW 6481   6.596   6.882   3.841
 1861SOL    HW1 6482   6.633   6.945   3.909
 1861SOL    HW2 6483   6.562   6.934   3.762
 1862SOL     OW 6484   2.820   5.848   5.827
 1862SOL    HW1 6485   2.851   5.831   5.921
 1862SOL    HW2 6486   2.846   5.771   5.769
 1863SOL     OW 6487   6.955   2.812   0.520
 1863SOL    HW1 6488   7.026   2.744   0.538
 1863SOL    HW2 6489   6.943   2.869   0.601
 1864SOL     OW 6490   4.105   5.610   2.580
 1864SOL    HW1 6491   4.053   5.584   2.499
 1864SOL    HW2 6492   4.099   5.538   2.648
 1865SOL     OW 6493   5.924   1.329   5.751
 1865SOL    HW1 6494   5.952   1.424   5.736
 1865SOL    HW2 6495   5.980   1.269   5.693
 1866SOL     OW 6496   1.076   5.090   3.609
 1866SOL    HW1 6497   1.019   5.016   3.645
 1866SOL    HW2 6498   1.074   5.168   3.672
 1867SOL     OW 6499   1.524   2.327   1.511
 1867SOL    HW1 6500   1.436   2.333   1.558
 1867SOL    HW2 6501   1.594   2.296   1.575
 1868SOL     OW 6502   5.758   3.724   6.044
 1868SOL    HW1 6503   5.699   3.775   5.982
 1868SOL    HW2 6504   5.706   3.698   6.126
 1869SOL     OW 6505   3.914   1.200   3.776
 1869SOL    HW1 6506   3.843   1.133   3.800
 1869SOL    HW2 6507   3.883   1.292   3.799
 1870SOL     OW 6508   6.966   5.960   4.669
 1870SOL    HW1 6509   6.889   5.947   4.607
 1870SOL    HW2 6510   7.025   5.880   4.666
 1871SOL     OW 6511   0.720   6.713   6.846
 1871SOL    HW1 6512   0.624   6.721   6.874
 1871SOL    HW2 6513   0.770   6.793   6.878
 1872SOL     OW 6514   2.754   2.550   1.725
 1872SOL    HW1 6515   2.811   2.514   1.799
 1872SOL    HW2 6516   2.809   2.607   1.665
 1873SOL     OW 6517   6.826   1.419   0.954
 1873SOL    HW1 6518   6.819   1.416   0.855
 1873SOL    HW2 6519   6.771   1.346   0.994
 1874SOL     OW 6520   0.406   5.489   0.080
 1874SOL    HW1 6521   0.480   5.421   0.077
 1874SOL    HW2 6522   0.398   5.524   0.173
 1875SOL     OW 6523   6.630   5.142   0.154
 1875SOL    HW1 6524   6.667   5.220   0.206
 1875SOL    HW2 6525   6.570   5.176   0.082
 1876SOL     OW 6526   0.250   5.720   0.595
 1876SOL    HW1 6527   0.234   5.804   0.648
 1876SOL    HW2 6528   0.297   5.743   0.510
 1877SOL     OW 6529   0.797   1.408   2.884
 1877SOL    HW1 6530   0.895   1.386   2.881
 1877SOL    HW2 6531   0.781   1.475   2.957
 1878SOL     OW 6532   6.411   3.571   3.896
 1878SOL    HW1 6533   6.485   3.604   3.839
 1878SOL    HW2 6534   6.343   3.524   3.840
 1879SOL     OW 6535   4.734   6.017   4.939
 1879SOL    HW1 6536   4.686   5.929   4.946
 1879SOL    HW2 6537   4.805   6.022   5.009
 1880SOL     OW 6538   6.899   1.850   4.006
 1880SOL    HW1 6539   6.997   1.853   4.022
 1880SOL    HW2 6540   6.853   1.917   4.064
 1881SOL     OW 6541   1.639   1.606   4.212
 1881SOL    HW1 6542   1.577   1.650   4.276
 1881SOL    HW2 6543   1.595   1.526   4.172
 1882SOL     OW 6544   1.689   5.779   0.126
 1882SOL    HW1 6545   1.724   5.685   0.126
 1882SOL    HW2 6546   1.589   5.778   0.130
 1883SOL     OW 6547   1.849   3.068   2.492
 1883SOL    HW1 6548   1.830   3.064   2.393
 1883SOL    HW2 6549   1.932   3.015   2.511
 1884SOL     OW 6550   3.459   1.201   0.082
 1884SOL    HW1 6551   3.540   1.217   0.025
 1884SOL    HW2 6552   3.378   1.234   0.034
 1885SOL     OW 6553   0.323   2.472   1.300
 1885SOL    HW1 6554   0.362   2.513   1.383
 1885SOL    HW2 6555   0.388   2.406   1.262
 1886SOL     OW 6556   2.738   2.351   6.141
 1886SOL    HW1 6557   2.833   2.373   6.163
 1886SOL    HW2 6558   2.715   2.389   6.052
 1887SOL     OW 6559   0.322   6.758   6.126
 1887SOL    HW1 6560   0.334   6.778   6.029
 1887SOL    HW2 6561   0.279   6.836   6.171
 1888SOL     OW 6562   2.244   2.043   5.834
 1888SOL    HW1 6563   2.247   2.097   5.750
 1888SOL    HW2 6564   2.322   2.066   5.892
 1889SOL     OW 6565   3.475   2.936   0.459
 1889SOL    HW1 6566   3.475   2.896   0.550
 1889SOL    HW2 6567   3.385   2.974   0.439
 1890SOL     OW 6568   6.456   5.803   6.556
 1890SOL    HW1 6569   6.459   5.902   6.539
 1890SOL    HW2 6570   6.361   5.772   6.555
 1891SOL     OW 6571   6.015   4.152   5.741
 1891SOL    HW1 6572   5.978   4.070   5.785
 1891SOL    HW2 6573   5.961   4.232   5.768
 1892SOL     OW 6574   4.075   6.217   1.798
 1892SOL    HW1 6575   4.054   6.120   1.786
 1892SOL    HW2 6576   4.049   6.246   1.890
 1893SOL     OW 6577   3.426   1.693   4.913
 1893SOL    HW1 6578   3.423   1.749   4.996
 1893SOL    HW2 6579   3.517   1.699   4.872
 1894SOL     OW 6580   4.023   3.917   1.041
 1894SOL    HW1 6581   4.048   3.977   1.117
 1894SOL    HW2 6582   3.997   3.827   1.076
 1895SOL     OW 6583   5.312   0.525   3.063
 1895SOL    HW1 6584   5.323   0.583   2.982
 1895SOL    HW2 6585   5.379   0.551   3.132
 1896SOL     OW 6586   6.625   1.227   5.936
 1896SOL    HW1 6587   6.552   1.260   5.996
 1896SOL    HW2 6588   6.650   1.299   5.871
 1897SOL     OW 6589   6.042   4.833   3.512
 1897SOL    HW1 6590   6.117   4.898   3.499
 1897SOL    HW2 6591   6.078   4.740   3.508
 1898SOL     OW 6592   5.934   6.102   6.944
 1898SOL    HW1 6593   6.026   6.066   6.964
 1898SOL    HW2 6594   5.873   6.080   7.020
 1899SOL     OW 6595   0.589   3.085   3.230
 1899SOL    HW1 6596   0.597   2.989   3.202
 1899SOL    HW2 6597   0.511   3.096   3.291
 1900SOL     OW 6598   2.322   6.455   0.946
 1900SOL    HW1 6599   2.406   6.509   0.958
 1900SOL    HW2 6600   2.306   6.440   0.849
 1901SOL     OW 6601   1.592   1.750   6.932
 1901SOL    HW1 6602   1.557   1.843   6.938
 1901SOL    HW2 6603   1.648   1.741   6.849
 1902SOL     OW 6604   1.948   2.814   5.328
 1902SOL    HW1 6605   1.886   2.749   5.372
 1902SOL    HW2 6606   1.904   2.904   5.323
 1903SOL     OW 6607   6.464   3.331   3.726
 1903SOL    HW1 6608   6.426   3.250   3.770
 1903SOL    HW2 6609   6.390   3.394   3.703
 1904SOL     OW 6610   0.371   6.773   4.358
 1904SOL    HW1 6611   0.281   6.772   4.316
 1904SOL    HW2 6612   0.440   6.746   4.291
 1905SOL     OW 6613   6.623   2.768   4.589
 1905SOL    HW1 6614   6.591   2.859   4.618
 1905SOL    HW2 6615   6.598   2.700   4.658
 1906SOL     OW 6616   2.720   0.115   0.290
 1906SOL    HW1 6617   2.637   0.059   0.299
 1906SOL    HW2 6618   2.729   0.173   0.371
 1907SOL     OW 6619   3.325   6.059   3.138
 1907SOL    HW1 6620   3.302   6.004   3.219
 1907SOL    HW2 6621   3.424   6.053   3.121
 1908SOL     OW 6622   4.930   1.258   6.728
 1908SOL    HW1 6623   5.025   1.289   6.734
 1908SOL    HW2 6624   4.887   1.267   6.818
 1909SOL     OW 6625   4.013   5.088   4.399
 1909SOL    HW1 6626   4.016   4.991   4.425
 1909SOL    HW2 6627   3.957   5.098   4.317
 1910SOL     OW 6628   5.007   2.252   5.085
 1910SOL    HW1 6629   4.941   2.212   5.149
 1910SOL    HW2 6630   5.054   2.329   5.129
 1911SOL     OW 6631   6.873   3.605   6.188
 1911SOL    HW1 6632   6.818   3.683   6.220
 1911SOL    HW2 6633   6.940   3.637   6.121
 1912SOL     OW 6634   3.605   6.186   3.595
 1912SOL    HW1 6635   3.692   6.232   3.615
 1912SOL    HW2 6636   3.612   6.089   3.618
 1913SOL     OW 6637   1.519   4.109   5.214
 1913SOL    HW1 6638   1.555   4.162   5.137
 1913SOL    HW2 6639   1.468   4.030   5.179
 1914SOL     OW 6640   4.084   1.640   5.537
 1914SOL    HW1 6641   3.997   1.619   5.582
 1914SOL    HW2 6642   4.121   1.557   5.497
 1915SOL     OW 6643   3.346   0.391   5.217
 1915SOL    HW1 6644   3.394   0.477   5.205
 1915SOL    HW2 6645   3.412   0.318   5.235
 1916SOL     OW 6646   4.258   6.661   1.463
 1916SOL    HW1 6647   4.219   6.569   1.466
 1916SOL    HW2 6648   4.191   6.726   1.496
 1917SOL     OW 6649   3.277   3.004   3.882
 1917SOL    HW1 6650   3.261   2.962   3.971
 1917SOL    HW2 6651   3.205   3.071   3.863
 1918SOL     OW 6652   6.078   6.765   3.784
 1918SOL    HW1 6653   6.009   6.829   3.818
 1918SOL    HW2 6654   6.033   6.685   3.745
 1919SOL     OW 6655   6.746   6.633   2.169
 1919SOL    HW1 6656   6.828   6.676   2.205
 1919SOL    HW2 6657   6.716   6.560   2.230
 1920SOL     OW 6658   7.012   5.688   4.278
 1920SOL    HW1 6659   6.997   5.590   4.267
 1920SOL    HW2 6660   0.037   5.723   4.200
 1921SOL     OW 6661   0.976   6.486   6.572
 1921SOL    HW1 6662   0.900   6.548   6.554
 1921SOL    HW2 6663   1.042   6.491   6.497
 1922SOL     OW 6664   3.348   4.582   0.951
 1922SOL    HW1 6665   3.335   4.527   0.869
 1922SOL    HW2 6666   3.433   4.634   0.944
 1923SOL     OW 6667   1.781   2.039   0.930
 1923SOL    HW1 6668   1.861   2.025   0.988
 1923SOL    HW2 6669   1.784   2.131   0.891
 1924SOL     OW 6670   1.077   4.390   1.799
 1924SOL    HW1 6671   1.062   4.487   1.778
 1924SOL    HW2 6672   1.050   4.335   1.720
 1925SOL     OW 6673   3.051   4.422   0.677
 1925SOL    HW1 6674   2.986   4.362   0.725
 1925SOL    HW2 6675   3.001   4.499   0.637
 1926SOL     OW 6676   0.610   0.020   3.498
 1926SOL    HW1 6677   0.657   0.014   3.410
 1926SOL    HW2 6678   0.676   0.008   3.572
 1927SOL     OW 6679   4.109   3.506   0.053
 1927SOL    HW1 6680   4.131   3.601   0.077
 1927SOL    HW2 6681   4.017   3.501   0.016
 1928SOL     OW 6682   6.303   4.534   5.569
 1928SOL    HW1 6683   6.221   4.581   5.599
 1928SOL    HW2 6684   6.378   4.599   5.562
 1929SOL     OW 6685   1.278   6.916   2.971
 1929SOL    HW1 6686   1.355   6.853   2.976
 1929SOL    HW2 6687   1.312   7.008   2.949
 1930SOL     OW 6688   5.586   4.181   6.736
 1930SOL    HW1 6689   5.684   4.168   6.723
 1930SOL    HW2 6690   5.542   4.092   6.746
 1931SOL     OW 6691   0.895   2.477   5.277
 1931SOL    HW1 6692   0.921   2.476   5.373
 1931SOL    HW2 6693   0.800   2.448   5.268
 1932SOL     OW 6694   5.919   3.191   1.479
 1932SOL    HW1 6695   5.839   3.173   1.537
 1932SOL    HW2 6696   5.889   3.214   1.387
 1933SOL     OW 6697   2.943   4.221   1.454
 1933SOL    HW1 6698   2.852   4.234   1.415
 1933SOL    HW2 6699   2.941   4.244   1.551
 1934SOL     OW 6700   0.808   5.723   4.882
 1934SOL    HW1 6701   0.827   5.655   4.811
 1934SOL    HW2 6702   0.743   5.685   4.948
 1935SOL     OW 6703   2.471   0.831   3.587
 1935SOL    HW1 6704   2.455   0.903   3.654
 1935SOL    HW2 6705   2.427   0.746   3.616
 1936SOL     OW 6706   6.201   5.473   5.442
 1936SOL    HW1 6707   6.252   5.494   5.526
 1936SOL    HW2 6708   6.243   5.521   5.365
 1937SOL     OW 6709   4.070   0.267   2.068
 1937SOL    HW1 6710   4.013   0.239   1.991
 1937SOL    HW2 6711   4.080   0.190   2.131
 1938SOL     OW 6712   5.170   0.572   3.691
 1938SOL    HW1 6713   5.093   0.630   3.720
 1938SOL    HW2 6714   5.255   0.609   3.729
 1939SOL     OW 6715   2.089   0.533   3.624
 1939SOL    HW1 6716   2.014   0.594   3.600
 1939SOL    HW2 6717   2.061   0.473   3.699
 1940SOL     OW 6718   0.077   5.565   6.412
 1940SOL    HW1 6719   0.157   5.505   6.419
 1940SOL    HW2 6720   0.103   5.658   6.440
 1941SOL     OW 6721   5.242   4.192   2.671
 1941SOL    HW1 6722   5.161   4.133   2.679
 1941SOL    HW2 6723   5.214   4.282   2.638
 1942SOL     OW 6724   6.213   5.444   3.034
 1942SOL    HW1 6725   6.308   5.447   3.003
 1942SOL    HW2 6726   6.167   5.528   3.007
 1943SOL     OW 6727   2.475   5.300   2.443
 1943SOL    HW1 6728   2.484   5.373   2.511
 1943SOL    HW2 6729   2.553   5.303   2.380
 1944SOL     OW 6730   6.551   1.290   1.551
 1944SOL    HW1 6731   6.601   1.234   1.486
 1944SOL    HW2 6732   6.477   1.236   1.592
 1945SOL     OW 6733   3.705   5.342   4.053
 1945SOL    HW1 6734   3.656   5.284   3.988
 1945SOL    HW2 6735   3.641   5.402   4.100
 1946SOL     OW 6736   1.421   0.790   0.416
 1946SOL    HW1 6737   1.478   0.860   0.372
 1946SOL    HW2 6738   1.325   0.815   0.404
 1947SOL     OW 6739   5.690   5.839   4.609
 1947SOL    HW1 6740   5.685   5.747   4.569
 1947SOL    HW2 6741   5.675   5.834   4.707
 1948SOL     OW 6742   5.983   4.838   4.719
 1948SOL    HW1 6743   5.898   4.798   4.685
 1948SOL    HW2 6744   6.032   4.771   4.775
 1949SOL     OW 6745   4.727   4.097   6.693
 1949SOL    HW1 6746   4.768   4.188   6.696
 1949SOL    HW2 6747   4.631   4.102   6.717
 1950SOL     OW 6748   3.093   3.810   6.668
 1950SOL    HW1 6749   3.001   3.822   6.705
 1950SOL    HW2 6750   3.134   3.900   6.650
 1951SOL     OW 6751   6.239   2.340   0.025
 1951SOL    HW1 6752   6.259   2.252   0.069
 1951SOL    HW2 6753   6.252   2.414   0.091
 1952SOL     OW 6754   3.797   2.186   5.861
 1952SOL    HW1 6755   3.787   2.169   5.959
 1952SOL    HW2 6756   3.887   2.227   5.843
 1953SOL     OW 6757   0.436   3.039   6.250
 1953SOL    HW1 6758   0.372   3.032   6.326
 1953SOL    HW2 6759   0.529   3.025   6.284
 1954SOL     OW 6760   3.248   2.073   3.909
 1954SOL    HW1 6761   3.239   2.087   4.008
 1954SOL    HW2 6762   3.203   2.149   3.861
 1955SOL     OW 6763   6.971   6.689   2.965
 1955SOL    HW1 6764   7.010   6.738   3.043
 1955SOL    HW2 6765   6.908   6.749   2.915
 1956SOL     OW 6766   5.771   6.080   2.373
 1956SOL    HW1 6767   5.743   6.040   2.460
 1956SOL    HW2 6768   5.735   6.025   2.298
 1957SOL     OW 6769   0.686   6.783   5.675
 1957SOL    HW1 6770   0.611   6.751   5.733
 1957SOL    HW2 6771   0.652   6.796   5.581
 1958SOL     OW 6772   5.477   3.559   5.769
 1958SOL    HW1 6773   5.505   3.638   5.715
 1958SOL    HW2 6774   5.388   3.576   5.811
 1959SOL     OW 6775   1.752   2.159   6.554
 1959SOL    HW1 6776   1.714   2.105   6.479
 1959SOL    HW2 6777   1.710   2.250   6.555
 1960SOL     OW 6778   5.630   5.891   0.908
 1960SOL    HW1 6779   5.619   5.990   0.913
 1960SOL    HW2 6780   5.545   5.851   0.873
 1961SOL     OW 6781   5.622   4.565   3.841
 1961SOL    HW1 6782   5.561   4.636   3.806
 1961SOL    HW2 6783   5.577   4.476   3.832
 1962SOL     OW 6784   0.137   6.420   3.490
 1962SOL    HW1 6785   0.078   6.340   3.500
 1962SOL    HW2 6786   0.107   6.492   3.553
 1963SOL     OW 6787   1.548   0.576   3.241
 1963SOL    HW1 6788   1.644   0.602   3.244
 1963SOL    HW2 6789   1.539   0.479   3.222
 1964SOL     OW 6790   5.356   3.377   2.737
 1964SOL    HW1 6791   5.295   3.420   2.671
 1964SOL    HW2 6792   5.308   3.302   2.782
 1965SOL     OW 6793   1.595   4.321   3.714
 1965SOL    HW1 6794   1.688   4.290   3.695
 1965SOL    HW2 6795   1.531   4.245   3.700
 1966SOL     OW 6796   6.466   5.500   5.616
 1966SOL    HW1 6797   6.543   5.479   5.676
 1966SOL    HW2 6798   6.500   5.540   5.531
 1967SOL     OW 6799   4.883   2.322   4.826
 1967SOL    HW1 6800   4.911   2.304   4.920
 1967SOL    HW2 6801   4.844   2.239   4.786
 1968SOL     OW 6802   3.032   5.984   6.278
 1968SOL    HW1 6803   3.095   6.030   6.216
 1968SOL    HW2 6804   3.084   5.934   6.348
 1969SOL     OW 6805   6.958   2.699   0.964
 1969SOL    HW1 6806   7.019   2.633   1.007
 1969SOL    HW2 6807   6.864   2.667   0.971
 1970SOL     OW 6808   1.658   0.728   4.009
 1970SOL    HW1 6809   1.638   0.734   3.911
 1970SOL    HW2 6810   1.703   0.812   4.039
 1971SOL     OW 6811   0.368   6.075   6.704
 1971SOL    HW1 6812   0.363   6.073   6.604
 1971SOL    HW2 6813   0.419   6.156   6.733
 1972SOL     OW 6814   0.612   5.035   3.821
 1972SOL    HW1 6815   0.554   4.968   3.774
 1972SOL    HW2 6816   0.696   4.990   3.852
 1973SOL     OW 6817   3.147   3.406   1.331
 1973SOL    HW1 6818   3.069   3.357   1.291
 1973SOL    HW2 6819   3.190   3.463   1.261
 1974SOL     OW 6820   5.482   0.959   3.942
 1974SOL    HW1 6821   5.473   0.921   4.034
 1974SOL    HW2 6822   5.416   1.033   3.929
 1975SOL     OW 6823   3.465   0.098   3.701
 1975SOL    HW1 6824   3.407   0.114   3.781
 1975SOL    HW2 6825   3.518   0.180   3.680
 1976SOL     OW 6826   0.834   5.831   0.501
 1976SOL    HW1 6827   0.853   5.926   0.476
 1976SOL    HW2 6828   0.874   5.770   0.432
 1977SOL     OW 6829   0.806   2.802   5.129
 1977SOL    HW1 6830   0.873   2.743   5.174
 1977SOL    HW2 6831   0.735   2.827   5.195
 1978SOL     OW 6832   6.590   1.971   4.901
 1978SOL    HW1 6833   6.509   1.981   4.843
 1978SOL    HW2 6834   6.624   1.877   4.894
 1979SOL     OW 6835   6.170   4.597   3.519
 1979SOL    HW1 6836   6.230   4.526   3.481
 1979SOL    HW2 6837   6.151   4.576   3.615
 1980SOL     OW 6838   4.208   0.345   1.765
 1980SOL    HW1 6839   4.308   0.345   1.771
 1980SOL    HW2 6840   4.172   0.415   1.826
 1981SOL     OW 6841   4.802   3.136   1.673
 1981SOL    HW1 6842   4.746   3.069   1.625
 1981SOL    HW2 6843   4.771   3.144   1.768
 1982SOL     OW 6844   5.635   6.247   4.659
 1982SOL    HW1 6845   5.733   6.244   4.678
 1982SOL    HW2 6846   5.588   6.299   4.731
 1983SOL     OW 6847   1.108   3.376   3.470
 1983SOL    HW1 6848   1.164   3.458   3.484
 1983SOL    HW2 6849   1.057   3.385   3.384
 1984SOL     OW 6850   4.270   0.565   5.983
 1984SOL    HW1 6851   4.192   0.509   5.954
 1984SOL    HW2 6852   4.237   0.644   6.035
 1985SOL     OW 6853   0.798   0.882   1.264
 1985SOL    HW1 6854   0.831   0.838   1.181
 1985SOL    HW2 6855   0.790   0.981   1.248
 1986SOL     OW 6856   1.734   1.855   6.349
 1986SOL    HW1 6857   1.766   1.901   6.266
 1986SOL    HW2 6858   1.744   1.756   6.336
 1987SOL     OW 6859   2.347   3.307   0.092
 1987SOL    HW1 6860   2.292   3.381   0.054
 1987SOL    HW2 6861   2.312   3.219   0.059
 1988SOL     OW 6862   4.295   3.877   0.493
 1988SOL    HW1 6863   4.367   3.878   0.424
 1988SOL    HW2 6864   4.325   3.927   0.574
 1989SOL     OW 6865   2.168   0.147   4.324
 1989SOL    HW1 6866   2.125   0.166   4.235
 1989SOL    HW2 6867   2.263   0.120   4.309
 1990SOL     OW 6868   3.197   0.777   1.486
 1990SOL    HW1 6869   3.120   0.717   1.466
 1990SOL    HW2 6870   3.220   0.772   1.583
 1991SOL     OW 6871   3.136   5.740   4.354
 1991SOL    HW1 6872   3.165   5.651   4.320
 1991SOL    HW2 6873   3.211   5.782   4.406
 1992SOL     OW 6874   2.369   6.692   5.372
 1992SOL    HW1 6875   2.357   6.771   5.432
 1992SOL    HW2 6876   2.409   6.617   5.423
 1993SOL     OW 6877   4.145   3.298   5.535
 1993SOL    HW1 6878   4.053   3.312   5.500
 1993SOL    HW2 6879   4.146   3.218   5.595
 1994SOL     OW 6880   6.585   2.433   2.136
 1994SOL    HW1 6881   6.640   2.367   2.187
 1994SOL    HW2 6882   6.645   2.489   2.078
 1995SOL     OW 6883   5.833   2.144   1.747
 1995SOL    HW1 6884   5.789   2.147   1.837
 1995SOL    HW2 6885   5.913   2.204   1.748
 1996SOL     OW 6886   3.439   4.765   0.268
 1996SOL    HW1 6887   3.443   4.828   0.345
 1996SOL    HW2 6888   3.396   4.680   0.297
 1997SOL     OW 6889   5.368   0.562   3.461
 1997SOL    HW1 6890   5.286   0.574   3.518
 1997SOL    HW2 6891   5.364   0.473   3.415
 1998SOL     OW 6892   2.982   4.596   5.414
 1998SOL    HW1 6893   3.032   4.680   5.432
 1998SOL    HW2 6894   2.961   4.589   5.316
 1999SOL     OW 6895   2.508   0.501   2.086
 1999SOL    HW1 6896   2.603   0.492   2.059
 1999SOL    HW2 6897   2.480   0.597   2.079
 2000SOL     OW 6898   3.806   1.607   4.565
 2000SOL    HW1 6899   3.886   1.575   4.615
 2000SOL    HW2 6900   3.820   1.702   4.536
 2001SOL     OW 6901   2.806   1.605   1.029
 2001SOL    HW1 6902   2.903   1.581   1.036
 2001SOL    HW2 6903   2.791   1.659   0.946
 2002SOL     OW 6904   1.848   5.220   5.724
 2002SOL    HW1 6905   1.812   5.292   5.783
 2002SOL    HW2 6906   1.775   5.185   5.666
 2003SOL     OW 6907   5.941   6.046   3.997
 2003SOL    HW1 6908   5.983   6.115   4.056
 2003SOL    HW2 6909   6.009   6.015   3.929
 2004SOL     OW 6910   2.615   0.730   5.559
 2004SOL    HW1 6911   2.608   0.830   5.552
 2004SOL    HW2 6912   2.711   0.704   5.570
 2005SOL     OW 6913   2.038   6.185   5.571
 2005SOL    HW1 6914   1.996   6.139   5.650
 2005SOL    HW2 6915   2.086   6.117   5.515
 2006SOL     OW 6916   4.247   5.362   4.088
 2006SOL    HW1 6917   4.324   5.395   4.142
 2006SOL    HW2 6918   4.172   5.428   4.092
 2007SOL     OW 6919   5.556   5.735   0.498
 2007SOL    HW1 6920   5.470   5.744   0.448
 2007SOL    HW2 6921   5.560   5.645   0.542
 2008SOL     OW 6922   6.982   6.001   4.017
 2008SOL    HW1 6923   6.963   6.058   4.097
 2008SOL    HW2 6924   0.013   5.924   4.044
 2009SOL     OW 6925   0.063   0.089   2.373
 2009SOL    HW1 6926   0.085   0.182   2.343
 2009SOL    HW2 6927   0.134   0.026   2.341
 2010SOL     OW 6928   1.005   0.726   0.475
 2010SOL    HW1 6929   1.039   0.800   0.417
 2010SOL    HW2 6930   1.033   0.743   0.570
 2011SOL     OW 6931   0.311   2.026   5.220
 2011SOL    HW1 6932   0.283   2.098   5.156
 2011SOL    HW2 6933   0.230   1.985   5.262
 2012SOL     OW 6934   1.293   4.103   0.729
 2012SOL    HW1 6935   1.269   4.177   0.665
 2012SOL    HW2 6936   1.338   4.142   0.809
 2013SOL     OW 6937   5.333   1.274   2.049
 2013SOL    HW1 6938   5.372   1.200   2.105
 2013SOL    HW2 6939   5.383   1.281   1.963
 2014SOL     OW 6940   2.145   5.250   2.951
 2014SOL    HW1 6941   2.243   5.233   2.949
 2014SOL    HW2 6942   2.123   5.326   2.890
 2015SOL     OW 6943   3.396   0.675   6.660
 2015SOL    HW1 6944   3.466   0.606   6.642
 2015SOL    HW2 6945   3.305   0.634   6.648
 2016SOL     OW 6946   0.291   5.151   4.382
 2016SOL    HW1 6947   0.247   5.089   4.317
 2016SOL    HW2 6948   0.369   5.195   4.339
 2017SOL     OW 6949   2.471   6.008   3.004
 2017SOL    HW1 6950   2.503   5.915   3.022
 2017SOL    HW2 6951   2.438   6.014   2.910
 2018SOL     OW 6952   0.369   5.504   6.439
 2018SOL    HW1 6953   0.430   5.515   6.517
 2018SOL    HW2 6954   0.399   5.426   6.383
 2019SOL     OW 6955   6.348   1.692   2.195
 2019SOL    HW1 6956   6.268   1.702   2.136
 2019SOL    HW2 6957   6.386   1.782   2.215
 2020SOL     OW 6958   2.830   5.598   2.895
 2020SOL    HW1 6959   2.816   5.552   2.983
 2020SOL    HW2 6960   2.917   5.646   2.896
 2021SOL     OW 6961   1.242   0.637   2.826
 2021SOL    HW1 6962   1.338   0.637   2.853
 2021SOL    HW2 6963   1.186   0.672   2.901
 2022SOL     OW 6964   1.892   3.969   1.355
 2022SOL    HW1 6965   1.903   3.895   1.421
 2022SOL    HW2 6966   1.942   3.946   1.271
 2023SOL     OW 6967   6.320   0.774   5.814
 2023SOL    HW1 6968   6.379   0.852   5.792
 2023SOL    HW2 6969   6.243   0.807   5.870
 2024SOL     OW 6970   5.443   1.096   3.680
 2024SOL    HW1 6971   5.492   1.016   3.715
 2024SOL    HW2 6972   5.485   1.126   3.595
 2025SOL     OW 6973   0.194   1.287   1.742
 2025SOL    HW1 6974   0.094   1.290   1.738
 2025SOL    HW2 6975   0.226   1.197   1.711
 2026SOL     OW 6976   1.940   1.452   5.233
 2026SOL    HW1 6977   2.013   1.388   5.208
 2026SOL    HW2 6978   1.971   1.546   5.221
 2027SOL     OW 6979   0.730   1.578   2.673
 2027SOL    HW1 6980   0.769   1.521   2.746
 2027SOL    HW2 6981   0.645   1.619   2.706
 2028SOL     OW 6982   3.873   3.161   0.053
 2028SOL    HW1 6983   3.898   3.096   0.126
 2028SOL    HW2 6984   3.891   3.119   6.992
 2029SOL     OW 6985   0.845   1.080   6.879
 2029SOL    HW1 6986   0.833   0.980   6.883
 2029SOL    HW2 6987   0.907   1.109   6.952
 2030SOL     OW 6988   1.530   1.533   3.629
 2030SOL    HW1 6989   1.542   1.437   3.654
 2030SOL    HW2 6990   1.610   1.586   3.659
 2031SOL     OW 6991   5.760   6.950   1.723
 2031SOL    HW1 6992   5.834   6.986   1.665
 2031SOL    HW2 6993   5.781   6.968   1.819
 2032SOL     OW 6994   5.064   6.764   1.472
 2032SOL    HW1 6995   4.966   6.784   1.472
 2032SOL    HW2 6996   5.111   6.829   1.531
 2033SOL     OW 6997   5.547   5.074   6.953
 2033SOL    HW1 6998   5.509   5.164   6.971
 2033SOL    HW2 6999   5.528   5.013   0.003
 2034SOL     OW 7000   2.182   6.760   3.227
 2034SOL    HW1 7001   2.199   6.688   3.160
 2034SOL    HW2 7002   2.127   6.832   3.186
 2035SOL     OW 7003   1.008   2.440   2.918
 2035SOL    HW1 7004   0.934   2.492   2.875
 2035SOL    HW2 7005   1.048   2.377   2.851
 2036SOL     OW 7006   0.926   4.877   0.252
 2036SOL    HW1 7007   0.851   4.939   0.272
 2036SOL    HW2 7008   0.912   4.836   0.162
 2037SOL     OW 7009   0.177   1.787   5.811
 2037SOL    HW1 7010   0.153   1.690   5.810
 2037SOL    HW2 7011   0.270   1.799   5.776
 2038SOL     OW 7012   0.267   1.043   4.593
 2038SOL    HW1 7013   0.251   0.944   4.586
 2038SOL    HW2 7014   0.332   1.061   4.667
 2039SOL     OW 7015   6.872   5.716   2.486
 2039SOL    HW1 7016   6.920   5.804   2.478
 2039SOL    HW2 7017   6.805   5.723   2.560
 2040SOL     OW 7018   4.027   3.671   4.802
 2040SOL    HW1 7019   4.065   3.670   4.894
 2040SOL    HW2 7020   4.029   3.765   4.766
 2041SOL     OW 7021   5.806   4.341   5.561
 2041SOL    HW1 7022   5.809   4.352   5.661
 2041SOL    HW2 7023   5.874   4.400   5.519
 2042SOL     OW 7024   4.125   5.634   0.280
 2042SOL    HW1 7025   4.187   5.562   0.248
 2042SOL    HW2 7026   4.173   5.694   0.343
 2043SOL     OW 7027   5.712   3.993   1.995
 2043SOL    HW1 7028   5.695   3.973   2.091
 2043SOL    HW2 7029   5.806   4.026   1.984
 2044SOL     OW 7030   6.297   6.859   1.716
 2044SOL    HW1 7031   6.290   6.760   1.714
 2044SOL    HW2 7032   6.303   6.894   1.622
 2045SOL     OW 7033   2.274   4.853   5.843
 2045SOL    HW1 7034   2.350   4.919   5.841
 2045SOL    HW2 7035   2.188   4.902   5.831
 2046SOL     OW 7036   6.124   6.941   4.788
 2046SOL    HW1 7037   6.032   6.903   4.781
 2046SOL    HW2 7038   6.119   0.006   4.826
 2047SOL     OW 7039   4.949   2.573   0.633
 2047SOL    HW1 7040   4.866   2.529   0.599
 2047SOL    HW2 7041   4.945   2.671   0.614
 2048SOL     OW 7042   4.486   0.595   6.180
 2048SOL    HW1 7043   4.497   0.676   6.237
 2048SOL    HW2 7044   4.415   0.611   6.112
 2049SOL     OW 7045   4.645   1.039   0.445
 2049SOL    HW1 7046   4.656   1.003   0.537
 2049SOL    HW2 7047   4.677   0.971   0.379
 2050SOL     OW 7048   5.747   3.246   3.923
 2050SOL    HW1 7049   5.764   3.174   3.856
 2050SOL    HW2 7050   5.824   3.310   3.922
 2051SOL     OW 7051   1.632   5.598   0.816
 2051SOL    HW1 7052   1.694   5.665   0.775
 2051SOL    HW2 7053   1.648   5.594   0.915
 2052SOL     OW 7054   1.113   2.452   6.748
 2052SOL    HW1 7055   1.045   2.512   6.705
 2052SOL    HW2 7056   1.084   2.431   6.841
 2053SOL     OW 7057   6.404   0.545   0.193
 2053SOL    HW1 7058   6.428   0.448   0.189
 2053SOL    HW2 7059   6.343   0.567   0.117
 2054SOL     OW 7060   5.913   2.504   0.428
 2054SOL    HW1 7061   5.850   2.510   0.505
 2054SOL    HW2 7062   6.004   2.482   0.460
 2055SOL     OW 7063   5.245   2.825   4.133
 2055SOL    HW1 7064   5.294   2.743   4.163
 2055SOL    HW2 7065   5.303   2.878   4.072
 2056SOL     OW 7066   2.529   0.971   3.161
 2056SOL    HW1 7067   2.439   0.931   3.173
 2056SOL    HW2 7068   2.592   0.933   3.228
 2057SOL     OW 7069   0.151   2.932   4.241
 2057SOL    HW1 7070   0.080   2.968   4.302
 2057SOL    HW2 7071   0.156   2.833   4.249
 2058SOL     OW 7072   0.250   2.112   2.540
 2058SOL    HW1 7073   0.278   2.204   2.516
 2058SOL    HW2 7074   0.249   2.103   2.640
 2059SOL     OW 7075   2.119   1.398   7.022
 2059SOL    HW1 7076   2.171   1.476   6.986
 2059SOL    HW2 7077   2.067   1.356   6.947
 2060SOL     OW 7078   0.373   4.172   2.176
 2060SOL    HW1 7079   0.411   4.234   2.108
 2060SOL    HW2 7080   0.335   4.092   2.130
 2061SOL     OW 7081   6.710   1.761   2.330
 2061SOL    HW1 7082   6.685   1.674   2.287
 2061SOL    HW2 7083   6.748   1.742   2.421
 2062SOL     OW 7084   4.954   0.227   2.692
 2062SOL    HW1 7085   4.987   0.261   2.604
 2062SOL    HW2 7086   4.902   0.143   2.678
 2063SOL     OW 7087   1.526   2.998   6.728
 2063SOL    HW1 7088   1.481   2.917   6.767
 2063SOL    HW2 7089   1.565   2.975   6.639
 2064SOL     OW 7090   1.214   2.090   6.775
 2064SOL    HW1 7091   1.153   2.046   6.708
 2064SOL    HW2 7092   1.174   2.176   6.804
 2065SOL     OW 7093   6.194   3.600   2.036
 2065SOL    HW1 7094   6.225   3.661   1.964
 2065SOL    HW2 7095   6.140   3.651   2.103
 2066SOL     OW 7096   0.246   0.465   4.833
 2066SOL    HW1 7097   0.283   0.412   4.910
 2066SOL    HW2 7098   0.174   0.413   4.788
 2067SOL     OW 7099   6.657   6.416   1.434
 2067SOL    HW1 7100   6.648   6.429   1.335
 2067SOL    HW2 7101   6.726   6.478   1.470
 2068SOL     OW 7102   2.065   1.938   5.284
 2068SOL    HW1 7103   2.093   1.994   5.207
 2068SOL    HW2 7104   2.146   1.901   5.330
 2069SOL     OW 7105   1.164   2.554   2.442
 2069SOL    HW1 7106   1.159   2.627   2.510
 2069SOL    HW2 7107   1.158   2.465   2.488
 2070SOL     OW 7108   1.327   1.607   2.635
 2070SOL    HW1 7109   1.362   1.527   2.685
 2070SOL    HW2 7110   1.305   1.679   2.700
 2071SOL     OW 7111   0.878   0.217   4.440
 2071SOL    HW1 7112   0.899   0.159   4.362
 2071SOL    HW2 7113   0.823   0.295   4.410
 2072SOL     OW 7114   5.002   5.811   1.951
 2072SOL    HW1 7115   5.023   5.888   1.891
 2072SOL    HW2 7116   5.022   5.725   1.904
 2073SOL     OW 7117   2.947   6.693   5.611
 2073SOL    HW1 7118   3.025   6.674   5.552
 2073SOL    HW2 7119   2.977   6.695   5.707
 2074SOL     OW 7120   6.323   1.448   1.397
 2074SOL    HW1 7121   6.326   1.417   1.302
 2074SOL    HW2 7122   6.414   1.440   1.437
 2075SOL     OW 7123   4.153   3.376   0.278
 2075SOL    HW1 7124   4.196   3.447   0.334
 2075SOL    HW2 7125   4.137   3.411   0.186
 2076SOL     OW 7126   5.143   6.518   1.157
 2076SOL    HW1 7127   5.079   6.541   1.230
 2076SOL    HW2 7128   5.210   6.591   1.147
 2077SOL     OW 7129   5.215   1.470   2.420
 2077SOL    HW1 7130   5.206   1.455   2.321
 2077SOL    HW2 7131   5.281   1.405   2.457
 2078SOL     OW 7132   3.288   4.788   6.569
 2078SOL    HW1 7133   3.328   4.713   6.623
 2078SOL    HW2 7134   3.193   4.800   6.595
 2079SOL     OW 7135   5.491   1.344   3.784
 2079SOL    HW1 7136   5.463   1.330   3.879
 2079SOL    HW2 7137   5.502   1.256   3.739
 2080SOL     OW 7138   2.971   2.192   4.840
 2080SOL    HW1 7139   2.929   2.253   4.773
 2080SOL    HW2 7140   3.028   2.246   4.902
 2081SOL     OW 7141   0.824   6.288   5.199
 2081SOL    HW1 7142   0.894   6.351   5.165
 2081SOL    HW2 7143   0.784   6.238   5.122
 2082SOL     OW 7144   5.828   1.204   1.169
 2082SOL    HW1 7145   5.887   1.175   1.093
 2082SOL    HW2 7146   5.821   1.304   1.169
 2083SOL     OW 7147   3.607   4.524   6.046
 2083SOL    HW1 7148   3.588   4.429   6.023
 2083SOL    HW2 7149   3.547   4.584   5.994
 2084SOL     OW 7150   6.903   2.657   2.871
 2084SOL    HW1 7151   6.991   2.668   2.919
 2084SOL    HW2 7152   6.897   2.565   2.833
 2085SOL     OW 7153   4.481   0.501   5.818
 2085SOL    HW1 7154   4.430   0.540   5.895
 2085SOL    HW2 7155   4.535   0.573   5.774
 2086SOL     OW 7156   2.751   5.179   0.309
 2086SOL    HW1 7157   2.770   5.106   0.374
 2086SOL    HW2 7158   2.785   5.266   0.346
 2087SOL     OW 7159   5.426   6.948   2.793
 2087SOL    HW1 7160   5.481   7.005   2.731
 2087SOL    HW2 7161   5.423   6.991   2.883
 2088SOL     OW 7162   3.386   6.560   0.923
 2088SOL    HW1 7163   3.443   6.528   0.998
 2088SOL    HW2 7164   3.441   6.618   0.862
 2089SOL     OW 7165   4.996   1.124   0.249
 2089SOL    HW1 7166   5.042   1.136   0.162
 2089SOL    HW2 7167   4.975   1.213   0.289
 2090SOL     OW 7168   3.605   3.767   4.984
 2090SOL    HW1 7169   3.514   3.807   4.994
 2090SOL    HW2 7170   3.655   3.815   4.912
 2091SOL     OW 7171   1.365   5.562   0.754
 2091SOL    HW1 7172   1.463   5.559   0.776
 2091SOL    HW2 7173   1.333   5.470   0.732
 2092SOL     OW 7174   6.398   5.854   1.305
 2092SOL    HW1 7175   6.409   5.760   1.271
 2092SOL    HW2 7176   6.474   5.910   1.272
 2093SOL     OW 7177   0.991   3.193   1.639
 2093SOL    HW1 7178   0.976   3.291   1.627
 2093SOL    HW2 7179   1.089   3.175   1.646
 2094SOL     OW 7180   5.533   0.129   2.029
 2094SOL    HW1 7181   5.620   0.088   2.001
 2094SOL    HW2 7182   5.512   0.101   2.123
 2095SOL     OW 7183   5.488   5.593   4.711
 2095SOL    HW1 7184   5.401   5.603   4.662
 2095SOL    HW2 7185   5.561   5.575   4.646
 2096SOL     OW 7186   4.752   4.245   2.539
 2096SOL    HW1 7187   4.733   4.306   2.462
 2096SOL    HW2 7188   4.749   4.150   2.508
 2097SOL     OW 7189   0.207   2.546   6.942
 2097SOL    HW1 7190   0.171   2.580   6.856
 2097SOL    HW2 7191   0.168   2.598   7.018
 2098SOL     OW 7192   4.649   6.911   4.016
 2098SOL    HW1 7193   4.646   6.816   3.987
 2098SOL    HW2 7194   4.742   6.935   4.044
 2099SOL     OW 7195   2.858   0.665   4.144
 2099SOL    HW1 7196   2.783   0.614   4.185
 2099SOL    HW2 7197   2.850   0.762   4.169
 2100SOL     OW 7198   4.587   4.344   6.370
 2100SOL    HW1 7199   4.548   4.261   6.410
 2100SOL    HW2 7200   4.562   4.423   6.425
 2101SOL     OW 7201   0.282   0.328   3.216
 2101SOL    HW1 7202   0.215   0.269   3.171
 2101SOL    HW2 7203   0.240   0.374   3.294
 2102SOL     OW 7204   6.946   5.220   2.856
 2102SOL    HW1 7205   0.012   5.185   2.863
 2102SOL    HW2 7206   6.903   5.217   2.946
 2103SOL     OW 7207   3.382   3.064   0.093
 2103SOL    HW1 7208   3.395   3.120   0.175
 2103SOL    HW2 7209   3.296   3.013   0.101
 2104SOL     OW 7210   1.353   3.429   5.455
 2104SOL    HW1 7211   1.434   3.485   5.477
 2104SOL    HW2 7212   1.336   3.434   5.356
 2105SOL     OW 7213   5.980   5.258   1.856
 2105SOL    HW1 7214   5.933   5.173   1.877
 2105SOL    HW2 7215   6.078   5.240   1.846
 2106SOL     OW 7216   4.969   5.592   6.654
 2106SOL    HW1 7217   4.991   5.495   6.661
 2106SOL    HW2 7218   4.870   5.603   6.646
 2107SOL     OW 7219   3.729   4.174   5.422
 2107SOL    HW1 7220   3.694   4.091   5.466
 2107SOL    HW2 7221   3.750   4.155   5.326
 2108SOL     OW 7222   6.090   5.365   5.791
 2108SOL    HW1 7223   6.164   5.391   5.854
 2108SOL    HW2 7224   6.017   5.434   5.796
 2109SOL     OW 7225   6.020   5.959   2.554
 2109SOL    HW1 7226   6.068   6.025   2.496
 2109SOL    HW2 7227   5.950   6.005   2.607
 2110SOL     OW 7228   2.858   4.367   6.348
 2110SOL    HW1 7229   2.828   4.462   6.355
 2110SOL    HW2 7230   2.913   4.355   6.265
 2111SOL     OW 7231   1.273   2.641   6.265
 2111SOL    HW1 7232   1.245   2.588   6.185
 2111SOL    HW2 7233   1.262   2.585   6.347
 2112SOL     OW 7234   4.531   2.732   1.326
 2112SOL    HW1 7235   4.493   2.641   1.340
 2112SOL    HW2 7236   4.471   2.784   1.265
 2113SOL     OW 7237   1.444   1.011   2.713
 2113SOL    HW1 7238   1.429   0.917   2.681
 2113SOL    HW2 7239   1.537   1.039   2.691
 2114SOL     OW 7240   1.594   4.394   0.080
 2114SOL    HW1 7241   1.677   4.415   0.132
 2114SOL    HW2 7242   1.514   4.404   0.139
 2115SOL     OW 7243   2.002   4.349   2.363
 2115SOL    HW1 7244   1.976   4.374   2.456
 2115SOL    HW2 7245   2.101   4.359   2.351
 2116SOL     OW 7246   0.175   3.737   3.831
 2116SOL    HW1 7247   0.225   3.653   3.853
 2116SOL    HW2 7248   0.240   3.805   3.798
 2117SOL     OW 7249   0.906   4.992   1.484
 2117SOL    HW1 7250   0.963   5.016   1.405
 2117SOL    HW2 7251   0.963   4.948   1.554
 2118SOL     OW 7252   0.294   3.605   2.327
 2118SOL    HW1 7253   0.373   3.658   2.357
 2118SOL    HW2 7254   0.267   3.543   2.401
 2119SOL     OW 7255   2.547   5.973   0.914
 2119SOL    HW1 7256   2.481   5.899   0.923
 2119SOL    HW2 7257   2.640   5.936   0.920
 2120SOL     OW 7258   6.694   4.763   1.825
 2120SOL    HW1 7259   6.616   4.819   1.852
 2120SOL    HW2 7260   6.719   4.702   1.900
 2121SOL     OW 7261   0.624   5.103   5.366
 2121SOL    HW1 7262   0.602   5.108   5.464
 2121SOL    HW2 7263   0.648   5.008   5.343
 2122SOL     OW 7264   4.687   4.303   4.908
 2122SOL    HW1 7265   4.765   4.268   4.858
 2122SOL    HW2 7266   4.673   4.250   4.991
 2123SOL     OW 7267   6.508   4.844   2.642
 2123SOL    HW1 7268   6.419   4.866   2.602
 2123SOL    HW2 7269   6.549   4.927   2.679
 2124SOL     OW 7270   2.380   2.025   1.351
 2124SOL    HW1 7271   2.475   1.993   1.352
 2124SOL    HW2 7272   2.321   1.955   1.391
 2125SOL     OW 7273   2.906   0.684   0.614
 2125SOL    HW1 7274   2.853   0.765   0.639
 2125SOL    HW2 7275   2.906   0.619   0.689
 2126SOL     OW 7276   2.976   0.920   6.623
 2126SOL    HW1 7277   3.064   0.902   6.666
 2126SOL    HW2 7278   2.990   0.964   6.534
 2127SOL     OW 7279   5.685   3.141   4.572
 2127SOL    HW1 7280   5.614   3.088   4.618
 2127SOL    HW2 7281   5.717   3.214   4.632
 2128SOL     OW 7282   0.642   4.281   4.799
 2128SOL    HW1 7283   0.542   4.286   4.799
 2128SOL    HW2 7284   0.672   4.207   4.859
 2129SOL     OW 7285   4.521   2.304   5.571
 2129SOL    HW1 7286   4.602   2.356   5.546
 2129SOL    HW2 7287   4.534   2.208   5.547
 2130SOL     OW 7288   5.033   6.705   2.502
 2130SOL    HW1 7289   4.969   6.674   2.572
 2130SOL    HW2 7290   5.107   6.756   2.545
 2131SOL     OW 7291   6.839   0.994   0.708
 2131SOL    HW1 7292   6.802   0.969   0.618
 2131SOL    HW2 7293   6.768   0.982   0.777
 2132SOL     OW 7294   2.554   3.090   0.609
 2132SOL    HW1 7295   2.544   2.997   0.644
 2132SOL    HW2 7296   2.495   3.102   0.529
 2133SOL     OW 7297   3.030   2.259   6.076
 2133SOL    HW1 7298   3.004   2.215   6.162
 2133SOL    HW2 7299   2.978   2.218   6.000
 2134SOL     OW 7300   0.189   0.671   1.135
 2134SOL    HW1 7301   0.277   0.681   1.181
 2134SOL    HW2 7302   0.204   0.652   1.038
 2135SOL     OW 7303   0.716   3.533   4.731
 2135SOL    HW1 7304   0.813   3.519   4.750
 2135SOL    HW2 7305   0.705   3.590   4.650
 2136SOL     OW 7306   2.265   5.745   1.666
 2136SOL    HW1 7307   2.300   5.681   1.598
 2136SOL    HW2 7308   2.195   5.701   1.721
 2137SOL     OW 7309   3.092   5.414   4.519
 2137SOL    HW1 7310   3.157   5.453   4.584
 2137SOL    HW2 7311   3.077   5.317   4.541
 2138SOL     OW 7312   5.588   1.297   2.330
 2138SOL    HW1 7313   5.579   1.312   2.429
 2138SOL    HW2 7314   5.557   1.378   2.281
 2139SOL     OW 7315   3.078   0.703   5.381
 2139SOL    HW1 7316   3.039   0.611   5.368
 2139SOL    HW2 7317   3.178   0.697   5.381
 2140SOL     OW 7318   2.670   1.507   5.010
 2140SOL    HW1 7319   2.610   1.535   5.085
 2140SOL    HW2 7320   2.721   1.425   5.038
 2141SOL     OW 7321   5.925   4.402   2.396
 2141SOL    HW1 7322   5.872   4.459   2.333
 2141SOL    HW2 7323   6.018   4.440   2.403
 2142SOL     OW 7324   1.978   2.377   3.630
 2142SOL    HW1 7325   1.978   2.282   3.660
 2142SOL    HW2 7326   2.009   2.382   3.535
 2143SOL     OW 7327   2.332   4.853   0.791
 2143SOL    HW1 7328   2.244   4.812   0.767
 2143SOL    HW2 7329   2.322   4.907   0.874
 2144SOL     OW 7330   6.486   5.740   4.324
 2144SOL    HW1 7331   6.532   5.677   4.261
 2144SOL    HW2 7332   6.389   5.747   4.300
 2145SOL     OW 7333   4.316   6.579   4.215
 2145SOL    HW1 7334   4.242   6.620   4.161
 2145SOL    HW2 7335   4.330   6.633   4.297
 2146SOL     OW 7336   2.431   2.870   1.048
 2146SOL    HW1 7337   2.451   2.796   0.983
 2146SOL    HW2 7338   2.332   2.876   1.063
 2147SOL     OW 7339   6.296   0.871   5.409
 2147SOL    HW1 7340   6.355   0.809   5.461
 2147SOL    HW2 7341   6.227   0.818   5.360
 2148SOL     OW 7342   7.026   3.606   6.778
 2148SOL    HW1 7343   6.996   3.551   6.700
 2148SOL    HW2 7344   6.967   3.589   6.856
 2149SOL     OW 7345   0.753   0.606   6.783
 2149SOL    HW1 7346   0.791   0.562   6.702
 2149SOL    HW2 7347   0.827   0.629   6.846
 2150SOL     OW 7348   2.429   3.254   1.488
 2150SOL    HW1 7349   2.521   3.223   1.515
 2150SOL    HW2 7350   2.364   3.232   1.560
 2151SOL     OW 7351   1.293   5.621   6.831
 2151SOL    HW1 7352   1.290   5.711   6.874
 2151SOL    HW2 7353   1.388   5.600   6.806
 2152SOL     OW 7354   4.104   6.055   3.261
 2152SOL    HW1 7355   4.031   6.077   3.326
 2152SOL    HW2 7356   4.128   5.958   3.270
 2153SOL     OW 7357   4.963   1.277   3.234
 2153SOL    HW1 7358   4.929   1.219   3.159
 2153SOL    HW2 7359   4.925   1.245   3.320
 2154SOL     OW 7360   3.125   6.568   3.251
 2154SOL    HW1 7361   3.183   6.635   3.297
 2154SOL    HW2 7362   3.130   6.481   3.300
 2155SOL     OW 7363   4.345   6.529   0.913
 2155SOL    HW1 7364   4.328   6.602   0.979
 2155SOL    HW2 7365   4.419   6.556   0.852
 2156SOL     OW 7366   5.755   1.400   4.597
 2156SOL    HW1 7367   5.726   1.486   4.638
 2156SOL    HW2 7368   5.799   1.343   4.666
 2157SOL     OW 7369   3.843   5.512   3.902
 2157SOL    HW1 7370   3.844   5.491   3.804
 2157SOL    HW2 7371   3.805   5.434   3.952
 2158SOL     OW 7372   3.169   0.719   0.199
 2158SOL    HW1 7373   3.121   0.644   0.153
 2158SOL    HW2 7374   3.124   0.738   0.287
 2159SOL     OW 7375   1.192   0.268   5.694
 2159SOL    HW1 7376   1.260   0.195   5.701
 2159SOL    HW2 7377   1.216   0.329   5.619
 2160SOL     OW 7378   4.733   6.248   0.508
 2160SOL    HW1 7379   4.667   6.312   0.548
 2160SOL    HW2 7380   4.808   6.299   0.465
 2161SOL     OW 7381   1.397   3.785   2.415
 2161SOL    HW1 7382   1.348   3.839   2.346
 2161SOL    HW2 7383   1.459   3.845   2.465
 2162SOL     OW 7384   1.804   0.016   3.051
 2162SOL    HW1 7385   1.798   0.105   3.005
 2162SOL    HW2 7386   1.788   0.028   3.149
 2163SOL     OW 7387   1.291   3.451   1.645
 2163SOL    HW1 7388   1.368   3.487   1.593
 2163SOL    HW2 7389   1.310   3.357   1.672
 2164SOL     OW 7390   2.134   2.627   2.417
 2164SOL    HW1 7391   2.075   2.606   2.495
 2164SOL    HW2 7392   2.148   2.726   2.411
 2165SOL     OW 7393   0.120   2.018   3.755
 2165SOL    HW1 7394   0.029   2.050   3.782
 2165SOL    HW2 7395   0.159   1.963   3.829
 2166SOL     OW 7396   0.127   4.475   3.372
 2166SOL    HW1 7397   0.083   4.564   3.387
 2166SOL    HW2 7398   0.074   4.403   3.418
 2167SOL     OW 7399   2.157   2.434   4.156
 2167SOL    HW1 7400   2.232   2.457   4.218
 2167SOL    HW2 7401   2.100   2.362   4.198
 2168SOL     OW 7402   1.328   2.053   3.052
 2168SOL    HW1 7403   1.262   2.000   3.000
 2168SOL    HW2 7404   1.378   2.114   2.991
 2169SOL     OW 7405   0.351   0.765   1.783
 2169SOL    HW1 7406   0.414   0.755   1.706
 2169SOL    HW2 7407   0.259   0.735   1.756
 2170SOL     OW 7408   0.817   3.869   5.820
 2170SOL    HW1 7409   0.827   3.890   5.918
 2170SOL    HW2 7410   0.732   3.819   5.805
 2171SOL     OW 7411   0.338   5.456   1.177
 2171SOL    HW1 7412   0.326   5.375   1.120
 2171SOL    HW2 7413   0.361   5.534   1.119
 2172SOL     OW 7414   0.283   2.011   4.876
 2172SOL    HW1 7415   0.308   2.095   4.924
 2172SOL    HW2 7416   0.363   1.976   4.826
 2173SOL     OW 7417   5.653   0.217   4.880
 2173SOL    HW1 7418   5.629   0.192   4.974
 2173SOL    HW2 7419   5.752   0.219   4.870
 2174SOL     OW 7420   0.300   5.701   4.969
 2174SOL    HW1 7421   0.352   5.743   5.043
 2174SOL    HW2 7422   0.258   5.772   4.913
 2175SOL     OW 7423   3.198   3.333   5.682
 2175SOL    HW1 7424   3.155   3.251   5.644
 2175SOL    HW2 7425   3.153   3.415   5.644
 2176SOL     OW 7426   5.412   3.250   0.922
 2176SOL    HW1 7427   5.411   3.298   0.834
 2176SOL    HW2 7428   5.382   3.313   0.993
 2177SOL     OW 7429   0.042   0.739   3.727
 2177SOL    HW1 7430   7.004   0.813   3.709
 2177SOL    HW2 7431   0.069   0.742   3.823
 2178SOL     OW 7432   1.011   1.974   2.673
 2178SOL    HW1 7433   0.919   2.012   2.662
 2178SOL    HW2 7434   1.014   1.882   2.633
 2179SOL     OW 7435   1.789   4.602   6.500
 2179SOL    HW1 7436   1.780   4.537   6.575
 2179SOL    HW2 7437   1.838   4.559   6.424
 2180SOL     OW 7438   0.832   4.686   2.006
 2180SOL    HW1 7439   0.820   4.606   2.064
 2180SOL    HW2 7440   0.915   4.674   1.951
 2181SOL     OW 7441   4.634   4.955   3.936
 2181SOL    HW1 7442   4.590   4.897   3.868
 2181SOL    HW2 7443   4.609   4.924   4.028
 2182SOL     OW 7444   0.422   5.571   3.264
 2182SOL    HW1 7445   0.331   5.576   3.222
 2182SOL    HW2 7446   0.459   5.663   3.274
 2183SOL     OW 7447   3.668   3.362   0.650
 2183SOL    HW1 7448   3.687   3.277   0.600
 2183SOL    HW2 7449   3.570   3.370   0.666
 2184SOL     OW 7450   6.772   0.609   0.257
 2184SOL    HW1 7451   6.696   0.581   0.198
 2184SOL    HW2 7452   6.826   0.680   0.211
 2185SOL     OW 7453   0.213   1.671   6.970
 2185SOL    HW1 7454   0.293   1.610   6.969
 2185SOL    HW2 7455   0.155   1.650   0.021
 2186SOL     OW 7456   0.070   5.715   4.703
 2186SOL    HW1 7457   0.118   5.688   4.619
 2186SOL    HW2 7458   7.019   5.654   4.717
 2187SOL     OW 7459   0.662   5.744   2.982
 2187SOL    HW1 7460   0.743   5.692   3.010
 2187SOL    HW2 7461   0.608   5.767   3.063
 2188SOL     OW 7462   2.082   6.933   0.798
 2188SOL    HW1 7463   2.130   6.880   0.728
 2188SOL    HW2 7464   2.109   6.899   0.888
 2189SOL     OW 7465   2.924   1.451   2.114
 2189SOL    HW1 7466   2.999   1.466   2.049
 2189SOL    HW2 7467   2.954   1.479   2.206
 2190SOL     OW 7468   6.755   4.232   2.188
 2190SOL    HW1 7469   6.829   4.228   2.256
 2190SOL    HW2 7470   6.776   4.171   2.112
 2191SOL     OW 7471   2.087   0.820   6.037
 2191SOL    HW1 7472   2.043   0.741   5.993
 2191SOL    HW2 7473   2.018   0.892   6.052
 2192SOL     OW 7474   4.948   1.244   2.192
 2192SOL    HW1 7475   4.883   1.283   2.127
 2192SOL    HW2 7476   4.905   1.236   2.282
 2193SOL     OW 7477   6.738   6.871   6.164
 2193SOL    HW1 7478   6.704   6.959   6.133
 2193SOL    HW2 7479   6.790   6.883   6.249
 2194SOL     OW 7480   0.926   4.497   5.637
 2194SOL    HW1 7481   0.979   4.503   5.722
 2194SOL    HW2 7482   0.829   4.490   5.659
 2195SOL     OW 7483   0.819   4.387   6.529
 2195SOL    HW1 7484   0.771   4.325   6.591
 2195SOL    HW2 7485   0.896   4.429   6.577
 2196SOL     OW 7486   2.349   6.001   5.590
 2196SOL    HW1 7487   2.408   5.958   5.658
 2196SOL    HW2 7488   2.287   5.932   5.552
 2197SOL     OW 7489   2.943   4.088   5.623
 2197SOL    HW1 7490   3.041   4.092   5.602
 2197SOL    HW2 7491   2.899   4.173   5.593
 2198SOL     OW 7492   0.883   0.118   6.062
 2198SOL    HW1 7493   0.861   0.160   6.151
 2198SOL    HW2 7494   0.831   0.034   6.050
 2199SOL     OW 7495   4.808   6.739   4.634
 2199SOL    HW1 7496   4.864   6.713   4.712
 2199SOL    HW2 7497   4.850   6.704   4.550
 2200SOL     OW 7498   3.005   1.359   4.412
 2200SOL    HW1 7499   2.951   1.440   4.434
 2200SOL    HW2 7500   3.078   1.384   4.348
 2201SOL     OW 7501   6.371   2.632   3.879
 2201SOL    HW1 7502   6.272   2.631   3.894
 2201SOL    HW2 7503   6.394   2.577   3.799
 2202SOL     OW 7504   4.024   5.098   2.335
 2202SOL    HW1 7505   3.960   5.036   2.381
 2202SOL    HW2 7506   4.007   5.098   2.237
 2203SOL     OW 7507   1.989   3.805   0.830
 2203SOL    HW1 7508   1.901   3.771   0.797
 2203SOL    HW2 7509   2.060   3.785   0.762
 2204SOL     OW 7510   4.388   2.778   1.013
 2204SOL    HW1 7511   4.401   2.683   0.985
 2204SOL    HW2 7512   4.293   2.805   0.997
 2205SOL     OW 7513   1.453   6.184   0.781
 2205SOL    HW1 7514   1.398   6.123   0.724
 2205SOL    HW2 7515   1.506   6.130   0.846
 2206SOL     OW 7516   2.077   2.967   6.358
 2206SOL    HW1 7517   2.124   3.029   6.420
 2206SOL    HW2 7518   2.096   2.872   6.384
 2207SOL     OW 7519   4.478   5.873   1.014
 2207SOL    HW1 7520   4.536   5.867   0.932
 2207SOL    HW2 7521   4.499   5.798   1.076
 2208SOL     OW 7522   1.063   5.982   3.650
 2208SOL    HW1 7523   1.092   5.891   3.619
 2208SOL    HW2 7524   0.992   6.017   3.589
 2209SOL     OW 7525   2.624   5.201   5.073
 2209SOL    HW1 7526   2.606   5.110   5.111
 2209SOL    HW2 7527   2.546   5.260   5.093
 2210SOL     OW 7528   6.051   6.107   1.349
 2210SOL    HW1 7529   5.996   6.106   1.266
 2210SOL    HW2 7530   6.112   6.027   1.350
 2211SOL     OW 7531   6.074   0.310   0.731
 2211SOL    HW1 7532   6.115   0.220   0.742
 2211SOL    HW2 7533   5.984   0.301   0.688
 2212SOL     OW 7534   2.537   5.953   6.537
 2212SOL    HW1 7535   2.634   5.969   6.520
 2212SOL    HW2 7536   2.496   6.032   6.582
 2213SOL     OW 7537   3.946   2.050   3.857
 2213SOL    HW1 7538   3.972   2.126   3.798
 2213SOL    HW2 7539   3.883   1.990   3.807
 2214SOL     OW 7540   4.119   3.015   5.559
 2214SOL    HW1 7541   4.046   3.059   5.506
 2214SOL    HW2 7542   4.153   2.935   5.510
 2215SOL     OW 7543   4.759   0.756   6.474
 2215SOL    HW1 7544   4.782   0.835   6.530
 2215SOL    HW2 7545   4.662   0.759   6.451
 2216SOL     OW 7546   0.594   6.238   6.492
 2216SOL    HW1 7547   0.678   6.283   6.462
 2216SOL    HW2 7548   0.568   6.272   6.583
 2217SOL     OW 7549   4.430   0.941   2.645
 2217SOL    HW1 7550   4.391   0.857   2.608
 2217SOL    HW2 7551   4.526   0.926   2.667
 2218SOL     OW 7552   0.400   5.264   6.291
 2218SOL    HW1 7553   0.345   5.201   6.236
 2218SOL    HW2 7554   0.415   5.224   6.382
 2219SOL     OW 7555   5.383   1.244   0.370
 2219SOL    HW1 7556   5.349   1.317   0.312
 2219SOL    HW2 7557   5.366   1.155   0.327
 2220SOL     OW 7558   1.613   6.790   5.576
 2220SOL    HW1 7559   1.700   6.766   5.619
 2220SOL    HW2 7560   1.540   6.784   5.644
 2221SOL     OW 7561   6.642   1.156   5.087
 2221SOL    HW1 7562   6.663   1.171   4.990
 2221SOL    HW2 7563   6.644   1.243   5.135
 2222SOL     OW 7564   6.015   6.231   0.515
 2222SOL    HW1 7565   5.995   6.276   0.602
 2222SOL    HW2 7566   6.066   6.293   0.456
 2223SOL     OW 7567   6.862   0.291   5.411
 2223SOL    HW1 7568   6.849   0.317   5.315
 2223SOL    HW2 7569   6.772   0.280   5.455
 2224SOL     OW 7570   5.945   4.052   1.862
 2224SOL    HW1 7571   5.966   4.038   1.765
 2224SOL    HW2 7572   5.985   3.978   1.916
 2225SOL     OW 7573   0.720   6.633   3.446
 2225SOL    HW1 7574   0.682   6.663   3.534
 2225SOL    HW2 7575   0.703   6.535   3.434
 2226SOL     OW 7576   2.860   5.200   0.787
 2226SOL    HW1 7577   2.768   5.233   0.809
 2226SOL    HW2 7578   2.927   5.247   0.845
 2227SOL     OW 7579   4.260   2.507   1.791
 2227SOL    HW1 7580   4.344   2.505   1.845
 2227SOL    HW2 7581   4.278   2.551   1.703
 2228SOL     OW 7582   4.320   5.078   0.128
 2228SOL    HW1 7583   4.257   5.114   0.197
 2228SOL    HW2 7584   4.378   5.153   0.093
 2229SOL     OW 7585   3.199   3.576   4.629
 2229SOL    HW1 7586   3.236   3.566   4.536
 2229SOL    HW2 7587   3.263   3.537   4.695
 2230SOL     OW 7588   5.405   6.399   0.574
 2230SOL    HW1 7589   5.320   6.353   0.600
 2230SOL    HW2 7590   5.483   6.341   0.598
 2231SOL     OW 7591   0.081   1.040   6.992
 2231SOL    HW1 7592   0.130   0.982   0.029
 2231SOL    HW2 7593   0.144   1.072   6.921
 2232SOL     OW 7594   1.490   0.546   5.562
 2232SOL    HW1 7595   1.403   0.540   5.512
 2232SOL    HW2 7596   1.488   0.625   5.623
 2233SOL     OW 7597   3.139   3.811   1.118
 2233SOL    HW1 7598   3.174   3.848   1.204
 2233SOL    HW2 7599   3.171   3.717   1.106
 2234SOL     OW 7600   3.731   1.526   0.530
 2234SOL    HW1 7601   3.823   1.532   0.569
 2234SOL    HW2 7602   3.713   1.608   0.475
 2235SOL     OW 7603   2.735   0.552   2.301
 2235SOL    HW1 7604   2.643   0.560   2.340
 2235SOL    HW2 7605   2.800   0.597   2.362
 2236SOL     OW 7606   1.815   3.999   5.811
 2236SOL    HW1 7607   1.892   4.033   5.758
 2236SOL    HW2 7608   1.737   3.983   5.749
 2237SOL     OW 7609   5.766   5.194   5.240
 2237SOL    HW1 7610   5.701   5.152   5.303
 2237SOL    HW2 7611   5.833   5.248   5.291
 2238SOL     OW 7612   4.918   4.736   2.604
 2238SOL    HW1 7613   4.893   4.639   2.607
 2238SOL    HW2 7614   4.911   4.770   2.511
 2239SOL     OW 7615   3.367   6.402   3.849
 2239SOL    HW1 7616   3.303   6.330   3.823
 2239SOL    HW2 7617   3.342   6.438   3.939
 2240SOL     OW 7618   4.547   5.856   3.058
 2240SOL    HW1 7619   4.501   5.934   3.015
 2240SOL    HW2 7620   4.646   5.872   3.058
 2241SOL     OW 7621   0.437   6.805   1.873
 2241SOL    HW1 7622   0.423   6.709   1.897
 2241SOL    HW2 7623   0.379   6.863   1.931
 2242SOL     OW 7624   5.084   2.989   3.239
 2242SOL    HW1 7625   4.999   2.967   3.192
 2242SOL    HW2 7626   5.114   2.910   3.292
 2243SOL     OW 7627   2.348   6.595   0.243
 2243SOL    HW1 7628   2.270   6.545   0.206
 2243SOL    HW2 7629   2.430   6.573   0.190
 2244SOL     OW 7630   2.692   0.565   1.075
 2244SOL    HW1 7631   2.637   0.581   1.158
 2244SOL    HW2 7632   2.746   0.482   1.087
 2245SOL     OW 7633   0.980   1.410   0.622
 2245SOL    HW1 7634   1.034   1.391   0.539
 2245SOL    HW2 7635   1.011   1.351   0.696
 2246SOL     OW 7636   2.231   0.778   4.500
 2246SOL    HW1 7637   2.145   0.798   4.547
 2246SOL    HW2 7638   2.288   0.720   4.558
 2247SOL     OW 7639   3.465   3.903   2.400
 2247SOL    HW1 7640   3.438   3.974   2.336
 2247SOL    HW2 7641   3.387   3.843   2.418
 2248SOL     OW 7642   5.817   4.619   5.156
 2248SOL    HW1 7643   5.853   4.667   5.236
 2248SOL    HW2 7644   5.785   4.528   5.184
 2249SOL     OW 7645   2.917   6.549   3.623
 2249SOL    HW1 7646   2.914   6.454   3.593
 2249SOL    HW2 7647   2.829   6.593   3.603
 2250SOL     OW 7648   3.683   4.116   5.775
 2250SOL    HW1 7649   3.703   4.045   5.707
 2250SOL    HW2 7650   3.672   4.204   5.728
 2251SOL     OW 7651   5.126   6.511   6.553
 2251SOL    HW1 7652   5.027   6.522   6.552
 2251SOL    HW2 7653   5.170   6.601   6.555
 2252SOL     OW 7654   5.524   1.824   3.212
 2252SOL    HW1 7655   5.515   1.914   3.254
 2252SOL    HW2 7656   5.619   1.795   3.214
 2253SOL     OW 7657   0.646   3.044   0.416
 2253SOL    HW1 7658   0.740   3.062   0.389
 2253SOL    HW2 7659   0.645   2.985   0.496
 2254SOL     OW 7660   3.503   4.034   2.662
 2254SOL    HW1 7661   3.478   4.000   2.571
 2254SOL    HW2 7662   3.602   4.043   2.669
 2255SOL     OW 7663   2.826   4.172   5.341
 2255SOL    HW1 7664   2.889   4.106   5.300
 2255SOL    HW2 7665   2.877   4.255   5.365
 2256SOL     OW 7666   4.816   6.357   2.391
 2256SOL    HW1 7667   4.847   6.325   2.302
 2256SOL    HW2 7668   4.742   6.424   2.379
 2257SOL     OW 7669   0.786   1.649   3.933
 2257SOL    HW1 7670   0.858   1.597   3.887
 2257SOL    HW2 7671   0.731   1.588   3.990
 2258SOL     OW 7672   2.020   6.634   4.809
 2258SOL    HW1 7673   2.114   6.662   4.790
 2258SOL    HW2 7674   1.998   6.551   4.757
 2259SOL     OW 7675   6.327   2.426   4.544
 2259SOL    HW1 7676   6.276   2.512   4.539
 2259SOL    HW2 7677   6.406   2.430   4.482
 2260SOL     OW 7678   1.166   3.868   1.686
 2260SOL    HW1 7679   1.189   3.821   1.601
 2260SOL    HW2 7680   1.181   3.807   1.763
 2261SOL     OW 7681   6.306   4.145   0.509
 2261SOL    HW1 7682   6.270   4.237   0.492
 2261SOL    HW2 7683   6.343   4.108   0.424
 2262SOL     OW 7684   6.130   0.698   4.157
 2262SOL    HW1 7685   6.036   0.707   4.124
 2262SOL    HW2 7686   6.172   0.619   4.112
 2263SOL     OW 7687   1.110   5.458   0.446
 2263SOL    HW1 7688   1.143   5.367   0.473
 2263SOL    HW2 7689   1.058   5.498   0.522
 2264SOL     OW 7690   2.783   6.786   6.738
 2264SOL    HW1 7691   2.850   6.765   6.667
 2264SOL    HW2 7692   2.704   6.833   6.697
 2265SOL     OW 7693   1.583   0.205   4.447
 2265SOL    HW1 7694   1.546   0.242   4.361
 2265SOL    HW2 7695   1.561   0.267   4.522
 2266SOL     OW 7696   4.950   1.435   6.084
 2266SOL    HW1 7697   4.934   1.396   5.993
 2266SOL    HW2 7698   4.887   1.392   6.150
 2267SOL     OW 7699   4.653   2.632   4.957
 2267SOL    HW1 7700   4.675   2.708   4.896
 2267SOL    HW2 7701   4.697   2.647   5.045
 2268SOL     OW 7702   6.152   4.410   6.468
 2268SOL    HW1 7703   6.169   4.311   6.463
 2268SOL    HW2 7704   6.120   4.443   6.380
 2269SOL     OW 7705   0.602   3.278   5.633
 2269SOL    HW1 7706   0.618   3.180   5.649
 2269SOL    HW2 7707   0.536   3.312   5.699
 2270SOL     OW 7708   4.234   3.356   6.024
 2270SOL    HW1 7709   4.250   3.321   6.116
 2270SOL    HW2 7710   4.293   3.309   5.959
 2271SOL     OW 7711   5.817   4.274   7.020
 2271SOL    HW1 7712   5.850   4.343   0.057
 2271SOL    HW2 7713   5.717   4.272   7.023
 2272SOL     OW 7714   6.311   0.740   6.315
 2272SOL    HW1 7715   6.282   0.753   6.410
 2272SOL    HW2 7716   6.325   0.829   6.272
 2273SOL     OW 7717   2.082   2.490   2.167
 2273SOL    HW1 7718   2.043   2.406   2.204
 2273SOL    HW2 7719   2.113   2.548   2.242
 2274SOL     OW 7720   0.475   1.844   0.021
 2274SOL    HW1 7721   0.512   1.769   0.074
 2274SOL    HW2 7722   0.429   1.909   0.082
 2275SOL     OW 7723   5.854   5.069   2.007
 2275SOL    HW1 7724   5.835   4.990   2.065
 2275SOL    HW2 7725   5.865   5.150   2.064
 2276SOL     OW 7726   1.629   0.691   1.361
 2276SOL    HW1 7727   1.662   0.770   1.308
 2276SOL    HW2 7728   1.663   0.607   1.319
 2277SOL     OW 7729   2.903   3.593   3.589
 2277SOL    HW1 7730   2.825   3.578   3.650
 2277SOL    HW2 7731   2.960   3.666   3.626
 2278SOL     OW 7732   0.427   2.826   4.033
 2278SOL    HW1 7733   0.377   2.780   3.959
 2278SOL    HW2 7734   0.362   2.871   4.094
 2279SOL     OW 7735   6.826   5.938   5.844
 2279SOL    HW1 7736   6.729   5.913   5.840
 2279SOL    HW2 7737   6.863   5.915   5.934
 2280SOL     OW 7738   5.630   0.893   5.378
 2280SOL    HW1 7739   5.641   0.867   5.282
 2280SOL    HW2 7740   5.554   0.842   5.418
 2281SOL     OW 7741   4.362   6.742   2.594
 2281SOL    HW1 7742   4.412   6.727   2.679
 2281SOL    HW2 7743   4.276   6.692   2.597
 2282SOL     OW 7744   4.914   5.534   5.321
 2282SOL    HW1 7745   4.893   5.581   5.235
 2282SOL    HW2 7746   4.830   5.509   5.368
 2283SOL     OW 7747   1.887   0.602   3.029
 2283SOL    HW1 7748   1.863   0.696   3.004
 2283SOL    HW2 7749   1.869   0.588   3.126
 2284SOL     OW 7750   0.646   3.310   6.007
 2284SOL    HW1 7751   0.568   3.266   5.962
 2284SOL    HW2 7752   0.729   3.292   5.955
 2285SOL     OW 7753   1.246   3.728   6.832
 2285SOL    HW1 7754   1.272   3.633   6.815
 2285SOL    HW2 7755   1.169   3.753   6.772
 2286SOL     OW 7756   5.098   6.376   3.077
 2286SOL    HW1 7757   5.035   6.454   3.070
 2286SOL    HW2 7758   5.188   6.408   3.106
 2287SOL     OW 7759   2.861   1.047   3.337
 2287SOL    HW1 7760   2.947   1.016   3.377
 2287SOL    HW2 7761   2.786   0.990   3.372
 2288SOL     OW 7762   0.017   4.750   3.640
 2288SOL    HW1 7763   0.096   4.740   3.579
 2288SOL    HW2 7764   0.049   4.760   3.734
 2289SOL     OW 7765   0.340   5.120   1.531
 2289SOL    HW1 7766   0.366   5.205   1.576
 2289SOL    HW2 7767   0.370   5.122   1.436
 2290SOL     OW 7768   1.091   4.331   1.141
 2290SOL    HW1 7769   1.158   4.397   1.175
 2290SOL    HW2 7770   1.020   4.379   1.089
 2291SOL     OW 7771   3.263   1.596   5.661
 2291SOL    HW1 7772   3.220   1.643   5.584
 2291SOL    HW2 7773   3.230   1.502   5.665
 2292SOL     OW 7774   1.253   0.915   5.128
 2292SOL    HW1 7775   1.184   0.868   5.073
 2292SOL    HW2 7776   1.216   1.002   5.161
 2293SOL     OW 7777   5.494   5.854   1.510
 2293SOL    HW1 7778   5.576   5.802   1.488
 2293SOL    HW2 7779   5.463   5.905   1.430
 2294SOL     OW 7780   3.559   6.936   0.156
 2294SOL    HW1 7781   3.644   6.987   0.167
 2294SOL    HW2 7782   3.556   6.861   0.222
 2295SOL     OW 7783   0.147   1.893   2.129
 2295SOL    HW1 7784   0.053   1.866   2.146
 2295SOL    HW2 7785   0.162   1.902   2.030
 2296SOL     OW 7786   3.371   0.738   0.579
 2296SOL    HW1 7787   3.449   0.756   0.518
 2296SOL    HW2 7788   3.286   0.758   0.531
 2297SOL     OW 7789   4.223   4.016   5.712
 2297SOL    HW1 7790   4.274   3.938   5.749
 2297SOL    HW2 7791   4.134   3.985   5.678
 2298SOL     OW 7792   3.767   2.761   0.605
 2298SOL    HW1 7793   3.682   2.711   0.589
 2298SOL    HW2 7794   3.750   2.837   0.668
 2299SOL     OW 7795   5.036   6.160   7.020
 2299SOL    HW1 7796   5.019   6.122   6.929
 2299SOL    HW2 7797   5.043   6.260   7.013
 2300SOL     OW 7798   1.550   5.589   1.427
 2300SOL    HW1 7799   1.526   5.624   1.518
 2300SOL    HW2 7800   1.633   5.634   1.395
 2301SOL     OW 7801   3.348   3.198   3.118
 2301SOL    HW1 7802   3.375   3.222   3.025
 2301SOL    HW2 7803   3.250   3.177   3.120
 2302SOL     OW 7804   3.691   6.118   2.631
 2302SOL    HW1 7805   3.632   6.124   2.550
 2302SOL    HW2 7806   3.652   6.171   2.705
 2303SOL     OW 7807   1.071   3.402   5.337
 2303SOL    HW1 7808   0.980   3.386   5.376
 2303SOL    HW2 7809   1.138   3.411   5.410
 2304SOL     OW 7810   2.617   0.306   3.763
 2304SOL    HW1 7811   2.533   0.251   3.761
 2304SOL    HW2 7812   2.620   0.365   3.682
 2305SOL     OW 7813   4.082   5.439   2.777
 2305SOL    HW1 7814   4.086   5.467   2.873
 2305SOL    HW2 7815   4.078   5.339   2.772
 2306SOL     OW 7816   2.014   4.672   1.792
 2306SOL    HW1 7817   1.933   4.721   1.760
 2306SOL    HW2 7818   2.028   4.591   1.736
 2307SOL     OW 7819   1.877   4.007   3.049
 2307SOL    HW1 7820   1.925   3.919   3.045
 2307SOL    HW2 7821   1.912   4.068   2.979
 2308SOL     OW 7822   0.555   0.817   6.425
 2308SOL    HW1 7823   0.565   0.800   6.523
 2308SOL    HW2 7824   0.499   0.899   6.411
 2309SOL     OW 7825   3.270   5.880   7.001
 2309SOL    HW1 7826   3.345   5.818   7.027
 2309SOL    HW2 7827   3.259   5.880   6.902
 2310SOL     OW 7828   6.336   6.600   1.653
 2310SOL    HW1 7829   6.313   6.528   1.719
 2310SOL    HW2 7830   6.293   6.579   1.565
 2311SOL     OW 7831   2.664   6.796   2.691
 2311SOL    HW1 7832   2.736   6.805   2.760
 2311SOL    HW2 7833   2.679   6.714   2.637
 2312SOL     OW 7834   3.014   6.917   3.199
 2312SOL    HW1 7835   3.020   6.919   3.100
 2312SOL    HW2 7836   3.065   6.838   3.234
 2313SOL     OW 7837   4.949   4.573   2.038
 2313SOL    HW1 7838   4.948   4.672   2.030
 2313SOL    HW2 7839   4.873   4.534   1.987
 2314SOL     OW 7840   6.152   0.663   3.718
 2314SOL    HW1 7841   6.187   0.749   3.681
 2314SOL    HW2 7842   6.227   0.597   3.728
 2315SOL     OW 7843   4.852   3.573   5.980
 2315SOL    HW1 7844   4.846   3.484   5.934
 2315SOL    HW2 7845   4.943   3.582   6.021
 2316SOL     OW 7846   2.441   1.131   5.801
 2316SOL    HW1 7847   2.416   1.223   5.771
 2316SOL    HW2 7848   2.377   1.101   5.872
 2317SOL     OW 7849   6.643   6.472   4.130
 2317SOL    HW1 7850   6.623   6.399   4.195
 2317SOL    HW2 7851   6.582   6.550   4.148
 2318SOL     OW 7852   2.080   4.018   4.597
 2318SOL    HW1 7853   2.170   4.058   4.577
 2318SOL    HW2 7854   2.078   3.989   4.693
 2319SOL     OW 7855   3.336   5.095   4.470
 2319SOL    HW1 7856   3.384   5.038   4.403
 2319SOL    HW2 7857   3.241   5.108   4.441
 2320SOL     OW 7858   1.221   2.568   6.014
 2320SOL    HW1 7859   1.194   2.662   5.995
 2320SOL    HW2 7860   1.181   2.508   5.944
 2321SOL     OW 7861   2.837   5.380   6.377
 2321SOL    HW1 7862   2.912   5.395   6.312
 2321SOL    HW2 7863   2.797   5.290   6.362
 2322SOL     OW 7864   1.812   4.184   2.047
 2322SOL    HW1 7865   1.717   4.164   2.022
 2322SOL    HW2 7866   1.853   4.104   2.091
 2323SOL     OW 7867   3.299   4.855   1.969
 2323SOL    HW1 7868   3.395   4.837   1.987
 2323SOL    HW2 7869   3.255   4.771   1.935
 2324SOL     OW 7870   0.105   6.457   1.730
 2324SOL    HW1 7871   0.081   6.549   1.699
 2324SOL    HW2 7872   0.123   6.399   1.651
 2325SOL     OW 7873   0.016   4.907   1.579
 2325SOL    HW1 7874   0.036   4.810   1.585
 2325SOL    HW2 7875   0.036   4.951   1.667
 2326SOL     OW 7876   1.545   6.154   6.704
 2326SOL    HW1 7877   1.534   6.176   6.800
 2326SOL    HW2 7878   1.455   6.144   6.661
 2327SOL     OW 7879   0.208   0.777   3.335
 2327SOL    HW1 7880   0.208   0.780   3.235
 2327SOL    HW2 7881   0.301   0.789   3.369
 2328SOL     OW 7882   1.371   2.070   2.399
 2328SOL    HW1 7883   1.453   2.036   2.445
 2328SOL    HW2 7884   1.382   2.061   2.300
 2329SOL     OW 7885   0.757   4.346   4.583
 2329SOL    HW1 7886   0.776   4.444   4.590
 2329SOL    HW2 7887   0.715   4.314   4.668
 2330SOL     OW 7888   0.249   2.977   0.503
 2330SOL    HW1 7889   0.298   3.043   0.447
 2330SOL    HW2 7890   0.152   2.978   0.479
 2331SOL     OW 7891   2.976   5.302   6.644
 2331SOL    HW1 7892   3.003   5.398   6.658
 2331SOL    HW2 7893   3.032   5.262   6.572
 2332SOL     OW 7894   6.647   0.021   5.794
 2332SOL    HW1 7895   6.658   0.091   5.865
 2332SOL    HW2 7896   6.593   6.973   5.830
 2333SOL     OW 7897   0.051   4.913   2.780
 2333SOL    HW1 7898   6.980   4.929   2.782
 2333SOL    HW2 7899   0.091   4.963   2.703
 2334SOL     OW 7900   1.294   1.527   6.674
 2334SOL    HW1 7901   1.242   1.599   6.629
 2334SOL    HW2 7902   1.343   1.473   6.605
 2335SOL     OW 7903   5.892   0.638   3.987
 2335SOL    HW1 7904   5.915   0.552   3.941
 2335SOL    HW2 7905   5.903   0.714   3.924
 2336SOL     OW 7906   2.808   1.586   3.805
 2336SOL    HW1 7907   2.792   1.489   3.823
 2336SOL    HW2 7908   2.775   1.640   3.882
 2337SOL     OW 7909   4.285   1.675   1.920
 2337SOL    HW1 7910   4.217   1.613   1.960
 2337SOL    HW2 7911   4.254   1.769   1.931
 2338SOL     OW 7912   0.594   3.037   4.380
 2338SOL    HW1 7913   0.548   3.060   4.295
 2338SOL    HW2 7914   0.582   2.940   4.400
 2339SOL     OW 7915   3.053   3.225   3.174
 2339SOL    HW1 7916   3.022   3.194   3.264
 2339SOL    HW2 7917   3.082   3.321   3.181
 2340SOL     OW 7918   0.490   4.698   0.158
 2340SOL    HW1 7919   0.399   4.730   0.129
 2340SOL    HW2 7920   0.528   4.638   0.088
 2341SOL     OW 7921   3.005   5.040   2.091
 2341SOL    HW1 7922   2.998   4.978   2.012
 2341SOL    HW2 7923   3.011   5.134   2.059
 2342SOL     OW 7924   1.938   6.843   4.415
 2342SOL    HW1 7925   2.037   6.839   4.426
 2342SOL    HW2 7926   1.894   6.830   4.504
 2343SOL     OW 7927   1.993   5.793   3.028
 2343SOL    HW1 7928   2.017   5.890   3.029
 2343SOL    HW2 7929   1.942   5.770   3.110
 2344SOL     OW 7930   6.844   6.107   0.013
 2344SOL    HW1 7931   6.877   6.107   6.947
 2344SOL    HW2 7932   6.831   6.012   0.043
 2345SOL     OW 7933   2.591   5.376   4.804
 2345SOL    HW1 7934   2.564   5.425   4.722
 2345SOL    HW2 7935   2.571   5.432   4.885
 2346SOL     OW 7936   3.902   3.429   5.714
 2346SOL    HW1 7937   3.802   3.422   5.709
 2346SOL    HW2 7938   3.929   3.525   5.705
 2347SOL     OW 7939   2.117   1.830   1.443
 2347SOL    HW1 7940   2.188   1.765   1.418
 2347SOL    HW2 7941   2.090   1.816   1.539
 2348SOL     OW 7942   2.231   6.311   4.107
 2348SOL    HW1 7943   2.316   6.265   4.132
 2348SOL    HW2 7944   2.201   6.280   4.017
 2349SOL     OW 7945   0.553   4.496   6.148
 2349SOL    HW1 7946   0.513   4.429   6.085
 2349SOL    HW2 7947   0.585   4.576   6.096
 2350SOL     OW 7948   5.943   5.245   5.979
 2350SOL    HW1 7949   5.997   5.188   6.042
 2350SOL    HW2 7950   5.997   5.263   5.897
 2351SOL     OW 7951   3.524   5.227   3.858
 2351SOL    HW1 7952   3.452   5.290   3.890
 2351SOL    HW2 7953   3.486   5.136   3.847
 2352SOL     OW 7954   0.398   3.104   2.807
 2352SOL    HW1 7955   0.308   3.062   2.804
 2352SOL    HW2 7956   0.434   3.098   2.900
 2353SOL     OW 7957   3.661   5.008   4.610
 2353SOL    HW1 7958   3.711   4.967   4.686
 2353SOL    HW2 7959   3.700   4.977   4.523
 2354SOL     OW 7960   2.317   2.174   4.778
 2354SOL    HW1 7961   2.404   2.152   4.735
 2354SOL    HW2 7962   2.263   2.090   4.788
 2355SOL     OW 7963   2.073   6.790   6.340
 2355SOL    HW1 7964   2.151   6.728   6.340
 2355SOL    HW2 7965   2.083   6.855   6.415
 2356SOL     OW 7966   1.245   2.963   6.248
 2356SOL    HW1 7967   1.292   2.887   6.293
 2356SOL    HW2 7968   1.188   3.012   6.315
 2357SOL     OW 7969   4.203   0.988   1.753
 2357SOL    HW1 7970   4.211   0.927   1.832
 2357SOL    HW2 7971   4.259   0.953   1.678
 2358SOL     OW 7972   2.734   5.449   5.496
 2358SOL    HW1 7973   2.743   5.409   5.405
 2358SOL    HW2 7974   2.641   5.435   5.530
 2359SOL     OW 7975   0.396   0.874   6.114
 2359SOL    HW1 7976   0.358   0.811   6.181
 2359SOL    HW2 7977   0.369   0.845   6.022
 2360SOL     OW 7978   6.017   3.852   0.470
 2360SOL    HW1 7979   6.018   3.917   0.394
 2360SOL    HW2 7980   5.922   3.838   0.500
 2361SOL     OW 7981   2.607   0.795   6.287
 2361SOL    HW1 7982   2.602   0.704   6.247
 2361SOL    HW2 7983   2.582   0.791   6.384
 2362SOL     OW 7984   2.830   5.832   3.942
 2362SOL    HW1 7985   2.883   5.800   4.021
 2362SOL    HW2 7986   2.890   5.842   3.863
 2363SOL     OW 7987   3.702   2.116   4.655
 2363SOL    HW1 7988   3.711   2.202   4.705
 2363SOL    HW2 7989   3.719   2.131   4.558
 2364SOL     OW 7990   1.366   3.059   2.621
 2364SOL    HW1 7991   1.328   3.006   2.545
 2364SOL    HW2 7992   1.441   3.009   2.663
 2365SOL     OW 7993   6.585   1.854   6.840
 2365SOL    HW1 7994   6.529   1.926   6.882
 2365SOL    HW2 7995   6.546   1.829   6.752
 2366SOL     OW 7996   2.495   5.358   6.963
 2366SOL    HW1 7997   2.528   5.448   6.991
 2366SOL    HW2 7998   2.546   5.327   6.883
 2367SOL     OW 7999   2.173   3.762   0.645
 2367SOL    HW1 8000   2.115   3.698   0.596
 2367SOL    HW2 8001   2.269   3.733   0.637
 2368SOL     OW 8002   5.306   6.583   4.589
 2368SOL    HW1 8003   5.297   6.484   4.583
 2368SOL    HW2 8004   5.366   6.607   4.665
 2369SOL     OW 8005   1.940   0.044   4.687
 2369SOL    HW1 8006   1.866   0.101   4.723
 2369SOL    HW2 8007   1.904   6.981   4.663
 2370SOL     OW 8008   5.913   3.288   0.069
 2370SOL    HW1 8009   5.928   3.196   0.032
 2370SOL    HW2 8010   5.910   3.354   7.022
 2371SOL     OW 8011   2.053   0.295   1.755
 2371SOL    HW1 8012   2.026   0.373   1.812
 2371SOL    HW2 8013   2.106   0.230   1.810
 2372SOL     OW 8014   6.801   2.630   1.957
 2372SOL    HW1 8015   6.858   2.707   1.987
 2372SOL    HW2 8016   6.822   2.609   1.861
 2373SOL     OW 8017   1.054   3.616   6.063
 2373SOL    HW1 8018   1.139   3.611   6.011
 2373SOL    HW2 8019   1.009   3.703   6.045
 2374SOL     OW 8020   6.675   1.775   4.358
 2374SOL    HW1 8021   6.706   1.713   4.285
 2374SOL    HW2 8022   6.578   1.761   4.375
 2375SOL     OW 8023   3.172   6.161   5.443
 2375SOL    HW1 8024   3.138   6.110   5.521
 2375SOL    HW2 8025   3.244   6.108   5.397
 2376SOL     OW 8026   6.768   2.948   4.047
 2376SOL    HW1 8027   6.730   2.916   3.960
 2376SOL    HW2 8028   6.716   2.907   4.123
 2377SOL     OW 8029   3.558   3.989   3.776
 2377SOL    HW1 8030   3.575   3.891   3.786
 2377SOL    HW2 8031   3.591   4.038   3.856
 2378SOL     OW 8032   5.082   1.846   0.045
 2378SOL    HW1 8033   4.985   1.838   0.068
 2378SOL    HW2 8034   5.112   1.940   0.062
 2379SOL     OW 8035   6.602   0.701   0.673
 2379SOL    HW1 8036   6.546   0.686   0.591
 2379SOL    HW2 8037   6.689   0.653   0.662
 2380SOL     OW 8038   6.733   2.135   0.084
 2380SOL    HW1 8039   6.822   2.180   0.074
 2380SOL    HW2 8040   6.722   2.104   0.178
 2381SOL     OW 8041   2.520   5.808   3.346
 2381SOL    HW1 8042   2.547   5.903   3.332
 2381SOL    HW2 8043   2.515   5.788   3.444
 2382SOL     OW 8044   1.834   4.089   4.539
 2382SOL    HW1 8045   1.774   4.026   4.489
 2382SOL    HW2 8046   1.926   4.049   4.545
 2383SOL     OW 8047   5.812   6.738   0.736
 2383SOL    HW1 8048   5.848   6.830   0.722
 2383SOL    HW2 8049   5.726   6.727   0.686
 2384SOL     OW 8050   5.476   0.892   2.613
 2384SOL    HW1 8051   5.457   0.894   2.711
 2384SOL    HW2 8052   5.454   0.801   2.576
 2385SOL     OW 8053   0.061   0.511   0.357
 2385SOL    HW1 8054   7.003   0.558   0.379
 2385SOL    HW2 8055   0.134   0.545   0.416
 2386SOL     OW 8056   5.466   5.705   5.052
 2386SOL    HW1 8057   5.523   5.744   4.980
 2386SOL    HW2 8058   5.405   5.636   5.013
 2387SOL     OW 8059   2.372   1.698   4.205
 2387SOL    HW1 8060   2.331   1.789   4.212
 2387SOL    HW2 8061   2.404   1.683   4.112
 2388SOL     OW 8062   6.950   2.369   3.700
 2388SOL    HW1 8063   6.969   2.272   3.685
 2388SOL    HW2 8064   6.872   2.397   3.644
 2389SOL     OW 8065   4.418   4.682   3.432
 2389SOL    HW1 8066   4.415   4.655   3.336
 2389SOL    HW2 8067   4.496   4.743   3.448
 2390SOL     OW 8068   3.770   3.292   4.107
 2390SOL    HW1 8069   3.682   3.248   4.123
 2390SOL    HW2 8070   3.799   3.276   4.013
 2391SOL     OW 8071   5.224   4.355   6.432
 2391SOL    HW1 8072   5.320   4.343   6.459
 2391SOL    HW2 8073   5.218   4.363   6.333
 2392SOL     OW 8074   3.175   6.039   5.770
 2392SOL    HW1 8075   3.081   6.071   5.763
 2392SOL    HW2 8076   3.218   6.077   5.852
 2393SOL     OW 8077   5.072   3.939   6.367
 2393SOL    HW1 8078   5.073   3.987   6.280
 2393SOL    HW2 8079   4.980   3.942   6.406
 2394SOL     OW 8080   0.827   4.094   5.259
 2394SOL    HW1 8081   0.908   4.131   5.306
 2394SOL    HW2 8082   0.802   4.007   5.301
 2395SOL     OW 8083   5.095   0.195   5.988
 2395SOL    HW1 8084   5.185   0.233   5.968
 2395SOL    HW2 8085   5.076   0.118   5.927
 2396SOL     OW 8086   3.904   4.898   1.178
 2396SOL    HW1 8087   3.975   4.955   1.221
 2396SOL    HW2 8088   3.830   4.883   1.243
 2397SOL     OW 8089   0.328   4.003   5.277
 2397SOL    HW1 8090   0.327   3.911   5.315
 2397SOL    HW2 8091   0.379   4.004   5.192
 2398SOL     OW 8092   4.657   4.516   6.895
 2398SOL    HW1 8093   4.722   4.569   6.950
 2398SOL    HW2 8094   4.707   4.460   6.829
 2399SOL     OW 8095   4.843   0.729   1.144
 2399SOL    HW1 8096   4.780   0.766   1.213
 2399SOL    HW2 8097   4.887   0.805   1.096
 2400SOL     OW 8098   2.925   4.084   0.979
 2400SOL    HW1 8099   3.014   4.046   0.951
 2400SOL    HW2 8100   2.939   4.144   1.059
 2401SOL     OW 8101   5.185   6.250   0.545
 2401SOL    HW1 8102   5.209   6.158   0.575
 2401SOL    HW2 8103   5.113   6.245   0.476
 2402SOL     OW 8104   0.584   0.299   3.881
 2402SOL    HW1 8105   0.677   0.264   3.875
 2402SOL    HW2 8106   0.538   0.287   3.794
 2403SOL     OW 8107   2.016   1.976   6.404
 2403SOL    HW1 8108   1.935   1.940   6.450
 2403SOL    HW2 8109   1.988   2.036   6.329
 2404SOL     OW 8110   3.082   1.040   1.148
 2404SOL    HW1 8111   3.071   1.044   1.049
 2404SOL    HW2 8112   2.993   1.029   1.192
 2405SOL     OW 8113   3.581   3.496   2.287
 2405SOL    HW1 8114   3.632   3.539   2.361
 2405SOL    HW2 8115   3.504   3.554   2.262
 2406SOL     OW 8116   3.604   0.375   1.310
 2406SOL    HW1 8117   3.694   0.405   1.340
 2406SOL    HW2 8118   3.540   0.452   1.315
 2407SOL     OW 8119   5.926   1.987   3.243
 2407SOL    HW1 8120   6.004   2.010   3.185
 2407SOL    HW2 8121   5.850   2.049   3.223
 2408SOL     OW 8122   4.649   4.454   2.359
 2408SOL    HW1 8123   4.561   4.431   2.318
 2408SOL    HW2 8124   4.642   4.542   2.406
 2409SOL     OW 8125   2.286   4.301   2.271
 2409SOL    HW1 8126   2.378   4.329   2.300
 2409SOL    HW2 8127   2.276   4.318   2.173
 2410SOL     OW 8128   3.812   3.019   4.928
 2410SOL    HW1 8129   3.715   3.009   4.905
 2410SOL    HW2 8130   3.860   3.061   4.851
 2411SOL     OW 8131   5.213   6.197   4.310
 2411SOL    HW1 8132   5.152   6.129   4.270
 2411SOL    HW2 8133   5.265   6.242   4.238
 2412SOL     OW 8134   5.954   4.209   1.484
 2412SOL    HW1 8135   5.963   4.126   1.539
 2412SOL    HW2 8136   6.027   4.273   1.508
 2413SOL     OW 8137   6.440   0.916   1.185
 2413SOL    HW1 8138   6.449   1.010   1.216
 2413SOL    HW2 8139   6.456   0.853   1.261
 2414SOL     OW 8140   5.011   4.103   3.152
 2414SOL    HW1 8141   4.917   4.073   3.140
 2414SOL    HW2 8142   5.031   4.177   3.088
 2415SOL     OW 8143   5.874   1.665   2.934
 2415SOL    HW1 8144   5.895   1.571   2.909
 2415SOL    HW2 8145   5.884   1.724   2.853
 2416SOL     OW 8146   5.289   2.217   4.949
 2416SOL    HW1 8147   5.200   2.193   4.909
 2416SOL    HW2 8148   5.292   2.186   5.044
 2417SOL     OW 8149   3.402   3.919   4.658
 2417SOL    HW1 8150   3.427   3.835   4.609
 2417SOL    HW2 8151   3.333   3.969   4.604
 2418SOL     OW 8152   3.889   3.094   4.389
 2418SOL    HW1 8153   3.879   3.189   4.359
 2418SOL    HW2 8154   3.938   3.042   4.318
 2419SOL     OW 8155   0.303   6.520   3.758
 2419SOL    HW1 8156   0.380   6.529   3.821
 2419SOL    HW2 8157   0.328   6.460   3.682
 2420SOL     OW 8158   3.032   0.265   2.765
 2420SOL    HW1 8159   3.122   0.224   2.747
 2420SOL    HW2 8160   3.015   0.339   2.699
 2421SOL     OW 8161   1.999   2.678   4.928
 2421SOL    HW1 8162   2.069   2.672   5.000
 2421SOL    HW2 8163   1.909   2.688   4.970
 2422SOL     OW 8164   5.043   1.662   0.288
 2422SOL    HW1 8165   4.961   1.707   0.253
 2422SOL    HW2 8166   5.120   1.726   0.285
 2423SOL     OW 8167   2.043   6.483   2.175
 2423SOL    HW1 8168   2.102   6.484   2.256
 2423SOL    HW2 8169   1.992   6.569   2.169
 2424SOL     OW 8170   6.429   6.772   0.151
 2424SOL    HW1 8171   6.508   6.777   0.212
 2424SOL    HW2 8172   6.345   6.772   0.205
 2425SOL     OW 8173   5.849   0.400   3.839
 2425SOL    HW1 8174   5.816   0.439   3.753
 2425SOL    HW2 8175   5.774   0.352   3.885
 2426SOL     OW 8176   1.453   5.501   5.633
 2426SOL    HW1 8177   1.474   5.516   5.537
 2426SOL    HW2 8178   1.467   5.404   5.656
 2427SOL     OW 8179   5.711   6.022   5.641
 2427SOL    HW1 8180   5.652   5.950   5.604
 2427SOL    HW2 8181   5.767   6.061   5.568
 2428SOL     OW 8182   0.598   0.958   1.874
 2428SOL    HW1 8183   0.584   0.898   1.953
 2428SOL    HW2 8184   0.652   0.911   1.805
 2429SOL     OW 8185   5.376   5.567   1.927
 2429SOL    HW1 8186   5.382   5.542   1.830
 2429SOL    HW2 8187   5.440   5.642   1.946
 2430SOL     OW 8188   6.480   1.100   1.958
 2430SOL    HW1 8189   6.470   1.148   1.871
 2430SOL    HW2 8190   6.410   1.029   1.965
 2431SOL     OW 8191   4.485   1.250   2.188
 2431SOL    HW1 8192   4.492   1.180   2.259
 2431SOL    HW2 8193   4.480   1.341   2.230
 2432SOL     OW 8194   4.441   6.440   2.282
 2432SOL    HW1 8195   4.443   6.386   2.366
 2432SOL    HW2 8196   4.417   6.534   2.302
 2433SOL     OW 8197   4.694   1.304   6.908
 2433SOL    HW1 8198   4.735   1.363   6.978
 2433SOL    HW2 8199   4.639   1.233   6.952
 2434SOL     OW 8200   3.916   0.920   5.671
 2434SOL    HW1 8201   3.979   0.927   5.749
 2434SOL    HW2 8202   3.850   0.847   5.689
 2435SOL     OW 8203   5.319   5.497   5.215
 2435SOL    HW1 8204   5.271   5.571   5.262
 2435SOL    HW2 8205   5.255   5.446   5.159
 2436SOL     OW 8206   2.041   5.699   6.452
 2436SOL    HW1 8207   2.092   5.785   6.451
 2436SOL    HW2 8208   2.075   5.640   6.525
 2437SOL     OW 8209   5.984   6.910   6.098
 2437SOL    HW1 8210   5.914   6.919   6.028
 2437SOL    HW2 8211   5.979   6.818   6.138
 2438SOL     OW 8212   3.444   2.503   0.914
 2438SOL    HW1 8213   3.480   2.423   0.867
 2438SOL    HW2 8214   3.385   2.475   0.990
 2439SOL     OW 8215   6.843   4.335   6.200
 2439SOL    HW1 8216   6.912   4.316   6.130
 2439SOL    HW2 8217   6.761   4.372   6.157
 2440SOL     OW 8218   4.981   5.202   5.716
 2440SOL    HW1 8219   5.044   5.132   5.681
 2440SOL    HW2 8220   4.975   5.194   5.816
 2441SOL     OW 8221   6.891   1.997   0.813
 2441SOL    HW1 8222   6.820   1.931   0.789
 2441SOL    HW2 8223   6.849   2.082   0.844
 2442SOL     OW 8224   1.044   3.836   5.283
 2442SOL    HW1 8225   1.142   3.817   5.285
 2442SOL    HW2 8226   0.995   3.763   5.332
 2443SOL     OW 8227   2.714   3.859   6.531
 2443SOL    HW1 8228   2.712   3.945   6.480
 2443SOL    HW2 8229   2.762   3.871   6.617
 2444SOL     OW 8230   2.512   4.592   6.069
 2444SOL    HW1 8231   2.601   4.548   6.051
 2444SOL    HW2 8232   2.440   4.523   6.065
 2445SOL     OW 8233   0.313   1.035   0.668
 2445SOL    HW1 8234   0.289   1.128   0.694
 2445SOL    HW2 8235   0.410   1.019   0.687
 2446SOL     OW 8236   6.041   4.429   4.708
 2446SOL    HW1 8237   5.972   4.357   4.713
 2446SOL    HW2 8238   6.025   4.496   4.780
 2447SOL     OW 8239   1.417   1.950   0.658
 2447SOL    HW1 8240   1.510   1.917   0.641
 2447SOL    HW2 8241   1.358   1.873   0.683
 2448SOL     OW 8242   0.750   6.908   4.896
 2448SOL    HW1 8243   0.781   6.931   4.803
 2448SOL    HW2 8244   0.732   6.810   4.902
 2449SOL     OW 8245   0.060   3.777   6.985
 2449SOL    HW1 8246   0.043   3.728   6.899
 2449SOL    HW2 8247   0.005   3.737   0.030
 2450SOL     OW 8248   2.541   4.526   2.982
 2450SOL    HW1 8249   2.456   4.549   2.934
 2450SOL    HW2 8250   2.526   4.445   3.039
 2451SOL     OW 8251   2.220   6.175   3.860
 2451SOL    HW1 8252   2.191   6.206   3.770
 2451SOL    HW2 8253   2.287   6.101   3.850
 2452SOL     OW 8254   1.176   3.391   3.100
 2452SOL    HW1 8255   1.214   3.340   3.023
 2452SOL    HW2 8256   1.078   3.407   3.085
 2453SOL     OW 8257   6.455   4.890   1.627
 2453SOL    HW1 8258   6.483   4.887   1.531
 2453SOL    HW2 8259   6.356   4.903   1.632
 2454SOL     OW 8260   3.481   0.482   1.788
 2454SOL    HW1 8261   3.463   0.390   1.752
 2454SOL    HW2 8262   3.411   0.505   1.856
 2455SOL     OW 8263   5.089   5.803   0.712
 2455SOL    HW1 8264   5.062   5.707   0.701
 2455SOL    HW2 8265   5.034   5.845   0.784
 2456SOL     OW 8266   4.979   6.416   1.665
 2456SOL    HW1 8267   5.064   6.466   1.651
 2456SOL    HW2 8268   4.984   6.364   1.750
 2457SOL     OW 8269   5.320   6.672   1.430
 2457SOL    HW1 8270   5.387   6.734   1.388
 2457SOL    HW2 8271   5.233   6.720   1.441
 2458SOL     OW 8272   1.262   5.160   2.815
 2458SOL    HW1 8273   1.284   5.253   2.785
 2458SOL    HW2 8274   1.214   5.111   2.742
 2459SOL     OW 8275   2.304   0.523   0.723
 2459SOL    HW1 8276   2.288   0.444   0.663
 2459SOL    HW2 8277   2.236   0.522   0.797
 2460SOL     OW 8278   3.163   5.810   1.484
 2460SOL    HW1 8279   3.102   5.827   1.407
 2460SOL    HW2 8280   3.110   5.805   1.568
 2461SOL     OW 8281   5.427   0.521   1.853
 2461SOL    HW1 8282   5.439   0.603   1.798
 2461SOL    HW2 8283   5.516   0.491   1.889
 2462SOL     OW 8284   2.171   5.426   6.542
 2462SOL    HW1 8285   2.197   5.443   6.447
 2462SOL    HW2 8286   2.174   5.328   6.560
 2463SOL     OW 8287   6.246   1.788   3.380
 2463SOL    HW1 8288   6.196   1.853   3.437
 2463SOL    HW2 8289   6.195   1.773   3.295
 2464SOL     OW 8290   0.956   3.453   1.067
 2464SOL    HW1 8291   0.905   3.475   0.984
 2464SOL    HW2 8292   0.930   3.362   1.099
 2465SOL     OW 8293   6.706   5.935   3.118
 2465SOL    HW1 8294   6.792   5.923   3.067
 2465SOL    HW2 8295   6.723   5.991   3.198
 2466SOL     OW 8296   3.650   1.558   2.276
 2466SOL    HW1 8297   3.631   1.538   2.372
 2466SOL    HW2 8298   3.589   1.630   2.243
 2467SOL     OW 8299   6.833   1.053   5.969
 2467SOL    HW1 8300   6.749   1.107   5.975
 2467SOL    HW2 8301   6.861   1.045   5.873
 2468SOL     OW 8302   6.996   5.469   1.226
 2468SOL    HW1 8303   0.004   5.418   1.148
 2468SOL    HW2 8304   7.027   5.426   1.311
 2469SOL     OW 8305   2.392   2.981   5.522
 2469SOL    HW1 8306   2.302   2.959   5.561
 2469SOL    HW2 8307   2.421   2.907   5.462
 2470SOL     OW 8308   5.015   2.846   0.132
 2470SOL    HW1 8309   4.943   2.787   0.094
 2470SOL    HW2 8310   4.976   2.936   0.153
 2471SOL     OW 8311   0.976   0.054   2.933
 2471SOL    HW1 8312   0.880   0.081   2.938
 2471SOL    HW2 8313   0.982   6.985   2.909
 2472SOL     OW 8314   5.595   1.750   3.801
 2472SOL    HW1 8315   5.644   1.802   3.731
 2472SOL    HW2 8316   5.626   1.777   3.892
 2473SOL     OW 8317   0.789   6.133   4.261
 2473SOL    HW1 8318   0.747   6.134   4.352
 2473SOL    HW2 8319   0.888   6.141   4.269
 2474SOL     OW 8320   0.022   4.369   4.776
 2474SOL    HW1 8321   6.956   4.333   4.778
 2474SOL    HW2 8322   0.084   4.301   4.737
 2475SOL     OW 8323   4.939   2.530   0.071
 2475SOL    HW1 8324   4.847   2.540   0.108
 2475SOL    HW2 8325   4.934   2.503   7.003
 2476SOL     OW 8326   1.208   1.873   4.227
 2476SOL    HW1 8327   1.152   1.908   4.152
 2476SOL    HW2 8328   1.301   1.909   4.218
 2477SOL     OW 8329   4.629   4.873   0.857
 2477SOL    HW1 8330   4.605   4.954   0.910
 2477SOL    HW2 8331   4.600   4.791   0.906
 2478SOL     OW 8332   6.769   6.865   2.891
 2478SOL    HW1 8333   6.771   6.898   2.985
 2478SOL    HW2 8334   6.732   6.937   2.831
 2479SOL     OW 8335   0.055   3.174   0.341
 2479SOL    HW1 8336   0.106   3.260   0.350
 2479SOL    HW2 8337   7.002   3.177   0.399
 2480SOL     OW 8338   0.333   3.322   1.286
 2480SOL    HW1 8339   0.245   3.320   1.239
 2480SOL    HW2 8340   0.365   3.417   1.293
 2481SOL     OW 8341   4.343   5.017   2.361
 2481SOL    HW1 8342   4.355   4.978   2.270
 2481SOL    HW2 8343   4.246   5.037   2.376
 2482SOL     OW 8344   4.738   2.119   4.687
 2482SOL    HW1 8345   4.747   2.060   4.768
 2482SOL    HW2 8346   4.702   2.065   4.611
 2483SOL     OW 8347   0.817   2.122   6.376
 2483SOL    HW1 8348   0.879   2.045   6.388
 2483SOL    HW2 8349   0.732   2.105   6.424
 2484SOL     OW 8350   3.323   2.045   6.433
 2484SOL    HW1 8351   3.357   2.135   6.406
 2484SOL    HW2 8352   3.324   2.037   6.532
 2485SOL     OW 8353   0.065   5.988   2.194
 2485SOL    HW1 8354   0.065   5.898   2.149
 2485SOL    HW2 8355   0.013   6.053   2.138
 2486SOL     OW 8356   1.539   5.116   3.246
 2486SOL    HW1 8357   1.558   5.202   3.199
 2486SOL    HW2 8358   1.445   5.088   3.226
 2487SOL     OW 8359   3.750   1.203   1.258
 2487SOL    HW1 8360   3.805   1.268   1.205
 2487SOL    HW2 8361   3.666   1.248   1.288
 2488SOL     OW 8362   2.948   6.309   0.394
 2488SOL    HW1 8363   2.985   6.324   0.302
 2488SOL    HW2 8364   2.857   6.268   0.387
 2489SOL     OW 8365   0.592   5.311   4.810
 2489SOL    HW1 8366   0.620   5.271   4.723
 2489SOL    HW2 8367   0.581   5.410   4.800
 2490SOL     OW 8368   5.100   3.502   1.531
 2490SOL    HW1 8369   5.197   3.480   1.526
 2490SOL    HW2 8370   5.053   3.435   1.589
 2491SOL     OW 8371   2.099   4.810   2.020
 2491SOL    HW1 8372   2.081   4.765   1.932
 2491SOL    HW2 8373   2.195   4.796   2.045
 2492SOL     OW 8374   4.327   3.323   6.777
 2492SOL    HW1 8375   4.277   3.269   6.845
 2492SOL    HW2 8376   4.360   3.408   6.819
 2493SOL     OW 8377   6.481   1.836   3.490
 2493SOL    HW1 8378   6.386   1.821   3.462
 2493SOL    HW2 8379   6.541   1.777   3.436
 2494SOL     OW 8380   4.933   3.509   2.278
 2494SOL    HW1 8381   4.891   3.421   2.258
 2494SOL    HW2 8382   5.027   3.510   2.244
 2495SOL     OW 8383   5.984   1.068   4.616
 2495SOL    HW1 8384   5.885   1.053   4.618
 2495SOL    HW2 8385   6.002   1.164   4.594
 2496SOL     OW 8386   1.445   6.386   0.435
 2496SOL    HW1 8387   1.431   6.293   0.401
 2496SOL    HW2 8388   1.420   6.452   0.363
 2497SOL     OW 8389   5.569   1.716   5.911
 2497SOL    HW1 8390   5.554   1.792   5.848
 2497SOL    HW2 8391   5.511   1.729   5.992
 2498SOL     OW 8392   1.815   3.614   4.952
 2498SOL    HW1 8393   1.771   3.544   4.896
 2498SOL    HW2 8394   1.829   3.579   5.044
 2499SOL     OW 8395   6.066   0.118   5.195
 2499SOL    HW1 8396   6.128   0.196   5.209
 2499SOL    HW2 8397   5.977   0.139   5.237
 2500SOL     OW 8398   4.346   3.545   6.954
 2500SOL    HW1 8399   4.271   3.523   7.017
 2500SOL    HW2 8400   4.433   3.546   7.005
 2501SOL     OW 8401   6.936   4.512   6.977
 2501SOL    HW1 8402   6.958   4.414   6.977
 2501SOL    HW2 8403   7.006   4.562   7.027
 2502SOL     OW 8404   2.242   6.174   3.570
 2502SOL    HW1 8405   2.221   6.127   3.484
 2502SOL    HW2 8406   2.249   6.272   3.553
 2503SOL     OW 8407   4.583   4.915   4.845
 2503SOL    HW1 8408   4.683   4.912   4.849
 2503SOL    HW2 8409   4.547   4.948   4.932
 2504SOL     OW 8410   1.384   4.284   4.237
 2504SOL    HW1 8411   1.444   4.274   4.158
 2504SOL    HW2 8412   1.301   4.333   4.210
 2505SOL     OW 8413   4.767   5.742   3.911
 2505SOL    HW1 8414   4.859   5.733   3.874
 2505SOL    HW2 8415   4.702   5.760   3.837
 2506SOL     OW 8416   0.244   1.995   6.642
 2506SOL    HW1 8417   0.329   2.000   6.695
 2506SOL    HW2 8418   0.195   1.911   6.667
 2507SOL     OW 8419   6.863   6.105   0.443
 2507SOL    HW1 8420   6.900   6.193   0.412
 2507SOL    HW2 8421   6.930   6.033   0.426
 2508SOL     OW 8422   2.339   2.315   2.720
 2508SOL    HW1 8423   2.433   2.282   2.715
 2508SOL    HW2 8424   2.281   2.261   2.660
 2509SOL     OW 8425   4.966   2.753   3.675
 2509SOL    HW1 8426   4.977   2.655   3.692
 2509SOL    HW2 8427   4.998   2.774   3.583
 2510SOL     OW 8428   3.908   5.920   0.746
 2510SOL    HW1 8429   3.903   6.015   0.778
 2510SOL    HW2 8430   3.985   5.875   0.790
 2511SOL     OW 8431   1.553   6.920   4.986
 2511SOL    HW1 8432   1.516   6.995   4.932
 2511SOL    HW2 8433   1.575   6.843   4.926
 2512SOL     OW 8434   5.007   3.198   4.820
 2512SOL    HW1 8435   5.007   3.112   4.769
 2512SOL    HW2 8436   4.933   3.257   4.786
 2513SOL     OW 8437   0.771   3.707   0.699
 2513SOL    HW1 8438   0.847   3.653   0.733
 2513SOL    HW2 8439   0.784   3.724   0.601
 2514SOL     OW 8440   1.741   1.198   3.570
 2514SOL    HW1 8441   1.826   1.237   3.607
 2514SOL    HW2 8442   1.663   1.236   3.620
 2515SOL     OW 8443   0.816   5.189   0.044
 2515SOL    HW1 8444   0.788   5.094   0.056
 2515SOL    HW2 8445   0.906   5.192   0.000
 2516SOL     OW 8446   5.264   6.288   3.993
 2516SOL    HW1 8447   5.209   6.205   3.990
 2516SOL    HW2 8448   5.207   6.365   4.024
 2517SOL     OW 8449   2.360   4.892   0.225
 2517SOL    HW1 8450   2.323   4.801   0.210
 2517SOL    HW2 8451   2.459   4.887   0.237
 2518SOL     OW 8452   2.482   1.978   6.625
 2518SOL    HW1 8453   2.551   2.007   6.558
 2518SOL    HW2 8454   2.471   2.050   6.694
 2519SOL     OW 8455   4.772   4.026   4.135
 2519SOL    HW1 8456   4.760   3.974   4.219
 2519SOL    HW2 8457   4.824   4.109   4.153
 2520SOL     OW 8458   2.293   4.283   2.641
 2520SOL    HW1 8459   2.389   4.290   2.611
 2520SOL    HW2 8460   2.258   4.193   2.617
 2521SOL     OW 8461   5.638   6.706   5.202
 2521SOL    HW1 8462   5.705   6.777   5.178
 2521SOL    HW2 8463   5.668   6.658   5.284
 2522SOL     OW 8464   1.225   3.210   4.931
 2522SOL    HW1 8465   1.273   3.296   4.918
 2522SOL    HW2 8466   1.269   3.138   4.878
 2523SOL     OW 8467   0.566   3.136   6.839
 2523SOL    HW1 8468   0.500   3.206   6.868
 2523SOL    HW2 8469   0.534   3.046   6.868
 2524SOL     OW 8470   0.529   6.868   5.290
 2524SOL    HW1 8471   0.430   6.861   5.302
 2524SOL    HW2 8472   0.564   6.784   5.249
 2525SOL     OW 8473   1.689   3.813   3.222
 2525SOL    HW1 8474   1.652   3.853   3.138
 2525SOL    HW2 8475   1.743   3.732   3.199
 2526SOL     OW 8476   6.996   1.303   5.324
 2526SOL    HW1 8477   6.930   1.242   5.280
 2526SOL    HW2 8478   0.008   1.257   5.404
 2527SOL     OW 8479   6.163   6.527   4.008
 2527SOL    HW1 8480   6.153   6.534   3.909
 2527SOL    HW2 8481   6.115   6.603   4.052
 2528SOL     OW 8482   6.580   5.971   0.194
 2528SOL    HW1 8483   6.495   5.926   0.221
 2528SOL    HW2 8484   6.578   6.067   0.224
 2529SOL     OW 8485   5.025   3.712   4.552
 2529SOL    HW1 8486   5.027   3.689   4.649
 2529SOL    HW2 8487   5.116   3.702   4.513
 2530SOL     OW 8488   0.182   0.759   4.654
 2530SOL    HW1 8489   0.197   0.724   4.747
 2530SOL    HW2 8490   0.085   0.779   4.642
 2531SOL     OW 8491   4.385   1.610   6.285
 2531SOL    HW1 8492   4.306   1.664   6.258
 2531SOL    HW2 8493   4.381   1.591   6.383
 2532SOL     OW 8494   1.534   4.693   6.498
 2532SOL    HW1 8495   1.630   4.667   6.486
 2532SOL    HW2 8496   1.497   4.725   6.411
 2533SOL     OW 8497   5.961   6.838   5.306
 2533SOL    HW1 8498   5.896   6.848   5.231
 2533SOL    HW2 8499   6.042   6.788   5.275
 2534SOL     OW 8500   0.839   2.335   3.965
 2534SOL    HW1 8501   0.902   2.291   4.029
 2534SOL    HW2 8502   0.844   2.290   3.876
 2535SOL     OW 8503   2.146   0.952   2.890
 2535SOL    HW1 8504   2.083   0.880   2.862
 2535SOL    HW2 8505   2.103   1.009   2.960
 2536SOL     OW 8506   6.300   1.012   3.880
 2536SOL    HW1 8507   6.377   0.960   3.917
 2536SOL    HW2 8508   6.274   1.084   3.944
 2537SOL     OW 8509   4.452   5.443   1.273
 2537SOL    HW1 8510   4.518   5.370   1.290
 2537SOL    HW2 8511   4.443   5.501   1.354
 2538SOL     OW 8512   2.376   4.316   5.102
 2538SOL    HW1 8513   2.311   4.322   5.177
 2538SOL    HW2 8514   2.398   4.220   5.084
 2539SOL     OW 8515   2.671   0.192   5.316
 2539SOL    HW1 8516   2.630   0.254   5.250
 2539SOL    HW2 8517   2.615   0.109   5.323
 2540SOL     OW 8518   5.690   2.090   2.297
 2540SOL    HW1 8519   5.649   2.014   2.349
 2540SOL    HW2 8520   5.723   2.056   2.209
 2541SOL     OW 8521   1.313   6.245   6.094
 2541SOL    HW1 8522   1.312   6.184   6.015
 2541SOL    HW2 8523   1.380   6.318   6.078
 2542SOL     OW 8524   3.775   2.150   4.391
 2542SOL    HW1 8525   3.758   2.167   4.294
 2542SOL    HW2 8526   3.841   2.217   4.425
 2543SOL     OW 8527   0.531   1.941   4.723
 2543SOL    HW1 8528   0.547   1.874   4.650
 2543SOL    HW2 8529   0.594   2.018   4.711
 2544SOL     OW 8530   6.518   5.654   2.096
 2544SOL    HW1 8531   6.502   5.692   2.004
 2544SOL    HW2 8532   6.616   5.644   2.112
 2545SOL     OW 8533   6.789   1.688   0.978
 2545SOL    HW1 8534   6.809   1.591   0.989
 2545SOL    HW2 8535   6.755   1.704   0.885
 2546SOL     OW 8536   6.790   4.203   2.916
 2546SOL    HW1 8537   6.755   4.226   3.006
 2546SOL    HW2 8538   6.832   4.284   2.875
 2547SOL     OW 8539   6.262   3.412   1.066
 2547SOL    HW1 8540   6.199   3.482   1.033
 2547SOL    HW2 8541   6.323   3.453   1.135
 2548SOL     OW 8542   6.996   6.546   5.628
 2548SOL    HW1 8543   7.016   6.491   5.710
 2548SOL    HW2 8544   0.044   6.608   5.610
 2549SOL     OW 8545   2.622   2.549   0.615
 2549SOL    HW1 8546   2.621   2.540   0.515
 2549SOL    HW2 8547   2.716   2.539   0.648
 2550SOL     OW 8548   3.926   6.529   6.075
 2550SOL    HW1 8549   3.885   6.555   6.162
 2550SOL    HW2 8550   3.859   6.477   6.021
 2551SOL     OW 8551   3.386   5.419   0.855
 2551SOL    HW1 8552   3.459   5.479   0.888
 2551SOL    HW2 8553   3.419   5.367   0.776
 2552SOL     OW 8554   2.406   6.097   1.121
 2552SOL    HW1 8555   2.468   6.052   1.057
 2552SOL    HW2 8556   2.336   6.147   1.070
 2553SOL     OW 8557   4.516   1.441   6.747
 2553SOL    HW1 8558   4.573   1.522   6.738
 2553SOL    HW2 8559   4.562   1.373   6.805
 2554SOL     OW 8560   1.694   5.848   1.877
 2554SOL    HW1 8561   1.699   5.942   1.911
 2554SOL    HW2 8562   1.754   5.790   1.931
 2555SOL     OW 8563   5.507   6.591   4.993
 2555SOL    HW1 8564   5.557   6.622   5.073
 2555SOL    HW2 8565   5.410   6.580   5.016
 2556SOL     OW 8566   4.261   1.014   0.667
 2556SOL    HW1 8567   4.198   0.968   0.605
 2556SOL    HW2 8568   4.264   0.965   0.754
 2557SOL     OW 8569   3.246   0.172   6.968
 2557SOL    HW1 8570   3.203   0.083   6.957
 2557SOL    HW2 8571   3.343   0.161   6.989
 2558SOL     OW 8572   5.684   3.685   6.670
 2558SOL    HW1 8573   5.751   3.717   6.603
 2558SOL    HW2 8574   5.722   3.697   6.762
 2559SOL     OW 8575   1.271   4.554   4.863
 2559SOL    HW1 8576   1.333   4.562   4.785
 2559SOL    HW2 8577   1.178   4.537   4.831
 2560SOL     OW 8578   5.126   2.386   3.298
 2560SOL    HW1 8579   5.206   2.344   3.339
 2560SOL    HW2 8580   5.112   2.349   3.206
 2561SOL     OW 8581   3.662   0.272   4.160
 2561SOL    HW1 8582   3.721   0.336   4.208
 2561SOL    HW2 8583   3.704   0.246   4.073
 2562SOL     OW 8584   3.901   6.183   3.755
 2562SOL    HW1 8585   3.828   6.185   3.823
 2562SOL    HW2 8586   3.944   6.273   3.748
 2563SOL     OW 8587   3.521   1.905   0.365
 2563SOL    HW1 8588   3.554   1.998   0.344
 2563SOL    HW2 8589   3.550   1.879   0.457
 2564SOL     OW 8590   2.326   1.928   0.464
 2564SOL    HW1 8591   2.262   1.893   0.533
 2564SOL    HW2 8592   2.416   1.886   0.478
 2565SOL     OW 8593   1.081   2.017   0.442
 2565SOL    HW1 8594   1.129   1.945   0.392
 2565SOL    HW2 8595   1.137   2.100   0.443
 2566SOL     OW 8596   2.416   0.727   0.951
 2566SOL    HW1 8597   2.403   0.825   0.941
 2566SOL    HW2 8598   2.467   0.692   0.872
 2567SOL     OW 8599   1.889   0.623   0.174
 2567SOL    HW1 8600   1.834   0.666   0.247
 2567SOL    HW2 8601   1.871   0.525   0.173
 2568SOL     OW 8602   3.288   6.295   0.955
 2568SOL    HW1 8603   3.291   6.394   0.972
 2568SOL    HW2 8604   3.212   6.274   0.895
 2569SOL     OW 8605   1.321   0.220   1.290
 2569SOL    HW1 8606   1.335   0.149   1.358
 2569SOL    HW2 8607   1.392   0.214   1.220
 2570SOL     OW 8608   6.487   6.856   5.881
 2570SOL    HW1 8609   6.423   6.837   5.956
 2570SOL    HW2 8610   6.492   6.777   5.821
 2571SOL     OW 8611   3.533   3.131   4.123
 2571SOL    HW1 8612   3.554   3.073   4.045
 2571SOL    HW2 8613   3.494   3.076   4.196
 2572SOL     OW 8614   1.639   6.604   2.001
 2572SOL    HW1 8615   1.541   6.620   2.016
 2572SOL    HW2 8616   1.651   6.562   1.911
 2573SOL     OW 8617   6.859   2.223   4.293
 2573SOL    HW1 8618   6.864   2.306   4.237
 2573SOL    HW2 8619   6.811   2.152   4.242
 2574SOL     OW 8620   0.774   3.600   2.066
 2574SOL    HW1 8621   0.722   3.552   1.994
 2574SOL    HW2 8622   0.870   3.604   2.039
 2575SOL     OW 8623   6.044   3.493   0.371
 2575SOL    HW1 8624   6.043   3.421   0.302
 2575SOL    HW2 8625   6.139   3.513   0.398
 2576SOL     OW 8626   1.821   0.406   3.681
 2576SOL    HW1 8627   1.870   0.369   3.601
 2576SOL    HW2 8628   1.864   0.372   3.765
 2577SOL     OW 8629   2.723   6.193   1.947
 2577SOL    HW1 8630   2.629   6.185   1.980
 2577SOL    HW2 8631   2.782   6.228   2.020
 2578SOL     OW 8632   4.579   2.145   4.035
 2578SOL    HW1 8633   4.522   2.196   3.970
 2578SOL    HW2 8634   4.670   2.187   4.039
 2579SOL     OW 8635   6.879   2.298   6.652
 2579SOL    HW1 8636   6.912   2.337   6.567
 2579SOL    HW2 8637   6.950   2.241   6.693
 2580SOL     OW 8638   1.545   2.796   5.966
 2580SOL    HW1 8639   1.515   2.742   5.887
 2580SOL    HW2 8640   1.618   2.748   6.014
 2581SOL     OW 8641   6.456   6.752   4.040
 2581SOL    HW1 8642   6.459   6.816   4.117
 2581SOL    HW2 8643   6.524   6.778   3.971
 2582SOL     OW 8644   0.493   5.598   2.806
 2582SOL    HW1 8645   0.564   5.652   2.851
 2582SOL    HW2 8646   0.533   5.512   2.774
 2583SOL     OW 8647   1.735   0.413   0.444
 2583SOL    HW1 8648   1.686   0.495   0.413
 2583SOL    HW2 8649   1.823   0.441   0.484
 2584SOL     OW 8650   4.850   6.743   2.266
 2584SOL    HW1 8651   4.890   6.732   2.357
 2584SOL    HW2 8652   4.750   6.750   2.275
 2585SOL     OW 8653   3.819   0.835   1.700
 2585SOL    HW1 8654   3.774   0.923   1.692
 2585SOL    HW2 8655   3.764   0.774   1.757
 2586SOL     OW 8656   6.505   2.544   4.208
 2586SOL    HW1 8657   6.449   2.547   4.125
 2586SOL    HW2 8658   6.513   2.449   4.239
 2587SOL     OW 8659   5.674   6.589   3.298
 2587SOL    HW1 8660   5.712   6.637   3.219
 2587SOL    HW2 8661   5.612   6.517   3.266
 2588SOL     OW 8662   5.657   1.293   1.574
 2588SOL    HW1 8663   5.725   1.222   1.555
 2588SOL    HW2 8664   5.702   1.382   1.580
 2589SOL     OW 8665   6.686   6.572   6.878
 2589SOL    HW1 8666   6.741   6.517   6.814
 2589SOL    HW2 8667   6.735   6.580   6.965
 2590SOL     OW 8668   4.103   6.658   2.586
 2590SOL    HW1 8669   4.064   6.710   2.661
 2590SOL    HW2 8670   4.104   6.561   2.610
 2591SOL     OW 8671   5.914   0.072   1.240
 2591SOL    HW1 8672   5.844   0.013   1.200
 2591SOL    HW2 8673   5.994   0.074   1.179
 2592SOL     OW 8674   3.670   5.919   1.628
 2592SOL    HW1 8675   3.668   5.956   1.535
 2592SOL    HW2 8676   3.690   5.821   1.624
 2593SOL     OW 8677   2.890   6.189   2.541
 2593SOL    HW1 8678   2.964   6.124   2.523
 2593SOL    HW2 8679   2.902   6.271   2.485
 2594SOL     OW 8680   1.341   6.603   6.238
 2594SOL    HW1 8681   1.379   6.552   6.161
 2594SOL    HW2 8682   1.356   6.701   6.223
 2595SOL     OW 8683   6.195   3.476   4.082
 2595SOL    HW1 8684   6.236   3.474   4.172
 2595SOL    HW2 8685   6.250   3.533   4.021
 2596SOL     OW 8686   3.916   2.123   2.018
 2596SOL    HW1 8687   3.961   2.189   1.958
 2596SOL    HW2 8688   3.821   2.152   2.034
 2597SOL     OW 8689   2.270   2.699   7.013
 2597SOL    HW1 8690   2.299   2.768   6.947
 2597SOL    HW2 8691   2.278   2.608   6.973
 2598SOL     OW 8692   6.801   3.208   2.909
 2598SOL    HW1 8693   6.825   3.285   2.968
 2598SOL    HW2 8694   6.776   3.130   2.965
 2599SOL     OW 8695   4.193   5.368   0.131
 2599SOL    HW1 8696   4.131   5.421   0.073
 2599SOL    HW2 8697   4.279   5.352   0.083
 2600SOL     OW 8698   6.638   3.489   3.304
 2600SOL    HW1 8699   6.650   3.557   3.377
 2600SOL    HW2 8700   6.669   3.400   3.336
 2601SOL     OW 8701   3.946   3.205   5.862
 2601SOL    HW1 8702   3.849   3.184   5.859
 2601SOL    HW2 8703   3.964   3.288   5.808
 2602SOL     OW 8704   6.582   5.751   4.565
 2602SOL    HW1 8705   6.539   5.729   4.477
 2602SOL    HW2 8706   6.610   5.666   4.610
 2603SOL     OW 8707   3.266   2.676   1.221
 2603SOL    HW1 8708   3.287   2.587   1.180
 2603SOL    HW2 8709   3.337   2.742   1.194
 2604SOL     OW 8710   6.331   0.253   1.132
 2604SOL    HW1 8711   6.294   0.203   1.054
 2604SOL    HW2 8712   6.316   0.200   1.216
 2605SOL     OW 8713   4.508   4.897   4.168
 2605SOL    HW1 8714   4.465   4.939   4.248
 2605SOL    HW2 8715   4.486   4.800   4.166
 2606SOL     OW 8716   0.000   4.775   0.619
 2606SOL    HW1 8717   0.054   4.748   0.699
 2606SOL    HW2 8718   6.944   4.820   0.650
 2607SOL     OW 8719   0.495   0.983   4.352
 2607SOL    HW1 8720   0.562   1.053   4.377
 2607SOL    HW2 8721   0.472   0.928   4.432
 2608SOL     OW 8722   5.021   0.502   1.249
 2608SOL    HW1 8723   5.088   0.554   1.302
 2608SOL    HW2 8724   4.951   0.565   1.213
 2609SOL     OW 8725   0.925   2.491   3.210
 2609SOL    HW1 8726   0.957   2.585   3.199
 2609SOL    HW2 8727   0.932   2.443   3.122
 2610SOL     OW 8728   6.010   5.576   4.926
 2610SOL    HW1 8729   5.910   5.571   4.924
 2610SOL    HW2 8730   6.043   5.613   4.839
 2611SOL     OW 8731   4.238   6.343   1.469
 2611SOL    HW1 8732   4.298   6.347   1.548
 2611SOL    HW2 8733   4.181   6.261   1.474
 2612SOL     OW 8734   6.113   6.765   4.150
 2612SOL    HW1 8735   6.143   6.766   4.246
 2612SOL    HW2 8736   6.179   6.815   4.094
 2613SOL     OW 8737   3.946   0.518   1.983
 2613SOL    HW1 8738   3.981   0.591   1.923
 2613SOL    HW2 8739   3.993   0.523   2.071
 2614SOL     OW 8740   6.974   6.748   6.701
 2614SOL    HW1 8741   6.985   6.730   6.603
 2614SOL    HW2 8742   6.982   6.662   6.752
 2615SOL     OW 8743   5.150   5.249   2.118
 2615SOL    HW1 8744   5.146   5.248   2.218
 2615SOL    HW2 8745   5.240   5.215   2.088
 2616SOL     OW 8746   4.125   3.300   2.964
 2616SOL    HW1 8747   4.163   3.307   3.056
 2616SOL    HW2 8748   4.038   3.250   2.968
 2617SOL     OW 8749   4.131   0.056   1.036
 2617SOL    HW1 8750   4.169   0.062   1.128
 2617SOL    HW2 8751   4.123   0.148   0.998
 2618SOL     OW 8752   1.161   0.491   0.779
 2618SOL    HW1 8753   1.119   0.567   0.729
 2618SOL    HW2 8754   1.133   0.495   0.875
 2619SOL     OW 8755   4.678   2.406   1.512
 2619SOL    HW1 8756   4.741   2.448   1.577
 2619SOL    HW2 8757   4.730   2.354   1.444
 2620SOL     OW 8758   1.124   4.022   4.230
 2620SOL    HW1 8759   1.043   3.978   4.189
 2620SOL    HW2 8760   1.124   4.120   4.207
 2621SOL     OW 8761   0.840   5.406   3.591
 2621SOL    HW1 8762   0.858   5.491   3.541
 2621SOL    HW2 8763   0.921   5.381   3.644
 2622SOL     OW 8764   2.566   2.801   6.590
 2622SOL    HW1 8765   2.598   2.770   6.500
 2622SOL    HW2 8766   2.568   2.900   6.594
 2623SOL     OW 8767   2.892   0.740   5.598
 2623SOL    HW1 8768   2.945   0.729   5.514
 2623SOL    HW2 8769   2.911   0.828   5.640
 2624SOL     OW 8770   6.134   1.525   3.408
 2624SOL    HW1 8771   6.038   1.519   3.381
 2624SOL    HW2 8772   6.162   1.622   3.410
 2625SOL     OW 8773   3.473   1.760   5.623
 2625SOL    HW1 8774   3.553   1.713   5.586
 2625SOL    HW2 8775   3.409   1.692   5.660
 2626SOL     OW 8776   2.001   6.561   2.968
 2626SOL    HW1 8777   2.099   6.544   2.978
 2626SOL    HW2 8778   1.983   6.598   2.877
 2627SOL     OW 8779   6.858   6.986   4.607
 2627SOL    HW1 8780   6.781   6.996   4.544
 2627SOL    HW2 8781   6.944   6.995   4.557
 2628SOL     OW 8782   3.845   6.192   6.421
 2628SOL    HW1 8783   3.818   6.212   6.327
 2628SOL    HW2 8784   3.848   6.277   6.474
 2629SOL     OW 8785   3.469   4.114   1.248
 2629SOL    HW1 8786   3.504   4.123   1.341
 2629SOL    HW2 8787   3.372   4.139   1.246
 2630SOL     OW 8788   2.692   2.321   2.490
 2630SOL    HW1 8789   2.604   2.340   2.445
 2630SOL    HW2 8790   2.759   2.295   2.421
 2631SOL     OW 8791   4.708   6.170   4.447
 2631SOL    HW1 8792   4.770   6.206   4.377
 2631SOL    HW2 8793   4.762   6.134   4.523
 2632SOL     OW 8794   3.912   2.494   0.156
 2632SOL    HW1 8795   3.910   2.563   0.085
 2632SOL    HW2 8796   3.839   2.512   0.222
 2633SOL     OW 8797   5.569   2.142   6.790
 2633SOL    HW1 8798   5.627   2.134   6.709
 2633SOL    HW2 8799   5.626   2.136   6.872
 2634SOL     OW 8800   2.087   4.536   0.942
 2634SOL    HW1 8801   2.074   4.566   0.847
 2634SOL    HW2 8802   2.180   4.502   0.954
 2635SOL     OW 8803   5.429   4.441   4.569
 2635SOL    HW1 8804   5.380   4.463   4.654
 2635SOL    HW2 8805   5.528   4.451   4.585
 2636SOL     OW 8806   5.326   0.299   5.458
 2636SOL    HW1 8807   5.270   0.294   5.375
 2636SOL    HW2 8808   5.333   0.208   5.499
 2637SOL     OW 8809   5.782   6.961   2.966
 2637SOL    HW1 8810   5.793   6.937   2.870
 2637SOL    HW2 8811   5.835   0.016   2.986
 2638SOL     OW 8812   5.506   6.014   0.551
 2638SOL    HW1 8813   5.527   5.920   0.524
 2638SOL    HW2 8814   5.587   6.071   0.541
 2639SOL     OW 8815   6.144   5.976   0.515
 2639SOL    HW1 8816   6.175   5.959   0.609
 2639SOL    HW2 8817   6.116   6.071   0.506
 2640SOL     OW 8818   6.701   6.290   5.591
 2640SOL    HW1 8819   6.772   6.278   5.661
 2640SOL    HW2 8820   6.690   6.205   5.540
 2641SOL     OW 8821   5.197   4.794   0.295
 2641SOL    HW1 8822   5.261   4.800   0.372
 2641SOL    HW2 8823   5.158   4.702   0.291
 2642SOL     OW 8824   5.022   0.544   4.045
 2642SOL    HW1 8825   4.945   0.480   4.042
 2642SOL    HW2 8826   5.107   0.493   4.034
 2643SOL     OW 8827   0.705   0.517   2.530
 2643SOL    HW1 8828   0.781   0.577   2.506
 2643SOL    HW2 8829   0.636   0.569   2.580
 2644SOL     OW 8830   0.441   4.283   6.458
 2644SOL    HW1 8831   0.498   4.255   6.534
 2644SOL    HW2 8832   0.438   4.383   6.452
 2645SOL     OW 8833   5.589   5.913   6.323
 2645SOL    HW1 8834   5.568   6.009   6.304
 2645SOL    HW2 8835   5.593   5.898   6.422
 2646SOL     OW 8836   6.578   6.847   6.820
 2646SOL    HW1 8837   6.509   6.873   6.888
 2646SOL    HW2 8838   6.625   6.764   6.850
 2647SOL     OW 8839   3.506   2.004   1.557
 2647SOL    HW1 8840   3.427   2.038   1.507
 2647SOL    HW2 8841   3.548   1.928   1.506
 2648SOL     OW 8842   5.177   0.404   2.270
 2648SOL    HW1 8843   5.094   0.460   2.280
 2648SOL    HW2 8844   5.159   0.312   2.303
 2649SOL     OW 8845   3.516   1.933   6.128
 2649SOL    HW1 8846   3.599   1.989   6.126
 2649SOL    HW2 8847   3.435   1.992   6.126
 2650SOL     OW 8848   0.457   6.187   2.830
 2650SOL    HW1 8849   0.359   6.195   2.814
 2650SOL    HW2 8850   0.496   6.122   2.765
 2651SOL     OW 8851   6.484   1.427   2.670
 2651SOL    HW1 8852   6.514   1.472   2.586
 2651SOL    HW2 8853   6.539   1.461   2.746
 2652SOL     OW 8854   3.715   3.171   2.812
 2652SOL    HW1 8855   3.690   3.165   2.715
 2652SOL    HW2 8856   3.801   3.121   2.827
 2653SOL     OW 8857   6.685   6.582   6.110
 2653SOL    HW1 8858   6.673   6.567   6.012
 2653SOL    HW2 8859   6.685   6.681   6.128
 2654SOL     OW 8860   5.606   2.959   5.738
 2654SOL    HW1 8861   5.581   2.863   5.751
 2654SOL    HW2 8862   5.543   3.017   5.789
 2655SOL     OW 8863   4.957   6.321   4.633
 2655SOL    HW1 8864   4.950   6.359   4.726
 2655SOL    HW2 8865   4.926   6.226   4.633
 2656SOL     OW 8866   5.386   3.491   3.602
 2656SOL    HW1 8867   5.397   3.578   3.650
 2656SOL    HW2 8868   5.344   3.424   3.664
 2657SOL     OW 8869   1.796   3.909   6.717
 2657SOL    HW1 8870   1.751   3.995   6.694
 2657SOL    HW2 8871   1.747   3.864   6.791
 2658SOL     OW 8872   6.400   3.878   5.940
 2658SOL    HW1 8873   6.303   3.857   5.930
 2658SOL    HW2 8874   6.415   3.922   6.029
 2659SOL     OW 8875   0.004   2.529   4.240
 2659SOL    HW1 8876   0.023   2.604   4.176
 2659SOL    HW2 8877   6.953   2.477   4.208
 2660SOL     OW 8878   0.007   2.357   2.592
 2660SOL    HW1 8879   0.097   2.348   2.634
 2660SOL    HW2 8880   0.017   2.353   2.492
 2661SOL     OW 8881   3.945   6.689   1.226
 2661SOL    HW1 8882   4.007   6.627   1.178
 2661SOL    HW2 8883   3.933   6.658   1.320
 2662SOL     OW 8884   3.830   6.546   4.069
 2662SOL    HW1 8885   3.813   6.640   4.098
 2662SOL    HW2 8886   3.753   6.513   4.015
 2663SOL     OW 8887   1.764   4.404   2.567
 2663SOL    HW1 8888   1.834   4.416   2.637
 2663SOL    HW2 8889   1.778   4.472   2.494
 2664SOL     OW 8890   4.073   3.531   2.331
 2664SOL    HW1 8891   3.986   3.483   2.322
 2664SOL    HW2 8892   4.107   3.523   2.425
 2665SOL     OW 8893   3.765   1.040   4.500
 2665SOL    HW1 8894   3.694   1.110   4.504
 2665SOL    HW2 8895   3.795   1.027   4.405
 2666SOL     OW 8896   5.425   4.849   1.029
 2666SOL    HW1 8897   5.337   4.801   1.029
 2666SOL    HW2 8898   5.457   4.859   0.935
 2667SOL     OW 8899   2.527   5.592   4.161
 2667SOL    HW1 8900   2.619   5.575   4.199
 2667SOL    HW2 8901   2.486   5.504   4.135
 2668SOL     OW 8902   0.103   2.850   5.607
 2668SOL    HW1 8903   0.151   2.860   5.695
 2668SOL    HW2 8904   0.050   2.765   5.607
 2669SOL     OW 8905   4.500   4.746   5.264
 2669SOL    HW1 8906   4.453   4.766   5.178
 2669SOL    HW2 8907   4.595   4.776   5.258
 2670SOL     OW 8908   1.458   1.174   6.603
 2670SOL    HW1 8909   1.425   1.156   6.696
 2670SOL    HW2 8910   1.394   1.133   6.537
 2671SOL     OW 8911   2.188   3.176   6.552
 2671SOL    HW1 8912   2.264   3.199   6.493
 2671SOL    HW2 8913   2.105   3.223   6.521
 2672SOL     OW 8914   1.674   5.626   1.094
 2672SOL    HW1 8915   1.579   5.640   1.119
 2672SOL    HW2 8916   1.732   5.637   1.175
 2673SOL     OW 8917   3.580   2.093   2.836
 2673SOL    HW1 8918   3.624   2.170   2.790
 2673SOL    HW2 8919   3.609   2.007   2.794
 2674SOL     OW 8920   6.116   4.861   5.182
 2674SOL    HW1 8921   6.206   4.849   5.224
 2674SOL    HW2 8922   6.117   4.942   5.124
 2675SOL     OW 8923   0.165   4.605   5.594
 2675SOL    HW1 8924   0.212   4.518   5.600
 2675SOL    HW2 8925   0.232   4.679   5.583
 2676SOL     OW 8926   4.384   1.391   1.651
 2676SOL    HW1 8927   4.479   1.414   1.629
 2676SOL    HW2 8928   4.358   1.308   1.602
 2677SOL     OW 8929   2.367   4.919   1.953
 2677SOL    HW1 8930   2.303   4.996   1.962
 2677SOL    HW2 8931   2.449   4.938   2.006
 2678SOL     OW 8932   0.288   5.073   6.091
 2678SOL    HW1 8933   0.308   5.152   6.034
 2678SOL    HW2 8934   0.208   5.025   6.056
 2679SOL     OW 8935   3.038   4.924   1.179
 2679SOL    HW1 8936   3.040   4.852   1.109
 2679SOL    HW2 8937   3.103   4.996   1.155
 2680SOL     OW 8938   1.635   1.466   1.670
 2680SOL    HW1 8939   1.614   1.520   1.589
 2680SOL    HW2 8940   1.723   1.420   1.658
 2681SOL     OW 8941   1.580   2.613   3.299
 2681SOL    HW1 8942   1.630   2.526   3.300
 2681SOL    HW2 8943   1.642   2.688   3.320
 2682SOL     OW 8944   5.918   2.434   2.679
 2682SOL    HW1 8945   5.923   2.400   2.585
 2682SOL    HW2 8946   5.962   2.368   2.740
 2683SOL     OW 8947   0.928   5.828   1.313
 2683SOL    HW1 8948   1.003   5.818   1.378
 2683SOL    HW2 8949   0.844   5.791   1.352
 2684SOL     OW 8950   2.252   6.428   3.469
 2684SOL    HW1 8951   2.161   6.458   3.443
 2684SOL    HW2 8952   2.308   6.507   3.493
 2685SOL     OW 8953   5.265   5.882   5.203
 2685SOL    HW1 8954   5.208   5.802   5.222
 2685SOL    HW2 8955   5.358   5.852   5.181
 2686SOL     OW 8956   2.330   2.814   4.301
 2686SOL    HW1 8957   2.280   2.830   4.386
 2686SOL    HW2 8958   2.287   2.864   4.227
 2687SOL     OW 8959   4.116   5.329   2.442
 2687SOL    HW1 8960   4.046   5.376   2.496
 2687SOL    HW2 8961   4.075   5.252   2.394
 2688SOL     OW 8962   3.977   4.785   6.125
 2688SOL    HW1 8963   4.039   4.721   6.079
 2688SOL    HW2 8964   3.985   4.875   6.083
 2689SOL     OW 8965   0.341   3.221   4.415
 2689SOL    HW1 8966   0.435   3.187   4.418
 2689SOL    HW2 8967   0.278   3.147   4.438
 2690SOL     OW 8968   3.892   4.028   3.791
 2690SOL    HW1 8969   3.881   3.934   3.825
 2690SOL    HW2 8970   3.980   4.064   3.820
 2691SOL     OW 8971   1.723   5.720   2.212
 2691SOL    HW1 8972   1.652   5.650   2.226
 2691SOL    HW2 8973   1.679   5.808   2.193
 2692SOL     OW 8974   0.198   6.647   3.981
 2692SOL    HW1 8975   0.233   6.596   3.903
 2692SOL    HW2 8976   0.238   6.739   3.981
 2693SOL     OW 8977   1.750   3.913   3.673
 2693SOL    HW1 8978   1.837   3.892   3.718
 2693SOL    HW2 8979   1.682   3.844   3.696
 2694SOL     OW 8980   1.472   6.905   3.617
 2694SOL    HW1 8981   1.398   6.966   3.647
 2694SOL    HW2 8982   1.531   6.884   3.695
 2695SOL     OW 8983   4.460   2.416   2.601
 2695SOL    HW1 8984   4.421   2.363   2.526
 2695SOL    HW2 8985   4.413   2.393   2.686
 2696SOL     OW 8986   4.050   4.132   5.424
 2696SOL    HW1 8987   3.998   4.207   5.382
 2696SOL    HW2 8988   4.146   4.138   5.395
 2697SOL     OW 8989   2.701   1.734   4.006
 2697SOL    HW1 8990   2.621   1.688   3.967
 2697SOL    HW2 8991   2.686   1.833   4.004
 2698SOL     OW 8992   1.592   4.090   0.292
 2698SOL    HW1 8993   1.620   4.114   0.200
 2698SOL    HW2 8994   1.493   4.097   0.300
 2699SOL     OW 8995   3.536   6.292   1.411
 2699SOL    HW1 8996   3.441   6.310   1.384
 2699SOL    HW2 8997   3.573   6.372   1.457
 2700SOL     OW 8998   1.967   3.337   2.814
 2700SOL    HW1 8999   1.998   3.364   2.723
 2700SOL    HW2 9000   1.868   3.348   2.821
 2701SOL     OW 9001   3.751   7.019   6.503
 2701SOL    HW1 9002   3.757   0.018   6.599
 2701SOL    HW2 9003   3.813   0.049   6.449
 2702SOL     OW 9004   6.873   0.906   3.692
 2702SOL    HW1 9005   6.892   0.997   3.729
 2702SOL    HW2 9006   6.870   0.911   3.592
 2703SOL     OW 9007   1.734   2.132   2.410
 2703SOL    HW1 9008   1.762   2.179   2.494
 2703SOL    HW2 9009   1.705   2.039   2.432
 2704SOL     OW 9010   2.441   5.261   1.644
 2704SOL    HW1 9011   2.480   5.266   1.736
 2704SOL    HW2 9012   2.354   5.310   1.641
 2705SOL     OW 9013   6.658   5.294   3.224
 2705SOL    HW1 9014   6.682   5.283   3.321
 2705SOL    HW2 9015   6.646   5.391   3.204
 2706SOL     OW 9016   6.601   1.534   1.642
 2706SOL    HW1 9017   6.620   1.518   1.739
 2706SOL    HW2 9018   6.584   1.446   1.597
 2707SOL     OW 9019   1.829   1.302   6.411
 2707SOL    HW1 9020   1.817   1.393   6.370
 2707SOL    HW2 9021   1.881   1.309   6.495
 2708SOL     OW 9022   1.319   2.768   1.731
 2708SOL    HW1 9023   1.306   2.672   1.754
 2708SOL    HW2 9024   1.299   2.783   1.635
 2709SOL     OW 9025   4.568   5.941   0.738
 2709SOL    HW1 9026   4.478   5.977   0.713
 2709SOL    HW2 9027   4.598   5.877   0.668
 2710SOL     OW 9028   0.343   4.302   2.735
 2710SOL    HW1 9029   0.324   4.207   2.711
 2710SOL    HW2 9030   0.269   4.361   2.701
 2711SOL     OW 9031   1.160   0.503   2.189
 2711SOL    HW1 9032   1.101   0.538   2.262
 2711SOL    HW2 9033   1.238   0.455   2.229
 2712SOL     OW 9034   2.882   4.561   0.408
 2712SOL    HW1 9035   2.939   4.641   0.429
 2712SOL    HW2 9036   2.879   4.549   0.308
 2713SOL     OW 9037   2.312   3.230   5.480
 2713SOL    HW1 9038   2.340   3.144   5.523
 2713SOL    HW2 9039   2.381   3.260   5.415
 2714SOL     OW 9040   4.641   0.321   5.907
 2714SOL    HW1 9041   4.586   0.388   5.857
 2714SOL    HW2 9042   4.712   0.368   5.958
 2715SOL     OW 9043   5.743   1.250   6.951
 2715SOL    HW1 9044   5.705   1.334   6.912
 2715SOL    HW2 9045   5.692   1.171   6.915
 2716SOL     OW 9046   0.544   6.320   2.555
 2716SOL    HW1 9047   0.456   6.282   2.584
 2716SOL    HW2 9048   0.618   6.273   2.603
 2717SOL     OW 9049   1.055   0.325   2.999
 2717SOL    HW1 9050   1.121   0.366   2.936
 2717SOL    HW2 9051   1.071   0.227   3.006
 2718SOL     OW 9052   2.390   4.394   3.710
 2718SOL    HW1 9053   2.356   4.477   3.665
 2718SOL    HW2 9054   2.458   4.419   3.780
 2719SOL     OW 9055   4.294   5.253   1.850
 2719SOL    HW1 9056   4.312   5.266   1.947
 2719SOL    HW2 9057   4.374   5.209   1.808
 2720SOL     OW 9058   1.797   6.717   3.512
 2720SOL    HW1 9059   1.808   6.659   3.592
 2720SOL    HW2 9060   1.819   6.812   3.535
 2721SOL     OW 9061   3.631   0.111   4.648
 2721SOL    HW1 9062   3.659   0.120   4.552
 2721SOL    HW2 9063   3.626   0.202   4.689
 2722SOL     OW 9064   1.359   6.289   2.548
 2722SOL    HW1 9065   1.335   6.259   2.456
 2722SOL    HW2 9066   1.361   6.389   2.551
 2723SOL     OW 9067   1.527   1.375   5.774
 2723SOL    HW1 9068   1.539   1.437   5.851
 2723SOL    HW2 9069   1.462   1.303   5.799
 2724SOL     OW 9070   4.095   5.687   5.997
 2724SOL    HW1 9071   4.195   5.688   5.996
 2724SOL    HW2 9072   4.064   5.597   6.029
 2725SOL     OW 9073   4.066   5.134   4.035
 2725SOL    HW1 9074   4.140   5.201   4.041
 2725SOL    HW2 9075   4.083   5.072   3.958
 2726SOL     OW 9076   4.848   5.489   2.206
 2726SOL    HW1 9077   4.749   5.499   2.219
 2726SOL    HW2 9078   4.885   5.572   2.164
 2727SOL     OW 9079   0.969   5.366   2.466
 2727SOL    HW1 9080   0.994   5.300   2.395
 2727SOL    HW2 9081   0.991   5.458   2.434
 2728SOL     OW 9082   2.685   6.844   5.236
 2728SOL    HW1 9083   2.770   6.887   5.205
 2728SOL    HW2 9084   2.634   6.811   5.157
 2729SOL     OW 9085   5.608   5.577   2.459
 2729SOL    HW1 9086   5.543   5.504   2.482
 2729SOL    HW2 9087   5.693   5.562   2.509
 2730SOL     OW 9088   1.931   6.594   1.049
 2730SOL    HW1 9089   1.950   6.686   1.015
 2730SOL    HW2 9090   1.858   6.599   1.118
 2731SOL     OW 9091   2.973   3.803   1.938
 2731SOL    HW1 9092   2.977   3.815   2.037
 2731SOL    HW2 9093   3.054   3.753   1.908
 2732SOL     OW 9094   5.823   1.353   2.133
 2732SOL    HW1 9095   5.829   1.430   2.198
 2732SOL    HW2 9096   5.802   1.269   2.183
 2733SOL     OW 9097   1.230   6.803   5.743
 2733SOL    HW1 9098   1.134   6.778   5.738
 2733SOL    HW2 9099   1.242   6.895   5.705
 2734SOL     OW 9100   1.925   5.956   4.290
 2734SOL    HW1 9101   1.956   5.996   4.376
 2734SOL    HW2 9102   1.982   5.877   4.267
 2735SOL     OW 9103   1.558   5.245   2.778
 2735SOL    HW1 9104   1.469   5.220   2.816
 2735SOL    HW2 9105   1.577   5.341   2.798
 2736SOL     OW 9106   4.715   0.344   4.971
 2736SOL    HW1 9107   4.701   0.306   5.062
 2736SOL    HW2 9108   4.759   0.276   4.912
 2737SOL     OW 9109   4.816   3.400   6.610
 2737SOL    HW1 9110   4.767   3.393   6.696
 2737SOL    HW2 9111   4.798   3.318   6.554
 2738SOL     OW 9112   5.650   5.134   4.784
 2738SOL    HW1 9113   5.655   5.221   4.736
 2738SOL    HW2 9114   5.742   5.103   4.808
 2739SOL     OW 9115   5.716   3.697   1.272
 2739SOL    HW1 9116   5.624   3.734   1.258
 2739SOL    HW2 9117   5.751   3.659   1.187
 2740SOL     OW 9118   5.836   2.440   3.250
 2740SOL    HW1 9119   5.911   2.457   3.186
 2740SOL    HW2 9120   5.801   2.347   3.236
 2741SOL     OW 9121   0.865   2.369   5.934
 2741SOL    HW1 9122   0.954   2.373   5.889
 2741SOL    HW2 9123   0.849   2.454   5.983
 2742SOL     OW 9124   2.073   0.128   6.699
 2742SOL    HW1 9125   2.116   0.140   6.788
 2742SOL    HW2 9126   2.086   0.034   6.668
 2743SOL     OW 9127   5.366   5.256   1.285
 2743SOL    HW1 9128   5.371   5.212   1.195
 2743SOL    HW2 9129   5.410   5.346   1.280
 2744SOL     OW 9130   4.379   2.128   5.875
 2744SOL    HW1 9131   4.468   2.137   5.831
 2744SOL    HW2 9132   4.307   2.135   5.807
 2745SOL     OW 9133   2.873   6.980   1.061
 2745SOL    HW1 9134   2.874   6.988   1.160
 2745SOL    HW2 9135   2.785   7.013   1.025
 2746SOL     OW 9136   1.928   2.119   6.760
 2746SOL    HW1 9137   1.886   2.154   6.845
 2746SOL    HW2 9138   1.861   2.124   6.686
 2747SOL     OW 9139   5.076   6.475   4.091
 2747SOL    HW1 9140   5.011   6.480   4.166
 2747SOL    HW2 9141   5.070   6.559   4.036
 2748SOL     OW 9142   3.948   0.965   3.008
 2748SOL    HW1 9143   4.042   0.963   2.973
 2748SOL    HW2 9144   3.912   0.872   3.014
 2749SOL     OW 9145   4.870   5.096   3.823
 2749SOL    HW1 9146   4.788   5.043   3.842
 2749SOL    HW2 9147   4.864   5.184   3.870
 2750SOL     OW 9148   0.509   5.999   2.632
 2750SOL    HW1 9149   0.587   5.940   2.654
 2750SOL    HW2 9150   0.491   5.998   2.534
 2751SOL     OW 9151   1.456   0.214   6.684
 2751SOL    HW1 9152   1.472   0.304   6.643
 2751SOL    HW2 9153   1.362   0.185   6.666
 2752SOL     OW 9154   6.129   6.064   5.557
 2752SOL    HW1 9155   6.207   6.062   5.494
 2752SOL    HW2 9156   6.141   6.136   5.624
 2753SOL     OW 9157   3.144   5.608   6.021
 2753SOL    HW1 9158   3.117   5.547   5.946
 2753SOL    HW2 9159   3.072   5.676   6.036
 2754SOL     OW 9160   0.835   0.892   4.657
 2754SOL    HW1 9161   0.748   0.850   4.629
 2754SOL    HW2 9162   0.843   0.887   4.757
 2755SOL     OW 9163   3.187   6.432   2.164
 2755SOL    HW1 9164   3.206   6.530   2.165
 2755SOL    HW2 9165   3.192   6.396   2.258
 2756SOL     OW 9166   0.181   2.871   5.902
 2756SOL    HW1 9167   0.274   2.909   5.907
 2756SOL    HW2 9168   0.130   2.895   5.984
 2757SOL     OW 9169   4.560   3.189   6.687
 2757SOL    HW1 9170   4.569   3.149   6.778
 2757SOL    HW2 9171   4.481   3.251   6.685
 2758SOL     OW 9172   6.469   6.258   2.476
 2758SOL    HW1 9173   6.465   6.161   2.497
 2758SOL    HW2 9174   6.454   6.311   2.559
 2759SOL     OW 9175   3.173   3.917   6.176
 2759SOL    HW1 9176   3.108   3.931   6.250
 2759SOL    HW2 9177   3.263   3.951   6.204
 2760SOL     OW 9178   5.296   6.178   3.343
 2760SOL    HW1 9179   5.200   6.202   3.353
 2760SOL    HW2 9180   5.304   6.090   3.296
 2761SOL     OW 9181   1.749   3.301   3.129
 2761SOL    HW1 9182   1.784   3.332   3.218
 2761SOL    HW2 9183   1.707   3.377   3.081
 2762SOL     OW 9184   2.628   2.531   0.344
 2762SOL    HW1 9185   2.625   2.433   0.361
 2762SOL    HW2 9186   2.724   2.560   0.335
 2763SOL     OW 9187   5.488   2.136   4.754
 2763SOL    HW1 9188   5.407   2.189   4.778
 2763SOL    HW2 9189   5.559   2.152   4.823
 2764SOL     OW 9190   1.487   3.744   2.044
 2764SOL    HW1 9191   1.521   3.683   2.116
 2764SOL    HW2 9192   1.562   3.768   1.983
 2765SOL     OW 9193   6.501   6.987   6.442
 2765SOL    HW1 9194   6.582   6.946   6.484
 2765SOL    HW2 9195   6.420   6.966   6.497
 2766SOL     OW 9196   4.775   1.397   6.543
 2766SOL    HW1 9197   4.747   1.348   6.460
 2766SOL    HW2 9198   4.810   1.331   6.610
 2767SOL     OW 9199   7.018   5.174   6.229
 2767SOL    HW1 9200   6.921   5.175   6.208
 2767SOL    HW2 9201   0.024   5.080   6.228
 2768SOL     OW 9202   4.533   0.093   1.175
 2768SOL    HW1 9203   4.589   0.070   1.255
 2768SOL    HW2 9204   4.436   0.094   1.201
 2769SOL     OW 9205   1.111   4.279   5.807
 2769SOL    HW1 9206   1.174   4.267   5.730
 2769SOL    HW2 9207   1.113   4.374   5.837
 2770SOL     OW 9208   3.005   6.894   0.852
 2770SOL    HW1 9209   3.071   6.837   0.901
 2770SOL    HW2 9210   2.959   6.955   0.916
 2771SOL     OW 9211   4.802   6.910   4.318
 2771SOL    HW1 9212   4.823   7.003   4.348
 2771SOL    HW2 9213   4.734   6.870   4.379
 2772SOL     OW 9214   4.057   0.066   3.319
 2772SOL    HW1 9215   4.012   7.009   3.288
 2772SOL    HW2 9216   4.028   0.141   3.259
 2773SOL     OW 9217   5.699   2.638   4.510
 2773SOL    HW1 9218   5.721   2.699   4.586
 2773SOL    HW2 9219   5.631   2.683   4.451
 2774SOL     OW 9220   5.428   1.529   4.336
 2774SOL    HW1 9221   5.334   1.558   4.321
 2774SOL    HW2 9222   5.486   1.608   4.356
 2775SOL     OW 9223   0.808   3.409   4.259
 2775SOL    HW1 9224   0.888   3.398   4.319
 2775SOL    HW2 9225   0.795   3.326   4.205
 2776SOL     OW 9226   4.960   4.504   6.397
 2776SOL    HW1 9227   4.920   4.427   6.349
 2776SOL    HW2 9228   5.056   4.483   6.419
 2777SOL     OW 9229   3.261   2.051   6.130
 2777SOL    HW1 9230   3.261   2.044   6.229
 2777SOL    HW2 9231   3.282   1.962   6.090
 2778SOL     OW 9232   3.120   6.254   6.178
 2778SOL    HW1 9233   3.209   6.299   6.184
 2778SOL    HW2 9234   3.053   6.317   6.139
 2779SOL     OW 9235   5.860   0.353   1.210
 2779SOL    HW1 9236   5.836   0.258   1.191
 2779SOL    HW2 9237   5.911   0.391   1.133
 2780SOL     OW 9238   6.874   1.342   4.841
 2780SOL    HW1 9239   6.897   1.411   4.909
 2780SOL    HW2 9240   6.938   1.348   4.764
 2781SOL     OW 9241   5.848   0.942   2.968
 2781SOL    HW1 9242   5.947   0.955   2.979
 2781SOL    HW2 9243   5.828   0.845   2.960
 2782SOL     OW 9244   4.492   0.796   6.373
 2782SOL    HW1 9245   4.519   0.891   6.358
 2782SOL    HW2 9246   4.396   0.792   6.403
 2783SOL     OW 9247   5.941   4.318   1.821
 2783SOL    HW1 9248   5.953   4.224   1.851
 2783SOL    HW2 9249   5.852   4.328   1.776
 2784SOL     OW 9250   1.507   1.924   1.209
 2784SOL    HW1 9251   1.602   1.892   1.201
 2784SOL    HW2 9252   1.476   1.956   1.119
 2785SOL     OW 9253   5.868   2.552   1.497
 2785SOL    HW1 9254   5.867   2.636   1.552
 2785SOL    HW2 9255   5.783   2.502   1.512
 2786SOL     OW 9256   0.344   6.559   0.311
 2786SOL    HW1 9257   0.419   6.548   0.245
 2786SOL    HW2 9258   0.289   6.475   0.312
 2787SOL     OW 9259   6.474   4.908   6.294
 2787SOL    HW1 9260   6.501   4.939   6.203
 2787SOL    HW2 9261   6.419   4.979   6.338
 2788SOL     OW 9262   3.189   5.845   5.566
 2788SOL    HW1 9263   3.147   5.889   5.645
 2788SOL    HW2 9264   3.129   5.855   5.487
 2789SOL     OW 9265   1.088   2.214   5.386
 2789SOL    HW1 9266   1.027   2.164   5.448
 2789SOL    HW2 9267   1.078   2.312   5.401
 2790SOL     OW 9268   2.037   5.635   1.816
 2790SOL    HW1 9269   1.987   5.690   1.883
 2790SOL    HW2 9270   2.034   5.539   1.843
 2791SOL     OW 9271   0.467   3.823   3.042
 2791SOL    HW1 9272   0.514   3.901   3.001
 2791SOL    HW2 9273   0.377   3.812   3.000
 2792SOL     OW 9274   3.233   1.165   5.326
 2792SOL    HW1 9275   3.138   1.164   5.356
 2792SOL    HW2 9276   3.243   1.104   5.247
 2793SOL     OW 9277   3.522   4.166   0.979
 2793SOL    HW1 9278   3.508   4.151   1.076
 2793SOL    HW2 9279   3.434   4.180   0.934
 2794SOL     OW 9280   1.026   2.314   0.032
 2794SOL    HW1 9281   0.928   2.326   0.016
 2794SOL    HW2 9282   1.045   2.325   0.129
 2795SOL     OW 9283   1.096   4.818   1.588
 2795SOL    HW1 9284   1.171   4.884   1.587
 2795SOL    HW2 9285   1.069   4.799   1.683
 2796SOL     OW 9286   2.180   6.324   6.375
 2796SOL    HW1 9287   2.245   6.399   6.390
 2796SOL    HW2 9288   2.089   6.362   6.360
 2797SOL     OW 9289   5.397   6.943   3.710
 2797SOL    HW1 9290   5.342   6.877   3.761
 2797SOL    HW2 9291   5.403   6.914   3.615
 2798SOL     OW 9292   5.360   0.249   1.861
 2798SOL    HW1 9293   5.390   0.344   1.845
 2798SOL    HW2 9294   5.414   0.210   1.935
 2799SOL     OW 9295   3.327   6.002   5.256
 2799SOL    HW1 9296   3.374   6.039   5.176
 2799SOL    HW2 9297   3.333   5.902   5.256
 2800SOL     OW 9298   5.605   6.925   6.643
 2800SOL    HW1 9299   5.625   6.866   6.564
 2800SOL    HW2 9300   5.678   6.915   6.710
 2801SOL     OW 9301   0.752   4.593   5.006
 2801SOL    HW1 9302   0.783   4.645   5.086
 2801SOL    HW2 9303   0.703   4.512   5.036
 2802SOL     OW 9304   0.992   5.136   5.850
 2802SOL    HW1 9305   0.989   5.075   5.771
 2802SOL    HW2 9306   0.990   5.231   5.818
 2803SOL     OW 9307   3.799   2.415   6.512
 2803SOL    HW1 9308   3.809   2.514   6.526
 2803SOL    HW2 9309   3.859   2.386   6.438
 2804SOL     OW 9310   0.448   2.523   3.870
 2804SOL    HW1 9311   0.458   2.519   3.770
 2804SOL    HW2 9312   0.368   2.471   3.898
 2805SOL     OW 9313   4.406   3.527   1.285
 2805SOL    HW1 9314   4.311   3.497   1.284
 2805SOL    HW2 9315   4.453   3.487   1.364
 2806SOL     OW 9316   0.503   4.222   6.190
 2806SOL    HW1 9317   0.461   4.231   6.280
 2806SOL    HW2 9318   0.598   4.194   6.200
 2807SOL     OW 9319   3.909   0.110   3.778
 2807SOL    HW1 9320   3.877   0.058   3.858
 2807SOL    HW2 9321   3.887   0.059   3.695
 2808SOL     OW 9322   6.732   5.538   6.081
 2808SOL    HW1 9323   6.819   5.556   6.035
 2808SOL    HW2 9324   6.728   5.591   6.166
 2809SOL     OW 9325   6.975   5.259   1.851
 2809SOL    HW1 9326   6.935   5.228   1.764
 2809SOL    HW2 9327   6.915   5.232   1.926
 2810SOL     OW 9328   2.841   6.027   2.949
 2810SOL    HW1 9329   2.794   6.115   2.939
 2810SOL    HW2 9330   2.781   5.963   2.996
 2811SOL     OW 9331   0.693   0.893   1.541
 2811SOL    HW1 9332   0.726   0.889   1.447
 2811SOL    HW2 9333   0.637   0.975   1.552
 2812SOL     OW 9334   0.491   2.277   1.232
 2812SOL    HW1 9335   0.542   2.229   1.160
 2812SOL    HW2 9336   0.489   2.221   1.315
 2813SOL     OW 9337   1.106   2.142   1.896
 2813SOL    HW1 9338   1.011   2.152   1.928
 2813SOL    HW2 9339   1.162   2.104   1.969
 2814SOL     OW 9340   2.027   4.711   0.279
 2814SOL    HW1 9341   1.964   4.681   0.208
 2814SOL    HW2 9342   2.119   4.678   0.258
 2815SOL     OW 9343   0.561   5.165   5.644
 2815SOL    HW1 9344   0.507   5.195   5.723
 2815SOL    HW2 9345   0.629   5.235   5.622
 2816SOL     OW 9346   0.843   6.136   6.017
 2816SOL    HW1 9347   0.903   6.057   6.002
 2816SOL    HW2 9348   0.750   6.111   5.991
 2817SOL     OW 9349   4.644   0.602   1.957
 2817SOL    HW1 9350   4.657   0.686   2.010
 2817SOL    HW2 9351   4.733   0.561   1.938
 2818SOL     OW 9352   1.672   0.666   0.361
 2818SOL    HW1 9353   1.672   0.739   0.429
 2818SOL    HW2 9354   1.585   0.664   0.313
 2819SOL     OW 9355   0.736   0.685   0.348
 2819SOL    HW1 9356   0.659   0.671   0.411
 2819SOL    HW2 9357   0.821   0.688   0.399
 2820SOL     OW 9358   1.732   2.600   0.953
 2820SOL    HW1 9359   1.800   2.608   1.026
 2820SOL    HW2 9360   1.767   2.641   0.869
 2821SOL     OW 9361   2.376   3.247   6.403
 2821SOL    HW1 9362   2.473   3.225   6.397
 2821SOL    HW2 9363   2.336   3.247   6.311
 2822SOL     OW 9364   4.406   2.518   0.935
 2822SOL    HW1 9365   4.490   2.526   0.882
 2822SOL    HW2 9366   4.328   2.508   0.873
 2823SOL     OW 9367   5.584   2.206   1.616
 2823SOL    HW1 9368   5.641   2.125   1.605
 2823SOL    HW2 9369   5.580   2.231   1.713
 2824SOL     OW 9370   1.363   3.065   4.757
 2824SOL    HW1 9371   1.401   3.085   4.667
 2824SOL    HW2 9372   1.347   2.966   4.765
 2825SOL     OW 9373   5.228   1.453   5.791
 2825SOL    HW1 9374   5.173   1.377   5.824
 2825SOL    HW2 9375   5.241   1.520   5.864
 2826SOL     OW 9376   2.601   3.026   6.819
 2826SOL    HW1 9377   2.623   3.042   6.723
 2826SOL    HW2 9378   2.610   2.929   6.840
 2827SOL     OW 9379   6.013   0.850   6.429
 2827SOL    HW1 9380   6.029   0.845   6.331
 2827SOL    HW2 9381   5.987   0.943   6.455
 2828SOL     OW 9382   1.693   3.806   0.647
 2828SOL    HW1 9383   1.723   3.712   0.666
 2828SOL    HW2 9384   1.698   3.823   0.548
 2829SOL     OW 9385   3.022   3.876   2.738
 2829SOL    HW1 9386   3.004   3.877   2.836
 2829SOL    HW2 9387   2.969   3.803   2.695
 2830SOL     OW 9388   3.252   4.669   5.572
 2830SOL    HW1 9389   3.238   4.750   5.629
 2830SOL    HW2 9390   3.276   4.697   5.480
 2831SOL     OW 9391   5.891   1.643   1.362
 2831SOL    HW1 9392   5.915   1.736   1.388
 2831SOL    HW2 9393   5.834   1.601   1.433
 2832SOL     OW 9394   0.495   4.047   1.833
 2832SOL    HW1 9395   0.450   3.960   1.855
 2832SOL    HW2 9396   0.594   4.034   1.829
 2833SOL     OW 9397   2.402   2.194   2.294
 2833SOL    HW1 9398   2.336   2.182   2.369
 2833SOL    HW2 9399   2.431   2.289   2.290
 2834SOL     OW 9400   3.363   5.599   5.462
 2834SOL    HW1 9401   3.318   5.688   5.467
 2834SOL    HW2 9402   3.431   5.600   5.389
 2835SOL     OW 9403   6.916   0.370   0.518
 2835SOL    HW1 9404   6.891   0.445   0.580
 2835SOL    HW2 9405   6.833   0.330   0.480
 2836SOL     OW 9406   3.911   5.590   2.363
 2836SOL    HW1 9407   3.910   5.535   2.280
 2836SOL    HW2 9408   3.876   5.682   2.343
 2837SOL     OW 9409   5.432   4.355   1.722
 2837SOL    HW1 9410   5.389   4.265   1.718
 2837SOL    HW2 9411   5.369   4.424   1.688
 2838SOL     OW 9412   5.519   4.230   6.293
 2838SOL    HW1 9413   5.437   4.233   6.235
 2838SOL    HW2 9414   5.504   4.286   6.374
 2839SOL     OW 9415   5.846   3.022   4.979
 2839SOL    HW1 9416   5.748   3.034   4.965
 2839SOL    HW2 9417   5.862   2.975   5.066
 2840SOL     OW 9418   0.045   6.397   4.400
 2840SOL    HW1 9419   7.008   6.321   4.410
 2840SOL    HW2 9420   0.115   6.372   4.332
 2841SOL     OW 9421   6.506   3.399   2.458
 2841SOL    HW1 9422   6.532   3.428   2.366
 2841SOL    HW2 9423   6.528   3.472   2.523
 2842SOL     OW 9424   1.049   6.908   3.440
 2842SOL    HW1 9425   1.059   7.008   3.438
 2842SOL    HW2 9426   0.953   6.884   3.425
 2843SOL     OW 9427   1.802   2.765   3.660
 2843SOL    HW1 9428   1.812   2.864   3.668
 2843SOL    HW2 9429   1.812   2.738   3.565
 2844SOL     OW 9430   4.762   4.438   0.536
 2844SOL    HW1 9431   4.816   4.383   0.599
 2844SOL    HW2 9432   4.783   4.535   0.549
 2845SOL     OW 9433   3.464   2.146   3.081
 2845SOL    HW1 9434   3.379   2.189   3.049
 2845SOL    HW2 9435   3.527   2.137   3.005
 2846SOL     OW 9436   5.922   0.086   0.446
 2846SOL    HW1 9437   5.991   0.153   0.473
 2846SOL    HW2 9438   5.939   0.057   0.352
 2847SOL     OW 9439   4.633   4.683   2.009
 2847SOL    HW1 9440   4.679   4.599   1.980
 2847SOL    HW2 9441   4.542   4.660   2.044
 2848SOL     OW 9442   0.479   4.147   5.479
 2848SOL    HW1 9443   0.412   4.083   5.441
 2848SOL    HW2 9444   0.521   4.199   5.405
 2849SOL     OW 9445   4.917   7.019   2.225
 2849SOL    HW1 9446   4.920   6.998   2.128
 2849SOL    HW2 9447   4.879   6.941   2.275
 2850SOL     OW 9448   1.952   0.032   2.363
 2850SOL    HW1 9449   1.991   0.035   2.271
 2850SOL    HW2 9450   1.990   6.981   2.412
 2851SOL     OW 9451   3.727   3.564   1.053
 2851SOL    HW1 9452   3.685   3.512   1.128
 2851SOL    HW2 9453   3.780   3.502   0.996
 2852SOL     OW 9454   6.315   4.773   6.813
 2852SOL    HW1 9455   6.414   4.762   6.802
 2852SOL    HW2 9456   6.288   4.863   6.780
 2853SOL     OW 9457   7.005   4.090   6.137
 2853SOL    HW1 9458   0.050   4.033   6.096
 2853SOL    HW2 9459   6.993   4.172   6.082
 2854SOL     OW 9460   3.872   1.560   5.659
 2854SOL    HW1 9461   3.799   1.492   5.652
 2854SOL    HW2 9462   3.918   1.550   5.747
 2855SOL     OW 9463   2.036   1.633   5.552
 2855SOL    HW1 9464   1.988   1.664   5.470
 2855SOL    HW2 9465   1.978   1.649   5.633
 2856SOL     OW 9466   1.008   5.274   3.801
 2856SOL    HW1 9467   1.050   5.362   3.822
 2856SOL    HW2 9468   0.917   5.269   3.842
 2857SOL     OW 9469   0.317   3.569   0.130
 2857SOL    HW1 9470   0.381   3.601   0.060
 2857SOL    HW2 9471   0.369   3.534   0.209
 2858SOL     OW 9472   4.543   4.875   2.834
 2858SOL    HW1 9473   4.619   4.817   2.863
 2858SOL    HW2 9474   4.538   4.875   2.734
 2859SOL     OW 9475   5.188   4.722   0.967
 2859SOL    HW1 9476   5.099   4.729   1.012
 2859SOL    HW2 9477   5.189   4.643   0.906
 2860SOL     OW 9478   0.860   0.311   2.439
 2860SOL    HW1 9479   0.797   0.388   2.444
 2860SOL    HW2 9480   0.882   0.281   2.532
 2861SOL     OW 9481   4.668   5.554   6.250
 2861SOL    HW1 9482   4.697   5.649   6.258
 2861SOL    HW2 9483   4.684   5.522   6.156
 2862SOL     OW 9484   3.909   2.953   0.279
 2862SOL    HW1 9485   3.909   3.039   0.330
 2862SOL    HW2 9486   3.966   2.885   0.326
 2863SOL     OW 9487   5.537   6.900   5.389
 2863SOL    HW1 9488   5.563   6.842   5.467
 2863SOL    HW2 9489   5.561   6.854   5.304
 2864SOL     OW 9490   3.185   4.308   0.225
 2864SOL    HW1 9491   3.217   4.244   0.154
 2864SOL    HW2 9492   3.107   4.268   0.272
 2865SOL     OW 9493   5.568   5.609   4.279
 2865SOL    HW1 9494   5.476   5.571   4.269
 2865SOL    HW2 9495   5.598   5.649   4.193
 2866SOL     OW 9496   4.502   4.612   0.674
 2866SOL    HW1 9497   4.407   4.636   0.692
 2866SOL    HW2 9498   4.518   4.611   0.575
 2867SOL     OW 9499   5.447   6.399   1.793
 2867SOL    HW1 9500   5.425   6.375   1.888
 2867SOL    HW2 9501   5.457   6.315   1.739
 2868SOL     OW 9502   0.883   1.055   5.620
 2868SOL    HW1 9503   0.934   0.981   5.664
 2868SOL    HW2 9504   0.879   1.134   5.680
 2869SOL     OW 9505   6.194   5.186   5.103
 2869SOL    HW1 9506   6.247   5.113   5.060
 2869SOL    HW2 9507   6.174   5.161   5.198
 2870SOL     OW 9508   6.909   2.079   1.556
 2870SOL    HW1 9509   6.866   2.085   1.466
 2870SOL    HW2 9510   6.865   2.143   1.619
 2871SOL     OW 9511   5.469   1.277   1.814
 2871SOL    HW1 9512   5.452   1.334   1.734
 2871SOL    HW2 9513   5.567   1.274   1.833
 2872SOL     OW 9514   2.661   2.284   2.089
 2872SOL    HW1 9515   2.752   2.305   2.055
 2872SOL    HW2 9516   2.615   2.369   2.114
 2873SOL     OW 9517   1.066   6.447   1.653
 2873SOL    HW1 9518   1.060   6.410   1.560
 2873SOL    HW2 9519   0.976   6.482   1.680
 2874SOL     OW 9520   2.695   0.497   2.593
 2874SOL    HW1 9521   2.599   0.523   2.604
 2874SOL    HW2 9522   2.702   0.397   2.591
 2875SOL     OW 9523   2.688   6.844   3.025
 2875SOL    HW1 9524   2.768   6.838   2.964
 2875SOL    HW2 9525   2.716   6.881   3.113
 2876SOL     OW 9526   1.473   6.913   2.184
 2876SOL    HW1 9527   1.407   6.859   2.131
 2876SOL    HW2 9528   1.555   6.929   2.129
 2877SOL     OW 9529   1.618   1.978   6.772
 2877SOL    HW1 9530   1.655   2.060   6.815
 2877SOL    HW2 9531   1.547   2.003   6.706
 2878SOL     OW 9532   4.052   3.601   3.854
 2878SOL    HW1 9533   4.094   3.606   3.944
 2878SOL    HW2 9534   4.042   3.505   3.827
 2879SOL     OW 9535   3.995   3.679   0.331
 2879SOL    HW1 9536   3.909   3.689   0.281
 2879SOL    HW2 9537   4.072   3.693   0.268
 2880SOL     OW 9538   1.967   1.431   4.268
 2880SOL    HW1 9539   1.886   1.470   4.312
 2880SOL    HW2 9540   1.966   1.332   4.278
 2881SOL     OW 9541   4.782   5.982   6.593
 2881SOL    HW1 9542   4.744   6.048   6.528
 2881SOL    HW2 9543   4.724   5.901   6.598
 2882SOL     OW 9544   4.564   6.407   0.632
 2882SOL    HW1 9545   4.561   6.494   0.681
 2882SOL    HW2 9546   4.496   6.407   0.559
 2883SOL     OW 9547   6.115   6.206   4.142
 2883SOL    HW1 9548   6.107   6.304   4.127
 2883SOL    HW2 9549   6.184   6.188   4.213
 2884SOL     OW 9550   6.935   4.975   3.607
 2884SOL    HW1 9551   6.986   4.890   3.617
 2884SOL    HW2 9552   6.879   4.971   3.524
 2885SOL     OW 9553   1.211   2.977   2.885
 2885SOL    HW1 9554   1.198   2.878   2.889
 2885SOL    HW2 9555   1.179   3.019   2.969
 2886SOL     OW 9556   1.803   4.660   6.083
 2886SOL    HW1 9557   1.862   4.598   6.134
 2886SOL    HW2 9558   1.758   4.610   6.009
 2887SOL     OW 9559   0.529   5.523   3.667
 2887SOL    HW1 9560   0.479   5.492   3.586
 2887SOL    HW2 9561   0.580   5.446   3.706
 2888SOL     OW 9562   6.268   6.681   6.975
 2888SOL    HW1 9563   6.211   6.743   6.922
 2888SOL    HW2 9564   6.330   6.734   0.005
 2889SOL     OW 9565   3.310   6.644   2.724
 2889SOL    HW1 9566   3.213   6.648   2.747
 2889SOL    HW2 9567   3.344   6.736   2.705
 2890SOL     OW 9568   1.911   1.062   1.388
 2890SOL    HW1 9569   1.905   1.016   1.477
 2890SOL    HW2 9570   2.006   1.080   1.366
 2891SOL     OW 9571   0.972   1.961   4.698
 2891SOL    HW1 9572   0.958   1.979   4.795
 2891SOL    HW2 9573   0.943   1.867   4.678
 2892SOL     OW 9574   6.669   3.848   2.970
 2892SOL    HW1 9575   6.612   3.838   2.888
 2892SOL    HW2 9576   6.765   3.830   2.946
 2893SOL     OW 9577   6.697   5.137   4.929
 2893SOL    HW1 9578   6.664   5.188   4.850
 2893SOL    HW2 9579   6.755   5.061   4.897
 2894SOL     OW 9580   1.628   5.794   2.572
 2894SOL    HW1 9581   1.648   5.705   2.532
 2894SOL    HW2 9582   1.687   5.864   2.532
 2895SOL     OW 9583   4.187   6.780   6.351
 2895SOL    HW1 9584   4.183   6.738   6.441
 2895SOL    HW2 9585   4.277   6.764   6.310
 2896SOL     OW 9586   5.219   5.995   4.936
 2896SOL    HW1 9587   5.237   5.962   5.028
 2896SOL    HW2 9588   5.215   5.917   4.873
 2897SOL     OW 9589   3.800   4.845   3.272
 2897SOL    HW1 9590   3.854   4.767   3.303
 2897SOL    HW2 9591   3.833   4.928   3.316
 2898SOL     OW 9592   5.671   2.878   2.814
 2898SOL    HW1 9593   5.571   2.881   2.817
 2898SOL    HW2 9594   5.709   2.920   2.896
 2899SOL     OW 9595   0.090   3.629   1.288
 2899SOL    HW1 9596   0.013   3.654   1.346
 2899SOL    HW2 9597   0.099   3.696   1.214
 2900SOL     OW 9598   2.885   2.699   6.342
 2900SOL    HW1 9599   2.900   2.793   6.312
 2900SOL    HW2 9600   2.971   2.661   6.376
 2901SOL     OW 9601   0.845   3.830   3.710
 2901SOL    HW1 9602   0.918   3.769   3.678
 2901SOL    HW2 9603   0.762   3.813   3.657
 2902SOL     OW 9604   6.672   6.176   3.455
 2902SOL    HW1 9605   6.732   6.100   3.476
 2902SOL    HW2 9606   6.647   6.173   3.358
 2903SOL     OW 9607   4.211   5.296   0.379
 2903SOL    HW1 9608   4.225   5.368   0.447
 2903SOL    HW2 9609   4.195   5.337   0.289
 2904SOL     OW 9610   2.350   4.195   5.389
 2904SOL    HW1 9611   2.396   4.161   5.471
 2904SOL    HW2 9612   2.385   4.148   5.308
 2905SOL     OW 9613   0.651   6.049   1.681
 2905SOL    HW1 9614   0.743   6.078   1.654
 2905SOL    HW2 9615   0.586   6.073   1.609
 2906SOL     OW 9616   6.169   6.232   3.676
 2906SOL    HW1 9617   6.140   6.137   3.669
 2906SOL    HW2 9618   6.242   6.250   3.611
 2907SOL     OW 9619   0.410   0.908   3.883
 2907SOL    HW1 9620   0.437   0.966   3.959
 2907SOL    HW2 9621   0.440   0.949   3.797
 2908SOL     OW 9622   3.893   6.372   2.818
 2908SOL    HW1 9623   3.817   6.312   2.842
 2908SOL    HW2 9624   3.889   6.456   2.872
 2909SOL     OW 9625   0.754   6.182   2.682
 2909SOL    HW1 9626   0.737   6.085   2.671
 2909SOL    HW2 9627   0.837   6.208   2.634
 2910SOL     OW 9628   6.700   0.685   4.193
 2910SOL    HW1 9629   6.727   0.754   4.259
 2910SOL    HW2 9630   6.716   0.718   4.100
 2911SOL     OW 9631   6.758   4.191   5.054
 2911SOL    HW1 9632   6.766   4.238   5.142
 2911SOL    HW2 9633   6.673   4.219   5.009
 2912SOL     OW 9634   0.397   0.412   1.572
 2912SOL    HW1 9635   0.429   0.507   1.578
 2912SOL    HW2 9636   0.457   0.360   1.512
 2913SOL     OW 9637   2.644   6.814   1.265
 2913SOL    HW1 9638   2.706   6.886   1.295
 2913SOL    HW2 9639   2.648   6.738   1.330
 2914SOL     OW 9640   4.274   5.542   0.578
 2914SOL    HW1 9641   4.310   5.603   0.508
 2914SOL    HW2 9642   4.345   5.523   0.646
 2915SOL     OW 9643   2.884   0.234   2.320
 2915SOL    HW1 9644   2.942   0.177   2.379
 2915SOL    HW2 9645   2.909   0.218   2.224
 2916SOL     OW 9646   2.021   5.928   1.131
 2916SOL    HW1 9647   1.999   5.978   1.215
 2916SOL    HW2 9648   2.047   5.835   1.154
 2917SOL     OW 9649   2.437   5.941   4.573
 2917SOL    HW1 9650   2.351   5.911   4.531
 2917SOL    HW2 9651   2.470   6.023   4.527
 2918SOL     OW 9652   5.191   2.975   1.718
 2918SOL    HW1 9653   5.112   2.971   1.780
 2918SOL    HW2 9654   5.160   2.994   1.625
 2919SOL     OW 9655   0.879   5.557   4.612
 2919SOL    HW1 9656   0.829   5.470   4.610
 2919SOL    HW2 9657   0.909   5.579   4.519
 2920SOL     OW 9658   1.150   2.775   2.599
 2920SOL    HW1 9659   1.213   2.851   2.583
 2920SOL    HW2 9660   1.138   2.761   2.697
 2921SOL     OW 9661   1.127   0.315   4.379
 2921SOL    HW1 9662   1.038   0.305   4.423
 2921SOL    HW2 9663   1.144   0.236   4.320
 2922SOL     OW 9664   3.741   6.438   3.568
 2922SOL    HW1 9665   3.797   6.397   3.496
 2922SOL    HW2 9666   3.646   6.411   3.555
 2923SOL     OW 9667   6.534   5.998   4.918
 2923SOL    HW1 9668   6.624   5.967   4.947
 2923SOL    HW2 9669   6.516   6.089   4.956
 2924SOL     OW 9670   6.113   2.436   5.033
 2924SOL    HW1 9671   6.173   2.493   4.978
 2924SOL    HW2 9672   6.028   2.485   5.051
 2925SOL     OW 9673   5.057   6.800   6.122
 2925SOL    HW1 9674   5.059   6.752   6.035
 2925SOL    HW2 9675   5.151   6.821   6.150
 2926SOL     OW 9676   6.890   2.548   3.896
 2926SOL    HW1 9677   6.912   2.476   3.831
 2926SOL    HW2 9678   6.829   2.615   3.853
 2927SOL     OW 9679   1.248   2.455   2.197
 2927SOL    HW1 9680   1.209   2.479   2.286
 2927SOL    HW2 9681   1.316   2.524   2.171
 2928SOL     OW 9682   6.538   2.638   6.964
 2928SOL    HW1 9683   6.584   2.726   6.980
 2928SOL    HW2 9684   6.570   2.600   6.877
 2929SOL     OW 9685   2.795   2.334   4.681
 2929SOL    HW1 9686   2.756   2.283   4.604
 2929SOL    HW2 9687   2.727   2.399   4.715
 2930SOL     OW 9688   6.543   4.249   4.874
 2930SOL    HW1 9689   6.494   4.319   4.925
 2930SOL    HW2 9690   6.482   4.207   4.807
 2931SOL     OW 9691   5.077   4.309   5.472
 2931SOL    HW1 9692   5.110   4.275   5.384
 2931SOL    HW2 9693   4.994   4.260   5.498
 2932SOL     OW 9694   6.830   5.577   0.852
 2932SOL    HW1 9695   6.830   5.649   0.921
 2932SOL    HW2 9696   6.826   5.487   0.897
 2933SOL     OW 9697   1.672   0.429   0.854
 2933SOL    HW1 9698   1.575   0.452   0.852
 2933SOL    HW2 9699   1.724   0.499   0.805
 2934SOL     OW 9700   4.190   4.392   0.286
 2934SOL    HW1 9701   4.182   4.324   0.213
 2934SOL    HW2 9702   4.176   4.347   0.375
 2935SOL     OW 9703   6.653   2.266   6.405
 2935SOL    HW1 9704   6.627   2.314   6.321
 2935SOL    HW2 9705   6.752   2.262   6.412
 2936SOL     OW 9706   3.926   6.196   0.886
 2936SOL    HW1 9707   4.003   6.240   0.842
 2936SOL    HW2 9708   3.858   6.265   0.913
 2937SOL     OW 9709   4.533   5.191   2.462
 2937SOL    HW1 9710   4.469   5.140   2.405
 2937SOL    HW2 9711   4.623   5.193   2.417
 2938SOL     OW 9712   6.548   5.857   6.833
 2938SOL    HW1 9713   6.532   5.827   6.738
 2938SOL    HW2 9714   6.601   5.787   6.881
 2939SOL     OW 9715   0.597   5.818   1.854
 2939SOL    HW1 9716   0.628   5.896   1.798
 2939SOL    HW2 9717   0.536   5.851   1.926
 2940SOL     OW 9718   4.499   6.590   3.815
 2940SOL    HW1 9719   4.468   6.685   3.820
 2940SOL    HW2 9720   4.538   6.563   3.903
 2941SOL     OW 9721   1.504   4.040   3.841
 2941SOL    HW1 9722   1.516   4.036   3.940
 2941SOL    HW2 9723   1.550   3.961   3.799
 2942SOL     OW 9724   3.398   1.599   1.450
 2942SOL    HW1 9725   3.303   1.632   1.448
 2942SOL    HW2 9726   3.447   1.645   1.524
 2943SOL     OW 9727   6.215   3.861   3.171
 2943SOL    HW1 9728   6.289   3.895   3.114
 2943SOL    HW2 9729   6.220   3.762   3.178
 2944SOL     OW 9730   1.810   5.686   2.790
 2944SOL    HW1 9731   1.866   5.740   2.853
 2944SOL    HW2 9732   1.763   5.747   2.727
 2945SOL     OW 9733   4.987   4.257   1.723
 2945SOL    HW1 9734   4.916   4.265   1.793
 2945SOL    HW2 9735   4.946   4.235   1.635
 2946SOL     OW 9736   3.618   3.936   5.593
 2946SOL    HW1 9737   3.615   3.838   5.571
 2946SOL    HW2 9738   3.527   3.966   5.622
 2947SOL     OW 9739   6.537   6.662   0.547
 2947SOL    HW1 9740   6.576   6.667   0.639
 2947SOL    HW2 9741   6.447   6.618   0.551
 2948SOL     OW 9742   6.379   3.699   1.844
 2948SOL    HW1 9743   6.435   3.617   1.833
 2948SOL    HW2 9744   6.425   3.777   1.801
 2949SOL     OW 9745   1.421   0.093   0.685
 2949SOL    HW1 9746   1.444   0.173   0.629
 2949SOL    HW2 9747   1.404   0.122   0.779
 2950SOL     OW 9748   5.997   4.736   3.028
 2950SOL    HW1 9749   6.088   4.757   2.991
 2950SOL    HW2 9750   5.941   4.818   3.025
 2951SOL     OW 9751   6.967   0.979   1.857
 2951SOL    HW1 9752   0.029   1.007   1.892
 2951SOL    HW2 9753   6.899   0.986   1.930
 2952SOL     OW 9754   6.037   1.858   3.823
 2952SOL    HW1 9755   6.061   1.773   3.869
 2952SOL    HW2 9756   6.011   1.926   3.891
 2953SOL     OW 9757   0.938   5.300   4.369
 2953SOL    HW1 9758   0.941   5.326   4.272
 2953SOL    HW2 9759   0.985   5.212   4.380
 2954SOL     OW 9760   0.005   4.440   6.399
 2954SOL    HW1 9761   6.992   4.397   6.319
 2954SOL    HW2 9762   6.969   4.506   6.438
 2955SOL     OW 9763   1.960   4.524   6.240
 2955SOL    HW1 9764   1.934   4.429   6.223
 2955SOL    HW2 9765   2.046   4.544   6.194
 2956SOL     OW 9766   6.337   4.954   3.102
 2956SOL    HW1 9767   6.298   4.919   3.016
 2956SOL    HW2 9768   6.311   4.893   3.177
 2957SOL     OW 9769   2.402   5.331   1.062
 2957SOL    HW1 9770   2.372   5.247   1.106
 2957SOL    HW2 9771   2.381   5.410   1.120
 2958SOL     OW 9772   1.952   5.686   2.361
 2958SOL    HW1 9773   1.866   5.706   2.315
 2958SOL    HW2 9774   1.964   5.587   2.370
 2959SOL     OW 9775   0.193   3.736   3.037
 2959SOL    HW1 9776   0.235   3.677   3.106
 2959SOL    HW2 9777   0.152   3.680   2.966
 2960SOL     OW 9778   5.069   0.399   0.395
 2960SOL    HW1 9779   5.036   0.493   0.392
 2960SOL    HW2 9780   5.148   0.389   0.334
 2961SOL     OW 9781   5.479   4.110   1.974
 2961SOL    HW1 9782   5.421   4.071   2.046
 2961SOL    HW2 9783   5.564   4.059   1.969
 2962SOL     OW 9784   6.838   0.334   3.177
 2962SOL    HW1 9785   6.860   0.432   3.176
 2962SOL    HW2 9786   6.748   0.320   3.137
 2963SOL     OW 9787   2.091   1.007   5.149
 2963SOL    HW1 9788   2.002   1.046   5.129
 2963SOL    HW2 9789   2.104   1.001   5.248
 2964SOL     OW 9790   1.645   1.476   0.233
 2964SOL    HW1 9791   1.638   1.394   0.290
 2964SOL    HW2 9792   1.716   1.461   0.163
 2965SOL     OW 9793   0.274   6.853   5.203
 2965SOL    HW1 9794   0.202   6.907   5.247
 2965SOL    HW2 9795   0.337   6.914   5.155
 2966SOL     OW 9796   3.228   6.352   2.663
 2966SOL    HW1 9797   3.243   6.451   2.661
 2966SOL    HW2 9798   3.151   6.331   2.723
 2967SOL     OW 9799   5.372   0.033   5.592
 2967SOL    HW1 9800   5.429   0.023   5.674
 2967SOL    HW2 9801   5.425   0.008   5.512
 2968SOL     OW 9802   2.327   3.247   0.965
 2968SOL    HW1 9803   2.348   3.254   1.063
 2968SOL    HW2 9804   2.412   3.242   0.913
 2969SOL     OW 9805   5.097   3.369   4.479
 2969SOL    HW1 9806   5.123   3.437   4.410
 2969SOL    HW2 9807   5.175   3.308   4.497
 2970SOL     OW 9808   2.266   1.968   4.486
 2970SOL    HW1 9809   2.183   1.914   4.469
 2970SOL    HW2 9810   2.306   1.994   4.398
 2971SOL     OW 9811   5.103   2.826   6.373
 2971SOL    HW1 9812   5.111   2.845   6.275
 2971SOL    HW2 9813   5.191   2.790   6.406
 2972SOL     OW 9814   5.759   5.690   6.969
 2972SOL    HW1 9815   5.803   5.734   6.890
 2972SOL    HW2 9816   5.660   5.685   6.953
 2973SOL     OW 9817   4.751   1.606   2.705
 2973SOL    HW1 9818   4.808   1.571   2.630
 2973SOL    HW2 9819   4.804   1.673   2.758
 2974SOL     OW 9820   5.155   6.356   2.795
 2974SOL    HW1 9821   5.242   6.309   2.780
 2974SOL    HW2 9822   5.122   6.335   2.887
 2975SOL     OW 9823   4.765   4.288   3.374
 2975SOL    HW1 9824   4.795   4.200   3.338
 2975SOL    HW2 9825   4.750   4.281   3.473
 2976SOL     OW 9826   4.063   2.293   1.800
 2976SOL    HW1 9827   4.122   2.369   1.829
 2976SOL    HW2 9828   4.086   2.268   1.705
 2977SOL     OW 9829   1.432   1.052   1.527
 2977SOL    HW1 9830   1.459   1.082   1.618
 2977SOL    HW2 9831   1.379   0.967   1.534
 2978SOL     OW 9832   4.646   5.118   6.178
 2978SOL    HW1 9833   4.742   5.101   6.198
 2978SOL    HW2 9834   4.613   5.047   6.115
 2979SOL     OW 9835   3.297   0.589   3.954
 2979SOL    HW1 9836   3.351   0.508   3.976
 2979SOL    HW2 9837   3.357   0.660   3.917
 2980SOL     OW 9838   3.905   3.483   5.265
 2980SOL    HW1 9839   3.922   3.421   5.188
 2980SOL    HW2 9840   3.826   3.449   5.317
 2981SOL     OW 9841   1.982   1.380   1.406
 2981SOL    HW1 9842   2.053   1.418   1.466
 2981SOL    HW2 9843   2.021   1.307   1.351
 2982SOL     OW 9844   0.951   0.670   1.589
 2982SOL    HW1 9845   0.864   0.720   1.578
 2982SOL    HW2 9846   0.946   0.612   1.671
 2983SOL     OW 9847   6.400   3.419   5.798
 2983SOL    HW1 9848   6.408   3.518   5.803
 2983SOL    HW2 9849   6.487   3.377   5.826
 2984SOL     OW 9850   1.038   5.089   1.260
 2984SOL    HW1 9851   1.136   5.074   1.274
 2984SOL    HW2 9852   1.020   5.099   1.162
 2985SOL     OW 9853   0.157   6.849   5.887
 2985SOL    HW1 9854   0.156   6.801   5.799
 2985SOL    HW2 9855   0.065   6.847   5.926
 2986SOL     OW 9856   3.852   3.398   2.359
 2986SOL    HW1 9857   3.784   3.413   2.288
 2986SOL    HW2 9858   3.808   3.356   2.439
 2987SOL     OW 9859   1.910   6.895   4.976
 2987SOL    HW1 9860   1.999   6.891   4.931
 2987SOL    HW2 9861   1.841   6.854   4.917
 2988SOL     OW 9862   0.249   1.658   6.491
 2988SOL    HW1 9863   0.192   1.669   6.572
 2988SOL    HW2 9864   0.313   1.582   6.505
 2989SOL     OW 9865   4.844   3.773   4.366
 2989SOL    HW1 9866   4.910   3.741   4.435
 2989SOL    HW2 9867   4.779   3.700   4.345
 2990SOL     OW 9868   5.563   1.303   4.293
 2990SOL    HW1 9869   5.505   1.384   4.295
 2990SOL    HW2 9870   5.609   1.293   4.381
 2991SOL     OW 9871   0.181   4.314   1.462
 2991SOL    HW1 9872   0.217   4.335   1.371
 2991SOL    HW2 9873   0.258   4.302   1.526
 2992SOL     OW 9874   0.275   3.401   5.582
 2992SOL    HW1 9875   0.304   3.391   5.677
 2992SOL    HW2 9876   0.318   3.329   5.527
 2993SOL     OW 9877   1.350   4.434   0.239
 2993SOL    HW1 9878   1.327   4.481   0.324
 2993SOL    HW2 9879   1.329   4.336   0.248
 2994SOL     OW 9880   4.091   6.126   6.510
 2994SOL    HW1 9881   3.993   6.134   6.495
 2994SOL    HW2 9882   4.129   6.060   6.446
 2995SOL     OW 9883   5.097   0.625   0.957
 2995SOL    HW1 9884   5.196   0.635   0.973
 2995SOL    HW2 9885   5.054   0.715   0.963
 2996SOL     OW 9886   6.676   0.431   4.532
 2996SOL    HW1 9887   6.630   0.356   4.483
 2996SOL    HW2 9888   6.772   0.435   4.503
 2997SOL     OW 9889   5.329   0.127   4.117
 2997SOL    HW1 9890   5.328   0.153   4.213
 2997SOL    HW2 9891   5.421   0.099   4.090
 2998SOL     OW 9892   2.505   1.267   3.062
 2998SOL    HW1 9893   2.584   1.225   3.105
 2998SOL    HW2 9894   2.511   1.257   2.962
 2999SOL     OW 9895   2.446   4.205   0.609
 2999SOL    HW1 9896   2.450   4.218   0.510
 2999SOL    HW2 9897   2.455   4.294   0.655
 3000SOL     OW 9898   3.062   3.726   5.288
 3000SOL    HW1 9899   3.132   3.797   5.290
 3000SOL    HW2 9900   2.987   3.751   5.349
 3001SOL     OW 9901   5.667   0.354   5.766
 3001SOL    HW1 9902   5.567   0.365   5.763
 3001SOL    HW2 9903   5.691   0.281   5.829
 3002SOL     OW 9904   1.701   2.044   1.606
 3002SOL    HW1 9905   1.602   2.036   1.617
 3002SOL    HW2 9906   1.724   2.048   1.509
 3003SOL     OW 9907   1.684   6.405   0.686
 3003SOL    HW1 9908   1.701   6.389   0.589
 3003SOL    HW2 9909   1.593   6.370   0.710
 3004SOL     OW 9910   2.560   6.202   3.984
 3004SOL    HW1 9911   2.487   6.186   4.050
 3004SOL    HW2 9912   2.645   6.162   4.019
 3005SOL     OW 9913   1.234   2.301   6.156
 3005SOL    HW1 9914   1.144   2.334   6.185
 3005SOL    HW2 9915   1.284   2.376   6.112
 3006SOL     OW 9916   5.165   1.180   5.529
 3006SOL    HW1 9917   5.126   1.165   5.439
 3006SOL    HW2 9918   5.253   1.227   5.521
 3007SOL     OW 9919   5.070   5.691   0.159
 3007SOL    HW1 9920   5.055   5.729   0.250
 3007SOL    HW2 9921   5.014   5.740   0.092
 3008SOL     OW 9922   4.755   3.089   5.822
 3008SOL    HW1 9923   4.720   3.004   5.783
 3008SOL    HW2 9924   4.743   3.088   5.921
 3009SOL     OW 9925   0.004   3.361   2.384
 3009SOL    HW1 9926   7.026   3.371   2.284
 3009SOL    HW2 9927   7.023   3.264   2.407
 3010SOL     OW 9928   3.615   5.738   6.956
 3010SOL    HW1 9929   3.547   5.682   7.003
 3010SOL    HW2 9930   3.632   5.699   6.865
 3011SOL     OW 9931   6.547   7.019   1.141
 3011SOL    HW1 9932   6.507   0.057   1.205
 3011SOL    HW2 9933   6.636   0.026   1.110
 3012SOL     OW 9934   2.321   2.101   5.454
 3012SOL    HW1 9935   2.278   2.156   5.526
 3012SOL    HW2 9936   2.296   2.138   5.364
 3013SOL     OW 9937   1.114   4.271   5.329
 3013SOL    HW1 9938   1.100   4.292   5.232
 3013SOL    HW2 9939   1.210   4.246   5.344
 3014SOL     OW 9940   5.391   6.689   6.028
 3014SOL    HW1 9941   5.426   6.637   6.107
 3014SOL    HW2 9942   5.414   6.785   6.039
 3015SOL     OW 9943   1.277   0.807   6.946
 3015SOL    HW1 9944   1.339   0.728   6.954
 3015SOL    HW2 9945   1.250   0.818   6.851
 3016SOL     OW 9946   1.786   6.197   4.222
 3016SOL    HW1 9947   1.807   6.226   4.129
 3016SOL    HW2 9948   1.827   6.107   4.239
 3017SOL     OW 9949   0.684   5.058   0.814
 3017SOL    HW1 9950   0.757   5.126   0.821
 3017SOL    HW2 9951   0.596   5.102   0.836
 3018SOL     OW 9952   3.356   0.024   1.049
 3018SOL    HW1 9953   3.373   0.088   0.974
 3018SOL    HW2 9954   3.443   7.022   1.087
 3019SOL     OW 9955   2.142   1.188   5.809
 3019SOL    HW1 9956   2.117   1.226   5.721
 3019SOL    HW2 9957   2.175   1.094   5.797
 3020SOL     OW 9958   6.390   4.130   6.875
 3020SOL    HW1 9959   6.470   4.115   6.933
 3020SOL    HW2 9960   6.374   4.228   6.866
 3021SOL     OW 9961   4.718   7.021   4.753
 3021SOL    HW1 9962   4.727   6.925   4.727
 3021SOL    HW2 9963   4.689   0.047   4.674
 3022SOL     OW 9964   3.680   5.744   3.864
 3022SOL    HW1 9965   3.702   5.833   3.902
 3022SOL    HW2 9966   3.758   5.682   3.876
 3023SOL     OW 9967   5.118   5.936   3.501
 3023SOL    HW1 9968   5.153   6.026   3.525
 3023SOL    HW2 9969   5.047   5.945   3.432
 3024SOL     OW 9970   0.470   6.678   6.943
 3024SOL    HW1 9971   0.394   6.738   6.967
 3024SOL    HW2 9972   0.518   6.651   7.027
 3025SOL     OW 9973   3.644   5.258   0.192
 3025SOL    HW1 9974   3.595   5.245   0.279
 3025SOL    HW2 9975   3.607   5.195   0.124
 3026SOL     OW 9976   6.818   0.822   1.710
 3026SOL    HW1 9977   6.869   0.886   1.767
 3026SOL    HW2 9978   6.835   0.728   1.742
 3027SOL     OW 9979   4.775   1.265   1.115
 3027SOL    HW1 9980   4.873   1.274   1.098
 3027SOL    HW2 9981   4.747   1.171   1.097
 3028SOL     OW 9982   2.860   3.512   5.796
 3028SOL    HW1 9983   2.813   3.598   5.817
 3028SOL    HW2 9984   2.866   3.501   5.697
 3029SOL     OW 9985   0.252   2.990   4.516
 3029SOL    HW1 9986   0.153   2.985   4.498
 3029SOL    HW2 9987   0.289   2.897   4.515
 3030SOL     OW 9988   2.534   3.306   0.763
 3030SOL    HW1 9989   2.549   3.216   0.721
 3030SOL    HW2 9990   2.497   3.369   0.694
 3031SOL     OW 9991   1.080   6.469   0.799
 3031SOL    HW1 9992   1.100   6.549   0.855
 3031SOL    HW2 9993   1.163   6.442   0.749
 3032SOL     OW 9994   2.458   0.244   2.710
 3032SOL    HW1 9995   2.551   0.229   2.678
 3032SOL    HW2 9996   2.442   0.342   2.719
 3033SOL     OW 9997   0.034   2.129   4.958
 3033SOL    HW1 9998   0.015   2.227   4.959
 3033SOL    HW2 9999   0.132   2.114   4.939
 3034SOL     OW10000   6.619   4.870   2.924
 3034SOL    HW110001   6.599   4.774   2.943
 3034SOL    HW210002   6.637   4.918   3.010
 3035SOL     OW10003   1.076   2.624   0.066
 3035SOL    HW110004   1.033   2.710   0.092
 3035SOL    HW210005   1.007   2.564   0.024
 3036SOL     OW10006   3.459   2.259   6.333
 3036SOL    HW110007   3.421   2.326   6.397
 3036SOL    HW210008   3.505   2.306   6.258
 3037SOL     OW10009   0.449   5.738   6.985
 3037SOL    HW110010   0.434   5.653   0.009
 3037SOL    HW210011   0.361   5.771   6.951
 3038SOL     OW10012   5.952   4.473   6.664
 3038SOL    HW110013   5.897   4.396   6.696
 3038SOL    HW210014   6.032   4.438   6.614
 3039SOL     OW10015   6.959   3.435   6.581
 3039SOL    HW110016   6.973   3.456   6.484
 3039SOL    HW210017   6.914   3.346   6.590
 3040SOL     OW10018   4.768   4.663   5.976
 3040SOL    HW110019   4.804   4.574   5.949
 3040SOL    HW210020   4.668   4.658   5.985
 3041SOL     OW10021   1.591   4.724   5.716
 3041SOL    HW110022   1.574   4.686   5.625
 3041SOL    HW210023   1.608   4.650   5.781
 3042SOL     OW10024   6.793   5.123   3.057
 3042SOL    HW110025   6.784   5.028   3.088
 3042SOL    HW210026   6.726   5.180   3.104
 3043SOL     OW10027   2.796   4.934   0.772
 3043SOL    HW110028   2.731   4.895   0.838
 3043SOL    HW210029   2.795   5.034   0.780
 3044SOL     OW10030   3.745   3.543   5.022
 3044SOL    HW110031   3.806   3.574   5.094
 3044SOL    HW210032   3.679   3.615   5.001
 3045SOL     OW10033   4.527   1.921   1.980
 3045SOL    HW110034   4.555   1.919   2.076
 3045SOL    HW210035   4.427   1.911   1.974
 3046SOL     OW10036   5.108   6.146   0.837
 3046SOL    HW110037   5.080   6.234   0.799
 3046SOL    HW210038   5.043   6.076   0.808
 3047SOL     OW10039   5.852   1.406   5.015
 3047SOL    HW110040   5.856   1.502   4.990
 3047SOL    HW210041   5.932   1.383   5.072
 3048SOL     OW10042   3.636   4.421   0.821
 3048SOL    HW110043   3.671   4.488   0.755
 3048SOL    HW210044   3.553   4.379   0.786
 3049SOL     OW10045   1.214   1.336   3.291
 3049SOL    HW110046   1.203   1.397   3.370
 3049SOL    HW210047   1.289   1.272   3.309
 3050SOL     OW10048   3.352   2.145   0.929
 3050SOL    HW110049   3.270   2.152   0.872
 3050SOL    HW210050   3.354   2.222   0.993
 3051SOL     OW10051   2.098   5.529   5.340
 3051SOL    HW110052   2.079   5.551   5.244
 3051SOL    HW210053   2.043   5.449   5.367
 3052SOL     OW10054   6.991   6.797   2.272
 3052SOL    HW110055   0.012   6.867   2.219
 3052SOL    HW210056   7.017   6.805   2.368
 3053SOL     OW10057   0.953   4.409   7.017
 3053SOL    HW110058   0.975   4.436   0.083
 3053SOL    HW210059   0.869   4.356   7.017
 3054SOL     OW10060   5.498   0.404   2.226
 3054SOL    HW110061   5.407   0.366   2.243
 3054SOL    HW210062   5.490   0.500   2.199
 3055SOL     OW10063   5.778   6.111   6.715
 3055SOL    HW110064   5.812   6.032   6.664
 3055SOL    HW210065   5.822   6.114   6.805
 3056SOL     OW10066   5.119   1.465   5.392
 3056SOL    HW110067   5.108   1.522   5.474
 3056SOL    HW210068   5.032   1.463   5.342
 3057SOL     OW10069   5.610   4.059   3.517
 3057SOL    HW110070   5.679   4.108   3.464
 3057SOL    HW210071   5.592   3.971   3.475
 3058SOL     OW10072   0.203   4.497   6.908
 3058SOL    HW110073   0.129   4.433   6.887
 3058SOL    HW210074   0.215   4.561   6.831
 3059SOL     OW10075   1.972   2.108   3.733
 3059SOL    HW110076   1.907   2.106   3.810
 3059SOL    HW210077   1.942   2.044   3.662
 3060SOL     OW10078   5.613   5.433   5.117
 3060SOL    HW110079   5.514   5.426   5.128
 3060SOL    HW210080   5.659   5.370   5.180
 3061SOL     OW10081   5.888   5.968   4.759
 3061SOL    HW110082   5.883   5.924   4.669
 3061SOL    HW210083   5.885   6.067   4.748
 3062SOL     OW10084   4.191   4.422   1.121
 3062SOL    HW110085   4.251   4.355   1.167
 3062SOL    HW210086   4.238   4.510   1.116
 3063SOL     OW10087   0.073   4.354   1.781
 3063SOL    HW110088   0.165   4.330   1.750
 3063SOL    HW210089   0.079   4.424   1.852
 3064SOL     OW10090   4.914   2.048   6.444
 3064SOL    HW110091   4.992   2.017   6.499
 3064SOL    HW210092   4.935   2.136   6.402
 3065SOL     OW10093   6.408   1.145   6.613
 3065SOL    HW110094   6.449   1.235   6.628
 3065SOL    HW210095   6.479   1.076   6.603
 3066SOL     OW10096   5.006   6.056   5.812
 3066SOL    HW110097   5.008   6.053   5.912
 3066SOL    HW210098   5.037   6.145   5.780
 3067SOL     OW10099   1.543   2.145   6.112
 3067SOL    HW110100   1.455   2.097   6.107
 3067SOL    HW210101   1.543   2.207   6.190
 3068SOL     OW10102   0.558   1.181   0.461
 3068SOL    HW110103   0.461   1.182   0.437
 3068SOL    HW210104   0.607   1.116   0.402
 3069SOL     OW10105   5.249   6.770   2.684
 3069SOL    HW110106   5.300   6.685   2.700
 3069SOL    HW210107   5.291   6.844   2.737
 3070SOL     OW10108   2.154   0.961   0.857
 3070SOL    HW110109   2.153   0.882   0.796
 3070SOL    HW210110   2.249   0.992   0.870
 3071SOL     OW10111   6.380   4.065   4.149
 3071SOL    HW110112   6.427   4.030   4.231
 3071SOL    HW210113   6.289   4.025   4.143
 3072SOL     OW10114   1.873   0.256   6.822
 3072SOL    HW110115   1.820   0.320   6.766
 3072SOL    HW210116   1.944   0.213   6.767
 3073SOL     OW10117   6.291   5.062   1.379
 3073SOL    HW110118   6.383   5.033   1.355
 3073SOL    HW210119   6.229   5.043   1.303
 3074SOL     OW10120   2.270   3.223   1.705
 3074SOL    HW110121   2.176   3.220   1.671
 3074SOL    HW210122   2.291   3.315   1.737
 3075SOL     OW10123   3.529   5.453   2.186
 3075SOL    HW110124   3.513   5.400   2.103
 3075SOL    HW210125   3.549   5.548   2.162
 3076SOL     OW10126   0.917   0.070   5.254
 3076SOL    HW110127   0.913   0.002   5.180
 3076SOL    HW210128   0.825   0.089   5.287
 3077SOL     OW10129   6.789   3.987   2.594
 3077SOL    HW110130   6.791   3.896   2.636
 3077SOL    HW210131   6.738   4.050   2.653
 3078SOL     OW10132   7.014   3.443   2.121
 3078SOL    HW110133   0.080   3.425   2.089
 3078SOL    HW210134   6.963   3.491   2.050
 3079SOL     OW10135   2.360   3.481   5.263
 3079SOL    HW110136   2.377   3.494   5.165
 3079SOL    HW210137   2.423   3.412   5.299
 3080SOL     OW10138   3.801   4.797   0.454
 3080SOL    HW110139   3.893   4.763   0.473
 3080SOL    HW210140   3.802   4.848   0.368
 3081SOL     OW10141   1.315   3.866   0.420
 3081SOL    HW110142   1.339   3.832   0.329
 3081SOL    HW210143   1.217   3.855   0.435
 3082SOL     OW10144   4.348   4.992   4.379
 3082SOL    HW110145   4.364   4.918   4.445
 3082SOL    HW210146   4.263   5.039   4.402
 3083SOL     OW10147   3.589   5.978   1.900
 3083SOL    HW110148   3.631   5.947   1.814
 3083SOL    HW210149   3.660   6.009   1.962
 3084SOL     OW10150   0.397   3.588   4.060
 3084SOL    HW110151   0.364   3.592   4.154
 3084SOL    HW210152   0.444   3.501   4.045
 3085SOL     OW10153   5.380   4.885   0.521
 3085SOL    HW110154   5.466   4.905   0.475
 3085SOL    HW210155   5.358   4.957   0.586
 3086SOL     OW10156   6.378   6.877   6.164
 3086SOL    HW110157   6.423   6.965   6.177
 3086SOL    HW210158   6.424   6.807   6.219
 3087SOL     OW10159   3.388   6.587   1.812
 3087SOL    HW110160   3.386   6.501   1.864
 3087SOL    HW210161   3.401   6.664   1.875
 3088SOL     OW10162   1.863   3.058   5.825
 3088SOL    HW110163   1.841   3.134   5.764
 3088SOL    HW210164   1.950   3.077   5.870
 3089SOL     OW10165   4.021   6.256   5.091
 3089SOL    HW110166   4.032   6.351   5.061
 3089SOL    HW210167   3.944   6.251   5.155
 3090SOL     OW10168   1.197   2.290   2.477
 3090SOL    HW110169   1.116   2.238   2.449
 3090SOL    HW210170   1.278   2.249   2.435
 3091SOL     OW10171   1.168   2.309   1.183
 3091SOL    HW110172   1.136   2.231   1.236
 3091SOL    HW210173   1.268   2.318   1.193
 3092SOL     OW10174   5.661   1.069   2.575
 3092SOL    HW110175   5.593   0.996   2.580
 3092SOL    HW210176   5.722   1.053   2.497
 3093SOL     OW10177   5.971   5.457   0.207
 3093SOL    HW110178   5.914   5.392   0.156
 3093SOL    HW210179   5.931   5.472   0.298
 3094SOL     OW10180   2.952   1.990   6.859
 3094SOL    HW110181   2.885   2.062   6.880
 3094SOL    HW210182   2.904   1.905   6.836
 3095SOL     OW10183   1.322   3.736   4.824
 3095SOL    HW110184   1.353   3.762   4.733
 3095SOL    HW210185   1.224   3.753   4.832
 3096SOL     OW10186   0.479   3.145   4.154
 3096SOL    HW110187   0.510   3.239   4.144
 3096SOL    HW210188   0.498   3.095   4.069
 3097SOL     OW10189   5.376   2.806   5.467
 3097SOL    HW110190   5.327   2.885   5.503
 3097SOL    HW210191   5.314   2.729   5.459
 3098SOL     OW10192   1.851   3.005   2.180
 3098SOL    HW110193   1.814   3.072   2.116
 3098SOL    HW210194   1.948   2.990   2.160
 3099SOL     OW10195   0.280   6.031   4.266
 3099SOL    HW110196   0.313   6.118   4.302
 3099SOL    HW210197   0.184   6.018   4.293
 3100SOL     OW10198   6.187   4.994   1.982
 3100SOL    HW110199   6.148   5.066   2.040
 3100SOL    HW210200   6.134   4.910   1.994
 3101SOL     OW10201   3.165   6.665   5.285
 3101SOL    HW110202   3.166   6.565   5.278
 3101SOL    HW210203   3.229   6.695   5.355
 3102SOL     OW10204   6.886   5.037   1.008
 3102SOL    HW110205   6.851   4.949   1.039
 3102SOL    HW210206   6.842   5.062   0.921
 3103SOL     OW10207   3.208   1.278   1.221
 3103SOL    HW110208   3.181   1.184   1.199
 3103SOL    HW210209   3.308   1.283   1.228
 3104SOL     OW10210   4.820   0.968   5.533
 3104SOL    HW110211   4.827   0.976   5.632
 3104SOL    HW210212   4.907   0.939   5.495
 3105SOL     OW10213   6.199   3.883   0.645
 3105SOL    HW110214   6.255   3.955   0.605
 3105SOL    HW210215   6.127   3.856   0.582
 3106SOL     OW10216   6.284   0.354   6.427
 3106SOL    HW110217   6.202   0.405   6.455
 3106SOL    HW210218   6.313   0.387   6.337
 3107SOL     OW10219   3.864   1.210   5.758
 3107SOL    HW110220   3.922   1.136   5.792
 3107SOL    HW210221   3.768   1.185   5.767
 3108SOL     OW10222   2.203   4.302   3.887
 3108SOL    HW110223   2.245   4.359   3.816
 3108SOL    HW210224   2.227   4.207   3.872
 3109SOL     OW10225   6.543   5.990   4.231
 3109SOL    HW110226   6.548   5.890   4.228
 3109SOL    HW210227   6.462   6.021   4.180
 3110SOL     OW10228   0.590   4.243   2.966
 3110SOL    HW110229   0.499   4.283   2.972
 3110SOL    HW210230   0.652   4.306   2.920
 3111SOL     OW10231   5.955   4.655   4.239
 3111SOL    HW110232   5.994   4.632   4.328
 3111SOL    HW210233   5.900   4.578   4.205
 3112SOL     OW10234   4.068   2.009   6.106
 3112SOL    HW110235   4.073   2.097   6.153
 3112SOL    HW210236   4.159   1.981   6.077
 3113SOL     OW10237   2.642   5.785   3.058
 3113SOL    HW110238   2.605   5.743   3.141
 3113SOL    HW210239   2.676   5.713   2.997
 3114SOL     OW10240   4.576   1.213   5.882
 3114SOL    HW110241   4.516   1.257   5.816
 3114SOL    HW210242   4.668   1.251   5.875
 3115SOL     OW10243   4.810   5.203   5.078
 3115SOL    HW110244   4.714   5.177   5.065
 3115SOL    HW210245   4.869   5.139   5.030
 3116SOL     OW10246   0.883   1.210   1.001
 3116SOL    HW110247   0.826   1.291   0.998
 3116SOL    HW210248   0.879   1.169   1.093
 3117SOL     OW10249   5.115   1.154   5.796
 3117SOL    HW110250   5.117   1.164   5.696
 3117SOL    HW210251   5.208   1.163   5.832
 3118SOL     OW10252   1.232   0.983   3.065
 3118SOL    HW110253   1.182   1.067   3.088
 3118SOL    HW210254   1.166   0.909   3.048
 3119SOL     OW10255   4.342   4.992   5.263
 3119SOL    HW110256   4.286   5.074   5.251
 3119SOL    HW210257   4.291   4.924   5.314
 3120SOL     OW10258   1.438   6.050   5.413
 3120SOL    HW110259   1.433   6.083   5.319
 3120SOL    HW210260   1.449   5.951   5.414
 3121SOL     OW10261   4.364   1.515   4.285
 3121SOL    HW110262   4.429   1.550   4.352
 3121SOL    HW210263   4.380   1.418   4.269
 3122SOL     OW10264   4.758   5.320   4.437
 3122SOL    HW110265   4.809   5.405   4.423
 3122SOL    HW210266   4.749   5.302   4.535
 3123SOL     OW10267   2.356   1.473   3.583
 3123SOL    HW110268   2.426   1.402   3.582
 3123SOL    HW210269   2.332   1.496   3.678
 3124SOL     OW10270   4.852   7.023   3.784
 3124SOL    HW110271   4.792   7.022   3.704
 3124SOL    HW210272   4.798   0.017   3.866
 3125SOL     OW10273   1.196   1.274   5.171
 3125SOL    HW110274   1.146   1.289   5.256
 3125SOL    HW210275   1.146   1.315   5.095
 3126SOL     OW10276   5.488   5.532   5.423
 3126SOL    HW110277   5.444   5.472   5.490
 3126SOL    HW210278   5.437   5.528   5.337
 3127SOL     OW10279   0.463   1.082   5.140
 3127SOL    HW110280   0.494   1.069   5.234
 3127SOL    HW210281   0.432   0.994   5.103
 3128SOL     OW10282   4.566   0.535   0.209
 3128SOL    HW110283   4.472   0.568   0.201
 3128SOL    HW210284   4.623   0.578   0.139
 3129SOL     OW10285   4.609   3.859   0.165
 3129SOL    HW110286   4.690   3.876   0.108
 3129SOL    HW210287   4.632   3.794   0.237
 3130SOL     OW10288   0.651   4.143   2.265
 3130SOL    HW110289   0.554   4.138   2.241
 3130SOL    HW210290   0.706   4.102   2.192
 3131SOL     OW10291   6.469   4.056   3.337
 3131SOL    HW110292   6.374   4.084   3.350
 3131SOL    HW210293   6.485   3.968   3.381
 3132SOL     OW10294   4.479   5.136   6.802
 3132SOL    HW110295   4.539   5.056   6.815
 3132SOL    HW210296   4.386   5.105   6.782
 3133SOL     OW10297   3.948   0.105   4.219
 3133SOL    HW110298   3.924   0.202   4.223
 3133SOL    HW210299   4.041   0.094   4.184
 3134SOL     OW10300   4.570   5.144   2.933
 3134SOL    HW110301   4.519   5.215   2.885
 3134SOL    HW210302   4.544   5.054   2.897
 3135SOL     OW10303   4.724   6.228   6.861
 3135SOL    HW110304   4.783   6.155   6.826
 3135SOL    HW210305   4.665   6.261   6.787
 3136SOL     OW10306   6.412   1.992   2.529
 3136SOL    HW110307   6.438   2.081   2.567
 3136SOL    HW210308   6.409   1.998   2.430
 3137SOL     OW10309   5.826   6.770   6.770
 3137SOL    HW110310   5.895   6.715   6.817
 3137SOL    HW210311   5.833   6.755   6.671
 3138SOL     OW10312   5.595   5.626   3.456
 3138SOL    HW110313   5.524   5.589   3.516
 3138SOL    HW210314   5.684   5.618   3.501
 3139SOL     OW10315   2.810   5.084   1.705
 3139SOL    HW110316   2.763   5.143   1.770
 3139SOL    HW210317   2.744   5.025   1.658
 3140SOL     OW10318   6.921   0.212   6.229
 3140SOL    HW110319   6.914   0.311   6.237
 3140SOL    HW210320   6.836   0.176   6.190
 3141SOL     OW10321   6.559   2.304   5.865
 3141SOL    HW110322   6.580   2.206   5.867
 3141SOL    HW210323   6.606   2.346   5.787
 3142SOL     OW10324   4.777   1.370   2.864
 3142SOL    HW110325   4.687   1.328   2.866
 3142SOL    HW210326   4.775   1.453   2.809
 3143SOL     OW10327   6.106   1.182   0.441
 3143SOL    HW110328   6.008   1.203   0.448
 3143SOL    HW210329   6.151   1.251   0.384
 3144SOL     OW10330   3.958   3.637   6.290
 3144SOL    HW110331   3.985   3.596   6.377
 3144SOL    HW210332   3.924   3.729   6.305
 3145SOL     OW10333   0.466   6.255   1.083
 3145SOL    HW110334   0.499   6.163   1.103
 3145SOL    HW210335   0.367   6.253   1.070
 3146SOL     OW10336   0.204   6.968   5.502
 3146SOL    HW110337   0.241   7.005   5.588
 3146SOL    HW210338   0.183   0.016   5.440
 3147SOL     OW10339   3.927   5.032   7.015
 3147SOL    HW110340   4.020   4.996   7.019
 3147SOL    HW210341   3.929   5.130   6.995
 3148SOL     OW10342   0.065   5.139   2.363
 3148SOL    HW110343   7.010   5.085   2.383
 3148SOL    HW210344   0.047   5.200   2.286
 3149SOL     OW10345   3.318   1.671   0.420
 3149SOL    HW110346   3.338   1.576   0.443
 3149SOL    HW210347   3.324   1.728   0.502
 3150SOL     OW10348   6.791   5.895   4.978
 3150SOL    HW110349   6.876   5.904   5.030
 3150SOL    HW210350   6.808   5.844   4.894
 3151SOL     OW10351   6.791   1.604   5.695
 3151SOL    HW110352   6.838   1.603   5.607
 3151SOL    HW210353   6.789   1.512   5.733
 3152SOL     OW10354   1.036   3.390   6.202
 3152SOL    HW110355   1.114   3.410   6.261
 3152SOL    HW210356   1.018   3.469   6.142
 3153SOL     OW10357   6.456   5.274   1.132
 3153SOL    HW110358   6.444   5.296   1.229
 3153SOL    HW210359   6.550   5.293   1.105
 3154SOL     OW10360   4.808   1.424   0.111
 3154SOL    HW110361   4.749   1.456   0.185
 3154SOL    HW210362   4.884   1.371   0.149
 3155SOL     OW10363   0.891   5.143   1.038
 3155SOL    HW110364   0.803   5.112   1.073
 3155SOL    HW210365   0.887   5.242   1.019
 3156SOL     OW10366   3.630   4.138   1.839
 3156SOL    HW110367   3.680   4.130   1.753
 3156SOL    HW210368   3.695   4.146   1.915
 3157SOL     OW10369   0.778   1.539   5.362
 3157SOL    HW110370   0.682   1.561   5.345
 3157SOL    HW210371   0.831   1.623   5.365
 3158SOL     OW10372   1.891   1.173   5.941
 3158SOL    HW110373   1.978   1.202   5.901
 3158SOL    HW210374   1.908   1.134   6.032
 3159SOL     OW10375   6.276   6.814   0.412
 3159SOL    HW110376   6.286   6.904   0.368
 3159SOL    HW210377   6.326   6.813   0.498
 3160SOL     OW10378   1.872   0.895   6.430
 3160SOL    HW110379   1.904   0.809   6.469
 3160SOL    HW210380   1.950   0.956   6.415
 3161SOL     OW10381   1.860   2.389   2.851
 3161SOL    HW110382   1.811   2.431   2.775
 3161SOL    HW210383   1.955   2.421   2.851
 3162SOL     OW10384   1.727   5.345   1.092
 3162SOL    HW110385   1.680   5.298   1.017
 3162SOL    HW210386   1.705   5.443   1.089
 3163SOL     OW10387   4.150   4.005   0.250
 3163SOL    HW110388   4.177   3.997   0.345
 3163SOL    HW210389   4.182   3.926   0.198
 3164SOL     OW10390   3.042   6.305   2.864
 3164SOL    HW110391   2.954   6.337   2.901
 3164SOL    HW210392   3.106   6.289   2.940
 3165SOL     OW10393   1.119   6.499   6.825
 3165SOL    HW110394   1.112   6.403   6.851
 3165SOL    HW210395   1.058   6.517   6.747
 3166SOL     OW10396   4.469   0.854   5.163
 3166SOL    HW110397   4.517   0.766   5.153
 3166SOL    HW210398   4.376   0.837   5.193
 3167SOL     OW10399   5.588   3.434   0.627
 3167SOL    HW110400   5.640   3.427   0.542
 3167SOL    HW210401   5.619   3.363   0.690
 3168SOL     OW10402   5.065   1.973   0.651
 3168SOL    HW110403   5.004   2.037   0.698
 3168SOL    HW210404   5.047   1.880   0.682
 3169SOL     OW10405   1.855   4.466   1.704
 3169SOL    HW110406   1.842   4.495   1.799
 3169SOL    HW210407   1.776   4.413   1.674
 3170SOL     OW10408   2.645   4.998   3.315
 3170SOL    HW110409   2.738   5.027   3.293
 3170SOL    HW210410   2.643   4.899   3.329
 3171SOL     OW10411   4.927   2.675   3.327
 3171SOL    HW110412   4.880   2.587   3.334
 3171SOL    HW210413   4.860   2.749   3.317
 3172SOL     OW10414   0.133   4.604   1.251
 3172SOL    HW110415   0.048   4.650   1.281
 3172SOL    HW210416   0.204   4.618   1.320
 3173SOL     OW10417   3.981   2.615   0.725
 3173SOL    HW110418   3.917   2.553   0.769
 3173SOL    HW210419   3.937   2.659   0.647
 3174SOL     OW10420   2.971   3.806   5.714
 3174SOL    HW110421   2.887   3.770   5.755
 3174SOL    HW210422   2.950   3.891   5.666
 3175SOL     OW10423   6.272   0.459   4.092
 3175SOL    HW110424   6.219   0.375   4.103
 3175SOL    HW210425   6.328   0.474   4.174
 3176SOL     OW10426   1.265   4.738   5.057
 3176SOL    HW110427   1.246   4.675   4.982
 3176SOL    HW210428   1.298   4.825   5.020
 3177SOL     OW10429   5.556   3.271   3.719
 3177SOL    HW110430   5.612   3.286   3.800
 3177SOL    HW210431   5.544   3.358   3.670
 3178SOL     OW10432   6.751   0.130   1.386
 3178SOL    HW110433   6.844   0.131   1.349
 3178SOL    HW210434   6.695   0.194   1.333
 3179SOL     OW10435   1.129   2.041   2.166
 3179SOL    HW110436   1.065   2.059   2.241
 3179SOL    HW210437   1.112   1.950   2.128
 3180SOL     OW10438   6.788   5.845   0.070
 3180SOL    HW110439   6.713   5.898   0.108
 3180SOL    HW210440   6.754   5.783   7.027
 3181SOL     OW10441   0.974   0.383   4.888
 3181SOL    HW110442   1.035   0.455   4.853
 3181SOL    HW210443   0.971   0.308   4.823
 3182SOL     OW10444   3.039   1.023   0.870
 3182SOL    HW110445   3.098   0.945   0.848
 3182SOL    HW210446   2.945   1.002   0.845
 3183SOL     OW10447   4.413   4.455   1.723
 3183SOL    HW110448   4.446   4.429   1.633
 3183SOL    HW210449   4.409   4.375   1.783
 3184SOL     OW10450   0.276   2.035   5.563
 3184SOL    HW110451   0.240   2.051   5.655
 3184SOL    HW210452   0.200   2.022   5.499
 3185SOL     OW10453   0.563   5.407   6.115
 3185SOL    HW110454   0.604   5.332   6.063
 3185SOL    HW210455   0.513   5.370   6.193
 3186SOL     OW10456   0.010   1.635   6.348
 3186SOL    HW110457   0.015   1.724   6.302
 3186SOL    HW210458   0.102   1.610   6.380
 3187SOL     OW10459   3.910   5.981   2.516
 3187SOL    HW110460   3.976   5.946   2.583
 3187SOL    HW210461   3.847   6.044   2.561
 3188SOL     OW10462   2.194   4.454   5.764
 3188SOL    HW110463   2.259   4.383   5.790
 3188SOL    HW210464   2.230   4.507   5.687
 3189SOL     OW10465   3.363   1.745   6.425
 3189SOL    HW110466   3.321   1.830   6.393
 3189SOL    HW210467   3.441   1.767   6.483
 3190SOL     OW10468   6.342   5.351   4.733
 3190SOL    HW110469   6.248   5.344   4.765
 3190SOL    HW210470   6.394   5.410   4.795
 3191SOL     OW10471   4.600   5.707   2.040
 3191SOL    HW110472   4.514   5.758   2.028
 3191SOL    HW210473   4.643   5.735   2.125
 3192SOL     OW10474   6.338   2.421   2.504
 3192SOL    HW110475   6.239   2.428   2.519
 3192SOL    HW210476   6.362   2.471   2.421
 3193SOL     OW10477   4.122   0.251   5.404
 3193SOL    HW110478   4.047   0.186   5.394
 3193SOL    HW210479   4.188   0.216   5.471
 3194SOL     OW10480   1.063   1.163   6.237
 3194SOL    HW110481   1.040   1.210   6.152
 3194SOL    HW210482   1.052   1.226   6.314
 3195SOL     OW10483   0.396   2.173   1.559
 3195SOL    HW110484   0.321   2.124   1.515
 3195SOL    HW210485   0.474   2.110   1.572
 3196SOL     OW10486   6.430   6.939   4.690
 3196SOL    HW110487   6.500   6.926   4.621
 3196SOL    HW210488   6.364   7.007   4.658
 3197SOL     OW10489   1.652   1.135   6.293
 3197SOL    HW110490   1.714   1.194   6.345
 3197SOL    HW210491   1.599   1.191   6.229
 3198SOL     OW10492   6.184   3.045   3.542
 3198SOL    HW110493   6.229   3.064   3.455
 3198SOL    HW210494   6.246   2.995   3.602
 3199SOL     OW10495   5.808   4.333   3.099
 3199SOL    HW110496   5.709   4.339   3.089
 3199SOL    HW210497   5.851   4.343   3.009
 3200SOL     OW10498   5.475   3.359   4.107
 3200SOL    HW110499   5.510   3.266   4.097
 3200SOL    HW210500   5.551   3.424   4.100
 3201SOL     OW10501   5.918   4.270   2.669
 3201SOL    HW110502   5.880   4.294   2.580
 3201SOL    HW210503   5.943   4.354   2.718
 3202SOL     OW10504   1.310   4.676   0.109
 3202SOL    HW110505   1.342   4.686   0.015
 3202SOL    HW210506   1.337   4.587   0.144
 3203SOL     OW10507   3.896   6.945   1.120
 3203SOL    HW110508   3.917   6.862   1.172
 3203SOL    HW210509   3.977   7.003   1.115
 3204SOL     OW10510   2.778   1.320   3.844
 3204SOL    HW110511   2.844   1.247   3.863
 3204SOL    HW210512   2.702   1.313   3.908
 3205SOL     OW10513   5.450   3.268   5.572
 3205SOL    HW110514   5.526   3.262   5.636
 3205SOL    HW210515   5.397   3.351   5.591
 3206SOL     OW10516   2.699   3.209   1.516
 3206SOL    HW110517   2.729   3.229   1.422
 3206SOL    HW210518   2.734   3.120   1.543
 3207SOL     OW10519   1.014   6.093   5.320
 3207SOL    HW110520   0.979   6.035   5.394
 3207SOL    HW210521   0.941   6.152   5.287
 3208SOL     OW10522   6.219   5.687   5.988
 3208SOL    HW110523   6.280   5.619   5.947
 3208SOL    HW210524   6.215   5.767   5.929
 3209SOL     OW10525   5.018   5.709   6.408
 3209SOL    HW110526   4.922   5.703   6.379
 3209SOL    HW210527   5.026   5.680   6.503
 3210SOL     OW10528   6.538   5.150   1.617
 3210SOL    HW110529   6.546   5.058   1.656
 3210SOL    HW210530   6.464   5.200   1.663
 3211SOL     OW10531   0.773   5.262   6.342
 3211SOL    HW110532   0.826   5.319   6.279
 3211SOL    HW210533   0.711   5.203   6.290
 3212SOL     OW10534   2.080   6.959   3.059
 3212SOL    HW110535   1.982   6.951   3.043
 3212SOL    HW210536   2.100   0.019   3.102
 3213SOL     OW10537   1.334   0.524   6.096
 3213SOL    HW110538   1.425   0.528   6.136
 3213SOL    HW210539   1.338   0.478   6.008
 3214SOL     OW10540   3.729   0.861   2.648
 3214SOL    HW110541   3.669   0.930   2.608
 3214SOL    HW210542   3.702   0.844   2.743
 3215SOL     OW10543   1.565   3.194   1.028
 3215SOL    HW110544   1.528   3.285   1.007
 3215SOL    HW210545   1.634   3.202   1.099
 3216SOL     OW10546   5.607   4.397   0.457
 3216SOL    HW110547   5.523   4.421   0.409
 3216SOL    HW210548   5.669   4.351   0.394
 3217SOL     OW10549   0.861   5.349   3.141
 3217SOL    HW110550   0.844   5.280   3.211
 3217SOL    HW210551   0.959   5.354   3.122
 3218SOL     OW10552   6.114   0.926   3.046
 3218SOL    HW110553   6.084   0.856   3.111
 3218SOL    HW210554   6.201   0.965   3.077
 3219SOL     OW10555   6.021   0.556   5.452
 3219SOL    HW110556   5.957   0.481   5.470
 3219SOL    HW210557   6.028   0.613   5.534
 3220SOL     OW10558   6.822   4.967   6.820
 3220SOL    HW110559   6.794   4.945   6.913
 3220SOL    HW210560   6.822   4.884   6.764
 3221SOL     OW10561   3.745   0.260   1.735
 3221SOL    HW110562   3.747   0.300   1.827
 3221SOL    HW210563   3.652   0.264   1.699
 3222SOL     OW10564   3.430   1.430   2.887
 3222SOL    HW110565   3.349   1.384   2.924
 3222SOL    HW210566   3.478   1.367   2.825
 3223SOL     OW10567   1.553   0.199   1.106
 3223SOL    HW110568   1.587   0.126   1.047
 3223SOL    HW210569   1.628   0.236   1.160
 3224SOL     OW10570   4.275   2.019   4.083
 3224SOL    HW110571   4.247   1.928   4.112
 3224SOL    HW210572   4.290   2.019   3.984
 3225SOL     OW10573   4.191   0.399   4.273
 3225SOL    HW110574   4.132   0.367   4.347
 3225SOL    HW210575   4.279   0.352   4.279
 3226SOL     OW10576   0.451   0.157   1.368
 3226SOL    HW110577   0.540   0.139   1.409
 3226SOL    HW210578   0.461   0.225   1.295
 3227SOL     OW10579   4.794   3.698   5.359
 3227SOL    HW110580   4.797   3.614   5.414
 3227SOL    HW210581   4.756   3.677   5.269
 3228SOL     OW10582   1.816   4.407   0.271
 3228SOL    HW110583   1.762   4.417   0.354
 3228SOL    HW210584   1.865   4.492   0.252
 3229SOL     OW10585   2.317   1.233   0.713
 3229SOL    HW110586   2.369   1.287   0.647
 3229SOL    HW210587   2.306   1.285   0.798
 3230SOL     OW10588   2.219   5.606   5.774
 3230SOL    HW110589   2.291   5.671   5.798
 3230SOL    HW210590   2.132   5.653   5.765
 3231SOL     OW10591   2.587   0.741   1.476
 3231SOL    HW110592   2.529   0.734   1.395
 3231SOL    HW210593   2.604   0.837   1.498
 3232SOL     OW10594   4.258   5.736   4.031
 3232SOL    HW110595   4.347   5.703   4.062
 3232SOL    HW210596   4.248   5.833   4.055
 3233SOL     OW10597   0.575   2.518   0.404
 3233SOL    HW110598   0.527   2.434   0.428
 3233SOL    HW210599   0.510   2.594   0.402
 3234SOL     OW10600   3.002   3.029   0.629
 3234SOL    HW110601   2.982   3.098   0.699
 3234SOL    HW210602   2.934   3.034   0.556
 3235SOL     OW10603   0.292   6.980   2.313
 3235SOL    HW110604   0.311   6.980   2.214
 3235SOL    HW210605   0.356   6.919   2.359
 3236SOL     OW10606   2.976   3.819   0.524
 3236SOL    HW110607   2.955   3.910   0.560
 3236SOL    HW210608   3.011   3.827   0.431
 3237SOL     OW10609   5.984   1.015   5.210
 3237SOL    HW110610   5.945   0.927   5.237
 3237SOL    HW210611   6.052   1.043   5.278
 3238SOL     OW10612   6.766   5.627   1.793
 3238SOL    HW110613   6.685   5.675   1.759
 3238SOL    HW210614   6.842   5.641   1.730
 3239SOL     OW10615   6.624   0.215   4.136
 3239SOL    HW110616   6.645   0.123   4.169
 3239SOL    HW210617   6.709   0.268   4.130
 3240SOL     OW10618   0.265   1.119   6.809
 3240SOL    HW110619   0.364   1.116   6.800
 3240SOL    HW210620   0.234   1.214   6.800
 3241SOL     OW10621   5.957   1.604   6.029
 3241SOL    HW110622   6.040   1.574   5.983
 3241SOL    HW210623   5.926   1.690   5.988
 3242SOL     OW10624   5.289   4.840   5.080
 3242SOL    HW110625   5.278   4.757   5.136
 3242SOL    HW210626   5.369   4.829   5.021
 3243SOL     OW10627   5.295   5.207   5.374
 3243SOL    HW110628   5.237   5.222   5.295
 3243SOL    HW210629   5.299   5.290   5.429
 3244SOL     OW10630   5.595   6.311   0.306
 3244SOL    HW110631   5.528   6.384   0.320
 3244SOL    HW210632   5.562   6.249   0.235
 3245SOL     OW10633   4.110   1.274   4.389
 3245SOL    HW110634   4.088   1.345   4.322
 3245SOL    HW210635   4.195   1.228   4.361
 3246SOL     OW10636   0.104   0.841   2.750
 3246SOL    HW110637   0.117   0.932   2.788
 3246SOL    HW210638   0.174   0.824   2.680
 3247SOL     OW10639   0.611   4.269   3.276
 3247SOL    HW110640   0.600   4.274   3.177
 3247SOL    HW210641   0.695   4.219   3.298
 3248SOL     OW10642   5.494   2.042   3.424
 3248SOL    HW110643   5.422   2.089   3.373
 3248SOL    HW210644   5.471   2.042   3.521
 3249SOL     OW10645   3.274   3.536   3.617
 3249SOL    HW110646   3.215   3.616   3.613
 3249SOL    HW210647   3.345   3.544   3.548
 3250SOL     OW10648   5.196   5.307   2.372
 3250SOL    HW110649   5.119   5.265   2.420
 3250SOL    HW210650   5.280   5.293   2.425
 3251SOL     OW10651   2.792   1.253   3.535
 3251SOL    HW110652   2.788   1.157   3.511
 3251SOL    HW210653   2.708   1.279   3.583
 3252SOL     OW10654   1.992   1.483   3.981
 3252SOL    HW110655   1.934   1.564   3.994
 3252SOL    HW210656   2.011   1.441   4.070
 3253SOL     OW10657   6.565   3.787   0.708
 3253SOL    HW110658   6.569   3.855   0.781
 3253SOL    HW210659   6.610   3.824   0.627
 3254SOL     OW10660   5.690   0.622   0.611
 3254SOL    HW110661   5.781   0.637   0.572
 3254SOL    HW210662   5.699   0.589   0.704
 3255SOL     OW10663   5.364   5.133   1.039
 3255SOL    HW110664   5.383   5.038   1.065
 3255SOL    HW210665   5.266   5.150   1.045
 3256SOL     OW10666   5.086   2.345   1.005
 3256SOL    HW110667   4.988   2.365   0.999
 3256SOL    HW210668   5.103   2.284   1.082
 3257SOL     OW10669   2.734   1.916   3.008
 3257SOL    HW110670   2.815   1.923   2.951
 3257SOL    HW210671   2.681   2.001   3.002
 3258SOL     OW10672   2.161   6.064   3.328
 3258SOL    HW110673   2.207   6.096   3.246
 3258SOL    HW210674   2.172   5.965   3.337
 3259SOL     OW10675   4.541   4.476   3.746
 3259SOL    HW110676   4.582   4.420   3.674
 3259SOL    HW210677   4.594   4.466   3.830
 3260SOL     OW10678   1.324   4.439   1.899
 3260SOL    HW110679   1.331   4.386   1.984
 3260SOL    HW210680   1.237   4.417   1.854
 3261SOL     OW10681   4.710   0.050   3.062
 3261SOL    HW110682   4.744   6.986   3.042
 3261SOL    HW210683   4.786   0.110   3.087
 3262SOL     OW10684   3.082   2.032   2.285
 3262SOL    HW110685   3.024   1.955   2.308
 3262SOL    HW210686   3.025   2.112   2.262
 3263SOL     OW10687   1.412   1.422   2.812
 3263SOL    HW110688   1.461   1.371   2.741
 3263SOL    HW210689   1.440   1.390   2.902
 3264SOL     OW10690   2.223   5.764   0.439
 3264SOL    HW110691   2.144   5.708   0.465
 3264SOL    HW210692   2.198   5.823   0.362
 3265SOL     OW10693   5.431   4.902   5.717
 3265SOL    HW110694   5.522   4.901   5.758
 3265SOL    HW210695   5.437   4.873   5.622
 3266SOL     OW10696   3.145   5.150   6.426
 3266SOL    HW110697   3.071   5.088   6.452
 3266SOL    HW210698   3.231   5.117   6.464
 3267SOL     OW10699   4.211   0.130   0.239
 3267SOL    HW110700   4.257   0.051   0.278
 3267SOL    HW210701   4.274   0.208   0.239
 3268SOL     OW10702   6.693   5.095   1.858
 3268SOL    HW110703   6.691   5.193   1.872
 3268SOL    HW210704   6.694   5.048   1.946
 3269SOL     OW10705   2.033   4.796   2.315
 3269SOL    HW110706   2.017   4.829   2.222
 3269SOL    HW210707   2.088   4.712   2.311
 3270SOL     OW10708   0.628   2.201   5.480
 3270SOL    HW110709   0.542   2.238   5.444
 3270SOL    HW210710   0.690   2.276   5.502
 3271SOL     OW10711   0.689   3.889   2.644
 3271SOL    HW110712   0.652   3.923   2.730
 3271SOL    HW210713   0.783   3.858   2.659
 3272SOL     OW10714   4.590   6.566   0.350
 3272SOL    HW110715   4.654   6.579   0.275
 3272SOL    HW210716   4.571   6.469   0.361
 3273SOL     OW10717   4.753   2.757   7.003
 3273SOL    HW110718   4.690   2.746   6.926
 3273SOL    HW210719   4.724   2.698   0.050
 3274SOL     OW10720   5.413   0.598   6.818
 3274SOL    HW110721   5.442   0.550   6.901
 3274SOL    HW210722   5.325   0.644   6.835
 3275SOL     OW10723   4.897   0.174   1.373
 3275SOL    HW110724   4.820   0.232   1.347
 3275SOL    HW210725   4.897   0.160   1.472
 3276SOL     OW10726   4.998   6.824   0.009
 3276SOL    HW110727   4.902   6.803   7.015
 3276SOL    HW210728   5.051   6.828   6.952
 3277SOL     OW10729   3.332   1.820   2.259
 3277SOL    HW110730   3.296   1.839   2.168
 3277SOL    HW210731   3.357   1.906   2.303
 3278SOL     OW10732   6.592   0.151   6.951
 3278SOL    HW110733   6.639   0.220   6.897
 3278SOL    HW210734   6.659   0.099   7.005
 3279SOL     OW10735   3.816   6.821   0.860
 3279SOL    HW110736   3.822   6.885   0.936
 3279SOL    HW210737   3.820   6.727   0.895
 3280SOL     OW10738   5.334   3.567   4.690
 3280SOL    HW110739   5.279   3.489   4.721
 3280SOL    HW210740   5.378   3.609   4.769
 3281SOL     OW10741   5.981   3.564   1.774
 3281SOL    HW110742   6.025   3.640   1.725
 3281SOL    HW210743   6.025   3.478   1.750
 3282SOL     OW10744   0.334   4.329   4.903
 3282SOL    HW110745   0.371   4.251   4.852
 3282SOL    HW210746   0.234   4.327   4.899
 3283SOL     OW10747   3.925   1.383   1.124
 3283SOL    HW110748   3.868   1.369   1.043
 3283SOL    HW210749   3.998   1.448   1.103
 3284SOL     OW10750   1.336   5.547   4.817
 3284SOL    HW110751   1.337   5.584   4.910
 3284SOL    HW210752   1.369   5.616   4.753
 3285SOL     OW10753   4.949   1.300   4.739
 3285SOL    HW110754   4.879   1.242   4.781
 3285SOL    HW210755   5.038   1.253   4.744
 3286SOL     OW10756   3.185   1.430   1.468
 3286SOL    HW110757   3.178   1.375   1.384
 3286SOL    HW210758   3.279   1.463   1.477
 3287SOL     OW10759   2.419   0.248   6.834
 3287SOL    HW110760   2.338   0.233   6.891
 3287SOL    HW210761   2.391   0.260   6.739
 3288SOL     OW10762   1.812   6.755   1.420
 3288SOL    HW110763   1.783   6.684   1.356
 3288SOL    HW210764   1.760   6.839   1.403
 3289SOL     OW10765   3.962   1.858   6.815
 3289SOL    HW110766   3.881   1.799   6.816
 3289SOL    HW210767   3.941   1.944   6.770
 3290SOL     OW10768   6.489   4.779   0.796
 3290SOL    HW110769   6.411   4.762   0.736
 3290SOL    HW210770   6.472   4.861   0.851
 3291SOL     OW10771   4.879   6.794   5.377
 3291SOL    HW110772   4.975   6.775   5.398
 3291SOL    HW210773   4.870   6.889   5.347
 3292SOL     OW10774   0.121   1.983   1.449
 3292SOL    HW110775   0.156   2.016   1.361
 3292SOL    HW210776   0.044   2.039   1.478
 3293SOL     OW10777   6.387   5.194   3.220
 3293SOL    HW110778   6.484   5.219   3.217
 3293SOL    HW210779   6.376   5.100   3.186
 3294SOL     OW10780   4.927   2.702   5.071
 3294SOL    HW110781   4.861   2.776   5.058
 3294SOL    HW210782   4.922   2.640   4.992
 3295SOL     OW10783   1.549   2.959   2.042
 3295SOL    HW110784   1.565   3.058   2.039
 3295SOL    HW210785   1.566   2.925   2.134
 3296SOL     OW10786   1.431   6.867   6.266
 3296SOL    HW110787   1.511   6.840   6.320
 3296SOL    HW210788   1.365   6.914   6.324
 3297SOL     OW10789   3.141   1.922   4.742
 3297SOL    HW110790   3.053   1.926   4.789
 3297SOL    HW210791   3.175   1.828   4.743
 3298SOL     OW10792   5.526   4.348   5.561
 3298SOL    HW110793   5.625   4.364   5.564
 3298SOL    HW210794   5.506   4.259   5.601
 3299SOL     OW10795   3.070   4.905   4.580
 3299SOL    HW110796   2.995   4.851   4.620
 3299SOL    HW210797   3.094   4.980   4.642
 3300SOL     OW10798   2.144   6.982   4.868
 3300SOL    HW110799   2.105   7.023   4.786
 3300SOL    HW210800   2.142   0.020   4.943
 3301SOL     OW10801   2.056   2.411   3.369
 3301SOL    HW110802   2.013   2.325   3.342
 3301SOL    HW210803   2.081   2.463   3.287
 3302SOL     OW10804   2.541   4.841   6.159
 3302SOL    HW110805   2.534   4.741   6.152
 3302SOL    HW210806   2.450   4.881   6.152
 3303SOL     OW10807   3.418   3.397   0.725
 3303SOL    HW110808   3.423   3.402   0.825
 3303SOL    HW210809   3.322   3.391   0.697
 3304SOL     OW10810   2.741   4.911   5.977
 3304SOL    HW110811   2.825   4.884   6.023
 3304SOL    HW210812   2.662   4.883   6.032
 3305SOL     OW10813   3.470   1.303   0.894
 3305SOL    HW110814   3.520   1.312   0.807
 3305SOL    HW210815   3.398   1.234   0.885
 3306SOL     OW10816   1.750   0.681   6.927
 3306SOL    HW110817   1.801   0.624   6.990
 3306SOL    HW210818   1.677   0.628   6.884
 3307SOL     OW10819   1.483   0.126   4.842
 3307SOL    HW110820   1.485   0.180   4.926
 3307SOL    HW210821   1.388   0.100   4.822
 3308SOL     OW10822   3.589   4.455   1.139
 3308SOL    HW110823   3.496   4.464   1.173
 3308SOL    HW210824   3.652   4.504   1.199
 3309SOL     OW10825   5.604   3.823   3.385
 3309SOL    HW110826   5.585   3.730   3.354
 3309SOL    HW210827   5.600   3.886   3.308
 3310SOL     OW10828   6.728   5.446   5.722
 3310SOL    HW110829   6.732   5.508   5.644
 3310SOL    HW210830   6.802   5.379   5.716
 3311SOL     OW10831   3.535   3.741   0.309
 3311SOL    HW110832   3.578   3.729   0.399
 3311SOL    HW210833   3.482   3.826   0.309
 3312SOL     OW10834   4.945   2.358   5.907
 3312SOL    HW110835   4.980   2.358   5.813
 3312SOL    HW210836   4.864   2.416   5.912
 3313SOL     OW10837   1.359   0.760   3.461
 3313SOL    HW110838   1.261   0.741   3.469
 3313SOL    HW210839   1.407   0.676   3.435
 3314SOL     OW10840   1.939   5.966   2.531
 3314SOL    HW110841   1.944   5.877   2.484
 3314SOL    HW210842   2.030   5.990   2.565
 3315SOL     OW10843   6.970   4.609   5.440
 3315SOL    HW110844   6.961   4.512   5.416
 3315SOL    HW210845   0.012   4.620   5.510
 3316SOL     OW10846   3.444   1.662   6.109
 3316SOL    HW110847   3.346   1.682   6.097
 3316SOL    HW210848   3.490   1.742   6.146
 3317SOL     OW10849   5.594   2.410   2.819
 3317SOL    HW110850   5.531   2.486   2.808
 3317SOL    HW210851   5.544   2.323   2.810
 3318SOL     OW10852   3.026   2.175   0.456
 3318SOL    HW110853   3.040   2.268   0.491
 3318SOL    HW210854   3.093   2.157   0.384
 3319SOL     OW10855   6.897   6.521   3.290
 3319SOL    HW110856   6.798   6.509   3.285
 3319SOL    HW210857   6.930   6.491   3.379
 3320SOL     OW10858   6.111   0.061   1.019
 3320SOL    HW110859   6.174   0.039   0.945
 3320SOL    HW210860   6.022   0.086   0.980
 3321SOL     OW10861   5.249   1.718   6.902
 3321SOL    HW110862   5.333   1.748   6.949
 3321SOL    HW210863   5.170   1.763   6.944
 3322SOL     OW10864   6.796   3.927   1.297
 3322SOL    HW110865   6.824   4.017   1.329
 3322SOL    HW210866   6.833   3.857   1.358
 3323SOL     OW10867   1.679   1.528   2.098
 3323SOL    HW110868   1.747   1.564   2.034
 3323SOL    HW210869   1.631   1.604   2.142
 3324SOL     OW10870   5.152   5.617   5.696
 3324SOL    HW110871   5.119   5.711   5.698
 3324SOL    HW210872   5.080   5.557   5.660
 3325SOL     OW10873   1.608   3.719   6.869
 3325SOL    HW110874   1.592   3.623   6.892
 3325SOL    HW210875   1.691   3.751   6.914
 3326SOL     OW10876   5.104   1.585   2.766
 3326SOL    HW110877   5.039   1.661   2.776
 3326SOL    HW210878   5.067   1.518   2.702
 3327SOL     OW10879   1.431   5.843   1.558
 3327SOL    HW110880   1.432   5.936   1.593
 3327SOL    HW210881   1.484   5.783   1.619
 3328SOL     OW10882   4.413   2.258   0.730
 3328SOL    HW110883   4.362   2.316   0.794
 3328SOL    HW210884   4.407   2.297   0.638
 3329SOL     OW10885   5.906   5.570   5.773
 3329SOL    HW110886   5.933   5.666   5.778
 3329SOL    HW210887   5.811   5.561   5.804
 3330SOL     OW10888   6.139   3.257   2.378
 3330SOL    HW110889   6.193   3.268   2.295
 3330SOL    HW210890   6.181   3.308   2.452
 3331SOL     OW10891   2.018   2.538   1.531
 3331SOL    HW110892   1.983   2.560   1.622
 3331SOL    HW210893   2.099   2.480   1.540
 3332SOL     OW10894   6.048   4.590   0.636
 3332SOL    HW110895   5.952   4.578   0.610
 3332SOL    HW210896   6.106   4.541   0.571
 3333SOL     OW10897   4.321   5.126   5.767
 3333SOL    HW110898   4.250   5.128   5.697
 3333SOL    HW210899   4.352   5.031   5.779
 3334SOL     OW10900   2.510   4.241   1.825
 3334SOL    HW110901   2.537   4.175   1.755
 3334SOL    HW210902   2.419   4.218   1.860
 3335SOL     OW10903   5.189   4.456   5.704
 3335SOL    HW110904   5.113   4.480   5.765
 3335SOL    HW210905   5.158   4.389   5.637
 3336SOL     OW10906   3.836   5.042   6.052
 3336SOL    HW110907   3.791   4.953   6.063
 3336SOL    HW210908   3.767   5.115   6.062
 3337SOL     OW10909   3.620   2.689   1.322
 3337SOL    HW110910   3.571   2.608   1.356
 3337SOL    HW210911   3.599   2.767   1.381
 3338SOL     OW10912   0.365   4.290   0.785
 3338SOL    HW110913   0.323   4.201   0.767
 3338SOL    HW210914   0.434   4.280   0.857
 3339SOL     OW10915   6.686   5.701   6.414
 3339SOL    HW110916   6.611   5.717   6.477
 3339SOL    HW210917   6.746   5.629   6.450
 3340SOL     OW10918   3.426   6.285   1.911
 3340SOL    HW110919   3.429   6.186   1.896
 3340SOL    HW210920   3.331   6.316   1.918
 3341SOL     OW10921   0.944   1.095   2.873
 3341SOL    HW110922   0.940   1.147   2.788
 3341SOL    HW210923   1.014   1.134   2.933
 3342SOL     OW10924   2.004   6.752   3.809
 3342SOL    HW110925   2.051   6.827   3.763
 3342SOL    HW210926   2.032   6.665   3.769
 3343SOL     OW10927   5.087   3.096   0.812
 3343SOL    HW110928   5.174   3.071   0.769
 3343SOL    HW210929   5.032   3.014   0.827
 3344SOL     OW10930   6.399   3.436   6.203
 3344SOL    HW110931   6.410   3.336   6.203
 3344SOL    HW210932   6.302   3.459   6.195
 3345SOL     OW10933   2.784   3.142   6.081
 3345SOL    HW110934   2.715   3.138   6.009
 3345SOL    HW210935   2.835   3.227   6.075
 3346SOL     OW10936   0.207   0.120   1.505
 3346SOL    HW110937   0.297   0.103   1.464
 3346SOL    HW210938   0.211   0.201   1.563
 3347SOL     OW10939   5.756   3.797   4.739
 3347SOL    HW110940   5.851   3.783   4.711
 3347SOL    HW210941   5.706   3.711   4.734
 3348SOL     OW10942   3.733   2.961   4.068
 3348SOL    HW110943   3.831   2.950   4.080
 3348SOL    HW210944   3.686   2.939   4.153
 3349SOL     OW10945   6.261   3.727   4.302
 3349SOL    HW110946   6.209   3.793   4.247
 3349SOL    HW210947   6.351   3.713   4.262
 3350SOL     OW10948   1.692   1.001   0.895
 3350SOL    HW110949   1.602   1.011   0.938
 3350SOL    HW210950   1.732   1.092   0.879
 3351SOL     OW10951   5.218   1.687   1.388
 3351SOL    HW110952   5.141   1.748   1.406
 3351SOL    HW210953   5.304   1.736   1.408
 3352SOL     OW10954   0.739   3.387   0.522
 3352SOL    HW110955   0.808   3.453   0.554
 3352SOL    HW210956   0.655   3.400   0.575
 3353SOL     OW10957   2.331   0.160   6.578
 3353SOL    HW110958   2.344   0.069   6.540
 3353SOL    HW210959   2.236   0.171   6.608
 3354SOL     OW10960   0.256   2.854   3.779
 3354SOL    HW110961   0.255   2.764   3.737
 3354SOL    HW210962   0.184   2.859   3.848
 3355SOL     OW10963   6.767   1.069   2.016
 3355SOL    HW110964   6.781   1.133   2.092
 3355SOL    HW210965   6.674   1.079   1.982
 3356SOL     OW10966   2.972   3.849   0.158
 3356SOL    HW110967   2.944   3.763   0.115
 3356SOL    HW210968   3.052   3.833   0.216
 3357SOL     OW10969   3.049   5.313   1.971
 3357SOL    HW110970   2.953   5.337   1.987
 3357SOL    HW210971   3.108   5.374   2.024
 3358SOL     OW10972   5.182   6.038   2.725
 3358SOL    HW110973   5.171   5.952   2.775
 3358SOL    HW210974   5.092   6.076   2.704
 3359SOL     OW10975   2.046   0.204   2.707
 3359SOL    HW110976   2.056   0.263   2.787
 3359SOL    HW210977   1.949   0.189   2.689
 3360SOL     OW10978   0.728   0.598   0.056
 3360SOL    HW110979   0.658   0.635   7.023
 3360SOL    HW210980   0.723   0.644   0.145
 3361SOL     OW10981   6.003   6.212   3.052
 3361SOL    HW110982   5.926   6.267   3.019
 3361SOL    HW210983   6.036   6.154   2.977
 3362SOL     OW10984   2.217   1.328   5.230
 3362SOL    HW110985   2.187   1.233   5.224
 3362SOL    HW210986   2.304   1.338   5.181
 3363SOL     OW10987   6.930   1.903   0.100
 3363SOL    HW110988   6.977   1.952   0.026
 3363SOL    HW210989   6.847   1.862   0.063
 3364SOL     OW10990   1.930   5.329   6.115
 3364SOL    HW110991   1.901   5.235   6.099
 3364SOL    HW210992   1.931   5.347   6.214
 3365SOL     OW10993   6.061   2.572   4.705
 3365SOL    HW110994   6.060   2.635   4.628
 3365SOL    HW210995   6.007   2.491   4.683
 3366SOL     OW10996   5.321   0.726   5.723
 3366SOL    HW110997   5.241   0.774   5.687
 3366SOL    HW210998   5.331   0.748   5.820
 3367SOL     OW10999   1.620   1.686   2.858
 3367SOL    HW111000   1.553   1.719   2.925
 3367SOL    HW211001   1.573   1.631   2.789
 3368SOL     OW11002   6.258   5.827   6.228
 3368SOL    HW111003   6.347   5.869   6.247
 3368SOL    HW211004   6.267   5.763   6.152
 3369SOL     OW11005   4.069   0.358   0.184
 3369SOL    HW111006   4.132   0.434   0.195
 3369SOL    HW211007   4.112   0.274   0.218
 3370SOL     OW11008   6.156   6.704   5.182
 3370SOL    HW111009   6.232   6.656   5.225
 3370SOL    HW211010   6.190   6.785   5.133
 3371SOL     OW11011   0.655   5.325   2.460
 3371SOL    HW111012   0.702   5.392   2.404
 3371SOL    HW211013   0.698   5.235   2.448
 3372SOL     OW11014   1.243   0.377   2.802
 3372SOL    HW111015   1.209   0.351   2.712
 3372SOL    HW211016   1.232   0.475   2.815
 3373SOL     OW11017   6.673   2.185   5.065
 3373SOL    HW111018   6.652   2.098   5.020
 3373SOL    HW211019   6.691   2.255   4.995
 3374SOL     OW11020   2.827   5.291   5.990
 3374SOL    HW111021   2.774   5.255   5.914
 3374SOL    HW211022   2.923   5.266   5.978
 3375SOL     OW11023   4.880   4.564   5.365
 3375SOL    HW111024   4.949   4.609   5.422
 3375SOL    HW211025   4.800   4.542   5.420
 3376SOL     OW11026   3.148   3.369   2.294
 3376SOL    HW111027   3.178   3.444   2.235
 3376SOL    HW211028   3.204   3.367   2.377
 3377SOL     OW11029   1.444   6.639   5.241
 3377SOL    HW111030   1.363   6.672   5.291
 3377SOL    HW211031   1.509   6.714   5.230
 3378SOL     OW11032   0.093   1.469   1.098
 3378SOL    HW111033   0.006   1.508   1.066
 3378SOL    HW211034   0.115   1.507   1.187
 3379SOL     OW11035   0.365   4.405   5.807
 3379SOL    HW111036   0.302   4.348   5.755
 3379SOL    HW211037   0.454   4.360   5.815
 3380SOL     OW11038   6.719   4.323   6.671
 3380SOL    HW111039   6.778   4.362   6.600
 3380SOL    HW211040   6.720   4.383   6.752
 3381SOL     OW11041   3.072   2.392   0.623
 3381SOL    HW111042   3.129   2.471   0.602
 3381SOL    HW211043   2.989   2.421   0.671
 3382SOL     OW11044   0.237   1.748   1.120
 3382SOL    HW111045   0.304   1.683   1.084
 3382SOL    HW211046   0.167   1.765   1.051
 3383SOL     OW11047   5.961   5.000   2.554
 3383SOL    HW111048   5.924   5.089   2.525
 3383SOL    HW211049   5.890   4.949   2.602
 3384SOL     OW11050   3.570   2.898   4.298
 3384SOL    HW111051   3.491   2.836   4.298
 3384SOL    HW211052   3.596   2.918   4.393
 3385SOL     OW11053   6.392   3.901   3.865
 3385SOL    HW111054   6.481   3.940   3.887
 3385SOL    HW211055   6.357   3.849   3.944
 3386SOL     OW11056   6.045   4.499   5.009
 3386SOL    HW111057   6.000   4.555   5.078
 3386SOL    HW211058   6.128   4.458   5.048
 3387SOL     OW11059   2.264   1.844   3.197
 3387SOL    HW111060   2.316   1.861   3.114
 3387SOL    HW211061   2.218   1.928   3.226
 3388SOL     OW11062   5.443   1.821   1.424
 3388SOL    HW111063   5.398   1.905   1.453
 3388SOL    HW211064   5.515   1.842   1.357
 3389SOL     OW11065   4.865   4.562   3.373
 3389SOL    HW111066   4.786   4.619   3.395
 3389SOL    HW211067   4.848   4.468   3.404
 3390SOL     OW11068   5.001   3.059   5.431
 3390SOL    HW111069   4.913   3.105   5.423
 3390SOL    HW211070   4.991   2.963   5.405
 3391SOL     OW11071   3.746   1.914   5.001
 3391SOL    HW111072   3.669   1.968   5.034
 3391SOL    HW211073   3.815   1.975   4.961
 3392SOL     OW11074   2.952   0.563   3.926
 3392SOL    HW111075   2.933   0.592   4.020
 3392SOL    HW211076   2.993   0.638   3.875
 3393SOL     OW11077   6.461   6.627   6.440
 3393SOL    HW111078   6.560   6.625   6.422
 3393SOL    HW211079   6.443   6.682   6.521
 3394SOL     OW11080   6.119   2.505   1.397
 3394SOL    HW111081   6.170   2.451   1.464
 3394SOL    HW211082   6.033   2.535   1.436
 3395SOL     OW11083   1.016   2.949   4.422
 3395SOL    HW111084   0.928   2.916   4.455
 3395SOL    HW211085   1.059   3.006   4.493
 3396SOL     OW11086   0.037   3.865   4.031
 3396SOL    HW111087   7.019   3.801   4.094
 3396SOL    HW211088   0.084   3.814   3.960
 3397SOL     OW11089   3.563   6.173   5.953
 3397SOL    HW111090   3.464   6.158   5.962
 3397SOL    HW211091   3.596   6.128   5.870
 3398SOL     OW11092   1.225   0.141   4.176
 3398SOL    HW111093   1.302   0.109   4.122
 3398SOL    HW211094   1.155   0.180   4.116
 3399SOL     OW11095   5.147   5.069   3.716
 3399SOL    HW111096   5.200   5.154   3.722
 3399SOL    HW211097   5.051   5.089   3.731
 3400SOL     OW11098   4.922   2.432   6.849
 3400SOL    HW111099   4.836   2.421   6.801
 3400SOL    HW211100   4.946   2.347   6.896
 3401SOL     OW11101   5.936   4.193   0.631
 3401SOL    HW111102   6.009   4.173   0.696
 3401SOL    HW211103   5.973   4.242   0.552
 3402SOL     OW11104   5.123   5.632   1.197
 3402SOL    HW111105   5.165   5.719   1.221
 3402SOL    HW211106   5.037   5.620   1.248
 3403SOL     OW11107   3.597   0.642   4.875
 3403SOL    HW111108   3.695   0.660   4.862
 3403SOL    HW211109   3.544   0.703   4.817
 3404SOL     OW11110   5.020   1.285   0.998
 3404SOL    HW111111   5.102   1.341   0.987
 3404SOL    HW211112   4.997   1.242   0.911
 3405SOL     OW11113   6.399   3.919   6.664
 3405SOL    HW111114   6.489   3.960   6.679
 3405SOL    HW211115   6.346   3.922   6.749
 3406SOL     OW11116   2.114   3.863   2.343
 3406SOL    HW111117   2.147   3.922   2.270
 3406SOL    HW211118   2.117   3.768   2.313
 3407SOL     OW11119   1.185   5.545   2.006
 3407SOL    HW111120   1.220   5.615   2.068
 3407SOL    HW211121   1.085   5.552   2.001
 3408SOL     OW11122   5.215   4.473   2.052
 3408SOL    HW111123   5.124   4.510   2.037
 3408SOL    HW211124   5.212   4.373   2.045
 3409SOL     OW11125   3.599   0.214   5.851
 3409SOL    HW111126   3.506   0.239   5.879
 3409SOL    HW211127   3.596   0.130   5.796
 3410SOL     OW11128   6.512   6.503   0.120
 3410SOL    HW111129   6.466   6.574   0.066
 3410SOL    HW211130   6.518   6.419   0.066
 3411SOL     OW11131   4.487   1.797   2.551
 3411SOL    HW111132   4.547   1.719   2.534
 3411SOL    HW211133   4.494   1.824   2.647
 3412SOL     OW11134   3.805   3.812   6.962
 3412SOL    HW111135   3.881   3.875   6.945
 3412SOL    HW211136   3.729   3.833   6.900
 3413SOL     OW11137   4.014   1.370   3.417
 3413SOL    HW111138   3.930   1.326   3.449
 3413SOL    HW211139   4.033   1.342   3.323
 3414SOL     OW11140   2.971   2.393   5.354
 3414SOL    HW111141   2.915   2.327   5.304
 3414SOL    HW211142   3.057   2.408   5.304
 3415SOL     OW11143   0.244   4.717   4.385
 3415SOL    HW111144   0.263   4.638   4.443
 3415SOL    HW211145   0.329   4.751   4.346
 3416SOL     OW11146   0.637   4.787   5.386
 3416SOL    HW111147   0.568   4.816   5.320
 3416SOL    HW211148   0.705   4.730   5.341
 3417SOL     OW11149   0.008   6.757   2.537
 3417SOL    HW111150   0.053   6.672   2.565
 3417SOL    HW211151   0.063   6.835   2.567
 3418SOL     OW11152   2.498   1.231   5.326
 3418SOL    HW111153   2.449   1.224   5.413
 3418SOL    HW211154   2.434   1.213   5.251
 3419SOL     OW11155   4.166   4.668   6.813
 3419SOL    HW111156   4.110   4.686   6.894
 3419SOL    HW211157   4.163   4.747   6.752
 3420SOL     OW11158   4.423   2.280   3.876
 3420SOL    HW111159   4.358   2.326   3.936
 3420SOL    HW211160   4.372   2.224   3.809
 3421SOL     OW11161   6.952   6.221   5.707
 3421SOL    HW111162   6.969   6.191   5.801
 3421SOL    HW211163   6.929   6.142   5.651
 3422SOL     OW11164   3.704   0.647   1.871
 3422SOL    HW111165   3.619   0.609   1.833
 3422SOL    HW211166   3.769   0.572   1.885
 3423SOL     OW11167   2.422   1.040   0.895
 3423SOL    HW111168   2.403   1.107   0.824
 3423SOL    HW211169   2.518   1.048   0.923
 3424SOL     OW11170   4.256   1.145   2.628
 3424SOL    HW111171   4.174   1.098   2.658
 3424SOL    HW211172   4.330   1.078   2.614
 3425SOL     OW11173   4.772   4.199   2.142
 3425SOL    HW111174   4.691   4.225   2.090
 3425SOL    HW211175   4.832   4.278   2.154
 3426SOL     OW11176   4.213   3.569   0.448
 3426SOL    HW111177   4.119   3.596   0.427
 3426SOL    HW211178   4.236   3.598   0.541
 3427SOL     OW11179   6.735   0.916   0.477
 3427SOL    HW111180   6.648   0.941   0.433
 3427SOL    HW211181   6.800   0.886   0.407
 3428SOL     OW11182   4.103   4.807   2.546
 3428SOL    HW111183   4.136   4.769   2.459
 3428SOL    HW211184   4.020   4.860   2.529
 3429SOL     OW11185   1.029   3.354   0.691
 3429SOL    HW111186   1.122   3.353   0.726
 3429SOL    HW211187   0.984   3.267   0.711
 3430SOL     OW11188   1.616   6.924   0.649
 3430SOL    HW111189   1.586   6.839   0.607
 3430SOL    HW211190   1.537   6.984   0.663
 3431SOL     OW11191   1.581   6.271   1.407
 3431SOL    HW111192   1.495   6.254   1.358
 3431SOL    HW211193   1.560   6.305   1.499
 3432SOL     OW11194   3.632   1.355   5.676
 3432SOL    HW111195   3.649   1.271   5.625
 3432SOL    HW211196   3.537   1.383   5.663
 3433SOL     OW11197   3.618   1.133   5.379
 3433SOL    HW111198   3.543   1.166   5.435
 3433SOL    HW211199   3.630   1.194   5.300
 3434SOL     OW11200   4.477   2.548   1.626
 3434SOL    HW111201   4.500   2.560   1.722
 3434SOL    HW211202   4.548   2.493   1.581
 3435SOL     OW11203   7.005   2.393   2.308
 3435SOL    HW111204   0.037   2.473   2.312
 3435SOL    HW211205   7.017   2.347   2.220
 3436SOL     OW11206   4.611   0.051   4.997
 3436SOL    HW111207   4.541   0.122   4.989
 3436SOL    HW211208   4.673   0.055   4.918
 3437SOL     OW11209   4.344   0.177   5.095
 3437SOL    HW111210   4.302   0.092   5.125
 3437SOL    HW211211   4.285   0.221   5.027
 3438SOL     OW11212   1.754   2.575   6.506
 3438SOL    HW111213   1.795   2.662   6.533
 3438SOL    HW211214   1.774   2.557   6.409
 3439SOL     OW11215   2.744   6.627   4.822
 3439SOL    HW111216   2.828   6.594   4.866
 3439SOL    HW211217   2.745   6.727   4.818
 3440SOL     OW11218   4.703   3.182   1.219
 3440SOL    HW111219   4.735   3.191   1.125
 3440SOL    HW211220   4.633   3.111   1.224
 3441SOL     OW11221   3.529   6.719   4.202
 3441SOL    HW111222   3.606   6.781   4.219
 3441SOL    HW211223   3.545   6.633   4.250
 3442SOL     OW11224   1.866   5.014   3.557
 3442SOL    HW111225   1.817   5.100   3.571
 3442SOL    HW211226   1.949   5.013   3.613
 3443SOL     OW11227   5.871   1.833   2.693
 3443SOL    HW111228   5.904   1.874   2.609
 3443SOL    HW211229   5.799   1.767   2.672
 3444SOL     OW11230   5.003   5.324   6.711
 3444SOL    HW111231   4.923   5.292   6.659
 3444SOL    HW211232   4.988   5.306   6.808
 3445SOL     OW11233   6.195   4.648   3.810
 3445SOL    HW111234   6.292   4.674   3.821
 3445SOL    HW211235   6.144   4.681   3.889
 3446SOL     OW11236   4.300   0.142   3.031
 3446SOL    HW111237   4.242   0.213   3.071
 3446SOL    HW211238   4.243   0.076   2.982
 3447SOL     OW11239   5.993   5.932   0.290
 3447SOL    HW111240   6.003   5.864   0.217
 3447SOL    HW211241   6.063   5.916   0.360
 3448SOL     OW11242   3.240   0.816   1.223
 3448SOL    HW111243   3.230   0.810   1.322
 3448SOL    HW211244   3.197   0.900   1.189
 3449SOL     OW11245   7.020   0.008   2.021
 3449SOL    HW111246   6.971   0.089   2.053
 3449SOL    HW211247   7.003   7.022   1.924
 3450SOL     OW11248   1.143   1.891   1.796
 3450SOL    HW111249   1.221   1.849   1.842
 3450SOL    HW211250   1.120   1.977   1.841
 3451SOL     OW11251   1.410   5.646   4.047
 3451SOL    HW111252   1.394   5.658   3.949
 3451SOL    HW211253   1.341   5.697   4.098
 3452SOL     OW11254   6.656   0.977   6.641
 3452SOL    HW111255   6.750   0.961   6.610
 3452SOL    HW211256   6.614   0.890   6.665
 3453SOL     OW11257   5.273   5.531   4.932
 3453SOL    HW111258   5.330   5.480   4.867
 3453SOL    HW211259   5.185   5.484   4.943
 3454SOL     OW11260   1.440   1.516   1.233
 3454SOL    HW111261   1.443   1.455   1.154
 3454SOL    HW211262   1.351   1.562   1.236
 3455SOL     OW11263   1.524   2.958   4.308
 3455SOL    HW111264   1.490   2.986   4.219
 3455SOL    HW211265   1.604   2.900   4.297
 3456SOL     OW11266   5.845   6.637   1.639
 3456SOL    HW111267   5.889   6.675   1.720
 3456SOL    HW211268   5.751   6.611   1.661
 3457SOL     OW11269   2.589   4.981   3.652
 3457SOL    HW111270   2.583   4.969   3.553
 3457SOL    HW211271   2.673   5.031   3.674
 3458SOL     OW11272   5.898   6.784   0.149
 3458SOL    HW111273   5.798   6.782   0.150
 3458SOL    HW211274   5.933   6.757   0.239
 3459SOL     OW11275   0.316   3.954   3.680
 3459SOL    HW111276   0.362   3.966   3.768
 3459SOL    HW211277   0.331   4.034   3.624
 3460SOL     OW11278   3.298   2.660   0.163
 3460SOL    HW111279   3.249   2.724   0.104
 3460SOL    HW211280   3.389   2.643   0.124
 3461SOL     OW11281   3.759   5.617   4.392
 3461SOL    HW111282   3.684   5.567   4.437
 3461SOL    HW211283   3.816   5.552   4.342
 3462SOL     OW11284   5.634   3.106   3.046
 3462SOL    HW111285   5.645   3.145   2.955
 3462SOL    HW211286   5.559   3.152   3.093
 3463SOL     OW11287   1.769   3.183   1.983
 3463SOL    HW111288   1.836   3.257   1.991
 3463SOL    HW211289   1.719   3.193   1.897
 3464SOL     OW11290   5.138   3.114   6.445
 3464SOL    HW111291   5.112   3.025   6.408
 3464SOL    HW211292   5.202   3.159   6.382
 3465SOL     OW11293   2.174   3.785   1.970
 3465SOL    HW111294   2.185   3.688   1.991
 3465SOL    HW211295   2.202   3.839   2.049
 3466SOL     OW11296   5.496   4.529   5.309
 3466SOL    HW111297   5.440   4.482   5.241
 3466SOL    HW211298   5.529   4.464   5.377
 3467SOL     OW11299   3.145   2.139   0.747
 3467SOL    HW111300   3.155   2.205   0.672
 3467SOL    HW211301   3.069   2.167   0.805
 3468SOL     OW11302   4.574   1.397   1.232
 3468SOL    HW111303   4.565   1.362   1.326
 3468SOL    HW211304   4.643   1.345   1.183
 3469SOL     OW11305   4.345   6.911   5.975
 3469SOL    HW111306   4.354   6.812   5.991
 3469SOL    HW211307   4.431   6.947   5.938
 3470SOL     OW11308   0.228   2.590   1.044
 3470SOL    HW111309   0.190   2.526   0.977
 3470SOL    HW211310   0.249   2.541   1.128
 3471SOL     OW11311   4.461   4.580   3.155
 3471SOL    HW111312   4.525   4.517   3.199
 3471SOL    HW211313   4.440   4.547   3.063
 3472SOL     OW11314   4.276   2.352   3.093
 3472SOL    HW111315   4.301   2.430   3.150
 3472SOL    HW211316   4.215   2.291   3.143
 3473SOL     OW11317   0.061   3.402   3.915
 3473SOL    HW111318   0.103   3.458   3.986
 3473SOL    HW211319   0.024   3.461   3.843
 3474SOL     OW11320   0.242   4.253   4.341
 3474SOL    HW111321   0.261   4.171   4.287
 3474SOL    HW211322   0.144   4.257   4.361
 3475SOL     OW11323   6.602   4.377   4.571
 3475SOL    HW111324   6.584   4.415   4.480
 3475SOL    HW211325   6.529   4.405   4.634
 3476SOL     OW11326   1.911   1.927   3.531
 3476SOL    HW111327   1.897   1.841   3.581
 3476SOL    HW211328   2.007   1.934   3.506
 3477SOL     OW11329   0.126   3.919   1.565
 3477SOL    HW111330   0.119   3.941   1.468
 3477SOL    HW211331   0.056   3.853   1.589
 3478SOL     OW11332   2.342   0.248   0.270
 3478SOL    HW111333   2.246   0.261   0.246
 3478SOL    HW211334   2.399   0.295   0.203
 3479SOL     OW11335   0.648   3.235   3.551
 3479SOL    HW111336   0.680   3.146   3.582
 3479SOL    HW211337   0.549   3.243   3.568
 3480SOL     OW11338   1.649   5.835   6.510
 3480SOL    HW111339   1.676   5.842   6.606
 3480SOL    HW211340   1.553   5.807   6.504
 3481SOL     OW11341   5.479   0.548   0.055
 3481SOL    HW111342   5.423   0.491   0.115
 3481SOL    HW211343   5.463   0.644   0.075
 3482SOL     OW11344   5.916   2.611   4.293
 3482SOL    HW111345   5.889   2.696   4.247
 3482SOL    HW211346   5.880   2.611   4.386
 3483SOL     OW11347   4.672   2.532   3.177
 3483SOL    HW111348   4.759   2.488   3.198
 3483SOL    HW211349   4.606   2.512   3.250
 3484SOL     OW11350   1.775   3.625   6.378
 3484SOL    HW111351   1.728   3.537   6.384
 3484SOL    HW211352   1.716   3.696   6.417
 3485SOL     OW11353   6.690   1.736   5.076
 3485SOL    HW111354   6.633   1.692   5.145
 3485SOL    HW211355   6.736   1.815   5.116
 3486SOL     OW11356   1.836   6.791   4.678
 3486SOL    HW111357   1.753   6.781   4.733
 3486SOL    HW211358   1.910   6.738   4.718
 3487SOL     OW11359   5.893   1.498   6.618
 3487SOL    HW111360   5.863   1.472   6.526
 3487SOL    HW211361   5.924   1.417   6.667
 3488SOL     OW11362   5.277   0.378   4.943
 3488SOL    HW111363   5.292   0.463   4.893
 3488SOL    HW211364   5.300   0.300   4.885
 3489SOL     OW11365   3.051   6.723   1.225
 3489SOL    HW111366   3.055   6.787   1.147
 3489SOL    HW211367   3.142   6.685   1.240
 3490SOL     OW11368   3.888   4.722   0.968
 3490SOL    HW111369   3.891   4.783   1.048
 3490SOL    HW211370   3.912   4.629   0.996
 3491SOL     OW11371   5.338   3.698   0.239
 3491SOL    HW111372   5.365   3.602   0.226
 3491SOL    HW211373   5.281   3.727   0.162
 3492SOL     OW11374   6.557   3.963   2.407
 3492SOL    HW111375   6.491   4.020   2.455
 3492SOL    HW211376   6.642   3.958   2.460
 3493SOL     OW11377   6.460   3.710   4.129
 3493SOL    HW111378   6.442   3.663   4.042
 3493SOL    HW211379   6.558   3.710   4.147
 3494SOL     OW11380   3.097   1.946   2.629
 3494SOL    HW111381   3.111   1.878   2.557
 3494SOL    HW211382   3.046   2.023   2.593
 3495SOL     OW11383   1.325   4.081   2.378
 3495SOL    HW111384   1.235   4.038   2.373
 3495SOL    HW211385   1.326   4.147   2.454
 3496SOL     OW11386   5.895   4.712   0.303
 3496SOL    HW111387   5.972   4.772   0.285
 3496SOL    HW211388   5.855   4.734   0.392
 3497SOL     OW11389   3.592   0.559   3.410
 3497SOL    HW111390   3.664   0.612   3.453
 3497SOL    HW211391   3.620   0.463   3.403
 3498SOL     OW11392   2.388   1.506   2.409
 3498SOL    HW111393   2.420   1.474   2.320
 3498SOL    HW211394   2.291   1.528   2.403
 3499SOL     OW11395   5.912   6.343   5.608
 3499SOL    HW111396   5.957   6.308   5.690
 3499SOL    HW211397   5.912   6.272   5.538
 3500SOL     OW11398   1.459   1.779   4.029
 3500SOL    HW111399   1.543   1.815   4.070
 3500SOL    HW211400   1.444   1.685   4.060
 3501SOL     OW11401   2.450   6.991   6.819
 3501SOL    HW111402   2.544   6.991   6.852
 3501SOL    HW211403   2.412   0.055   6.825
 3502SOL     OW11404   5.674   3.096   1.727
 3502SOL    HW111405   5.574   3.098   1.724
 3502SOL    HW211406   5.705   3.003   1.748
 3503SOL     OW11407   0.180   6.049   5.998
 3503SOL    HW111408   0.275   6.068   5.972
 3503SOL    HW211409   0.154   5.958   5.967
 3504SOL     OW11410   1.540   0.946   2.165
 3504SOL    HW111411   1.532   0.855   2.125
 3504SOL    HW211412   1.593   1.004   2.104
 3505SOL     OW11413   5.540   5.737   5.720
 3505SOL    HW111414   5.565   5.641   5.705
 3505SOL    HW211415   5.566   5.763   5.813
 3506SOL     OW11416   5.751   4.282   4.968
 3506SOL    HW111417   5.776   4.191   4.934
 3506SOL    HW211418   5.799   4.301   5.053
 3507SOL     OW11419   2.533   0.347   0.963
 3507SOL    HW111420   2.582   0.433   0.958
 3507SOL    HW211421   2.468   0.341   0.887
 3508SOL     OW11422   3.187   2.685   5.741
 3508SOL    HW111423   3.097   2.722   5.720
 3508SOL    HW211424   3.183   2.585   5.743
 3509SOL     OW11425   4.742   6.798   0.469
 3509SOL    HW111426   4.711   6.892   0.458
 3509SOL    HW211427   4.688   6.738   0.410
 3510SOL     OW11428   2.338   1.091   1.598
 3510SOL    HW111429   2.306   1.028   1.527
 3510SOL    HW211430   2.431   1.065   1.626
 3511SOL     OW11431   1.978   4.469   1.175
 3511SOL    HW111432   2.033   4.517   1.244
 3511SOL    HW211433   2.011   4.492   1.084
 3512SOL     OW11434   0.708   3.762   0.132
 3512SOL    HW111435   0.673   3.715   0.051
 3512SOL    HW211436   0.726   3.858   0.111
 3513SOL     OW11437   6.613   2.268   1.121
 3513SOL    HW111438   6.607   2.170   1.103
 3513SOL    HW211439   6.566   2.289   1.207
 3514SOL     OW11440   5.331   0.666   2.795
 3514SOL    HW111441   5.377   0.737   2.848
 3514SOL    HW211442   5.373   0.660   2.704
 3515SOL     OW11443   5.700   6.008   3.878
 3515SOL    HW111444   5.780   5.998   3.936
 3515SOL    HW211445   5.647   6.087   3.909
 3516SOL     OW11446   5.003   0.072   1.118
 3516SOL    HW111447   5.040   0.155   1.076
 3516SOL    HW211448   4.975   0.091   1.212
 3517SOL     OW11449   6.986   1.009   1.276
 3517SOL    HW111450   7.009   0.947   1.202
 3517SOL    HW211451   6.919   0.966   1.337
 3518SOL     OW11452   5.895   2.044   4.767
 3518SOL    HW111453   5.808   2.069   4.810
 3518SOL    HW211454   5.909   1.946   4.776
 3519SOL     OW11455   2.722   0.997   6.732
 3519SOL    HW111456   2.723   1.097   6.730
 3519SOL    HW211457   2.800   0.962   6.680
 3520SOL     OW11458   3.479   5.422   5.769
 3520SOL    HW111459   3.496   5.338   5.718
 3520SOL    HW211460   3.497   5.407   5.866
 3521SOL     OW11461   3.371   2.879   6.876
 3521SOL    HW111462   3.468   2.856   6.885
 3521SOL    HW211463   3.358   2.977   6.893
 3522SOL     OW11464   6.545   5.450   6.383
 3522SOL    HW111465   6.545   5.450   6.483
 3522SOL    HW211466   6.541   5.544   6.350
 3523SOL     OW11467   1.018   4.858   5.193
 3523SOL    HW111468   1.085   4.808   5.138
 3523SOL    HW211469   1.049   4.951   5.208
 3524SOL     OW11470   5.620   1.887   2.456
 3524SOL    HW111471   5.573   1.902   2.542
 3524SOL    HW211472   5.686   1.812   2.466
 3525SOL     OW11473   5.958   3.766   3.980
 3525SOL    HW111474   5.998   3.799   4.065
 3525SOL    HW211475   5.859   3.778   3.982
 3526SOL     OW11476   1.296   5.572   3.150
 3526SOL    HW111477   1.269   5.653   3.202
 3526SOL    HW211478   1.220   5.508   3.147
 3527SOL     OW11479   6.161   2.733   6.142
 3527SOL    HW111480   6.150   2.687   6.054
 3527SOL    HW211481   6.100   2.812   6.146
 3528SOL     OW11482   2.397   6.092   4.914
 3528SOL    HW111483   2.484   6.110   4.959
 3528SOL    HW211484   2.412   6.027   4.839
 3529SOL     OW11485   4.293   6.137   6.715
 3529SOL    HW111486   4.301   6.038   6.728
 3529SOL    HW211487   4.224   6.156   6.645
 3530SOL     OW11488   0.099   5.030   1.798
 3530SOL    HW111489   0.192   5.014   1.831
 3530SOL    HW211490   0.069   5.121   1.827
 3531SOL     OW11491   5.041   2.041   1.882
 3531SOL    HW111492   4.946   2.039   1.853
 3531SOL    HW211493   5.051   1.989   1.967
 3532SOL     OW11494   2.416   1.120   2.273
 3532SOL    HW111495   2.505   1.138   2.230
 3532SOL    HW211496   2.423   1.037   2.329
 3533SOL     OW11497   0.202   1.992   2.774
 3533SOL    HW111498   0.209   1.893   2.784
 3533SOL    HW211499   0.290   2.034   2.798
 3534SOL     OW11500   0.675   2.713   2.548
 3534SOL    HW111501   0.714   2.794   2.594
 3534SOL    HW211502   0.612   2.743   2.477
 3535SOL     OW11503   2.824   5.329   5.261
 3535SOL    HW111504   2.753   5.330   5.191
 3535SOL    HW211505   2.846   5.234   5.285
 3536SOL     OW11506   3.719   1.828   3.081
 3536SOL    HW111507   3.629   1.787   3.062
 3536SOL    HW211508   3.791   1.767   3.050
 3537SOL     OW11509   1.117   5.881   2.673
 3537SOL    HW111510   1.103   5.924   2.584
 3537SOL    HW211511   1.212   5.893   2.701
 3538SOL     OW11512   3.142   5.474   5.046
 3538SOL    HW111513   3.207   5.535   5.093
 3538SOL    HW211514   3.051   5.513   5.050
 3539SOL     OW11515   3.699   3.836   4.537
 3539SOL    HW111516   3.752   3.758   4.505
 3539SOL    HW211517   3.606   3.829   4.502
 3540SOL     OW11518   2.132   2.030   3.962
 3540SOL    HW111519   2.095   2.092   4.030
 3540SOL    HW211520   2.098   2.056   3.871
 3541SOL     OW11521   3.109   3.109   5.540
 3541SOL    HW111522   3.108   3.071   5.448
 3541SOL    HW211523   3.031   3.075   5.591
 3542SOL     OW11524   1.851   4.985   3.177
 3542SOL    HW111525   1.867   4.886   3.174
 3542SOL    HW211526   1.755   5.003   3.194
 3543SOL     OW11527   5.141   2.433   4.001
 3543SOL    HW111528   5.206   2.492   3.954
 3543SOL    HW211529   5.071   2.489   4.045
 3544SOL     OW11530   1.826   4.389   6.681
 3544SOL    HW111531   1.730   4.375   6.703
 3544SOL    HW211532   1.861   4.310   6.630
 3545SOL     OW11533   3.784   6.240   6.145
 3545SOL    HW111534   3.813   6.213   6.053
 3545SOL    HW211535   3.695   6.286   6.139
 3546SOL     OW11536   0.003   5.771   3.289
 3546SOL    HW111537   6.961   5.751   3.220
 3546SOL    HW211538   0.079   5.820   3.248
 3547SOL     OW11539   4.035   5.559   4.082
 3547SOL    HW111540   4.103   5.626   4.050
 3547SOL    HW211541   3.965   5.547   4.011
 3548SOL     OW11542   5.036   2.329   5.658
 3548SOL    HW111543   4.962   2.320   5.591
 3548SOL    HW211544   5.124   2.318   5.612
 3549SOL     OW11545   6.618   4.865   4.042
 3549SOL    HW111546   6.707   4.822   4.030
 3549SOL    HW211547   6.629   4.956   4.081
 3550SOL     OW11548   5.351   2.156   3.198
 3550SOL    HW111549   5.303   2.070   3.180
 3550SOL    HW211550   5.323   2.224   3.129
 3551SOL     OW11551   3.619   6.275   3.243
 3551SOL    HW111552   3.618   6.178   3.267
 3551SOL    HW211553   3.539   6.320   3.283
 3552SOL     OW11554   5.615   5.320   3.025
 3552SOL    HW111555   5.632   5.412   3.061
 3552SOL    HW211556   5.521   5.314   2.992
 3553SOL     OW11557   5.636   2.724   2.207
 3553SOL    HW111558   5.582   2.722   2.123
 3553SOL    HW211559   5.695   2.805   2.207
 3554SOL     OW11560   4.024   3.975   6.938
 3554SOL    HW111561   4.087   3.953   6.864
 3554SOL    HW211562   4.015   4.075   6.947
 3555SOL     OW11563   0.910   3.461   3.009
 3555SOL    HW111564   0.858   3.494   2.931
 3555SOL    HW211565   0.860   3.482   3.094
 3556SOL     OW11566   3.431   0.669   5.795
 3556SOL    HW111567   3.340   0.668   5.752
 3556SOL    HW211568   3.422   0.696   5.891
 3557SOL     OW11569   1.120   0.597   4.814
 3557SOL    HW111570   1.124   0.633   4.721
 3557SOL    HW211571   1.201   0.542   4.832
 3558SOL     OW11572   0.377   5.666   1.747
 3558SOL    HW111573   0.456   5.711   1.789
 3558SOL    HW211574   0.403   5.576   1.713
 3559SOL     OW11575   0.239   0.194   5.197
 3559SOL    HW111576   0.181   0.177   5.117
 3559SOL    HW211577   0.334   0.203   5.168
 3560SOL     OW11578   1.276   5.964   1.356
 3560SOL    HW111579   1.349   5.928   1.414
 3560SOL    HW211580   1.304   5.962   1.261
 3561SOL     OW11581   4.937   4.801   5.726
 3561SOL    HW111582   4.869   4.857   5.678
 3561SOL    HW211583   4.935   4.823   5.824
 3562SOL     OW11584   5.466   0.414   3.956
 3562SOL    HW111585   5.369   0.418   3.932
 3562SOL    HW211586   5.488   0.489   4.018
 3563SOL     OW11587   5.531   1.290   1.331
 3563SOL    HW111588   5.576   1.278   1.419
 3563SOL    HW211589   5.588   1.345   1.270
 3564SOL     OW11590   0.698   4.105   5.016
 3564SOL    HW111591   0.762   4.110   5.093
 3564SOL    HW211592   0.627   4.038   5.036
 3565SOL     OW11593   2.882   0.023   4.349
 3565SOL    HW111594   2.819   0.083   4.399
 3565SOL    HW211595   2.955   7.020   4.410
 3566SOL     OW11596   6.895   3.112   5.677
 3566SOL    HW111597   6.963   3.136   5.746
 3566SOL    HW211598   6.909   3.168   5.595
 3567SOL     OW11599   0.649   2.894   0.641
 3567SOL    HW111600   0.668   2.799   0.665
 3567SOL    HW211601   0.627   2.946   0.724
 3568SOL     OW11602   4.765   4.894   2.375
 3568SOL    HW111603   4.793   4.980   2.416
 3568SOL    HW211604   4.771   4.900   2.275
 3569SOL     OW11605   3.020   3.203   4.500
 3569SOL    HW111606   3.094   3.139   4.524
 3569SOL    HW211607   2.989   3.250   4.582
 3570SOL     OW11608   6.339   1.768   5.492
 3570SOL    HW111609   6.310   1.689   5.438
 3570SOL    HW211610   6.378   1.837   5.432
 3571SOL     OW11611   1.908   0.607   5.170
 3571SOL    HW111612   1.858   0.605   5.084
 3571SOL    HW211613   1.857   0.557   5.239
 3572SOL     OW11614   5.343   4.000   2.154
 3572SOL    HW111615   5.308   3.912   2.186
 3572SOL    HW211616   5.335   4.068   2.227
 3573SOL     OW11617   6.445   4.219   2.258
 3573SOL    HW111618   6.526   4.173   2.294
 3573SOL    HW211619   6.422   4.297   2.316
 3574SOL     OW11620   2.295   3.108   6.158
 3574SOL    HW111621   2.240   3.186   6.188
 3574SOL    HW211622   2.358   3.137   6.086
 3575SOL     OW11623   4.891   5.906   0.893
 3575SOL    HW111624   4.843   5.969   0.831
 3575SOL    HW211625   4.917   5.954   0.977
 3576SOL     OW11626   0.183   3.018   6.908
 3576SOL    HW111627   0.277   2.984   6.897
 3576SOL    HW211628   0.183   3.092   6.975
 3577SOL     OW11629   2.210   2.651   5.134
 3577SOL    HW111630   2.277   2.662   5.061
 3577SOL    HW211631   2.255   2.659   5.223
 3578SOL     OW11632   3.216   3.017   0.421
 3578SOL    HW111633   3.164   3.040   0.503
 3578SOL    HW211634   3.172   2.940   0.373
 3579SOL     OW11635   0.255   3.462   2.576
 3579SOL    HW111636   0.182   3.394   2.583
 3579SOL    HW211637   0.338   3.417   2.542
 3580SOL     OW11638   0.594   3.262   1.134
 3580SOL    HW111639   0.602   3.178   1.188
 3580SOL    HW211640   0.572   3.339   1.195
 3581SOL     OW11641   0.668   0.424   2.931
 3581SOL    HW111642   0.610   0.413   3.012
 3581SOL    HW211643   0.614   0.464   2.857
 3582SOL     OW11644   3.352   3.990   5.736
 3582SOL    HW111645   3.304   3.915   5.781
 3582SOL    HW211646   3.318   4.077   5.770
 3583SOL     OW11647   0.452   4.912   0.573
 3583SOL    HW111648   0.357   4.942   0.568
 3583SOL    HW211649   0.463   4.826   0.524
 3584SOL     OW11650   5.507   4.456   4.981
 3584SOL    HW111651   5.451   4.421   5.056
 3584SOL    HW211652   5.587   4.397   4.968
 3585SOL     OW11653   2.680   2.222   4.464
 3585SOL    HW111654   2.596   2.178   4.494
 3585SOL    HW211655   2.753   2.153   4.456
 3586SOL     OW11656   6.623   2.932   3.810
 3586SOL    HW111657   6.646   2.836   3.794
 3586SOL    HW211658   6.543   2.938   3.870
 3587SOL     OW11659   3.552   6.448   5.977
 3587SOL    HW111660   3.557   6.486   5.884
 3587SOL    HW211661   3.572   6.350   5.973
 3588SOL     OW11662   6.217   4.176   4.405
 3588SOL    HW111663   6.311   4.147   4.420
 3588SOL    HW211664   6.160   4.144   4.480
 3589SOL     OW11665   7.006   0.229   5.911
 3589SOL    HW111666   0.032   0.209   5.993
 3589SOL    HW211667   0.039   0.255   5.836
 3590SOL     OW11668   0.527   4.222   0.295
 3590SOL    HW111669   0.569   4.138   0.330
 3590SOL    HW211670   0.473   4.266   0.367
 3591SOL     OW11671   5.517   2.522   6.468
 3591SOL    HW111672   5.556   2.467   6.394
 3591SOL    HW211673   5.590   2.572   6.514
 3592SOL     OW11674   0.966   0.791   2.037
 3592SOL    HW111675   0.937   0.880   2.002
 3592SOL    HW211676   1.066   0.786   2.035
 3593SOL     OW11677   6.082   3.719   5.826
 3593SOL    HW111678   6.106   3.669   5.742
 3593SOL    HW211679   6.048   3.655   5.895
 3594SOL     OW11680   4.002   5.574   4.914
 3594SOL    HW111681   4.089   5.576   4.865
 3594SOL    HW211682   3.971   5.667   4.931
 3595SOL     OW11683   5.548   5.995   6.761
 3595SOL    HW111684   5.559   5.938   6.680
 3595SOL    HW211685   5.603   6.077   6.752
 3596SOL     OW11686   3.781   1.192   2.930
 3596SOL    HW111687   3.867   1.170   2.883
 3596SOL    HW211688   3.745   1.109   2.972
 3597SOL     OW11689   1.728   3.259   4.601
 3597SOL    HW111690   1.795   3.186   4.589
 3597SOL    HW211691   1.755   3.339   4.547
 3598SOL     OW11692   1.587   5.559   5.127
 3598SOL    HW111693   1.499   5.560   5.080
 3598SOL    HW211694   1.660   5.572   5.059
 3599SOL     OW11695   4.514   1.783   5.734
 3599SOL    HW111696   4.520   1.688   5.766
 3599SOL    HW211697   4.568   1.842   5.794
 3600SOL     OW11698   3.740   3.908   0.750
 3600SOL    HW111699   3.675   3.845   0.795
 3600SOL    HW211700   3.832   3.869   0.754
 3601SOL     OW11701   4.837   0.987   5.120
 3601SOL    HW111702   4.920   0.950   5.163
 3601SOL    HW211703   4.787   1.042   5.186
 3602SOL     OW11704   1.743   2.329   1.700
 3602SOL    HW111705   1.793   2.414   1.719
 3602SOL    HW211706   1.733   2.277   1.785
 3603SOL     OW11707   3.176   0.850   5.712
 3603SOL    HW111708   3.087   0.891   5.692
 3603SOL    HW211709   3.163   0.762   5.758
 3604SOL     OW11710   6.641   0.598   3.533
 3604SOL    HW111711   6.634   0.500   3.556
 3604SOL    HW211712   6.587   0.651   3.599
 3605SOL     OW11713   0.842   5.138   3.299
 3605SOL    HW111714   0.774   5.126   3.370
 3605SOL    HW211715   0.892   5.053   3.285
 3606SOL     OW11716   2.339   6.912   1.780
 3606SOL    HW111717   2.412   6.894   1.714
 3606SOL    HW211718   2.286   6.828   1.795
 3607SOL     OW11719   5.455   2.636   2.795
 3607SOL    HW111720   5.518   2.685   2.855
 3607SOL    HW211721   5.416   2.699   2.728
 3608SOL     OW11722   4.112   2.198   4.235
 3608SOL    HW111723   4.149   2.247   4.313
 3608SOL    HW211724   4.182   2.137   4.198
 3609SOL     OW11725   2.497   6.877   4.445
 3609SOL    HW111726   2.530   6.793   4.403
 3609SOL    HW211727   2.573   6.925   4.489
 3610SOL     OW11728   2.287   0.201   5.380
 3610SOL    HW111729   2.187   0.201   5.374
 3610SOL    HW211730   2.325   0.170   5.292
 3611SOL     OW11731   4.336   4.649   3.689
 3611SOL    HW111732   4.398   4.572   3.706
 3611SOL    HW211733   4.327   4.662   3.590
 3612SOL     OW11734   5.529   1.615   6.623
 3612SOL    HW111735   5.534   1.715   6.617
 3612SOL    HW211736   5.485   1.579   6.541
 3613SOL     OW11737   3.128   5.180   1.024
 3613SOL    HW111738   3.200   5.199   1.091
 3613SOL    HW211739   3.159   5.106   0.964
 3614SOL     OW11740   3.518   4.302   6.395
 3614SOL    HW111741   3.507   4.249   6.479
 3614SOL    HW211742   3.567   4.387   6.417
 3615SOL     OW11743   6.412   2.800   5.417
 3615SOL    HW111744   6.350   2.802   5.496
 3615SOL    HW211745   6.392   2.719   5.361
 3616SOL     OW11746   1.966   1.863   6.831
 3616SOL    HW111747   1.958   1.943   6.771
 3616SOL    HW211748   1.918   1.881   6.917
 3617SOL     OW11749   3.985   7.015   5.736
 3617SOL    HW111750   3.994   6.958   5.817
 3617SOL    HW211751   3.961   0.081   5.764
 3618SOL     OW11752   1.508   4.022   4.897
 3618SOL    HW111753   1.593   3.978   4.924
 3618SOL    HW211754   1.432   3.985   4.951
 3619SOL     OW11755   6.440   2.529   1.081
 3619SOL    HW111756   6.403   2.618   1.054
 3619SOL    HW211757   6.456   2.474   0.999
 3620SOL     OW11758   6.364   6.718   4.837
 3620SOL    HW111759   6.417   6.711   4.922
 3620SOL    HW211760   6.390   6.802   4.789
 3621SOL     OW11761   3.780   2.941   3.783
 3621SOL    HW111762   3.774   2.929   3.882
 3621SOL    HW211763   3.688   2.940   3.744
 3622SOL     OW11764   1.050   6.953   0.369
 3622SOL    HW111765   1.083   7.006   0.291
 3622SOL    HW211766   1.049   7.011   0.451
 3623SOL     OW11767   1.396   5.523   6.018
 3623SOL    HW111768   1.302   5.491   6.017
 3623SOL    HW211769   1.457   5.450   5.986
 3624SOL     OW11770   3.257   0.571   1.958
 3624SOL    HW111771   3.259   0.608   2.051
 3624SOL    HW211772   3.164   0.546   1.933
 3625SOL     OW11773   6.483   2.765   6.440
 3625SOL    HW111774   6.402   2.768   6.498
 3625SOL    HW211775   6.537   2.684   6.462
 3626SOL     OW11776   0.606   2.617   5.421
 3626SOL    HW111777   0.562   2.694   5.375
 3626SOL    HW211778   0.614   2.540   5.357
 3627SOL     OW11779   4.497   3.032   1.170
 3627SOL    HW111780   4.480   2.979   1.086
 3627SOL    HW211781   4.412   3.037   1.223
 3628SOL     OW11782   0.197   1.268   2.511
 3628SOL    HW111783   0.237   1.313   2.591
 3628SOL    HW211784   0.271   1.237   2.451
 3629SOL     OW11785   1.130   1.189   4.646
 3629SOL    HW111786   1.154   1.276   4.603
 3629SOL    HW211787   1.210   1.151   4.692
 3630SOL     OW11788   6.746   2.792   3.282
 3630SOL    HW111789   6.688   2.725   3.237
 3630SOL    HW211790   6.709   2.814   3.372
 3631SOL     OW11791   1.887   6.502   2.470
 3631SOL    HW111792   1.812   6.452   2.513
 3631SOL    HW211793   1.856   6.538   2.382
 3632SOL     OW11794   4.459   3.257   0.768
 3632SOL    HW111795   4.506   3.294   0.848
 3632SOL    HW211796   4.381   3.201   0.798
 3633SOL     OW11797   3.717   2.938   6.182
 3633SOL    HW111798   3.711   2.849   6.226
 3633SOL    HW211799   3.804   2.981   6.206
 3634SOL     OW11800   3.052   5.480   5.805
 3634SOL    HW111801   3.019   5.560   5.755
 3634SOL    HW211802   3.100   5.419   5.743
 3635SOL     OW11803   2.641   0.984   1.593
 3635SOL    HW111804   2.719   1.036   1.557
 3635SOL    HW211805   2.627   1.006   1.689
 3636SOL     OW11806   0.911   5.547   6.838
 3636SOL    HW111807   0.820   5.506   6.843
 3636SOL    HW211808   0.915   5.626   6.898
 3637SOL     OW11809   6.939   2.890   6.882
 3637SOL    HW111810   0.001   2.929   6.903
 3637SOL    HW211811   6.939   2.855   6.788
 3638SOL     OW11812   5.798   4.803   2.181
 3638SOL    HW111813   5.743   4.787   2.263
 3638SOL    HW211814   5.755   4.758   2.102
 3639SOL     OW11815   3.496   4.126   4.309
 3639SOL    HW111816   3.421   4.126   4.242
 3639SOL    HW211817   3.582   4.146   4.263
 3640SOL     OW11818   5.436   2.207   0.507
 3640SOL    HW111819   5.346   2.194   0.466
 3640SOL    HW211820   5.468   2.300   0.487
 3641SOL     OW11821   6.837   4.268   1.724
 3641SOL    HW111822   6.919   4.312   1.761
 3641SOL    HW211823   6.843   4.267   1.624
 3642SOL     OW11824   6.017   2.399   6.600
 3642SOL    HW111825   5.994   2.479   6.545
 3642SOL    HW211826   6.110   2.368   6.578
 3643SOL     OW11827   3.824   5.261   5.513
 3643SOL    HW111828   3.838   5.213   5.426
 3643SOL    HW211829   3.807   5.358   5.495
 3644SOL     OW11830   3.335   0.950   1.803
 3644SOL    HW111831   3.400   0.889   1.757
 3644SOL    HW211832   3.277   0.897   1.865
 3645SOL     OW11833   1.346   4.023   4.354
 3645SOL    HW111834   1.382   4.116   4.346
 3645SOL    HW211835   1.251   4.021   4.321
 3646SOL     OW11836   2.481   4.584   5.052
 3646SOL    HW111837   2.557   4.616   5.109
 3646SOL    HW211838   2.463   4.487   5.071
 3647SOL     OW11839   2.643   0.536   0.340
 3647SOL    HW111840   2.594   0.474   0.278
 3647SOL    HW211841   2.738   0.546   0.309
 3648SOL     OW11842   4.631   5.319   3.804
 3648SOL    HW111843   4.701   5.252   3.780
 3648SOL    HW211844   4.599   5.302   3.897
 3649SOL     OW11845   5.793   3.077   0.599
 3649SOL    HW111846   5.887   3.056   0.573
 3649SOL    HW211847   5.736   3.080   0.517
 3650SOL     OW11848   5.484   5.149   0.214
 3650SOL    HW111849   5.408   5.088   0.195
 3650SOL    HW211850   5.454   5.244   0.208
 3651SOL     OW11851   1.467   2.447   5.911
 3651SOL    HW111852   1.439   2.525   5.855
 3651SOL    HW211853   1.410   2.368   5.890
 3652SOL     OW11854   5.014   1.676   2.026
 3652SOL    HW111855   5.071   1.756   2.046
 3652SOL    HW211856   5.071   1.594   2.025
 3653SOL     OW11857   0.393   1.406   1.337
 3653SOL    HW111858   0.446   1.394   1.421
 3653SOL    HW211859   0.425   1.341   1.268
 3654SOL     OW11860   5.900   7.003   0.692
 3654SOL    HW111861   5.890   0.015   0.601
 3654SOL    HW211862   5.993   6.968   0.703
 3655SOL     OW11863   1.903   2.301   4.624
 3655SOL    HW111864   1.807   2.303   4.653
 3655SOL    HW211865   1.947   2.220   4.662
 3656SOL     OW11866   0.151   5.897   1.189
 3656SOL    HW111867   0.206   5.831   1.137
 3656SOL    HW211868   0.150   5.871   1.285
 3657SOL     OW11869   4.881   6.065   4.697
 3657SOL    HW111870   4.971   6.022   4.691
 3657SOL    HW211871   4.849   6.062   4.792
 3658SOL     OW11872   1.445   5.302   6.417
 3658SOL    HW111873   1.481   5.393   6.393
 3658SOL    HW211874   1.519   5.235   6.410
 3659SOL     OW11875   6.736   1.788   6.450
 3659SOL    HW111876   6.747   1.742   6.362
 3659SOL    HW211877   6.802   1.862   6.458
 3660SOL     OW11878   5.469   5.364   6.004
 3660SOL    HW111879   5.389   5.313   5.972
 3660SOL    HW211880   5.444   5.415   6.087
 3661SOL     OW11881   0.111   1.546   4.526
 3661SOL    HW111882   0.035   1.611   4.535
 3661SOL    HW211883   0.085   1.458   4.566
 3662SOL     OW11884   3.343   0.741   5.262
 3662SOL    HW111885   3.437   0.717   5.239
 3662SOL    HW211886   3.281   0.706   5.191
 3663SOL     OW11887   2.107   2.673   6.294
 3663SOL    HW111888   2.197   2.648   6.259
 3663SOL    HW211889   2.044   2.686   6.218
 3664SOL     OW11890   3.846   1.801   2.312
 3664SOL    HW111891   3.886   1.709   2.313
 3664SOL    HW211892   3.761   1.800   2.258
 3665SOL     OW11893   1.389   6.102   5.672
 3665SOL    HW111894   1.373   6.080   5.575
 3665SOL    HW211895   1.487   6.113   5.687
 3666SOL     OW11896   2.528   1.919   5.093
 3666SOL    HW111897   2.625   1.913   5.119
 3666SOL    HW211898   2.501   2.015   5.088
 3667SOL     OW11899   2.358   0.747   2.886
 3667SOL    HW111900   2.312   0.827   2.846
 3667SOL    HW211901   2.452   0.771   2.908
 3668SOL     OW11902   0.486   0.699   1.526
 3668SOL    HW111903   0.463   0.703   1.428
 3668SOL    HW211904   0.548   0.775   1.548
 3669SOL     OW11905   6.929   1.184   3.797
 3669SOL    HW111906   6.879   1.239   3.730
 3669SOL    HW211907   7.026   1.207   3.793
 3670SOL     OW11908   3.480   5.416   1.906
 3670SOL    HW111909   3.477   5.329   1.856
 3670SOL    HW211910   3.413   5.479   1.866
 3671SOL     OW11911   0.129   0.443   3.403
 3671SOL    HW111912   0.130   0.543   3.408
 3671SOL    HW211913   0.097   0.405   3.490
 3672SOL     OW11914   4.452   7.006   2.631
 3672SOL    HW111915   4.454   6.992   2.730
 3672SOL    HW211916   4.385   6.944   2.589
 3673SOL     OW11917   4.904   6.223   1.497
 3673SOL    HW111918   4.837   6.255   1.430
 3673SOL    HW211919   4.931   6.300   1.556
 3674SOL     OW11920   1.596   5.294   5.983
 3674SOL    HW111921   1.591   5.252   5.892
 3674SOL    HW211922   1.528   5.251   6.043
 3675SOL     OW11923   0.545   1.069   3.699
 3675SOL    HW111924   0.534   1.068   3.599
 3675SOL    HW211925   0.630   1.115   3.722
 3676SOL     OW11926   4.335   1.670   3.647
 3676SOL    HW111927   4.294   1.579   3.647
 3676SOL    HW211928   4.313   1.717   3.561
 3677SOL     OW11929   1.918   0.227   4.129
 3677SOL    HW111930   1.866   0.194   4.208
 3677SOL    HW211931   1.896   0.323   4.112
 3678SOL     OW11932   1.547   0.759   3.723
 3678SOL    HW111933   1.609   0.836   3.733
 3678SOL    HW211934   1.454   0.793   3.706
 3679SOL     OW11935   5.099   1.031   2.341
 3679SOL    HW111936   5.182   1.083   2.361
 3679SOL    HW211937   5.020   1.076   2.383
 3680SOL     OW11938   4.207   1.153   4.047
 3680SOL    HW111939   4.169   1.227   3.993
 3680SOL    HW211940   4.280   1.188   4.106
 3681SOL     OW11941   1.213   6.561   4.620
 3681SOL    HW111942   1.152   6.631   4.584
 3681SOL    HW211943   1.188   6.472   4.581
 3682SOL     OW11944   5.554   2.414   1.428
 3682SOL    HW111945   5.571   2.362   1.512
 3682SOL    HW211946   5.476   2.475   1.443
 3683SOL     OW11947   6.416   0.535   5.903
 3683SOL    HW111948   6.415   0.625   5.860
 3683SOL    HW211949   6.349   0.476   5.858
 3684SOL     OW11950   2.037   6.911   5.234
 3684SOL    HW111951   1.981   6.889   5.155
 3684SOL    HW211952   1.979   6.934   5.312
 3685SOL     OW11953   2.183   6.422   5.607
 3685SOL    HW111954   2.257   6.431   5.673
 3685SOL    HW211955   2.154   6.326   5.603
 3686SOL     OW11956   0.579   4.427   4.066
 3686SOL    HW111957   0.501   4.368   4.048
 3686SOL    HW211958   0.664   4.379   4.043
 3687SOL     OW11959   5.370   5.774   3.692
 3687SOL    HW111960   5.388   5.853   3.633
 3687SOL    HW211961   5.284   5.732   3.665
 3688SOL     OW11962   5.664   3.241   0.811
 3688SOL    HW111963   5.698   3.156   0.770
 3688SOL    HW211964   5.593   3.220   0.878
 3689SOL     OW11965   1.637   0.213   5.917
 3689SOL    HW111966   1.714   0.223   5.854
 3689SOL    HW211967   1.660   0.257   6.004
 3690SOL     OW11968   4.753   4.565   1.053
 3690SOL    HW111969   4.673   4.625   1.060
 3690SOL    HW211970   4.836   4.618   1.065
 3691SOL     OW11971   2.454   2.245   0.040
 3691SOL    HW111972   2.382   2.303   0.078
 3691SOL    HW211973   2.500   2.196   0.114
 3692SOL     OW11974   0.533   3.567   6.090
 3692SOL    HW111975   0.572   3.611   6.171
 3692SOL    HW211976   0.568   3.473   6.084
 3693SOL     OW11977   0.467   1.748   2.717
 3693SOL    HW111978   0.542   1.807   2.746
 3693SOL    HW211979   0.430   1.781   2.630
 3694SOL     OW11980   6.898   7.020   1.669
 3694SOL    HW111981   6.861   0.060   1.605
 3694SOL    HW211982   6.977   6.974   1.628
 3695SOL     OW11983   6.603   2.737   2.386
 3695SOL    HW111984   6.651   2.649   2.381
 3695SOL    HW211985   6.638   2.790   2.463
 3696SOL     OW11986   4.682   0.640   4.431
 3696SOL    HW111987   4.770   0.687   4.440
 3696SOL    HW211988   4.653   0.605   4.519
 3697SOL     OW11989   6.830   6.587   3.590
 3697SOL    HW111990   6.810   6.546   3.679
 3697SOL    HW211991   6.799   6.682   3.589
 3698SOL     OW11992   2.257   0.638   3.108
 3698SOL    HW111993   2.299   0.653   3.018
 3698SOL    HW211994   2.260   0.723   3.161
 3699SOL     OW11995   2.522   2.565   3.477
 3699SOL    HW111996   2.561   2.565   3.385
 3699SOL    HW211997   2.444   2.501   3.480
 3700SOL     OW11998   0.738   4.923   5.077
 3700SOL    HW111999   0.819   4.876   5.112
 3700SOL    HW212000   0.759   4.965   4.989
 3701SOL     OW12001   1.633   0.527   2.608
 3701SOL    HW112002   1.714   0.500   2.556
 3701SOL    HW212003   1.552   0.485   2.568
 3702SOL     OW12004   5.188   4.526   3.936
 3702SOL    HW112005   5.264   4.461   3.930
 3702SOL    HW212006   5.216   4.613   3.896
 3703SOL     OW12007   1.498   2.003   3.850
 3703SOL    HW112008   1.465   1.974   3.760
 3703SOL    HW212009   1.471   1.936   3.919
 3704SOL     OW12010   0.053   1.972   0.596
 3704SOL    HW112011   0.015   2.008   0.511
 3704SOL    HW212012   7.014   1.984   0.670
 3705SOL     OW12013   4.860   4.841   3.050
 3705SOL    HW112014   4.805   4.886   3.120
 3705SOL    HW212015   4.806   4.767   3.009
 3706SOL     OW12016   0.726   3.711   0.410
 3706SOL    HW112017   0.694   3.715   0.315
 3706SOL    HW212018   0.821   3.681   0.411
 3707SOL     OW12019   1.338   5.211   3.660
 3707SOL    HW112020   1.412   5.232   3.596
 3707SOL    HW212021   1.283   5.135   3.625
 3708SOL     OW12022   3.446   0.128   0.490
 3708SOL    HW112023   3.500   0.053   0.452
 3708SOL    HW212024   3.356   0.130   0.446
 3709SOL     OW12025   1.624   0.773   2.735
 3709SOL    HW112026   1.597   0.677   2.729
 3709SOL    HW212027   1.610   0.817   2.646
 3710SOL     OW12028   6.805   5.009   5.567
 3710SOL    HW112029   6.788   4.936   5.501
 3710SOL    HW212030   6.851   4.972   5.647
 3711SOL     OW12031   1.547   5.693   4.650
 3711SOL    HW112032   1.483   5.695   4.573
 3711SOL    HW212033   1.600   5.778   4.653
 3712SOL     OW12034   1.813   5.166   5.044
 3712SOL    HW112035   1.825   5.137   4.949
 3712SOL    HW212036   1.729   5.220   5.053
 3713SOL     OW12037   6.203   6.413   4.585
 3713SOL    HW112038   6.200   6.426   4.486
 3713SOL    HW212039   6.246   6.325   4.606
 3714SOL     OW12040   0.678   4.593   7.014
 3714SOL    HW112041   0.627   4.529   6.956
 3714SOL    HW212042   0.730   4.542   0.055
 3715SOL     OW12043   6.409   5.479   3.739
 3715SOL    HW112044   6.505   5.455   3.728
 3715SOL    HW212045   6.363   5.411   3.796
 3716SOL     OW12046   5.234   5.584   3.930
 3716SOL    HW112047   5.253   5.633   3.845
 3716SOL    HW212048   5.288   5.500   3.932
 3717SOL     OW12049   4.517   1.174   1.411
 3717SOL    HW112050   4.422   1.176   1.439
 3717SOL    HW212051   4.576   1.202   1.487
 3718SOL     OW12052   6.955   6.799   6.017
 3718SOL    HW112053   6.977   6.703   6.034
 3718SOL    HW212054   6.883   6.828   6.079
 3719SOL     OW12055   3.703   4.022   6.397
 3719SOL    HW112056   3.754   3.958   6.339
 3719SOL    HW212057   3.696   4.110   6.351
 3720SOL     OW12058   0.129   2.730   1.282
 3720SOL    HW112059   0.190   2.742   1.204
 3720SOL    HW212060   0.089   2.638   1.280
 3721SOL     OW12061   6.111   5.125   6.137
 3721SOL    HW112062   6.205   5.151   6.160
 3721SOL    HW212063   6.068   5.081   6.216
 3722SOL     OW12064   4.503   6.635   3.339
 3722SOL    HW112065   4.448   6.704   3.385
 3722SOL    HW212066   4.458   6.546   3.348
 3723SOL     OW12067   4.821   4.585   0.085
 3723SOL    HW112068   4.802   4.489   0.106
 3723SOL    HW212069   4.745   4.642   0.117
 3724SOL     OW12070   1.537   5.155   5.216
 3724SOL    HW112071   1.526   5.202   5.129
 3724SOL    HW212072   1.447   5.141   5.258
 3725SOL     OW12073   1.128   5.988   6.382
 3725SOL    HW112074   1.068   6.002   6.461
 3725SOL    HW212075   1.214   5.948   6.413
 3726SOL     OW12076   5.967   3.648   3.715
 3726SOL    HW112077   6.041   3.710   3.687
 3726SOL    HW212078   5.921   3.687   3.795
 3727SOL     OW12079   7.017   3.311   4.411
 3727SOL    HW112080   6.958   3.391   4.406
 3727SOL    HW212081   0.051   3.310   4.332
 3728SOL     OW12082   2.917   3.389   0.390
 3728SOL    HW112083   2.865   3.371   0.474
 3728SOL    HW212084   3.015   3.377   0.408
 3729SOL     OW12085   0.740   0.041   5.703
 3729SOL    HW112086   0.833   0.067   5.726
 3729SOL    HW212087   0.732   6.969   5.704
 3730SOL     OW12088   3.550   5.608   5.262
 3730SOL    HW112089   3.620   5.664   5.218
 3730SOL    HW212090   3.572   5.511   5.250
 3731SOL     OW12091   0.536   2.640   6.624
 3731SOL    HW112092   0.612   2.614   6.683
 3731SOL    HW212093   0.479   2.560   6.605
 3732SOL     OW12094   3.080   2.230   0.026
 3732SOL    HW112095   3.027   2.162   7.004
 3732SOL    HW212096   3.132   2.186   0.099
 3733SOL     OW12097   1.734   1.622   3.834
 3733SOL    HW112098   1.775   1.659   3.917
 3733SOL    HW212099   1.805   1.608   3.764
 3734SOL     OW12100   4.138   6.924   0.806
 3734SOL    HW112101   4.072   6.849   0.818
 3734SOL    HW212102   4.149   6.972   0.892
 3735SOL     OW12103   4.331   6.690   2.336
 3735SOL    HW112104   4.357   6.692   2.433
 3735SOL    HW212105   4.265   6.763   2.318
 3736SOL     OW12106   6.936   1.274   1.258
 3736SOL    HW112107   6.988   1.188   1.259
 3736SOL    HW212108   6.970   1.333   1.184
 3737SOL     OW12109   0.148   2.547   3.230
 3737SOL    HW112110   0.141   2.482   3.307
 3737SOL    HW212111   0.095   2.629   3.251
 3738SOL     OW12112   0.043   6.660   0.879
 3738SOL    HW112113   0.004   6.715   0.952
 3738SOL    HW212114   0.143   6.655   0.890
 3739SOL     OW12115   2.911   4.551   1.009
 3739SOL    HW112116   2.833   4.605   0.979
 3739SOL    HW212117   2.935   4.484   0.939
 3740SOL     OW12118   5.324   5.238   6.673
 3740SOL    HW112119   5.229   5.234   6.642
 3740SOL    HW212120   5.365   5.325   6.645
 3741SOL     OW12121   5.281   3.167   6.862
 3741SOL    HW112122   5.236   3.095   6.808
 3741SOL    HW212123   5.305   3.243   6.802
 3742SOL     OW12124   3.471   5.523   0.076
 3742SOL    HW112125   3.564   5.488   0.067
 3742SOL    HW212126   3.436   5.505   0.168
 3743SOL     OW12127   4.238   3.426   1.722
 3743SOL    HW112128   4.181   3.505   1.747
 3743SOL    HW212129   4.208   3.346   1.772
 3744SOL     OW12130   0.498   6.760   2.394
 3744SOL    HW112131   0.460   6.671   2.369
 3744SOL    HW212132   0.570   6.748   2.462
 3745SOL     OW12133   4.806   4.044   2.358
 3745SOL    HW112134   4.781   4.113   2.290
 3745SOL    HW212135   4.814   3.955   2.315
 3746SOL     OW12136   6.354   0.343   4.490
 3746SOL    HW112137   6.405   0.368   4.408
 3746SOL    HW212138   6.316   0.252   4.479
 3747SOL     OW12139   3.855   6.714   5.504
 3747SOL    HW112140   3.790   6.784   5.475
 3747SOL    HW212141   3.882   6.659   5.425
 3748SOL     OW12142   5.283   1.679   2.582
 3748SOL    HW112143   5.267   1.620   2.503
 3748SOL    HW212144   5.228   1.647   2.660
 3749SOL     OW12145   0.378   6.294   3.155
 3749SOL    HW112146   0.432   6.378   3.144
 3749SOL    HW212147   0.320   6.281   3.074
 3750SOL     OW12148   5.576   3.987   0.374
 3750SOL    HW112149   5.553   3.893   0.350
 3750SOL    HW212150   5.659   3.988   0.430
 3751SOL     OW12151   2.071   3.839   1.733
 3751SOL    HW112152   2.104   3.810   1.823
 3751SOL    HW212153   2.034   3.931   1.740
 3752SOL     OW12154   1.297   6.533   0.211
 3752SOL    HW112155   1.252   6.588   0.280
 3752SOL    HW212156   1.285   6.575   0.121
 3753SOL     OW12157   0.127   6.468   4.662
 3753SOL    HW112158   0.101   6.448   4.568
 3753SOL    HW212159   0.147   6.382   4.710
 3754SOL     OW12160   6.729   5.983   1.901
 3754SOL    HW112161   6.756   5.979   1.805
 3754SOL    HW212162   6.651   5.923   1.916
 3755SOL     OW12163   5.256   3.953   3.622
 3755SOL    HW112164   5.228   3.961   3.526
 3755SOL    HW212165   5.179   3.978   3.681
 3756SOL     OW12166   2.481   1.123   6.536
 3756SOL    HW112167   2.551   1.152   6.601
 3756SOL    HW212168   2.402   1.088   6.586
 3757SOL     OW12169   2.739   5.760   6.348
 3757SOL    HW112170   2.821   5.710   6.320
 3757SOL    HW212171   2.693   5.710   6.421
 3758SOL     OW12172   1.983   1.148   4.298
 3758SOL    HW112173   2.077   1.117   4.306
 3758SOL    HW212174   1.924   1.092   4.357
 3759SOL     OW12175   4.963   4.846   6.004
 3759SOL    HW112176   5.022   4.834   6.084
 3759SOL    HW212177   4.896   4.772   6.002
 3760SOL     OW12178   1.634   2.487   5.025
 3760SOL    HW112179   1.583   2.514   4.943
 3760SOL    HW212180   1.696   2.561   5.051
 3761SOL     OW12181   0.650   6.517   4.538
 3761SOL    HW112182   0.666   6.613   4.517
 3761SOL    HW212183   0.736   6.467   4.534
 3762SOL     OW12184   0.636   4.005   0.423
 3762SOL    HW112185   0.736   4.002   0.413
 3762SOL    HW212186   0.602   3.913   0.440
 3763SOL     OW12187   6.822   2.687   6.346
 3763SOL    HW112188   6.742   2.689   6.405
 3763SOL    HW212189   6.809   2.752   6.271
 3764SOL     OW12190   2.647   6.586   3.547
 3764SOL    HW112191   2.621   6.525   3.472
 3764SOL    HW212192   2.564   6.624   3.589
 3765SOL     OW12193   5.616   0.715   3.492
 3765SOL    HW112194   5.549   0.643   3.471
 3765SOL    HW212195   5.604   0.745   3.586
 3766SOL     OW12196   0.569   0.674   4.350
 3766SOL    HW112197   0.576   0.702   4.255
 3766SOL    HW212198   0.476   0.645   4.370
 3767SOL     OW12199   1.596   5.282   0.286
 3767SOL    HW112200   1.568   5.313   0.377
 3767SOL    HW212201   1.696   5.277   0.283
 3768SOL     OW12202   4.990   6.386   0.366
 3768SOL    HW112203   4.940   6.434   0.438
 3768SOL    HW212204   5.066   6.443   0.334
 3769SOL     OW12205   4.628   6.445   5.732
 3769SOL    HW112206   4.652   6.516   5.798
 3769SOL    HW212207   4.664   6.470   5.641
 3770SOL     OW12208   2.294   1.616   6.745
 3770SOL    HW112209   2.211   1.602   6.690
 3770SOL    HW212210   2.268   1.655   6.833
 3771SOL     OW12211   5.915   1.887   5.947
 3771SOL    HW112212   5.886   1.949   5.874
 3771SOL    HW212213   6.014   1.898   5.961
 3772SOL     OW12214   5.533   0.735   1.733
 3772SOL    HW112215   5.468   0.812   1.737
 3772SOL    HW212216   5.625   0.770   1.715
 3773SOL     OW12217   6.596   2.405   6.160
 3773SOL    HW112218   6.513   2.460   6.157
 3773SOL    HW212219   6.664   2.446   6.098
 3774SOL     OW12220   6.997   0.840   0.392
 3774SOL    HW112221   0.060   0.881   0.382
 3774SOL    HW212222   6.956   0.828   0.302
 3775SOL     OW12223   6.249   3.512   3.691
 3775SOL    HW112224   6.286   3.552   3.607
 3775SOL    HW212225   6.174   3.450   3.667
 3776SOL     OW12226   2.426   3.366   1.210
 3776SOL    HW112227   2.525   3.371   1.200
 3776SOL    HW212228   2.402   3.354   1.307
 3777SOL     OW12229   2.481   4.680   4.241
 3777SOL    HW112230   2.559   4.682   4.304
 3777SOL    HW212231   2.406   4.628   4.282
 3778SOL     OW12232   2.884   5.720   1.792
 3778SOL    HW112233   2.984   5.718   1.801
 3778SOL    HW212234   2.859   5.750   1.700
 3779SOL     OW12235   2.649   5.017   6.680
 3779SOL    HW112236   2.742   5.006   6.716
 3779SOL    HW212237   2.587   4.955   6.729
 3780SOL     OW12238   3.185   6.350   5.015
 3780SOL    HW112239   3.143   6.259   5.006
 3780SOL    HW212240   3.250   6.364   4.941
 3781SOL     OW12241   3.064   6.442   4.431
 3781SOL    HW112242   3.069   6.539   4.407
 3781SOL    HW212243   3.044   6.388   4.349
 3782SOL     OW12244   2.259   1.422   3.867
 3782SOL    HW112245   2.300   1.352   3.925
 3782SOL    HW212246   2.178   1.460   3.912
 3783SOL     OW12247   5.420   6.035   4.666
 3783SOL    HW112248   5.439   5.996   4.756
 3783SOL    HW212249   5.413   6.134   4.673
 3784SOL     OW12250   5.447   1.301   2.858
 3784SOL    HW112251   5.436   1.231   2.928
 3784SOL    HW212252   5.405   1.387   2.890
 3785SOL     OW12253   2.438   2.369   1.369
 3785SOL    HW112254   2.481   2.454   1.336
 3785SOL    HW212255   2.395   2.322   1.292
 3786SOL     OW12256   3.282   5.177   2.651
 3786SOL    HW112257   3.291   5.215   2.744
 3786SOL    HW212258   3.253   5.250   2.589
 3787SOL     OW12259   4.212   1.425   3.616
 3787SOL    HW112260   4.141   1.376   3.566
 3787SOL    HW212261   4.299   1.377   3.605
 3788SOL     OW12262   5.721   3.063   2.532
 3788SOL    HW112263   5.634   3.030   2.569
 3788SOL    HW212264   5.714   3.072   2.433
 3789SOL     OW12265   1.788   5.248   4.118
 3789SOL    HW112266   1.859   5.186   4.152
 3789SOL    HW212267   1.831   5.327   4.074
 3790SOL     OW12268   2.117   3.260   4.226
 3790SOL    HW112269   2.041   3.230   4.284
 3790SOL    HW212270   2.197   3.204   4.245
 3791SOL     OW12271   4.785   6.832   1.568
 3791SOL    HW112272   4.715   6.887   1.614
 3791SOL    HW212273   4.745   6.745   1.539
 3792SOL     OW12274   6.370   6.546   5.262
 3792SOL    HW112275   6.340   6.451   5.272
 3792SOL    HW212276   6.408   6.577   5.350
 3793SOL     OW12277   2.078   1.144   3.066
 3793SOL    HW112278   2.158   1.174   3.119
 3793SOL    HW212279   2.000   1.202   3.087
 3794SOL     OW12280   4.096   5.806   2.176
 3794SOL    HW112281   4.163   5.793   2.249
 3794SOL    HW212282   4.141   5.795   2.088
 3795SOL     OW12283   5.282   0.300   6.769
 3795SOL    HW112284   5.262   0.277   6.674
 3795SOL    HW212285   5.380   0.292   6.785
 3796SOL     OW12286   1.368   2.260   1.774
 3796SOL    HW112287   1.373   2.182   1.712
 3796SOL    HW212288   1.443   2.254   1.841
 3797SOL     OW12289   1.066   4.758   2.856
 3797SOL    HW112290   1.049   4.788   2.762
 3797SOL    HW212291   1.061   4.658   2.859
 3798SOL     OW12292   2.482   5.085   2.604
 3798SOL    HW112293   2.502   5.165   2.546
 3798SOL    HW212294   2.419   5.024   2.556
 3799SOL     OW12295   1.704   1.218   5.596
 3799SOL    HW112296   1.733   1.285   5.529
 3799SOL    HW212297   1.678   1.264   5.681
 3800SOL     OW12298   4.533   2.293   4.665
 3800SOL    HW112299   4.624   2.252   4.663
 3800SOL    HW212300   4.513   2.324   4.758
 3801SOL     OW12301   6.967   6.259   6.056
 3801SOL    HW112302   0.023   6.203   6.063
 3801SOL    HW212303   6.889   6.200   6.037
 3802SOL     OW12304   1.042   1.908   5.229
 3802SOL    HW112305   1.105   1.978   5.264
 3802SOL    HW212306   0.995   1.944   5.148
 3803SOL     OW12307   3.643   0.669   1.232
 3803SOL    HW112308   3.696   0.615   1.167
 3803SOL    HW212309   3.688   0.756   1.249
 3804SOL     OW12310   4.709   1.919   4.444
 3804SOL    HW112311   4.652   1.862   4.503
 3804SOL    HW212312   4.651   1.983   4.393
 3805SOL     OW12313   2.969   4.271   1.730
 3805SOL    HW112314   2.965   4.357   1.782
 3805SOL    HW212315   2.895   4.211   1.760
 3806SOL     OW12316   2.811   2.324   0.356
 3806SOL    HW112317   2.762   2.269   0.289
 3806SOL    HW212318   2.887   2.271   0.394
 3807SOL     OW12319   1.160   6.710   3.603
 3807SOL    HW112320   1.202   6.642   3.542
 3807SOL    HW212321   1.112   6.778   3.548
 3808SOL     OW12322   3.808   6.759   1.599
 3808SOL    HW112323   3.747   6.688   1.565
 3808SOL    HW212324   3.753   6.839   1.625
 3809SOL     OW12325   5.589   1.062   6.810
 3809SOL    HW112326   5.624   0.968   6.807
 3809SOL    HW212327   5.512   1.072   6.747
 3810SOL     OW12328   3.014   3.035   5.277
 3810SOL    HW112329   2.915   3.030   5.291
 3810SOL    HW212330   3.051   2.942   5.270
 3811SOL     OW12331   0.100   5.031   4.959
 3811SOL    HW112332   0.169   4.959   4.950
 3811SOL    HW212333   0.145   5.121   4.954
 3812SOL     OW12334   5.812   1.560   5.432
 3812SOL    HW112335   5.854   1.554   5.522
 3812SOL    HW212336   5.713   1.567   5.442
 3813SOL     OW12337   3.112   5.298   0.020
 3813SOL    HW112338   3.017   5.325   0.002
 3813SOL    HW212339   3.114   5.215   0.075
 3814SOL     OW12340   6.767   6.279   2.246
 3814SOL    HW112341   6.710   6.349   2.289
 3814SOL    HW212342   6.850   6.265   2.300
 3815SOL     OW12343   5.241   1.932   1.751
 3815SOL    HW112344   5.278   1.988   1.676
 3815SOL    HW212345   5.146   1.957   1.767
 3816SOL     OW12346   0.674   0.055   1.697
 3816SOL    HW112347   0.755   0.054   1.755
 3816SOL    HW212348   0.609   0.123   1.732
 3817SOL     OW12349   4.870   1.911   4.811
 3817SOL    HW112350   4.894   1.851   4.734
 3817SOL    HW212351   4.821   1.859   4.881
 3818SOL     OW12352   5.051   6.343   2.537
 3818SOL    HW112353   5.068   6.335   2.635
 3818SOL    HW212354   4.953   6.360   2.521
 3819SOL     OW12355   4.987   5.260   0.202
 3819SOL    HW112356   5.085   5.272   0.186
 3819SOL    HW212357   4.972   5.176   0.255
 3820SOL     OW12358   4.969   6.191   3.818
 3820SOL    HW112359   4.895   6.257   3.804
 3820SOL    HW212360   4.971   6.126   3.743
 3821SOL     OW12361   1.536   3.536   1.547
 3821SOL    HW112362   1.541   3.634   1.563
 3821SOL    HW212363   1.627   3.496   1.553
 3822SOL     OW12364   2.375   5.674   1.108
 3822SOL    HW112365   2.276   5.663   1.102
 3822SOL    HW212366   2.411   5.707   1.020
 3823SOL     OW12367   3.501   2.740   5.998
 3823SOL    HW112368   3.514   2.670   5.928
 3823SOL    HW212369   3.464   2.823   5.955
 3824SOL     OW12370   6.353   2.115   5.719
 3824SOL    HW112371   6.416   2.104   5.796
 3824SOL    HW212372   6.405   2.120   5.633
 3825SOL     OW12373   0.014   6.556   6.446
 3825SOL    HW112374   0.083   6.495   6.486
 3825SOL    HW212375   0.014   6.545   6.347
 3826SOL     OW12376   0.084   3.319   1.574
 3826SOL    HW112377   0.056   3.222   1.573
 3826SOL    HW212378   0.166   3.331   1.518
 3827SOL     OW12379   4.153   3.204   0.908
 3827SOL    HW112380   4.131   3.301   0.922
 3827SOL    HW212381   4.174   3.161   0.995
 3828SOL     OW12382   5.167   1.949   2.814
 3828SOL    HW112383   5.225   1.886   2.866
 3828SOL    HW212384   5.208   2.040   2.815
 3829SOL     OW12385   2.730   4.653   3.982
 3829SOL    HW112386   2.668   4.575   3.990
 3829SOL    HW212387   2.742   4.677   3.886
 3830SOL     OW12388   2.412   0.587   5.120
 3830SOL    HW112389   2.322   0.625   5.097
 3830SOL    HW212390   2.476   0.662   5.138
 3831SOL     OW12391   3.813   1.728   2.593
 3831SOL    HW112392   3.753   1.801   2.625
 3831SOL    HW212393   3.835   1.743   2.497
 3832SOL     OW12394   6.703   0.798   2.145
 3832SOL    HW112395   6.675   0.824   2.238
 3832SOL    HW212396   6.738   0.878   2.097
 3833SOL     OW12397   0.617   4.961   6.824
 3833SOL    HW112398   0.618   4.962   6.924
 3833SOL    HW212399   0.604   4.867   6.792
 3834SOL     OW12400   3.006   1.698   0.601
 3834SOL    HW112401   2.989   1.796   0.603
 3834SOL    HW212402   3.017   1.663   0.694
 3835SOL     OW12403   3.545   5.324   5.258
 3835SOL    HW112404   3.638   5.288   5.245
 3835SOL    HW212405   3.499   5.272   5.329
 3836SOL     OW12406   1.302   3.884   6.227
 3836SOL    HW112407   1.321   3.787   6.237
 3836SOL    HW212408   1.297   3.907   6.129
 3837SOL     OW12409   4.199   3.639   0.727
 3837SOL    HW112410   4.250   3.723   0.747
 3837SOL    HW212411   4.196   3.581   0.808
 3838SOL     OW12412   6.570   2.591   4.837
 3838SOL    HW112413   6.621   2.507   4.825
 3838SOL    HW212414   6.564   2.614   4.934
 3839SOL     OW12415   5.887   6.063   5.447
 3839SOL    HW112416   5.895   6.058   5.348
 3839SOL    HW212417   5.972   6.030   5.490
 3840SOL     OW12418   1.805   0.994   4.075
 3840SOL    HW112419   1.888   0.942   4.057
 3840SOL    HW212420   1.813   1.041   4.163
 3841SOL     OW12421   0.527   3.551   5.619
 3841SOL    HW112422   0.585   3.470   5.631
 3841SOL    HW212423   0.500   3.559   5.523
 3842SOL     OW12424   0.660   5.192   6.697
 3842SOL    HW112425   0.735   5.196   6.631
 3842SOL    HW212426   0.669   5.109   6.752
 3843SOL     OW12427   6.219   3.054   0.740
 3843SOL    HW112428   6.178   2.967   0.767
 3843SOL    HW212429   6.252   3.102   0.821
 3844SOL     OW12430   1.750   4.915   6.335
 3844SOL    HW112431   1.832   4.874   6.376
 3844SOL    HW212432   1.694   4.844   6.293
 3845SOL     OW12433   3.129   4.069   3.384
 3845SOL    HW112434   3.104   3.976   3.358
 3845SOL    HW212435   3.146   4.123   3.302
 3846SOL     OW12436   0.147   4.709   5.025
 3846SOL    HW112437   0.083   4.674   4.958
 3846SOL    HW212438   0.223   4.754   4.978
 3847SOL     OW12439   0.814   7.017   6.724
 3847SOL    HW112440   0.860   6.989   6.809
 3847SOL    HW212441   0.722   6.978   6.722
 3848SOL     OW12442   2.355   5.038   1.478
 3848SOL    HW112443   2.279   5.007   1.536
 3848SOL    HW212444   2.407   5.109   1.526
 3849SOL     OW12445   0.938   2.089   5.578
 3849SOL    HW112446   0.920   2.045   5.666
 3849SOL    HW212447   0.853   2.093   5.525
 3850SOL     OW12448   3.396   4.114   1.986
 3850SOL    HW112449   3.334   4.156   1.919
 3850SOL    HW212450   3.484   4.096   1.943
 3851SOL     OW12451   2.209   2.736   2.879
 3851SOL    HW112452   2.243   2.802   2.946
 3851SOL    HW212453   2.283   2.711   2.816
 3852SOL     OW12454   3.910   0.814   4.531
 3852SOL    HW112455   3.984   0.836   4.595
 3852SOL    HW212456   3.852   0.895   4.519
 3853SOL     OW12457   1.009   3.567   1.893
 3853SOL    HW112458   0.984   3.525   1.806
 3853SOL    HW212459   1.091   3.624   1.880
 3854SOL     OW12460   1.394   3.433   4.579
 3854SOL    HW112461   1.400   3.335   4.560
 3854SOL    HW212462   1.430   3.484   4.501
 3855SOL     OW12463   6.519   3.059   5.672
 3855SOL    HW112464   6.485   3.029   5.761
 3855SOL    HW212465   6.578   2.988   5.634
 3856SOL     OW12466   0.733   6.327   6.198
 3856SOL    HW112467   0.752   6.279   6.113
 3856SOL    HW212468   0.698   6.418   6.178
 3857SOL     OW12469   0.346   6.608   5.282
 3857SOL    HW112470   0.307   6.531   5.232
 3857SOL    HW212471   0.277   6.681   5.289
 3858SOL     OW12472   2.668   5.978   6.961
 3858SOL    HW112473   2.710   5.922   6.889
 3858SOL    HW212474   2.646   5.921   0.011
 3859SOL     OW12475   0.412   3.049   2.349
 3859SOL    HW112476   0.460   3.076   2.266
 3859SOL    HW212477   0.461   3.084   2.429
 3860SOL     OW12478   2.416   6.863   5.818
 3860SOL    HW112479   2.361   6.901   5.893
 3860SOL    HW212480   2.509   6.901   5.823
 3861SOL     OW12481   4.498   4.419   0.889
 3861SOL    HW112482   4.413   4.412   0.838
 3861SOL    HW212483   4.527   4.515   0.893
 3862SOL     OW12484   1.573   5.969   6.076
 3862SOL    HW112485   1.528   5.887   6.040
 3862SOL    HW212486   1.546   5.984   6.171
 3863SOL     OW12487   3.288   3.849   1.332
 3863SOL    HW112488   3.370   3.833   1.277
 3863SOL    HW212489   3.314   3.853   1.429
 3864SOL     OW12490   3.080   2.449   0.184
 3864SOL    HW112491   3.147   2.512   0.144
 3864SOL    HW212492   3.062   2.375   0.120
 3865SOL     OW12493   4.867   6.989   2.695
 3865SOL    HW112494   4.878   6.921   2.767
 3865SOL    HW212495   4.832   6.945   2.613
 3866SOL     OW12496   3.964   6.660   6.700
 3866SOL    HW112497   3.967   6.683   6.797
 3866SOL    HW212498   3.881   6.698   6.660
 3867SOL     OW12499   2.004   3.257   3.658
 3867SOL    HW112500   1.936   3.189   3.683
 3867SOL    HW212501   2.073   3.264   3.729
 3868SOL     OW12502   1.430   5.895   2.767
 3868SOL    HW112503   1.491   5.838   2.712
 3868SOL    HW212504   1.463   5.989   2.769
 3869SOL     OW12505   1.038   3.120   3.380
 3869SOL    HW112506   1.077   3.197   3.430
 3869SOL    HW212507   1.023   3.044   3.444
 3870SOL     OW12508   2.643   4.829   0.258
 3870SOL    HW112509   2.715   4.854   0.323
 3870SOL    HW212510   2.675   4.846   0.164
 3871SOL     OW12511   2.455   0.419   3.442
 3871SOL    HW112512   2.535   0.472   3.469
 3871SOL    HW212513   2.480   0.322   3.435
 3872SOL     OW12514   4.004   3.890   0.608
 3872SOL    HW112515   3.978   3.795   0.590
 3872SOL    HW212516   4.085   3.913   0.555
 3873SOL     OW12517   5.004   4.833   2.052
 3873SOL    HW112518   5.015   4.894   1.973
 3873SOL    HW212519   5.078   4.850   2.117
 3874SOL     OW12520   4.381   0.211   6.065
 3874SOL    HW112521   4.458   0.257   6.020
 3874SOL    HW212522   4.357   0.129   6.014
 3875SOL     OW12523   1.542   5.028   0.816
 3875SOL    HW112524   1.450   5.006   0.848
 3875SOL    HW212525   1.609   5.001   0.885
 3876SOL     OW12526   4.937   3.641   3.081
 3876SOL    HW112527   4.840   3.624   3.096
 3876SOL    HW212528   4.983   3.654   3.169
 3877SOL     OW12529   5.348   1.139   2.429
 3877SOL    HW112530   5.420   1.084   2.471
 3877SOL    HW212531   5.293   1.182   2.501
 3878SOL     OW12532   2.884   6.199   5.318
 3878SOL    HW112533   2.853   6.124   5.376
 3878SOL    HW212534   2.980   6.185   5.294
 3879SOL     OW12535   3.977   6.132   1.449
 3879SOL    HW112536   4.006   6.050   1.497
 3879SOL    HW212537   3.879   6.127   1.430
 3880SOL     OW12538   5.582   3.112   4.080
 3880SOL    HW112539   5.509   3.071   4.025
 3880SOL    HW212540   5.654   3.146   4.020
 3881SOL     OW12541   1.432   3.764   0.648
 3881SOL    HW112542   1.398   3.809   0.566
 3881SOL    HW212543   1.532   3.771   0.651
 3882SOL     OW12544   0.592   0.309   6.368
 3882SOL    HW112545   0.580   0.228   6.311
 3882SOL    HW212546   0.520   0.376   6.346
 3883SOL     OW12547   3.201   0.671   6.185
 3883SOL    HW112548   3.143   0.752   6.174
 3883SOL    HW212549   3.180   0.626   6.271
 3884SOL     OW12550   1.545   4.998   5.955
 3884SOL    HW112551   1.489   4.998   5.873
 3884SOL    HW212552   1.640   4.976   5.931
 3885SOL     OW12553   0.296   1.219   4.373
 3885SOL    HW112554   0.320   1.183   4.463
 3885SOL    HW212555   0.240   1.152   4.324
 3886SOL     OW12556   6.636   5.924   5.195
 3886SOL    HW112557   6.552   5.965   5.158
 3886SOL    HW212558   6.699   5.905   5.119
 3887SOL     OW12559   4.724   2.629   5.454
 3887SOL    HW112560   4.626   2.613   5.455
 3887SOL    HW212561   4.766   2.581   5.531
 3888SOL     OW12562   6.290   2.057   0.890
 3888SOL    HW112563   6.238   2.001   0.827
 3888SOL    HW212564   6.235   2.136   0.918
 3889SOL     OW12565   1.017   5.775   6.651
 3889SOL    HW112566   0.963   5.794   6.569
 3889SOL    HW212567   0.993   5.685   6.686
 3890SOL     OW12568   5.871   3.855   2.402
 3890SOL    HW112569   5.936   3.886   2.471
 3890SOL    HW212570   5.780   3.847   2.444
 3891SOL     OW12571   5.948   4.923   5.579
 3891SOL    HW112572   5.985   4.999   5.633
 3891SOL    HW212573   5.848   4.931   5.573
 3892SOL     OW12574   4.981   6.923   3.405
 3892SOL    HW112575   4.898   6.978   3.415
 3892SOL    HW212576   4.994   6.901   3.308
 3893SOL     OW12577   2.939   6.492   3.983
 3893SOL    HW112578   3.024   6.536   3.955
 3893SOL    HW212579   2.868   6.508   3.914
 3894SOL     OW12580   5.113   4.546   0.260
 3894SOL    HW112581   5.097   4.476   0.330
 3894SOL    HW212582   5.046   4.536   0.187
 3895SOL     OW12583   1.810   2.013   5.817
 3895SOL    HW112584   1.870   2.023   5.738
 3895SOL    HW212585   1.809   2.098   5.870
 3896SOL     OW12586   6.761   2.344   5.678
 3896SOL    HW112587   6.854   2.316   5.654
 3896SOL    HW212588   6.710   2.366   5.595
 3897SOL     OW12589   3.440   6.426   2.489
 3897SOL    HW112590   3.376   6.392   2.557
 3897SOL    HW212591   3.531   6.435   2.530
 3898SOL     OW12592   3.759   4.118   4.210
 3898SOL    HW112593   3.854   4.105   4.180
 3898SOL    HW212594   3.705   4.038   4.184
 3899SOL     OW12595   4.916   1.615   4.792
 3899SOL    HW112596   4.909   1.516   4.783
 3899SOL    HW212597   4.918   1.656   4.701
 3900SOL     OW12598   6.680   2.668   3.749
 3900SOL    HW112599   6.745   2.656   3.674
 3900SOL    HW212600   6.594   2.623   3.725
 3901SOL     OW12601   2.256   5.889   5.241
 3901SOL    HW112602   2.343   5.847   5.215
 3901SOL    HW212603   2.248   5.889   5.341
 3902SOL     OW12604   4.290   4.943   1.688
 3902SOL    HW112605   4.307   4.853   1.647
 3902SOL    HW212606   4.358   4.960   1.760
 3903SOL     OW12607   3.470   3.066   6.199
 3903SOL    HW112608   3.398   3.073   6.130
 3903SOL    HW212609   3.550   3.021   6.158
 3904SOL     OW12610   1.911   6.040   0.523
 3904SOL    HW112611   1.963   6.125   0.533
 3904SOL    HW212612   1.879   6.009   0.612
 3905SOL     OW12613   0.095   0.178   5.442
 3905SOL    HW112614   0.130   0.171   5.348
 3905SOL    HW212615   0.002   0.214   5.440
 3906SOL     OW12616   0.632   5.566   5.031
 3906SOL    HW112617   0.636   5.485   5.090
 3906SOL    HW212618   0.570   5.549   4.955
 3907SOL     OW12619   1.087   0.916   4.486
 3907SOL    HW112620   1.077   0.985   4.558
 3907SOL    HW212621   1.001   0.867   4.474
 3908SOL     OW12622   2.061   0.275   4.526
 3908SOL    HW112623   2.025   0.211   4.595
 3908SOL    HW212624   2.102   0.223   4.451
 3909SOL     OW12625   5.995   2.405   1.054
 3909SOL    HW112626   5.971   2.501   1.039
 3909SOL    HW212627   5.949   2.371   1.137
 3910SOL     OW12628   3.007   2.810   1.120
 3910SOL    HW112629   2.923   2.828   1.171
 3910SOL    HW212630   3.085   2.812   1.182
 3911SOL     OW12631   6.239   0.562   0.920
 3911SOL    HW112632   6.283   0.587   1.006
 3911SOL    HW212633   6.155   0.616   0.909
 3912SOL     OW12634   3.740   3.380   0.097
 3912SOL    HW112635   3.789   3.297   0.073
 3912SOL    HW212636   3.765   3.408   0.190
 3913SOL     OW12637   4.657   5.806   1.710
 3913SOL    HW112638   4.699   5.758   1.788
 3913SOL    HW212639   4.643   5.742   1.635
 3914SOL     OW12640   0.018   1.064   0.901
 3914SOL    HW112641   6.946   1.075   0.911
 3914SOL    HW212642   0.042   1.071   0.804
 3915SOL     OW12643   4.874   5.768   5.545
 3915SOL    HW112644   4.834   5.683   5.511
 3915SOL    HW212645   4.815   5.807   5.615
 3916SOL     OW12646   2.435   1.811   2.896
 3916SOL    HW112647   2.466   1.726   2.939
 3916SOL    HW212648   2.509   1.878   2.897
 3917SOL     OW12649   3.749   4.521   1.345
 3917SOL    HW112650   3.847   4.499   1.349
 3917SOL    HW212651   3.704   4.489   1.428
 3918SOL     OW12652   5.158   1.299   0.537
 3918SOL    HW112653   5.103   1.304   0.454
 3918SOL    HW212654   5.254   1.285   0.512
 3919SOL     OW12655   4.285   6.191   2.602
 3919SOL    HW112656   4.367   6.248   2.597
 3919SOL    HW212657   4.313   6.095   2.609
 3920SOL     OW12658   3.028   1.692   5.514
 3920SOL    HW112659   3.011   1.714   5.417
 3920SOL    HW212660   3.040   1.776   5.566
 3921SOL     OW12661   0.011   2.922   6.109
 3921SOL    HW112662   0.070   2.879   6.178
 3921SOL    HW212663   6.953   2.871   6.103
 3922SOL     OW12664   4.827   3.915   3.004
 3922SOL    HW112665   4.799   3.866   2.922
 3922SOL    HW212666   4.902   3.866   3.048
 3923SOL     OW12667   5.106   1.021   1.552
 3923SOL    HW112668   5.148   1.110   1.536
 3923SOL    HW212669   5.088   0.975   1.465
 3924SOL     OW12670   5.663   4.980   4.141
 3924SOL    HW112671   5.602   4.907   4.110
 3924SOL    HW212672   5.673   5.048   4.068
 3925SOL     OW12673   5.179   4.512   0.803
 3925SOL    HW112674   5.200   4.543   0.710
 3925SOL    HW212675   5.107   4.443   0.799
 3926SOL     OW12676   0.690   5.757   5.314
 3926SOL    HW112677   0.765   5.703   5.275
 3926SOL    HW212678   0.617   5.696   5.345
 3927SOL     OW12679   5.229   2.245   5.463
 3927SOL    HW112680   5.311   2.302   5.465
 3927SOL    HW212681   5.226   2.194   5.377
 3928SOL     OW12682   3.388   5.757   2.165
 3928SOL    HW112683   3.341   5.674   2.137
 3928SOL    HW212684   3.487   5.744   2.159
 3929SOL     OW12685   0.497   1.854   5.334
 3929SOL    HW112686   0.446   1.884   5.253
 3929SOL    HW212687   0.433   1.820   5.403
 3930SOL     OW12688   2.367   4.869   4.069
 3930SOL    HW112689   2.273   4.837   4.055
 3930SOL    HW212690   2.422   4.797   4.112
 3931SOL     OW12691   1.859   2.732   1.388
 3931SOL    HW112692   1.928   2.663   1.412
 3931SOL    HW212693   1.768   2.693   1.403
 3932SOL     OW12694   2.451   4.458   3.995
 3932SOL    HW112695   2.499   4.501   4.071
 3932SOL    HW212696   2.402   4.377   4.028
 3933SOL     OW12697   1.830   6.256   1.332
 3933SOL    HW112698   1.903   6.311   1.374
 3933SOL    HW212699   1.741   6.287   1.366
 3934SOL     OW12700   0.897   0.584   1.867
 3934SOL    HW112701   0.907   0.649   1.942
 3934SOL    HW212702   0.814   0.530   1.882
 3935SOL     OW12703   6.806   3.851   5.814
 3935SOL    HW112704   6.761   3.910   5.748
 3935SOL    HW212705   6.784   3.882   5.907
 3936SOL     OW12706   6.407   4.293   5.735
 3936SOL    HW112707   6.504   4.269   5.745
 3936SOL    HW212708   6.399   4.373   5.676
 3937SOL     OW12709   0.515   6.372   1.571
 3937SOL    HW112710   0.591   6.343   1.629
 3937SOL    HW212711   0.441   6.406   1.628
 3938SOL     OW12712   0.987   3.472   1.637
 3938SOL    HW112713   0.913   3.513   1.583
 3938SOL    HW212714   1.075   3.502   1.600
 3939SOL     OW12715   1.119   0.708   3.055
 3939SOL    HW112716   1.044   0.645   3.036
 3939SOL    HW212717   1.155   0.690   3.146
 3940SOL     OW12718   3.105   6.171   0.545
 3940SOL    HW112719   3.142   6.102   0.483
 3940SOL    HW212720   3.047   6.234   0.493
 3941SOL     OW12721   5.412   5.793   2.284
 3941SOL    HW112722   5.394   5.699   2.314
 3941SOL    HW212723   5.445   5.793   2.190
 3942SOL     OW12724   0.057   5.765   5.253
 3942SOL    HW112725   0.073   5.670   5.226
 3942SOL    HW212726   0.041   5.820   5.171
 3943SOL     OW12727   1.757   3.180   0.498
 3943SOL    HW112728   1.798   3.255   0.446
 3943SOL    HW212729   1.702   3.218   0.573
 3944SOL     OW12730   5.001   2.840   6.818
 3944SOL    HW112731   4.924   2.816   6.760
 3944SOL    HW212732   4.969   2.861   6.911
 3945SOL     OW12733   5.604   0.462   3.716
 3945SOL    HW112734   5.593   0.380   3.660
 3945SOL    HW212735   5.572   0.443   3.809
 3946SOL     OW12736   0.469   3.431   0.383
 3946SOL    HW112737   0.513   3.453   0.470
 3946SOL    HW212738   0.539   3.404   0.316
 3947SOL     OW12739   6.398   5.432   1.765
 3947SOL    HW112740   6.344   5.349   1.776
 3947SOL    HW212741   6.337   5.509   1.747
 3948SOL     OW12742   1.344   3.230   5.910
 3948SOL    HW112743   1.407   3.171   5.960
 3948SOL    HW212744   1.256   3.184   5.900
 3949SOL     OW12745   5.931   0.238   1.953
 3949SOL    HW112746   5.891   0.275   1.869
 3949SOL    HW212747   5.871   0.260   2.031
 3950SOL     OW12748   2.781   4.663   1.511
 3950SOL    HW112749   2.734   4.683   1.596
 3950SOL    HW212750   2.836   4.580   1.522
 3951SOL     OW12751   0.882   2.574   4.595
 3951SOL    HW112752   0.910   2.624   4.513
 3951SOL    HW212753   0.818   2.631   4.648
 3952SOL     OW12754   5.379   3.877   0.543
 3952SOL    HW112755   5.462   3.828   0.567
 3952SOL    HW212756   5.403   3.962   0.496
 3953SOL     OW12757   3.303   3.287   6.958
 3953SOL    HW112758   3.347   3.278   0.020
 3953SOL    HW212759   3.261   3.199   6.934
 3954SOL     OW12760   0.605   2.640   5.958
 3954SOL    HW112761   0.531   2.663   6.021
 3954SOL    HW212762   0.611   2.540   5.949
 3955SOL     OW12763   6.913   3.782   0.538
 3955SOL    HW112764   6.916   3.771   0.438
 3955SOL    HW212765   6.991   3.735   0.579
 3956SOL     OW12766   6.637   2.941   5.445
 3956SOL    HW112767   6.649   3.019   5.383
 3956SOL    HW212768   6.561   2.884   5.413
 3957SOL     OW12769   0.611   1.403   3.163
 3957SOL    HW112770   0.648   1.404   3.256
 3957SOL    HW212771   0.656   1.329   3.112
 3958SOL     OW12772   5.249   6.100   0.191
 3958SOL    HW112773   5.253   6.151   0.276
 3958SOL    HW212774   5.176   6.137   0.133
 3959SOL     OW12775   2.525   6.166   0.738
 3959SOL    HW112776   2.526   6.093   0.807
 3959SOL    HW212777   2.568   6.133   0.654
 3960SOL     OW12778   5.432   3.549   1.137
 3960SOL    HW112779   5.488   3.492   1.198
 3960SOL    HW212780   5.453   3.645   1.153
 3961SOL     OW12781   5.525   0.052   1.286
 3961SOL    HW112782   5.540   0.138   1.335
 3961SOL    HW212783   5.428   0.044   1.260
 3962SOL     OW12784   0.915   6.583   6.028
 3962SOL    HW112785   0.957   6.647   6.092
 3962SOL    HW212786   0.974   6.503   6.018
 3963SOL     OW12787   4.590   5.538   3.155
 3963SOL    HW112788   4.521   5.605   3.182
 3963SOL    HW212789   4.563   5.495   3.069
 3964SOL     OW12790   6.200   6.489   6.057
 3964SOL    HW112791   6.238   6.474   5.966
 3964SOL    HW212792   6.272   6.478   6.126
 3965SOL     OW12793   4.096   2.825   0.126
 3965SOL    HW112794   4.018   2.880   0.156
 3965SOL    HW212795   4.063   2.744   0.078
 3966SOL     OW12796   5.966   3.359   5.663
 3966SOL    HW112797   5.994   3.453   5.644
 3966SOL    HW212798   6.025   3.320   5.734
 3967SOL     OW12799   2.039   6.886   6.688
 3967SOL    HW112800   2.101   6.884   6.767
 3967SOL    HW212801   2.020   6.792   6.658
 3968SOL     OW12802   5.956   0.438   1.446
 3968SOL    HW112803   6.055   0.432   1.456
 3968SOL    HW212804   5.930   0.412   1.353
 3969SOL     OW12805   0.481   6.191   1.878
 3969SOL    HW112806   0.493   6.220   1.973
 3969SOL    HW212807   0.564   6.147   1.846
 3970SOL     OW12808   4.650   4.334   4.216
 3970SOL    HW112809   4.614   4.403   4.279
 3970SOL    HW212810   4.574   4.286   4.172
 3971SOL     OW12811   1.464   6.205   3.660
 3971SOL    HW112812   1.490   6.141   3.588
 3971SOL    HW212813   1.380   6.253   3.633
 3972SOL     OW12814   1.272   0.539   0.204
 3972SOL    HW112815   1.330   0.507   0.280
 3972SOL    HW212816   1.203   0.469   0.184
 3973SOL     OW12817   3.493   2.876   2.726
 3973SOL    HW112818   3.457   2.952   2.671
 3973SOL    HW212819   3.455   2.882   2.818
 3974SOL     OW12820   5.543   0.705   6.186
 3974SOL    HW112821   5.632   0.671   6.217
 3974SOL    HW212822   5.518   0.786   6.239
 3975SOL     OW12823   6.931   5.971   5.572
 3975SOL    HW112824   6.854   5.985   5.509
 3975SOL    HW212825   6.897   5.938   5.660
 3976SOL     OW12826   1.297   3.169   6.700
 3976SOL    HW112827   1.364   3.097   6.715
 3976SOL    HW212828   1.224   3.161   6.768
 3977SOL     OW12829   3.901   6.117   5.889
 3977SOL    HW112830   3.885   6.151   5.797
 3977SOL    HW212831   3.903   6.017   5.887
 3978SOL     OW12832   6.263   4.399   6.877
 3978SOL    HW112833   6.264   4.448   6.790
 3978SOL    HW212834   6.192   4.328   6.874
 3979SOL     OW12835   0.995   6.494   3.220
 3979SOL    HW112836   1.035   6.586   3.224
 3979SOL    HW212837   0.965   6.475   3.127
 3980SOL     OW12838   4.987   3.605   4.805
 3980SOL    HW112839   4.972   3.520   4.755
 3980SOL    HW212840   4.931   3.606   4.887
 3981SOL     OW12841   6.442   2.263   5.444
 3981SOL    HW112842   6.431   2.349   5.494
 3981SOL    HW212843   6.383   2.264   5.363
 3982SOL     OW12844   2.330   2.343   3.785
 3982SOL    HW112845   2.425   2.372   3.792
 3982SOL    HW212846   2.272   2.408   3.835
 3983SOL     OW12847   3.644   6.467   3.875
 3983SOL    HW112848   3.690   6.396   3.820
 3983SOL    HW212849   3.546   6.465   3.857
 3984SOL     OW12850   1.196   0.563   1.439
 3984SOL    HW112851   1.129   0.625   1.478
 3984SOL    HW212852   1.151   0.498   1.378
 3985SOL     OW12853   1.721   3.184   1.686
 3985SOL    HW112854   1.627   3.193   1.719
 3985SOL    HW212855   1.754   3.273   1.654
 3986SOL     OW12856   0.954   2.705   1.895
 3986SOL    HW112857   0.990   2.725   1.804
 3986SOL    HW212858   0.986   2.615   1.924
 3987SOL     OW12859   1.878   4.241   6.217
 3987SOL    HW112860   1.850   4.165   6.277
 3987SOL    HW212861   1.951   4.209   6.156
 3988SOL     OW12862   4.929   1.577   6.936
 3988SOL    HW112863   4.890   1.526   7.012
 3988SOL    HW212864   5.020   1.610   6.961
 3989SOL     OW12865   4.185   0.905   6.896
 3989SOL    HW112866   4.204   0.932   6.991
 3989SOL    HW212867   4.215   0.977   6.834
 3990SOL     OW12868   1.656   2.488   3.865
 3990SOL    HW112869   1.752   2.514   3.854
 3990SOL    HW212870   1.599   2.548   3.809
 3991SOL     OW12871   0.226   0.968   4.242
 3991SOL    HW112872   0.223   0.901   4.316
 3991SOL    HW212873   0.318   0.971   4.203
 3992SOL     OW12874   5.240   3.979   6.568
 3992SOL    HW112875   5.196   4.053   6.618
 3992SOL    HW212876   5.179   3.945   6.496
 3993SOL     OW12877   1.536   1.305   3.771
 3993SOL    HW112878   1.441   1.287   3.795
 3993SOL    HW212879   1.590   1.320   3.855
 3994SOL     OW12880   2.631   1.885   4.229
 3994SOL    HW112881   2.650   1.807   4.169
 3994SOL    HW212882   2.713   1.906   4.283
 3995SOL     OW12883   1.256   3.701   1.872
 3995SOL    HW112884   1.321   3.700   1.948
 3995SOL    HW212885   1.281   3.632   1.805
 3996SOL     OW12886   6.007   6.472   3.746
 3996SOL    HW112887   5.945   6.493   3.822
 3996SOL    HW212888   6.030   6.375   3.748
 3997SOL     OW12889   5.373   3.618   2.863
 3997SOL    HW112890   5.282   3.592   2.895
 3997SOL    HW212891   5.403   3.555   2.792
 3998SOL     OW12892   5.721   2.233   2.985
 3998SOL    HW112893   5.738   2.163   2.916
 3998SOL    HW212894   5.692   2.318   2.939
 3999SOL     OW12895   5.041   2.792   1.344
 3999SOL    HW112896   4.959   2.753   1.304
 3999SOL    HW212897   5.061   2.745   1.431
 4000SOL     OW12898   3.417   4.973   2.388
 4000SOL    HW112899   3.353   5.009   2.456
 4000SOL    HW212900   3.394   5.010   2.298
 4001SOL     OW12901   1.402   4.728   4.343
 4001SOL    HW112902   1.411   4.796   4.270
 4001SOL    HW212903   1.492   4.687   4.362
 4002SOL     OW12904   3.383   4.146   3.497
 4002SOL    HW112905   3.366   4.160   3.595
 4002SOL    HW212906   3.298   4.120   3.452
 4003SOL     OW12907   2.409   1.386   5.736
 4003SOL    HW112908   2.369   1.405   5.826
 4003SOL    HW212909   2.353   1.428   5.665
 4004SOL     OW12910   1.109   3.939   3.579
 4004SOL    HW112911   1.072   3.930   3.486
 4004SOL    HW212912   1.059   3.877   3.641
 4005SOL     OW12913   4.961   3.293   0.390
 4005SOL    HW112914   5.061   3.296   0.390
 4005SOL    HW212915   4.929   3.216   0.445
 4006SOL     OW12916   4.921   5.326   3.338
 4006SOL    HW112917   4.829   5.293   3.315
 4006SOL    HW212918   4.980   5.248   3.360
 4007SOL     OW12919   7.004   1.206   3.078
 4007SOL    HW112920   0.066   1.189   3.119
 4007SOL    HW212921   7.009   1.289   3.022
 4008SOL     OW12922   3.493   0.703   0.836
 4008SOL    HW112923   3.458   0.760   0.911
 4008SOL    HW212924   3.447   0.728   0.751
 4009SOL     OW12925   4.717   2.212   0.476
 4009SOL    HW112926   4.774   2.239   0.398
 4009SOL    HW212927   4.688   2.294   0.526
 4010SOL     OW12928   2.686   5.232   1.880
 4010SOL    HW112929   2.708   5.328   1.899
 4010SOL    HW212930   2.587   5.219   1.887
 4011SOL     OW12931   4.712   5.834   0.148
 4011SOL    HW112932   4.710   5.753   0.089
 4011SOL    HW212933   4.630   5.889   0.132
 4012SOL     OW12934   4.532   6.660   2.819
 4012SOL    HW112935   4.560   6.642   2.913
 4012SOL    HW212936   4.613   6.661   2.760
 4013SOL     OW12937   0.295   1.772   6.229
 4013SOL    HW112938   0.302   1.740   6.324
 4013SOL    HW212939   0.331   1.702   6.167
 4014SOL     OW12940   3.016   5.068   2.396
 4014SOL    HW112941   3.008   4.980   2.442
 4014SOL    HW212942   3.020   5.054   2.297
 4015SOL     OW12943   4.404   4.674   6.018
 4015SOL    HW112944   4.443   4.707   5.932
 4015SOL    HW212945   4.309   4.647   6.002
 4016SOL     OW12946   3.972   5.420   5.168
 4016SOL    HW112947   3.964   5.473   5.252
 4016SOL    HW212948   3.995   5.480   5.092
 4017SOL     OW12949   0.711   4.812   5.799
 4017SOL    HW112950   0.684   4.735   5.741
 4017SOL    HW212951   0.642   4.884   5.795
 4018SOL     OW12952   4.441   6.174   2.195
 4018SOL    HW112953   4.354   6.131   2.172
 4018SOL    HW212954   4.427   6.273   2.207
 4019SOL     OW12955   5.331   3.473   3.310
 4019SOL    HW112956   5.279   3.389   3.297
 4019SOL    HW212957   5.349   3.486   3.408
 4020SOL     OW12958   6.524   5.356   4.168
 4020SOL    HW112959   6.447   5.375   4.229
 4020SOL    HW212960   6.555   5.442   4.127
 4021SOL     OW12961   4.394   3.543   6.474
 4021SOL    HW112962   4.338   3.599   6.535
 4021SOL    HW212963   4.395   3.585   6.382
 4022SOL     OW12964   1.944   0.964   1.673
 4022SOL    HW112965   1.895   1.049   1.694
 4022SOL    HW212966   1.976   0.922   1.758
 4023SOL     OW12967   0.413   1.632   5.056
 4023SOL    HW112968   0.331   1.684   5.034
 4023SOL    HW212969   0.488   1.660   4.995
 4024SOL     OW12970   0.739   5.892   4.636
 4024SOL    HW112971   0.738   5.843   4.723
 4024SOL    HW212972   0.714   5.830   4.562
 4025SOL     OW12973   0.121   5.584   3.673
 4025SOL    HW112974   0.194   5.652   3.671
 4025SOL    HW212975   0.081   5.575   3.582
 4026SOL     OW12976   6.500   6.536   3.641
 4026SOL    HW112977   6.537   6.627   3.660
 4026SOL    HW212978   6.536   6.471   3.707
 4027SOL     OW12979   2.663   4.039   5.840
 4027SOL    HW112980   2.748   4.091   5.833
 4027SOL    HW212981   2.616   4.040   5.752
 4028SOL     OW12982   4.540   1.566   2.917
 4028SOL    HW112983   4.589   1.629   2.857
 4028SOL    HW212984   4.553   1.592   3.012
 4029SOL     OW12985   1.980   5.723   6.861
 4029SOL    HW112986   1.972   5.666   6.779
 4029SOL    HW212987   2.049   5.684   6.922
 4030SOL     OW12988   0.047   1.359   2.820
 4030SOL    HW112989   0.137   1.399   2.807
 4030SOL    HW212990   0.038   1.278   2.762
 4031SOL     OW12991   6.434   6.271   1.478
 4031SOL    HW112992   6.511   6.333   1.483
 4031SOL    HW212993   6.444   6.200   1.547
 4032SOL     OW12994   5.716   0.510   1.836
 4032SOL    HW112995   5.669   0.562   1.764
 4032SOL    HW212996   5.808   0.546   1.848
 4033SOL     OW12997   2.024   2.638   2.660
 4033SOL    HW112998   2.034   2.573   2.736
 4033SOL    HW212999   1.974   2.718   2.692
 4034SOL     OW13000   0.096   3.086   5.469
 4034SOL    HW113001   0.184   3.130   5.487
 4034SOL    HW213002   0.091   3.000   5.520
 4035SOL     OW13003   5.113   1.567   1.776
 4035SOL    HW113004   5.068   1.629   1.840
 4035SOL    HW213005   5.145   1.619   1.697
 4036SOL     OW13006   2.608   5.578   2.732
 4036SOL    HW113007   2.564   5.492   2.758
 4036SOL    HW213008   2.705   5.575   2.756
 4037SOL     OW13009   2.209   0.928   5.796
 4037SOL    HW113010   2.245   0.853   5.739
 4037SOL    HW213011   2.154   0.889   5.870
 4038SOL     OW13012   3.363   3.661   5.806
 4038SOL    HW113013   3.309   3.737   5.842
 4038SOL    HW213014   3.418   3.622   5.879
 4039SOL     OW13015   6.172   4.969   1.596
 4039SOL    HW113016   6.203   5.029   1.522
 4039SOL    HW213017   6.099   4.910   1.563
 4040SOL     OW13018   3.702   5.976   4.523
 4040SOL    HW113019   3.713   5.953   4.427
 4040SOL    HW213020   3.716   5.894   4.579
 4041SOL     OW13021   2.650   6.389   0.423
 4041SOL    HW113022   2.637   6.451   0.500
 4041SOL    HW213023   2.635   6.439   0.337
 4042SOL     OW13024   5.925   0.826   3.800
 4042SOL    HW113025   6.006   0.774   3.775
 4042SOL    HW213026   5.894   0.880   3.722
 4043SOL     OW13027   5.267   3.676   6.756
 4043SOL    HW113028   5.324   3.724   6.689
 4043SOL    HW213029   5.285   3.578   6.751
 4044SOL     OW13030   4.627   5.272   3.254
 4044SOL    HW113031   4.606   5.370   3.251
 4044SOL    HW213032   4.563   5.223   3.194
 4045SOL     OW13033   5.209   6.857   5.660
 4045SOL    HW113034   5.279   6.790   5.684
 4045SOL    HW213035   5.251   6.948   5.652
 4046SOL     OW13036   6.469   1.909   2.272
 4046SOL    HW113037   6.559   1.867   2.285
 4046SOL    HW213038   6.480   2.004   2.246
 4047SOL     OW13039   2.805   3.431   6.993
 4047SOL    HW113040   2.891   3.380   6.997
 4047SOL    HW213041   2.728   3.368   7.000
 4048SOL     OW13042   4.532   1.434   1.899
 4048SOL    HW113043   4.497   1.470   1.985
 4048SOL    HW213044   4.455   1.403   1.842
 4049SOL     OW13045   3.640   4.538   6.490
 4049SOL    HW113046   3.678   4.600   6.421
 4049SOL    HW213047   3.712   4.513   6.555
 4050SOL     OW13048   0.269   5.604   2.672
 4050SOL    HW113049   0.353   5.612   2.725
 4050SOL    HW213050   0.203   5.548   2.723
 4051SOL     OW13051   5.095   0.810   5.109
 4051SOL    HW113052   5.095   0.716   5.074
 4051SOL    HW213053   5.189   0.844   5.113
 4052SOL     OW13054   6.462   2.504   3.655
 4052SOL    HW113055   6.406   2.421   3.656
 4052SOL    HW213056   6.419   2.573   3.597
 4053SOL     OW13057   0.732   5.292   4.544
 4053SOL    HW113058   0.806   5.303   4.477
 4053SOL    HW213059   0.724   5.196   4.570
 4054SOL     OW13060   4.920   4.028   0.503
 4054SOL    HW113061   4.842   3.965   0.502
 4054SOL    HW213062   4.951   4.041   0.597
 4055SOL     OW13063   0.807   4.205   0.664
 4055SOL    HW113064   0.801   4.304   0.676
 4055SOL    HW213065   0.902   4.176   0.673
 4056SOL     OW13066   5.046   3.355   0.825
 4056SOL    HW113067   5.059   3.259   0.851
 4056SOL    HW213068   5.107   3.413   0.880
 4057SOL     OW13069   6.681   3.008   6.794
 4057SOL    HW113070   6.755   2.949   6.827
 4057SOL    HW213071   6.610   3.016   6.864
 4058SOL     OW13072   2.709   6.308   5.783
 4058SOL    HW113073   2.617   6.297   5.822
 4058SOL    HW213074   2.714   6.257   5.697
 4059SOL     OW13075   1.255   1.422   4.531
 4059SOL    HW113076   1.316   1.439   4.608
 4059SOL    HW213077   1.208   1.507   4.506
 4060SOL     OW13078   6.322   5.976   5.355
 4060SOL    HW113079   6.293   5.914   5.282
 4060SOL    HW213080   6.375   5.926   5.423
 4061SOL     OW13081   1.852   5.122   1.181
 4061SOL    HW113082   1.784   5.196   1.174
 4061SOL    HW213083   1.944   5.161   1.177
 4062SOL     OW13084   1.765   1.740   1.736
 4062SOL    HW113085   1.717   1.824   1.710
 4062SOL    HW213086   1.701   1.664   1.737
 4063SOL     OW13087   5.409   1.644   0.463
 4063SOL    HW113088   5.501   1.678   0.442
 4063SOL    HW213089   5.347   1.669   0.388
 4064SOL     OW13090   1.792   2.067   5.361
 4064SOL    HW113091   1.765   2.142   5.300
 4064SOL    HW213092   1.867   2.016   5.320
 4065SOL     OW13093   2.200   6.794   1.060
 4065SOL    HW113094   2.200   6.698   1.087
 4065SOL    HW213095   2.290   6.834   1.079
 4066SOL     OW13096   0.285   4.227   3.518
 4066SOL    HW113097   0.303   4.292   3.445
 4066SOL    HW213098   0.187   4.210   3.525
 4067SOL     OW13099   4.743   4.827   1.394
 4067SOL    HW113100   4.682   4.870   1.460
 4067SOL    HW213101   4.787   4.748   1.436
 4068SOL     OW13102   2.047   2.965   5.075
 4068SOL    HW113103   2.003   2.896   5.133
 4068SOL    HW213104   2.119   3.011   5.127
 4069SOL     OW13105   3.945   7.012   6.787
 4069SOL    HW113106   4.031   0.007   6.742
 4069SOL    HW213107   3.958   6.930   6.844
 4070SOL     OW13108   1.512   3.120   3.180
 4070SOL    HW113109   1.474   3.106   3.272
 4070SOL    HW213110   1.598   3.170   3.187
 4071SOL     OW13111   0.571   0.720   4.081
 4071SOL    HW113112   0.623   0.635   4.083
 4071SOL    HW213113   0.518   0.725   3.996
 4072SOL     OW13114   1.839   5.327   3.555
 4072SOL    HW113115   1.793   5.323   3.644
 4072SOL    HW213116   1.923   5.380   3.562
 4073SOL     OW13117   3.028   4.834   0.159
 4073SOL    HW113118   2.938   4.799   0.134
 4073SOL    HW213119   3.072   4.772   0.224
 4074SOL     OW13120   1.025   5.955   2.946
 4074SOL    HW113121   1.055   5.912   2.862
 4074SOL    HW213122   0.930   5.986   2.936
 4075SOL     OW13123   5.794   0.295   0.648
 4075SOL    HW113124   5.744   0.381   0.642
 4075SOL    HW213125   5.755   0.229   0.584
 4076SOL     OW13126   3.035   3.338   5.381
 4076SOL    HW113127   3.025   3.239   5.394
 4076SOL    HW213128   3.111   3.356   5.319
 4077SOL     OW13129   3.883   1.798   1.819
 4077SOL    HW113130   3.790   1.831   1.807
 4077SOL    HW213131   3.947   1.873   1.803
 4078SOL     OW13132   2.793   4.724   2.736
 4078SOL    HW113133   2.735   4.802   2.713
 4078SOL    HW213134   2.884   4.737   2.696
 4079SOL     OW13135   0.971   2.230   4.153
 4079SOL    HW113136   0.965   2.249   4.251
 4079SOL    HW213137   1.066   2.209   4.129
 4080SOL     OW13138   6.367   1.221   4.930
 4080SOL    HW113139   6.373   1.124   4.905
 4080SOL    HW213140   6.312   1.269   4.861
 4081SOL     OW13141   1.568   3.710   3.698
 4081SOL    HW113142   1.531   3.693   3.607
 4081SOL    HW213143   1.582   3.623   3.745
 4082SOL     OW13144   0.959   2.781   1.096
 4082SOL    HW113145   0.953   2.683   1.117
 4082SOL    HW213146   0.868   2.816   1.074
 4083SOL     OW13147   5.533   2.392   4.475
 4083SOL    HW113148   5.596   2.469   4.474
 4083SOL    HW213149   5.584   2.306   4.471
 4084SOL     OW13150   6.988   1.743   4.391
 4084SOL    HW113151   0.056   1.769   4.399
 4084SOL    HW213152   6.930   1.817   4.424
 4085SOL     OW13153   3.656   6.250   0.406
 4085SOL    HW113154   3.557   6.259   0.394
 4085SOL    HW213155   3.700   6.238   0.317
 4086SOL     OW13156   1.630   4.995   1.316
 4086SOL    HW113157   1.682   5.005   1.232
 4086SOL    HW213158   1.533   4.984   1.293
 4087SOL     OW13159   2.178   1.974   3.496
 4087SOL    HW113160   2.229   1.889   3.504
 4087SOL    HW213161   2.223   2.046   3.548
 4088SOL     OW13162   6.576   1.986   1.128
 4088SOL    HW113163   6.490   1.964   1.174
 4088SOL    HW213164   6.651   1.934   1.169
 4089SOL     OW13165   1.202   0.843   4.030
 4089SOL    HW113166   1.172   0.839   3.935
 4089SOL    HW213167   1.293   0.884   4.035
 4090SOL     OW13168   1.918   3.918   6.416
 4090SOL    HW113169   1.827   3.879   6.413
 4090SOL    HW213170   1.966   3.900   6.330
 4091SOL     OW13171   4.487   5.967   0.408
 4091SOL    HW113172   4.444   5.985   0.496
 4091SOL    HW213173   4.582   6.001   0.410
 4092SOL     OW13174   0.637   3.002   4.810
 4092SOL    HW113175   0.546   2.959   4.813
 4092SOL    HW213176   0.629   3.093   4.770
 4093SOL     OW13177   5.138   1.098   3.558
 4093SOL    HW113178   5.189   1.074   3.641
 4093SOL    HW213179   5.125   1.197   3.554
 4094SOL     OW13180   1.886   4.097   5.110
 4094SOL    HW113181   1.977   4.128   5.138
 4094SOL    HW213182   1.822   4.173   5.113
 4095SOL     OW13183   0.926   3.154   6.249
 4095SOL    HW113184   1.006   3.164   6.308
 4095SOL    HW213185   0.912   3.239   6.198
 4096SOL     OW13186   4.527   4.873   6.871
 4096SOL    HW113187   4.579   4.829   6.798
 4096SOL    HW213188   4.461   4.809   6.909
 4097SOL     OW13189   3.558   3.663   5.585
 4097SOL    HW113190   3.508   3.653   5.499
 4097SOL    HW213191   3.493   3.677   5.660
 4098SOL     OW13192   0.418   2.533   3.160
 4098SOL    HW113193   0.327   2.567   3.183
 4098SOL    HW213194   0.441   2.557   3.066
 4099SOL     OW13195   3.302   5.937   1.957
 4099SOL    HW113196   3.295   5.890   2.045
 4099SOL    HW213197   3.394   5.927   1.921
 4100SOL     OW13198   4.280   5.389   3.818
 4100SOL    HW113199   4.372   5.429   3.818
 4100SOL    HW213200   4.258   5.359   3.911
 4101SOL     OW13201   5.775   1.382   6.048
 4101SOL    HW113202   5.735   1.378   5.956
 4101SOL    HW213203   5.849   1.449   6.049
 4102SOL     OW13204   6.097   0.978   0.269
 4102SOL    HW113205   6.108   1.056   0.331
 4102SOL    HW213206   6.045   0.906   0.316
 4103SOL     OW13207   0.307   0.693   2.316
 4103SOL    HW113208   0.207   0.694   2.310
 4103SOL    HW213209   0.336   0.606   2.355
 4104SOL     OW13210   1.466   4.791   2.709
 4104SOL    HW113211   1.462   4.694   2.733
 4104SOL    HW213212   1.508   4.801   2.619
 4105SOL     OW13213   3.517   5.230   0.446
 4105SOL    HW113214   3.485   5.324   0.458
 4105SOL    HW213215   3.523   5.186   0.536
 4106SOL     OW13216   0.021   3.870   4.733
 4106SOL    HW113217   0.027   3.798   4.664
 4106SOL    HW213218   0.061   3.837   4.819
 4107SOL     OW13219   0.391   6.933   1.656
 4107SOL    HW113220   0.485   6.954   1.629
 4107SOL    HW213221   0.391   6.875   1.737
 4108SOL     OW13222   6.740   3.622   6.569
 4108SOL    HW113223   6.808   3.549   6.557
 4108SOL    HW213224   6.650   3.589   6.542
 4109SOL     OW13225   4.042   6.386   4.065
 4109SOL    HW113226   3.966   6.451   4.060
 4109SOL    HW213227   4.038   6.337   4.152
 4110SOL     OW13228   5.039   3.595   6.182
 4110SOL    HW113229   4.986   3.606   6.266
 4110SOL    HW213230   5.069   3.499   6.174
 4111SOL     OW13231   4.223   2.873   6.756
 4111SOL    HW113232   4.275   2.924   6.824
 4111SOL    HW213233   4.256   2.779   6.752
 4112SOL     OW13234   3.714   1.779   4.160
 4112SOL    HW113235   3.628   1.749   4.202
 4112SOL    HW213236   3.695   1.856   4.099
 4113SOL     OW13237   3.390   4.978   5.298
 4113SOL    HW113238   3.455   4.991   5.224
 4113SOL    HW213239   3.404   5.048   5.368
 4114SOL     OW13240   3.162   1.833   3.817
 4114SOL    HW113241   3.105   1.868   3.743
 4114SOL    HW213242   3.214   1.908   3.857
 4115SOL     OW13243   4.933   5.053   1.893
 4115SOL    HW113244   5.023   5.069   1.853
 4115SOL    HW213245   4.903   5.134   1.942
 4116SOL     OW13246   3.654   1.926   1.817
 4116SOL    HW113247   3.650   1.989   1.739
 4116SOL    HW213248   3.571   1.936   1.871
 4117SOL     OW13249   0.848   5.311   1.240
 4117SOL    HW113250   0.927   5.349   1.288
 4117SOL    HW213251   0.876   5.230   1.189
 4118SOL     OW13252   1.437   6.645   0.706
 4118SOL    HW113253   1.447   6.679   0.800
 4118SOL    HW213254   1.388   6.558   0.708
 4119SOL     OW13255   3.512   0.728   4.188
 4119SOL    HW113256   3.478   0.748   4.096
 4119SOL    HW213257   3.493   0.632   4.210
 4120SOL     OW13258   4.082   6.843   1.574
 4120SOL    HW113259   4.101   6.940   1.567
 4120SOL    HW213260   3.983   6.828   1.576
 4121SOL     OW13261   6.927   2.548   4.477
 4121SOL    HW113262   6.988   2.530   4.400
 4121SOL    HW213263   6.928   2.645   4.499
 4122SOL     OW13264   0.580   6.250   5.509
 4122SOL    HW113265   0.600   6.258   5.607
 4122SOL    HW213266   0.657   6.287   5.456
 4123SOL     OW13267   5.612   3.941   5.911
 4123SOL    HW113268   5.573   4.030   5.887
 4123SOL    HW213269   5.681   3.916   5.844
 4124SOL     OW13270   5.529   6.491   4.289
 4124SOL    HW113271   5.430   6.476   4.277
 4124SOL    HW213272   5.544   6.570   4.348
 4125SOL     OW13273   4.333   0.943   1.434
 4125SOL    HW113274   4.419   0.992   1.449
 4125SOL    HW213275   4.336   0.855   1.482
 4126SOL     OW13276   2.085   4.409   4.561
 4126SOL    HW113277   2.132   4.325   4.588
 4126SOL    HW213278   2.086   4.474   4.636
 4127SOL     OW13279   5.527   3.190   4.864
 4127SOL    HW113280   5.434   3.221   4.845
 4127SOL    HW213281   5.536   3.167   4.961
 4128SOL     OW13282   1.570   3.592   2.264
 4128SOL    HW113283   1.541   3.497   2.257
 4128SOL    HW213284   1.513   3.639   2.332
 4129SOL     OW13285   5.703   2.248   5.772
 4129SOL    HW113286   5.735   2.315   5.706
 4129SOL    HW213287   5.604   2.237   5.764
 4130SOL     OW13288   6.447   4.445   6.338
 4130SOL    HW113289   6.420   4.402   6.424
 4130SOL    HW213290   6.437   4.380   6.263
 4131SOL     OW13291   6.931   5.249   4.094
 4131SOL    HW113292   6.972   5.320   4.037
 4131SOL    HW213293   6.968   5.256   4.187
 4132SOL     OW13294   5.068   3.308   3.363
 4132SOL    HW113295   5.029   3.396   3.393
 4132SOL    HW213296   4.994   3.243   3.345
 4133SOL     OW13297   2.524   0.962   1.228
 4133SOL    HW113298   2.454   1.025   1.194
 4133SOL    HW213299   2.489   0.869   1.224
 4134SOL     OW13300   2.320   1.676   0.231
 4134SOL    HW113301   2.325   1.578   0.253
 4134SOL    HW213302   2.265   1.689   0.149
 4135SOL     OW13303   1.994   0.733   2.725
 4135SOL    HW113304   2.054   0.663   2.765
 4135SOL    HW213305   1.954   0.698   2.640
 4136SOL     OW13306   0.191   2.412   3.861
 4136SOL    HW113307   0.127   2.439   3.788
 4136SOL    HW213308   0.143   2.414   3.948
 4137SOL     OW13309   3.627   3.712   6.273
 4137SOL    HW113310   3.600   3.722   6.369
 4137SOL    HW213311   3.589   3.627   6.236
 4138SOL     OW13312   4.238   4.745   3.970
 4138SOL    HW113313   4.270   4.687   3.896
 4138SOL    HW213314   4.260   4.841   3.949
 4139SOL     OW13315   1.706   1.913   6.023
 4139SOL    HW113316   1.645   1.981   6.063
 4139SOL    HW213317   1.762   1.955   5.952
 4140SOL     OW13318   3.842   0.788   5.204
 4140SOL    HW113319   3.848   0.871   5.260
 4140SOL    HW213320   3.923   0.782   5.145
 4141SOL     OW13321   5.301   5.097   0.674
 4141SOL    HW113322   5.250   5.029   0.727
 4141SOL    HW213323   5.239   5.169   0.644
 4142SOL     OW13324   6.718   4.241   1.006
 4142SOL    HW113325   6.645   4.218   1.071
 4142SOL    HW213326   6.677   4.259   0.916
 4143SOL     OW13327   6.587   3.113   1.239
 4143SOL    HW113328   6.657   3.052   1.278
 4143SOL    HW213329   6.516   3.059   1.195
 4144SOL     OW13330   5.147   1.431   2.121
 4144SOL    HW113331   5.215   1.363   2.091
 4144SOL    HW213332   5.062   1.385   2.144
 4145SOL     OW13333   1.558   0.366   1.603
 4145SOL    HW113334   1.522   0.314   1.525
 4145SOL    HW213335   1.523   0.459   1.600
 4146SOL     OW13336   5.184   0.198   6.522
 4146SOL    HW113337   5.106   0.138   6.508
 4146SOL    HW213338   5.267   0.143   6.533
 4147SOL     OW13339   3.287   2.156   5.873
 4147SOL    HW113340   3.270   2.134   5.970
 4147SOL    HW213341   3.292   2.071   5.821
 4148SOL     OW13342   6.353   0.468   3.430
 4148SOL    HW113343   6.391   0.378   3.450
 4148SOL    HW213344   6.392   0.503   3.345
 4149SOL     OW13345   6.480   3.556   1.153
 4149SOL    HW113346   6.517   3.641   1.189
 4149SOL    HW213347   6.508   3.545   1.057
 4150SOL     OW13348   5.524   0.364   6.510
 4150SOL    HW113349   5.586   0.443   6.511
 4150SOL    HW213350   5.435   0.392   6.475
 4151SOL     OW13351   0.308   6.194   0.355
 4151SOL    HW113352   0.304   6.116   0.294
 4151SOL    HW213353   0.232   6.257   0.335
 4152SOL     OW13354   4.299   4.655   1.945
 4152SOL    HW113355   4.210   4.695   1.921
 4152SOL    HW213356   4.300   4.559   1.917
 4153SOL     OW13357   6.002   5.077   6.385
 4153SOL    HW113358   5.909   5.106   6.409
 4153SOL    HW213359   6.028   4.998   6.441
 4154SOL     OW13360   6.064   3.321   5.402
 4154SOL    HW113361   6.150   3.363   5.428
 4154SOL    HW213362   5.995   3.340   5.471
 4155SOL     OW13363   1.146   3.581   2.187
 4155SOL    HW113364   1.205   3.661   2.179
 4155SOL    HW213365   1.102   3.563   2.099
 4156SOL     OW13366   5.596   6.736   5.593
 4156SOL    HW113367   5.632   6.643   5.586
 4156SOL    HW213368   5.520   6.737   5.658
 4157SOL     OW13369   4.230   0.873   4.037
 4157SOL    HW113370   4.154   0.812   4.059
 4157SOL    HW213371   4.206   0.967   4.063
 4158SOL     OW13372   0.621   4.963   3.177
 4158SOL    HW113373   0.533   4.970   3.224
 4158SOL    HW213374   0.656   4.870   3.187
 4159SOL     OW13375   0.955   2.659   4.099
 4159SOL    HW113376   0.865   2.621   4.078
 4159SOL    HW213377   0.945   2.757   4.119
 4160SOL     OW13378   6.244   0.040   0.782
 4160SOL    HW113379   6.312   0.071   0.716
 4160SOL    HW213380   6.255   6.970   0.799
 4161SOL     OW13381   1.227   1.663   6.933
 4161SOL    HW113382   1.276   1.609   6.865
 4161SOL    HW213383   1.270   1.653   7.022
 4162SOL     OW13384   5.823   6.930   4.830
 4162SOL    HW113385   5.793   7.013   4.783
 4162SOL    HW213386   5.771   6.852   4.795
 4163SOL     OW13387   5.338   1.688   3.652
 4163SOL    HW113388   5.411   1.723   3.711
 4163SOL    HW213389   5.374   1.614   3.595
 4164SOL     OW13390   1.529   0.709   6.520
 4164SOL    HW113391   1.487   0.771   6.454
 4164SOL    HW213392   1.600   0.759   6.571
 4165SOL     OW13393   3.635   6.688   1.163
 4165SOL    HW113394   3.735   6.687   1.176
 4165SOL    HW213395   3.607   6.779   1.131
 4166SOL     OW13396   4.380   3.138   0.503
 4166SOL    HW113397   4.302   3.178   0.550
 4166SOL    HW213398   4.463   3.188   0.526
 4167SOL     OW13399   2.371   2.713   1.600
 4167SOL    HW113400   2.361   2.617   1.625
 4167SOL    HW213401   2.442   2.755   1.655
 4168SOL     OW13402   0.646   5.237   1.429
 4168SOL    HW113403   0.718   5.255   1.361
 4168SOL    HW213404   0.564   5.207   1.382
 4169SOL     OW13405   4.922   3.780   3.435
 4169SOL    HW113406   4.888   3.862   3.482
 4169SOL    HW213407   5.013   3.799   3.397
 4170SOL     OW13408   3.683   2.809   5.309
 4170SOL    HW113409   3.613   2.875   5.283
 4170SOL    HW213410   3.751   2.801   5.235
 4171SOL     OW13411   5.465   3.829   1.199
 4171SOL    HW113412   5.379   3.845   1.150
 4171SOL    HW213413   5.530   3.902   1.177
 4172SOL     OW13414   0.531   1.891   1.069
 4172SOL    HW113415   0.483   1.880   1.157
 4172SOL    HW213416   0.625   1.858   1.078
 4173SOL     OW13417   5.507   2.960   4.749
 4173SOL    HW113418   5.519   3.037   4.811
 4173SOL    HW213419   5.449   2.891   4.792
 4174SOL     OW13420   4.663   0.640   3.542
 4174SOL    HW113421   4.623   0.567   3.487
 4174SOL    HW213422   4.759   0.653   3.516
 4175SOL     OW13423   3.405   0.026   3.402
 4175SOL    HW113424   3.437   7.010   3.486
 4175SOL    HW213425   3.401   0.125   3.415
 4176SOL     OW13426   4.440   6.939   2.908
 4176SOL    HW113427   4.458   6.961   3.004
 4176SOL    HW213428   4.446   6.840   2.894
 4177SOL     OW13429   0.416   6.263   3.586
 4177SOL    HW113430   0.351   6.191   3.609
 4177SOL    HW213431   0.488   6.266   3.656
 4178SOL     OW13432   3.310   1.894   5.823
 4178SOL    HW113433   3.368   1.840   5.763
 4178SOL    HW213434   3.249   1.834   5.875
 4179SOL     OW13435   5.408   3.640   5.387
 4179SOL    HW113436   5.448   3.550   5.402
 4179SOL    HW213437   5.390   3.653   5.290
 4180SOL     OW13438   4.949   4.624   1.487
 4180SOL    HW113439   5.042   4.655   1.465
 4180SOL    HW213440   4.910   4.577   1.408
 4181SOL     OW13441   0.615   1.847   6.815
 4181SOL    HW113442   0.544   1.839   6.885
 4181SOL    HW213443   0.575   1.836   6.724
 4182SOL     OW13444   5.984   0.140   2.761
 4182SOL    HW113445   5.971   0.049   2.722
 4182SOL    HW213446   5.962   0.210   2.693
 4183SOL     OW13447   1.901   1.602   1.959
 4183SOL    HW113448   1.908   1.637   1.866
 4183SOL    HW213449   1.990   1.569   1.990
 4184SOL     OW13450   3.466   5.529   0.371
 4184SOL    HW113451   3.427   5.569   0.454
 4184SOL    HW213452   3.565   5.538   0.373
 4185SOL     OW13453   0.196   0.207   3.645
 4185SOL    HW113454   0.131   0.139   3.612
 4185SOL    HW213455   0.153   0.298   3.643
 4186SOL     OW13456   2.212   4.065   0.625
 4186SOL    HW113457   2.307   4.089   0.607
 4186SOL    HW213458   2.201   3.966   0.624
 4187SOL     OW13459   3.364   3.234   6.393
 4187SOL    HW113460   3.398   3.165   6.329
 4187SOL    HW213461   3.265   3.220   6.406
 4188SOL     OW13462   4.615   0.139   3.957
 4188SOL    HW113463   4.520   0.172   3.963
 4188SOL    HW213464   4.620   0.048   3.998
 4189SOL     OW13465   2.463   1.806   4.857
 4189SOL    HW113466   2.467   1.855   4.945
 4189SOL    HW213467   2.549   1.759   4.841
 4190SOL     OW13468   3.172   1.147   0.002
 4190SOL    HW113469   3.139   1.173   0.093
 4190SOL    HW213470   3.219   1.058   0.008
 4191SOL     OW13471   6.595   2.460   2.656
 4191SOL    HW113472   6.562   2.368   2.633
 4191SOL    HW213473   6.522   2.526   2.640
 4192SOL     OW13474   5.594   1.181   3.399
 4192SOL    HW113475   5.497   1.161   3.388
 4192SOL    HW213476   5.608   1.280   3.400
 4193SOL     OW13477   2.025   6.743   2.314
 4193SOL    HW113478   1.929   6.724   2.334
 4193SOL    HW213479   2.033   6.776   2.220
 4194SOL     OW13480   0.145   1.567   4.044
 4194SOL    HW113481   0.190   1.481   4.018
 4194SOL    HW213482   0.170   1.590   4.137
 4195SOL     OW13483   5.586   0.217   1.489
 4195SOL    HW113484   5.668   0.261   1.525
 4195SOL    HW213485   5.520   0.287   1.460
 4196SOL     OW13486   4.876   2.385   4.426
 4196SOL    HW113487   4.833   2.374   4.337
 4196SOL    HW213488   4.807   2.406   4.495
 4197SOL     OW13489   4.553   4.512   4.394
 4197SOL    HW113490   4.548   4.499   4.493
 4197SOL    HW213491   4.570   4.608   4.373
 4198SOL     OW13492   5.984   4.040   0.262
 4198SOL    HW113493   5.976   4.138   0.283
 4198SOL    HW213494   6.070   4.022   0.216
 4199SOL     OW13495   3.351   3.553   4.875
 4199SOL    HW113496   3.253   3.565   4.891
 4199SOL    HW213497   3.398   3.640   4.886
 4200SOL     OW13498   2.187   0.174   6.973
 4200SOL    HW113499   2.154   0.095   7.024
 4200SOL    HW213500   2.172   0.257   7.026
 4201SOL     OW13501   5.622   6.839   3.843
 4201SOL    HW113502   5.579   6.755   3.811
 4201SOL    HW213503   5.551   6.908   3.860
 4202SOL     OW13504   5.518   4.807   4.948
 4202SOL    HW113505   5.511   4.712   4.917
 4202SOL    HW213506   5.605   4.820   4.996
 4203SOL     OW13507   5.340   5.686   2.990
 4203SOL    HW113508   5.408   5.668   2.919
 4203SOL    HW213509   5.371   5.646   3.076
 4204SOL     OW13510   2.893   2.766   1.581
 4204SOL    HW113511   2.991   2.775   1.563
 4204SOL    HW213512   2.856   2.854   1.610
 4205SOL     OW13513   2.674   5.303   4.461
 4205SOL    HW113514   2.747   5.246   4.498
 4205SOL    HW213515   2.658   5.279   4.366
 4206SOL     OW13516   4.862   0.345   4.671
 4206SOL    HW113517   4.913   0.377   4.592
 4206SOL    HW213518   4.902   0.260   4.705
 4207SOL     OW13519   1.261   1.448   1.494
 4207SOL    HW113520   1.227   1.359   1.466
 4207SOL    HW213521   1.338   1.475   1.436
 4208SOL     OW13522   1.380   2.867   0.437
 4208SOL    HW113523   1.296   2.859   0.490
 4208SOL    HW213524   1.459   2.848   0.495
 4209SOL     OW13525   2.569   6.737   5.021
 4209SOL    HW113526   2.621   6.691   4.949
 4209SOL    HW213527   2.528   6.820   4.985
 4210SOL     OW13528   4.499   2.961   0.832
 4210SOL    HW113529   4.493   2.890   0.902
 4210SOL    HW213530   4.434   2.941   0.758
 4211SOL     OW13531   4.511   4.863   3.718
 4211SOL    HW113532   4.444   4.794   3.692
 4211SOL    HW213533   4.490   4.948   3.670
 4212SOL     OW13534   6.055   1.534   2.693
 4212SOL    HW113535   6.120   1.502   2.763
 4212SOL    HW213536   6.103   1.594   2.628
 4213SOL     OW13537   1.761   1.178   2.367
 4213SOL    HW113538   1.784   1.092   2.413
 4213SOL    HW213539   1.663   1.178   2.344
 4214SOL     OW13540   0.683   3.310   4.881
 4214SOL    HW113541   0.719   3.345   4.968
 4214SOL    HW213542   0.682   3.383   4.813
 4215SOL     OW13543   0.325   5.440   4.430
 4215SOL    HW113544   0.392   5.376   4.393
 4215SOL    HW213545   0.263   5.390   4.491
 4216SOL     OW13546   0.857   3.026   4.983
 4216SOL    HW113547   0.782   3.030   4.917
 4216SOL    HW213548   0.846   2.946   5.041
 4217SOL     OW13549   6.774   0.738   2.896
 4217SOL    HW113550   6.789   0.817   2.955
 4217SOL    HW213551   6.812   0.656   2.940
 4218SOL     OW13552   3.942   0.094   1.796
 4218SOL    HW113553   4.021   0.075   1.738
 4218SOL    HW213554   3.883   0.161   1.751
 4219SOL     OW13555   4.554   5.665   4.155
 4219SOL    HW113556   4.549   5.616   4.242
 4219SOL    HW213557   4.604   5.750   4.166
 4220SOL     OW13558   6.256   2.948   4.258
 4220SOL    HW113559   6.179   2.914   4.313
 4220SOL    HW213560   6.335   2.962   4.316
 4221SOL     OW13561   5.631   5.790   6.567
 4221SOL    HW113562   5.616   5.696   6.538
 4221SOL    HW213563   5.708   5.793   6.632
 4222SOL     OW13564   5.280   2.520   1.423
 4222SOL    HW113565   5.286   2.516   1.323
 4222SOL    HW213566   5.243   2.608   1.451
 4223SOL     OW13567   3.354   4.157   2.248
 4223SOL    HW113568   3.356   4.137   2.150
 4223SOL    HW213569   3.350   4.256   2.262
 4224SOL     OW13570   4.491   2.436   4.891
 4224SOL    HW113571   4.541   2.518   4.920
 4224SOL    HW213572   4.402   2.434   4.936
 4225SOL     OW13573   5.827   6.911   5.104
 4225SOL    HW113574   5.858   6.896   5.010
 4225SOL    HW213575   5.769   6.993   5.107
 4226SOL     OW13576   0.322   1.363   4.003
 4226SOL    HW113577   0.403   1.405   4.043
 4226SOL    HW213578   0.321   1.265   4.026
 4227SOL     OW13579   4.628   4.743   0.188
 4227SOL    HW113580   4.543   4.714   0.232
 4227SOL    HW213581   4.606   4.804   0.112
 4228SOL     OW13582   6.144   5.206   2.965
 4228SOL    HW113583   6.173   5.136   3.031
 4228SOL    HW213584   6.157   5.297   3.005
 4229SOL     OW13585   5.101   5.028   5.526
 4229SOL    HW113586   5.089   4.931   5.543
 4229SOL    HW213587   5.032   5.058   5.459
 4230SOL     OW13588   3.902   0.353   4.702
 4230SOL    HW113589   3.934   0.447   4.713
 4230SOL    HW213590   3.802   0.351   4.711
 4231SOL     OW13591   4.642   0.113   5.491
 4231SOL    HW113592   4.555   0.160   5.506
 4231SOL    HW213593   4.708   0.141   5.561
 4232SOL     OW13594   2.379   4.742   2.740
 4232SOL    HW113595   2.307   4.786   2.793
 4232SOL    HW213596   2.398   4.796   2.658
 4233SOL     OW13597   6.593   6.270   7.002
 4233SOL    HW113598   6.688   6.240   7.008
 4233SOL    HW213599   6.535   6.192   6.976
 4234SOL     OW13600   2.992   4.298   6.124
 4234SOL    HW113601   2.974   4.247   6.039
 4234SOL    HW213602   3.069   4.256   6.171
 4235SOL     OW13603   6.495   3.716   5.736
 4235SOL    HW113604   6.467   3.744   5.828
 4235SOL    HW213605   6.420   3.733   5.672
 4236SOL     OW13606   1.032   2.646   4.361
 4236SOL    HW113607   1.080   2.729   4.390
 4236SOL    HW213608   1.009   2.654   4.264
 4237SOL     OW13609   5.283   3.290   4.795
 4237SOL    HW113610   5.314   3.256   4.705
 4237SOL    HW213611   5.192   3.254   4.815
 4238SOL     OW13612   4.203   5.834   4.464
 4238SOL    HW113613   4.240   5.924   4.440
 4238SOL    HW213614   4.138   5.843   4.539
 4239SOL     OW13615   4.858   5.835   5.837
 4239SOL    HW113616   4.906   5.776   5.902
 4239SOL    HW213617   4.916   5.912   5.811
 4240SOL     OW13618   2.182   4.650   6.664
 4240SOL    HW113619   2.253   4.579   6.668
 4240SOL    HW213620   2.216   4.728   6.611
 4241SOL     OW13621   4.307   0.616   0.215
 4241SOL    HW113622   4.332   0.668   0.297
 4241SOL    HW213623   4.216   0.644   0.185
 4242SOL     OW13624   2.135   0.507   2.542
 4242SOL    HW113625   2.086   0.478   2.625
 4242SOL    HW213626   2.101   0.456   2.464
 4243SOL     OW13627   1.493   3.330   2.552
 4243SOL    HW113628   1.443   3.256   2.598
 4243SOL    HW213629   1.480   3.323   2.453
 4244SOL     OW13630   4.575   6.619   1.166
 4244SOL    HW113631   4.665   6.619   1.209
 4244SOL    HW213632   4.585   6.643   1.069
 4245SOL     OW13633   6.580   3.572   0.883
 4245SOL    HW113634   6.538   3.492   0.839
 4245SOL    HW213635   6.566   3.652   0.825
 4246SOL     OW13636   5.412   1.885   2.971
 4246SOL    HW113637   5.330   1.924   3.014
 4246SOL    HW213638   5.477   1.858   3.043
 4247SOL     OW13639   1.621   5.027   5.567
 4247SOL    HW113640   1.685   5.032   5.490
 4247SOL    HW213641   1.529   5.007   5.532
 4248SOL     OW13642   2.018   1.006   3.323
 4248SOL    HW113643   1.998   1.077   3.256
 4248SOL    HW213644   1.937   0.988   3.378
 4249SOL     OW13645   6.797   6.984   4.881
 4249SOL    HW113646   6.699   6.970   4.888
 4249SOL    HW213647   6.825   6.976   4.785
 4250SOL     OW13648   0.244   5.360   4.120
 4250SOL    HW113649   0.175   5.380   4.051
 4250SOL    HW213650   0.335   5.367   4.079
 4251SOL     OW13651   6.257   1.737   5.743
 4251SOL    HW113652   6.266   1.752   5.644
 4251SOL    HW213653   6.209   1.814   5.784
 4252SOL     OW13654   6.853   6.718   0.044
 4252SOL    HW113655   6.883   6.703   0.138
 4252SOL    HW213656   6.799   6.802   0.040
 4253SOL     OW13657   4.356   5.702   2.677
 4253SOL    HW113658   4.266   5.670   2.648
 4253SOL    HW213659   4.380   5.660   2.764
 4254SOL     OW13660   1.636   2.940   0.058
 4254SOL    HW113661   1.690   2.968   7.006
 4254SOL    HW213662   1.693   2.943   0.140
 4255SOL     OW13663   1.244   4.006   2.707
 4255SOL    HW113664   1.228   4.013   2.609
 4255SOL    HW213665   1.292   3.921   2.728
 4256SOL     OW13666   0.451   5.354   1.603
 4256SOL    HW113667   0.418   5.435   1.554
 4256SOL    HW213668   0.535   5.322   1.559
 4257SOL     OW13669   5.913   0.842   4.867
 4257SOL    HW113670   5.975   0.866   4.793
 4257SOL    HW213671   5.952   0.768   4.921
 4258SOL     OW13672   3.868   5.794   0.018
 4258SOL    HW113673   3.776   5.776   7.012
 4258SOL    HW213674   3.909   5.868   6.993
 4259SOL     OW13675   1.201   0.081   2.189
 4259SOL    HW113676   1.132   0.149   2.215
 4259SOL    HW213677   1.283   0.093   2.244
 4260SOL     OW13678   5.237   0.523   4.519
 4260SOL    HW113679   5.169   0.529   4.592
 4260SOL    HW213680   5.205   0.576   4.440
 4261SOL     OW13681   2.037   6.698   4.081
 4261SOL    HW113682   2.026   6.725   3.985
 4261SOL    HW213683   1.950   6.713   4.129
 4262SOL     OW13684   1.277   4.128   0.012
 4262SOL    HW113685   1.320   4.049   6.996
 4262SOL    HW213686   1.239   4.189   6.970
 4263SOL     OW13687   2.588   2.475   3.726
 4263SOL    HW113688   2.551   2.543   3.790
 4263SOL    HW213689   2.560   2.498   3.633
 4264SOL     OW13690   5.012   0.814   4.847
 4264SOL    HW113691   5.025   0.857   4.937
 4264SOL    HW213692   4.914   0.801   4.831
 4265SOL     OW13693   3.933   1.052   0.301
 4265SOL    HW113694   3.951   1.148   0.323
 4265SOL    HW213695   3.927   1.040   0.202
 4266SOL     OW13696   1.349   6.375   1.018
 4266SOL    HW113697   1.402   6.336   0.942
 4266SOL    HW213698   1.311   6.301   1.073
 4267SOL     OW13699   1.496   4.276   4.765
 4267SOL    HW113700   1.537   4.188   4.741
 4267SOL    HW213701   1.484   4.331   4.682
 4268SOL     OW13702   1.285   4.364   6.264
 4268SOL    HW113703   1.268   4.447   6.317
 4268SOL    HW213704   1.323   4.293   6.323
 4269SOL     OW13705   2.699   1.454   4.596
 4269SOL    HW113706   2.774   1.520   4.587
 4269SOL    HW213707   2.614   1.503   4.613
 4270SOL     OW13708   4.016   2.809   0.488
 4270SOL    HW113709   3.927   2.808   0.533
 4270SOL    HW213710   4.041   2.717   0.460
 4271SOL     OW13711   6.992   0.459   1.268
 4271SOL    HW113712   7.019   0.556   1.270
 4271SOL    HW213713   6.965   0.430   1.360
 4272SOL     OW13714   6.999   1.284   6.515
 4272SOL    HW113715   0.008   1.199   6.476
 4272SOL    HW213716   6.917   1.311   6.464
 4273SOL     OW13717   3.549   5.482   4.504
 4273SOL    HW113718   3.535   5.403   4.563
 4273SOL    HW213719   3.529   5.566   4.554
 4274SOL     OW13720   6.957   1.530   1.915
 4274SOL    HW113721   6.979   1.509   2.011
 4274SOL    HW213722   6.974   1.449   1.859
 4275SOL     OW13723   0.012   2.763   3.244
 4275SOL    HW113724   0.047   2.845   3.289
 4275SOL    HW213725   6.940   2.762   3.249
 4276SOL     OW13726   2.026   5.582   4.401
 4276SOL    HW113727   2.053   5.627   4.316
 4276SOL    HW213728   2.035   5.483   4.391
 4277SOL     OW13729   6.163   5.298   3.338
 4277SOL    HW113730   6.189   5.208   3.373
 4277SOL    HW213731   6.230   5.327   3.269
 4278SOL     OW13732   1.225   6.620   1.829
 4278SOL    HW113733   1.204   6.554   1.757
 4278SOL    HW213734   1.157   6.693   1.828
 4279SOL     OW13735   1.733   1.696   3.344
 4279SOL    HW113736   1.818   1.727   3.301
 4279SOL    HW213737   1.688   1.774   3.388
 4280SOL     OW13738   0.724   6.884   6.153
 4280SOL    HW113739   0.806   6.833   6.179
 4280SOL    HW213740   0.656   6.820   6.117
 4281SOL     OW13741   4.437   5.389   3.538
 4281SOL    HW113742   4.381   5.453   3.591
 4281SOL    HW213743   4.481   5.324   3.600
 4282SOL     OW13744   3.798   4.140   1.217
 4282SOL    HW113745   3.892   4.157   1.246
 4282SOL    HW213746   3.768   4.052   1.253
 4283SOL     OW13747   5.171   1.558   4.276
 4283SOL    HW113748   5.097   1.495   4.297
 4283SOL    HW213749   5.190   1.557   4.178
 4284SOL     OW13750   4.453   5.779   6.100
 4284SOL    HW113751   4.525   5.816   6.041
 4284SOL    HW213752   4.442   5.681   6.083
 4285SOL     OW13753   3.101   0.614   5.781
 4285SOL    HW113754   3.126   0.560   5.701
 4285SOL    HW213755   3.004   0.637   5.777
 4286SOL     OW13756   5.453   0.934   6.317
 4286SOL    HW113757   5.523   0.928   6.388
 4286SOL    HW213758   5.411   1.025   6.320
 4287SOL     OW13759   4.682   0.612   6.995
 4287SOL    HW113760   4.726   0.563   6.920
 4287SOL    HW213761   4.616   0.677   6.959
 4288SOL     OW13762   6.772   6.799   2.534
 4288SOL    HW113763   6.870   6.782   2.543
 4288SOL    HW213764   6.750   6.888   2.575
 4289SOL     OW13765   0.551   3.433   4.271
 4289SOL    HW113766   0.520   3.443   4.365
 4289SOL    HW213767   0.651   3.430   4.269
 4290SOL     OW13768   0.147   1.103   3.606
 4290SOL    HW113769   0.145   1.190   3.655
 4290SOL    HW213770   0.148   1.027   3.671
 4291SOL     OW13771   4.839   3.269   6.282
 4291SOL    HW113772   4.748   3.284   6.243
 4291SOL    HW213773   4.833   3.208   6.360
 4292SOL     OW13774   5.810   2.095   1.100
 4292SOL    HW113775   5.883   2.026   1.098
 4292SOL    HW213776   5.830   2.164   1.169
 4293SOL     OW13777   3.589   4.559   6.944
 4293SOL    HW113778   3.655   4.490   6.974
 4293SOL    HW213779   3.595   4.639   7.003
 4294SOL     OW13780   2.036   1.696   6.430
 4294SOL    HW113781   1.979   1.653   6.361
 4294SOL    HW213782   2.055   1.791   6.404
 4295SOL     OW13783   3.864   5.978   2.855
 4295SOL    HW113784   3.939   6.022   2.905
 4295SOL    HW213785   3.804   6.049   2.817
 4296SOL     OW13786   2.932   6.254   2.203
 4296SOL    HW113787   2.999   6.318   2.239
 4296SOL    HW213788   2.865   6.231   2.274
 4297SOL     OW13789   5.818   4.906   0.785
 4297SOL    HW113790   5.827   4.827   0.846
 4297SOL    HW213791   5.882   4.978   0.813
 4298SOL     OW13792   2.766   6.772   0.166
 4298SOL    HW113793   2.739   6.866   0.147
 4298SOL    HW213794   2.849   6.750   0.114
 4299SOL     OW13795   0.992   2.897   0.145
 4299SOL    HW113796   0.926   2.966   0.118
 4299SOL    HW213797   1.082   2.939   0.156
 4300SOL     OW13798   2.900   1.292   0.927
 4300SOL    HW113799   2.948   1.371   0.967
 4300SOL    HW213800   2.960   1.246   0.862
 4301SOL     OW13801   2.882   6.643   1.429
 4301SOL    HW113802   2.888   6.700   1.511
 4301SOL    HW213803   2.941   6.680   1.357
 4302SOL     OW13804   1.952   5.705   5.899
 4302SOL    HW113805   1.915   5.619   5.934
 4302SOL    HW213806   1.969   5.767   5.976
 4303SOL     OW13807   6.364   4.527   3.232
 4303SOL    HW113808   6.418   4.535   3.148
 4303SOL    HW213809   6.284   4.469   3.216
 4304SOL     OW13810   3.431   3.802   1.600
 4304SOL    HW113811   3.351   3.861   1.607
 4304SOL    HW213812   3.430   3.734   1.673
 4305SOL     OW13813   1.646   0.462   5.321
 4305SOL    HW113814   1.621   0.371   5.288
 4305SOL    HW213815   1.584   0.489   5.395
 4306SOL     OW13816   5.571   3.068   5.118
 4306SOL    HW113817   5.514   2.987   5.137
 4306SOL    HW213818   5.611   3.101   5.204
 4307SOL     OW13819   0.090   1.559   5.509
 4307SOL    HW113820   0.072   1.474   5.461
 4307SOL    HW213821   0.018   1.626   5.487
 4308SOL     OW13822   4.789   5.576   7.010
 4308SOL    HW113823   4.849   5.647   6.975
 4308SOL    HW213824   4.817   5.487   6.973
 4309SOL     OW13825   1.210   2.900   0.990
 4309SOL    HW113826   1.119   2.875   1.021
 4309SOL    HW213827   1.255   2.820   0.950
 4310SOL     OW13828   6.840   1.801   3.024
 4310SOL    HW113829   6.905   1.847   3.085
 4310SOL    HW213830   6.821   1.709   3.059
 4311SOL     OW13831   0.621   0.747   2.892
 4311SOL    HW113832   0.601   0.713   2.801
 4311SOL    HW213833   0.718   0.771   2.898
 4312SOL     OW13834   0.763   5.037   2.427
 4312SOL    HW113835   0.758   4.962   2.360
 4312SOL    HW213836   0.815   5.006   2.507
 4313SOL     OW13837   6.025   2.082   7.016
 4313SOL    HW113838   6.105   2.108   6.962
 4313SOL    HW213839   6.055   2.031   0.069
 4314SOL     OW13840   6.579   2.075   5.289
 4314SOL    HW113841   6.621   2.120   5.210
 4314SOL    HW213842   6.534   2.144   5.346
 4315SOL     OW13843   2.927   1.581   4.222
 4315SOL    HW113844   2.890   1.542   4.138
 4315SOL    HW213845   3.021   1.611   4.206
 4316SOL     OW13846   5.183   6.894   1.688
 4316SOL    HW113847   5.221   6.964   1.748
 4316SOL    HW213848   5.118   6.838   1.739
 4317SOL     OW13849   4.382   1.252   6.070
 4317SOL    HW113850   4.302   1.264   6.012
 4317SOL    HW213851   4.462   1.232   6.013
 4318SOL     OW13852   0.459   1.099   4.083
 4318SOL    HW113853   0.544   1.130   4.040
 4318SOL    HW213854   0.478   1.072   4.178
 4319SOL     OW13855   1.609   4.877   2.510
 4319SOL    HW113856   1.650   4.877   2.419
 4319SOL    HW213857   1.675   4.914   2.576
 4320SOL     OW13858   3.364   6.098   0.662
 4320SOL    HW113859   3.411   6.163   0.721
 4320SOL    HW213860   3.302   6.148   0.600
 4321SOL     OW13861   6.195   6.722   2.842
 4321SOL    HW113862   6.141   6.694   2.921
 4321SOL    HW213863   6.292   6.725   2.866
 4322SOL     OW13864   0.827   3.345   5.484
 4322SOL    HW113865   0.894   3.274   5.508
 4322SOL    HW213866   0.741   3.326   5.531
 4323SOL     OW13867   3.818   4.999   6.468
 4323SOL    HW113868   3.853   5.008   6.561
 4323SOL    HW213869   3.883   5.040   6.403
 4324SOL     OW13870   6.647   4.150   5.851
 4324SOL    HW113871   6.703   4.101   5.917
 4324SOL    HW213872   6.557   4.167   5.890
 4325SOL     OW13873   2.440   0.768   2.018
 4325SOL    HW113874   2.501   0.841   2.048
 4325SOL    HW213875   2.464   0.741   1.925
 4326SOL     OW13876   4.731   2.839   2.635
 4326SOL    HW113877   4.681   2.855   2.720
 4326SOL    HW213878   4.697   2.756   2.591
 4327SOL     OW13879   2.976   5.739   4.142
 4327SOL    HW113880   3.046   5.707   4.078
 4327SOL    HW213881   3.018   5.758   4.231
 4328SOL     OW13882   5.615   6.672   4.495
 4328SOL    HW113883   5.572   6.681   4.585
 4328SOL    HW213884   5.706   6.633   4.506
 4329SOL     OW13885   6.879   2.141   5.943
 4329SOL    HW113886   6.802   2.119   6.002
 4329SOL    HW213887   6.881   2.240   5.927
 4330SOL     OW13888   2.928   4.942   4.923
 4330SOL    HW113889   3.021   4.963   4.952
 4330SOL    HW213890   2.911   4.845   4.937
 4331SOL     OW13891   5.950   0.862   2.194
 4331SOL    HW113892   5.882   0.806   2.147
 4331SOL    HW213893   5.957   0.951   2.149
 4332SOL     OW13894   0.373   5.317   2.497
 4332SOL    HW113895   0.464   5.326   2.458
 4332SOL    HW213896   0.323   5.403   2.484
 4333SOL     OW13897   3.523   2.185   5.452
 4333SOL    HW113898   3.500   2.180   5.550
 4333SOL    HW213899   3.514   2.094   5.411
 4334SOL     OW13900   0.192   2.301   4.505
 4334SOL    HW113901   0.211   2.351   4.420
 4334SOL    HW213902   0.100   2.263   4.501
 4335SOL     OW13903   2.539   4.080   1.599
 4335SOL    HW113904   2.524   4.075   1.501
 4335SOL    HW213905   2.575   3.992   1.632
 4336SOL     OW13906   2.936   4.919   5.565
 4336SOL    HW113907   2.984   4.985   5.622
 4336SOL    HW213908   2.907   4.963   5.479
 4337SOL     OW13909   1.391   5.276   3.921
 4337SOL    HW113910   1.363   5.256   3.827
 4337SOL    HW213911   1.473   5.223   3.943
 4338SOL     OW13912   3.901   1.089   6.037
 4338SOL    HW113913   3.830   1.020   6.040
 4338SOL    HW213914   3.980   1.054   5.986
 4339SOL     OW13915   3.507   3.502   6.014
 4339SOL    HW113916   3.606   3.499   6.005
 4339SOL    HW213917   3.483   3.516   6.111
 4340SOL     OW13918   6.821   3.555   1.001
 4340SOL    HW113919   6.825   3.652   1.028
 4340SOL    HW213920   6.750   3.543   0.932
 4341SOL     OW13921   0.414   6.984   2.612
 4341SOL    HW113922   0.445   6.944   2.526
 4341SOL    HW213923   0.463   6.942   2.688
 4342SOL     OW13924   5.452   4.004   2.496
 4342SOL    HW113925   5.446   4.086   2.440
 4342SOL    HW213926   5.422   4.025   2.589
 4343SOL     OW13927   4.295   0.369   5.661
 4343SOL    HW113928   4.375   0.409   5.707
 4343SOL    HW213929   4.213   0.393   5.713
 4344SOL     OW13930   0.396   3.385   3.867
 4344SOL    HW113931   0.333   3.361   3.940
 4344SOL    HW213932   0.344   3.412   3.786
 4345SOL     OW13933   2.897   3.279   2.379
 4345SOL    HW113934   2.869   3.218   2.305
 4345SOL    HW213935   2.984   3.322   2.355
 4346SOL     OW13936   0.800   3.060   2.083
 4346SOL    HW113937   0.829   3.005   2.161
 4346SOL    HW213938   0.869   3.130   2.064
 4347SOL     OW13939   5.956   5.198   0.987
 4347SOL    HW113940   5.922   5.227   0.897
 4347SOL    HW213941   5.881   5.195   1.052
 4348SOL     OW13942   5.906   5.694   4.460
 4348SOL    HW113943   5.811   5.672   4.480
 4348SOL    HW213944   5.917   5.794   4.454
 4349SOL     OW13945   7.010   3.631   4.598
 4349SOL    HW113946   0.051   3.577   4.648
 4349SOL    HW213947   6.961   3.572   4.534
 4350SOL     OW13948   4.521   1.633   4.738
 4350SOL    HW113949   4.581   1.553   4.739
 4350SOL    HW213950   4.447   1.620   4.804
 4351SOL     OW13951   1.142   6.706   0.382
 4351SOL    HW113952   1.101   6.647   0.453
 4351SOL    HW213953   1.094   6.794   0.381
 4352SOL     OW13954   3.532   3.855   1.159
 4352SOL    HW113955   3.495   3.948   1.169
 4352SOL    HW213956   3.516   3.823   1.066
 4353SOL     OW13957   3.203   3.549   1.082
 4353SOL    HW113958   3.292   3.511   1.060
 4353SOL    HW213959   3.131   3.490   1.044
 4354SOL     OW13960   5.436   6.646   3.813
 4354SOL    HW113961   5.500   6.572   3.790
 4354SOL    HW213962   5.425   6.649   3.913
 4355SOL     OW13963   1.233   6.055   3.388
 4355SOL    HW113964   1.332   6.063   3.394
 4355SOL    HW213965   1.193   6.063   3.479
 4356SOL     OW13966   5.513   2.716   5.775
 4356SOL    HW113967   5.557   2.695   5.863
 4356SOL    HW213968   5.551   2.657   5.704
 4357SOL     OW13969   6.297   0.693   2.470
 4357SOL    HW113970   6.247   0.774   2.501
 4357SOL    HW213971   6.286   0.683   2.371
 4358SOL     OW13972   2.128   6.424   6.717
 4358SOL    HW113973   2.131   6.363   6.638
 4358SOL    HW213974   2.115   6.518   6.686
 4359SOL     OW13975   2.513   1.833   0.125
 4359SOL    HW113976   2.458   1.788   0.195
 4359SOL    HW213977   2.610   1.820   0.145
 4360SOL     OW13978   1.269   3.257   3.812
 4360SOL    HW113979   1.185   3.311   3.811
 4360SOL    HW213980   1.246   3.159   3.816
 4361SOL     OW13981   6.731   1.433   0.695
 4361SOL    HW113982   6.786   1.506   0.656
 4361SOL    HW213983   6.681   1.386   0.622
 4362SOL     OW13984   1.442   5.979   3.846
 4362SOL    HW113985   1.470   6.035   3.768
 4362SOL    HW213986   1.353   6.010   3.880
 4363SOL     OW13987   4.674   1.621   2.155
 4363SOL    HW113988   4.721   1.659   2.235
 4363SOL    HW213989   4.740   1.570   2.099
 4364SOL     OW13990   4.056   3.798   2.715
 4364SOL    HW113991   4.054   3.718   2.776
 4364SOL    HW213992   4.084   3.879   2.767
 4365SOL     OW13993   3.031   2.099   1.287
 4365SOL    HW113994   3.079   2.112   1.374
 4365SOL    HW213995   2.965   2.173   1.275
 4366SOL     OW13996   4.325   6.208   5.101
 4366SOL    HW113997   4.253   6.262   5.059
 4366SOL    HW213998   4.409   6.216   5.047
 4367SOL     OW13999   2.107   5.477   3.585
 4367SOL    HW114000   2.184   5.429   3.628
 4367SOL    HW214001   2.087   5.560   3.636
 4368SOL     OW14002   4.916   4.416   2.677
 4368SOL    HW114003   4.837   4.374   2.633
 4368SOL    HW214004   4.900   4.422   2.776
 4369SOL     OW14005   4.071   4.745   3.251
 4369SOL    HW114006   4.108   4.819   3.307
 4369SOL    HW214007   4.064   4.661   3.305
 4370SOL     OW14008   3.991   4.296   1.694
 4370SOL    HW114009   3.927   4.240   1.641
 4370SOL    HW214010   4.084   4.261   1.684
 4371SOL     OW14011   3.043   1.500   1.042
 4371SOL    HW114012   3.121   1.561   1.032
 4371SOL    HW214013   3.063   1.433   1.115
 4372SOL     OW14014   1.964   3.229   4.453
 4372SOL    HW114015   1.937   3.311   4.505
 4372SOL    HW214016   1.995   3.158   4.516
 4373SOL     OW14017   4.385   1.365   5.714
 4373SOL    HW114018   4.287   1.380   5.720
 4373SOL    HW214019   4.434   1.444   5.751
 4374SOL     OW14020   2.404   1.366   1.683
 4374SOL    HW114021   2.504   1.357   1.684
 4374SOL    HW214022   2.365   1.290   1.631
 4375SOL     OW14023   4.457   0.966   3.498
 4375SOL    HW114024   4.460   0.966   3.598
 4375SOL    HW214025   4.550   0.964   3.462
 4376SOL     OW14026   0.859   6.868   1.199
 4376SOL    HW114027   0.849   6.776   1.236
 4376SOL    HW214028   0.949   6.905   1.224
 4377SOL     OW14029   6.159   6.916   6.415
 4377SOL    HW114030   6.198   6.907   6.323
 4377SOL    HW214031   6.147   7.013   6.436
 4378SOL     OW14032   2.038   5.429   2.764
 4378SOL    HW114033   2.099   5.461   2.691
 4378SOL    HW214034   1.945   5.420   2.728
 4379SOL     OW14035   1.233   0.691   1.996
 4379SOL    HW114036   1.205   0.610   2.047
 4379SOL    HW214037   1.318   0.673   1.947
 4380SOL     OW14038   1.453   5.774   5.318
 4380SOL    HW114039   1.483   5.682   5.339
 4380SOL    HW214040   1.480   5.798   5.224
 4381SOL     OW14041   3.371   6.387   4.793
 4381SOL    HW114042   3.422   6.470   4.772
 4381SOL    HW214043   3.418   6.308   4.753
 4382SOL     OW14044   4.834   4.018   3.537
 4382SOL    HW114045   4.779   4.098   3.560
 4382SOL    HW214046   4.919   4.019   3.589
 4383SOL     OW14047   0.705   3.012   6.361
 4383SOL    HW114048   0.775   3.060   6.309
 4383SOL    HW214049   0.666   3.073   6.430
 4384SOL     OW14050   3.686   5.732   0.738
 4384SOL    HW114051   3.772   5.777   0.764
 4384SOL    HW214052   3.646   5.779   0.660
 4385SOL     OW14053   0.558   2.086   2.391
 4385SOL    HW114054   0.544   2.075   2.292
 4385SOL    HW214055   0.557   2.183   2.415
 4386SOL     OW14056   1.146   3.047   6.883
 4386SOL    HW114057   1.069   2.985   6.866
 4386SOL    HW214058   1.177   3.037   6.978
 4387SOL     OW14059   0.217   3.436   1.961
 4387SOL    HW114060   0.317   3.437   1.966
 4387SOL    HW214061   0.188   3.470   1.871
 4388SOL     OW14062   3.523   0.861   5.453
 4388SOL    HW114063   3.531   0.959   5.434
 4388SOL    HW214064   3.456   0.820   5.391
 4389SOL     OW14065   5.300   2.346   3.022
 4389SOL    HW114066   5.222   2.400   2.991
 4389SOL    HW214067   5.383   2.402   3.020
 4390SOL     OW14068   4.820   2.671   2.080
 4390SOL    HW114069   4.857   2.585   2.044
 4390SOL    HW214070   4.830   2.743   2.012
 4391SOL     OW14071   1.191   5.739   0.546
 4391SOL    HW114072   1.159   5.755   0.639
 4391SOL    HW214073   1.217   5.643   0.535
 4392SOL     OW14074   4.912   3.138   4.369
 4392SOL    HW114075   4.884   3.095   4.454
 4392SOL    HW214076   4.980   3.209   4.389
 4393SOL     OW14077   4.716   6.334   3.396
 4393SOL    HW114078   4.667   6.395   3.459
 4393SOL    HW214079   4.679   6.242   3.404
 4394SOL     OW14080   5.094   0.027   2.958
 4394SOL    HW114081   5.130   0.119   2.974
 4394SOL    HW214082   5.100   0.005   2.861
 4395SOL     OW14083   5.472   1.529   2.266
 4395SOL    HW114084   5.409   1.595   2.307
 4395SOL    HW214085   5.455   1.523   2.168
 4396SOL     OW14086   0.981   0.734   4.105
 4396SOL    HW114087   1.006   0.641   4.131
 4396SOL    HW214088   1.062   0.784   4.077
 4397SOL     OW14089   6.304   0.527   5.469
 4397SOL    HW114090   6.205   0.516   5.469
 4397SOL    HW214091   6.343   0.477   5.392
 4398SOL     OW14092   0.137   4.115   4.714
 4398SOL    HW114093   0.086   4.030   4.729
 4398SOL    HW214094   0.111   4.155   4.626
 4399SOL     OW14095   2.587   1.392   1.337
 4399SOL    HW114096   2.581   1.429   1.245
 4399SOL    HW214097   2.641   1.307   1.336
 4400SOL     OW14098   3.116   6.459   4.715
 4400SOL    HW114099   3.097   6.449   4.617
 4400SOL    HW214100   3.212   6.438   4.733
 4401SOL     OW14101   5.475   5.875   4.111
 4401SOL    HW114102   5.491   5.934   4.032
 4401SOL    HW214103   5.502   5.922   4.195
 4402SOL     OW14104   0.596   6.814   2.798
 4402SOL    HW114105   0.668   6.784   2.861
 4402SOL    HW214106   0.548   6.734   2.762
 4403SOL     OW14107   0.734   0.395   3.497
 4403SOL    HW114108   0.699   0.477   3.542
 4403SOL    HW214109   0.661   0.327   3.490
 4404SOL     OW14110   0.960   4.172   3.630
 4404SOL    HW114111   0.992   4.261   3.660
 4404SOL    HW214112   1.038   4.116   3.601
 4405SOL     OW14113   3.196   4.142   5.554
 4405SOL    HW114114   3.275   4.099   5.510
 4405SOL    HW214115   3.226   4.188   5.638
 4406SOL     OW14116   5.594   4.069   1.125
 4406SOL    HW114117   5.667   4.086   1.059
 4406SOL    HW214118   5.631   4.070   1.218
 4407SOL     OW14119   5.742   0.230   0.005
 4407SOL    HW114120   5.752   0.327   7.010
 4407SOL    HW214121   5.799   0.176   6.971
 4408SOL     OW14122   4.483   6.302   6.636
 4408SOL    HW114123   4.466   6.344   6.547
 4408SOL    HW214124   4.408   6.241   6.660
 4409SOL     OW14125   3.297   1.192   1.674
 4409SOL    HW114126   3.314   1.107   1.723
 4409SOL    HW214127   3.381   1.246   1.670
 4410SOL     OW14128   2.402   5.235   1.938
 4410SOL    HW114129   2.371   5.191   2.022
 4410SOL    HW214130   2.345   5.315   1.919
 4411SOL     OW14131   4.143   3.295   2.681
 4411SOL    HW114132   4.150   3.385   2.640
 4411SOL    HW214133   4.187   3.295   2.771
 4412SOL     OW14134   3.576   1.753   6.628
 4412SOL    HW114135   3.578   1.666   6.677
 4412SOL    HW214136   3.600   1.827   6.691
 4413SOL     OW14137   4.512   6.396   4.760
 4413SOL    HW114138   4.453   6.475   4.780
 4413SOL    HW214139   4.528   6.391   4.661
 4414SOL     OW14140   4.027   4.710   1.890
 4414SOL    HW114141   3.997   4.764   1.968
 4414SOL    HW214142   3.949   4.692   1.830
 4415SOL     OW14143   5.633   2.614   6.936
 4415SOL    HW114144   5.626   2.688   7.003
 4415SOL    HW214145   5.542   2.592   6.902
 4416SOL     OW14146   3.850   0.324   3.934
 4416SOL    HW114147   3.888   0.259   3.868
 4416SOL    HW214148   3.924   0.381   3.971
 4417SOL     OW14149   0.083   6.535   2.672
 4417SOL    HW114150   0.091   6.455   2.613
 4417SOL    HW214151   7.022   6.535   2.717
 4418SOL     OW14152   4.121   7.013   3.567
 4418SOL    HW114153   4.098   0.018   3.476
 4418SOL    HW214154   4.045   6.959   3.603
 4419SOL     OW14155   0.261   4.933   6.537
 4419SOL    HW114156   0.169   4.966   6.517
 4419SOL    HW214157   0.326   5.010   6.529
 4420SOL     OW14158   5.300   1.887   6.336
 4420SOL    HW114159   5.203   1.863   6.331
 4420SOL    HW214160   5.311   1.986   6.327
 4421SOL     OW14161   1.281   1.621   3.455
 4421SOL    HW114162   1.312   1.707   3.413
 4421SOL    HW214163   1.354   1.585   3.514
 4422SOL     OW14164   1.838   3.885   6.045
 4422SOL    HW114165   1.932   3.862   6.073
 4422SOL    HW214166   1.840   3.926   5.954
 4423SOL     OW14167   1.332   1.810   6.301
 4423SOL    HW114168   1.323   1.832   6.398
 4423SOL    HW214169   1.322   1.712   6.288
 4424SOL     OW14170   6.565   0.349   3.111
 4424SOL    HW114171   6.510   0.364   3.029
 4424SOL    HW214172   6.566   0.433   3.166
 4425SOL     OW14173   4.426   4.577   6.392
 4425SOL    HW114174   4.400   4.652   6.331
 4425SOL    HW214175   4.362   4.501   6.382
 4426SOL     OW14176   0.728   0.408   5.935
 4426SOL    HW114177   0.816   0.364   5.946
 4426SOL    HW214178   0.673   0.357   5.868
 4427SOL     OW14179   0.928   0.188   3.422
 4427SOL    HW114180   1.013   0.241   3.434
 4427SOL    HW214181   0.850   0.248   3.437
 4428SOL     OW14182   2.519   5.482   3.503
 4428SOL    HW114183   2.523   5.489   3.403
 4428SOL    HW214184   2.606   5.450   3.538
 4429SOL     OW14185   3.845   0.081   3.086
 4429SOL    HW114186   3.861   0.156   3.149
 4429SOL    HW214187   3.759   0.035   3.109
 4430SOL     OW14188   2.262   0.796   2.224
 4430SOL    HW114189   2.321   0.824   2.299
 4430SOL    HW214190   2.318   0.773   2.145
 4431SOL     OW14191   2.245   2.164   3.131
 4431SOL    HW114192   2.320   2.199   3.187
 4431SOL    HW214193   2.162   2.158   3.186
 4432SOL     OW14194   2.999   3.821   3.012
 4432SOL    HW114195   3.093   3.821   3.045
 4432SOL    HW214196   2.939   3.781   3.082
 4433SOL     OW14197   6.422   0.028   2.605
 4433SOL    HW114198   6.392   0.071   2.691
 4433SOL    HW214199   6.389   6.961   2.602
 4434SOL     OW14200   6.207   2.574   4.166
 4434SOL    HW114201   6.239   2.615   4.252
 4434SOL    HW214202   6.128   2.516   4.185
 4435SOL     OW14203   3.323   3.179   1.636
 4435SOL    HW114204   3.405   3.235   1.650
 4435SOL    HW214205   3.349   3.083   1.629
 4436SOL     OW14206   5.120   1.977   6.599
 4436SOL    HW114207   5.153   1.886   6.624
 4436SOL    HW214208   5.186   2.046   6.630
 4437SOL     OW14209   3.628   0.850   4.693
 4437SOL    HW114210   3.635   0.861   4.594
 4437SOL    HW214211   3.624   0.941   4.736
 4438SOL     OW14212   4.258   3.004   7.014
 4438SOL    HW114213   4.217   2.934   0.045
 4438SOL    HW214214   4.299   3.076   0.042
 4439SOL     OW14215   2.030   5.925   2.168
 4439SOL    HW114216   2.053   5.892   2.260
 4439SOL    HW214217   2.020   6.024   2.169
 4440SOL     OW14218   1.138   6.879   6.403
 4440SOL    HW114219   1.172   6.950   6.464
 4440SOL    HW214220   1.078   6.818   6.455
 4441SOL     OW14221   5.802   2.881   3.088
 4441SOL    HW114222   5.769   2.972   3.111
 4441SOL    HW214223   5.853   2.843   3.166
 4442SOL     OW14224   3.177   6.366   3.396
 4442SOL    HW114225   3.275   6.381   3.405
 4442SOL    HW214226   3.157   6.269   3.407
 4443SOL     OW14227   2.722   1.876   5.762
 4443SOL    HW114228   2.634   1.886   5.716
 4443SOL    HW214229   2.720   1.797   5.823
 4444SOL     OW14230   5.750   0.770   1.070
 4444SOL    HW114231   5.733   0.845   1.005
 4444SOL    HW214232   5.672   0.760   1.131
 4445SOL     OW14233   1.018   0.901   6.482
 4445SOL    HW114234   1.008   0.824   6.418
 4445SOL    HW214235   0.934   0.954   6.485
 4446SOL     OW14236   6.351   0.438   2.940
 4446SOL    HW114237   6.340   0.525   2.893
 4446SOL    HW214238   6.261   0.404   2.969
 4447SOL     OW14239   5.758   2.454   5.617
 4447SOL    HW114240   5.848   2.476   5.579
 4447SOL    HW214241   5.690   2.517   5.579
 4448SOL     OW14242   2.355   3.809   6.657
 4448SOL    HW114243   2.406   3.760   6.587
 4448SOL    HW214244   2.372   3.767   6.746
 4449SOL     OW14245   1.051   1.602   5.248
 4449SOL    HW114246   0.972   1.663   5.243
 4449SOL    HW214247   1.093   1.610   5.339
 4450SOL     OW14248   4.084   3.527   3.425
 4450SOL    HW114249   4.107   3.447   3.370
 4450SOL    HW214250   4.071   3.607   3.365
 4451SOL     OW14251   6.371   4.575   2.166
 4451SOL    HW114252   6.404   4.489   2.127
 4451SOL    HW214253   6.448   4.626   2.206
 4452SOL     OW14254   6.232   6.264   6.225
 4452SOL    HW114255   6.313   6.322   6.228
 4452SOL    HW214256   6.181   6.281   6.141
 4453SOL     OW14257   5.542   2.763   1.313
 4453SOL    HW114258   5.594   2.682   1.284
 4453SOL    HW214259   5.470   2.781   1.247
 4454SOL     OW14260   5.382   3.442   1.519
 4454SOL    HW114261   5.408   3.361   1.467
 4454SOL    HW214262   5.458   3.507   1.519
 4455SOL     OW14263   3.946   1.537   2.290
 4455SOL    HW114264   3.856   1.505   2.260
 4455SOL    HW214265   3.996   1.460   2.330
 4456SOL     OW14266   1.262   5.052   3.156
 4456SOL    HW114267   1.257   4.993   3.075
 4456SOL    HW214268   1.244   4.998   3.238
 4457SOL     OW14269   5.548   2.086   6.071
 4457SOL    HW114270   5.584   1.995   6.088
 4457SOL    HW214271   5.624   2.151   6.065
 4458SOL     OW14272   3.817   2.556   5.824
 4458SOL    HW114273   3.828   2.606   5.737
 4458SOL    HW214274   3.904   2.555   5.872
 4459SOL     OW14275   5.197   6.244   4.803
 4459SOL    HW114276   5.127   6.288   4.859
 4459SOL    HW214277   5.221   6.156   4.844
 4460SOL     OW14278   2.430   1.958   6.187
 4460SOL    HW114279   2.392   1.957   6.280
 4460SOL    HW214280   2.466   2.048   6.167
 4461SOL     OW14281   2.576   0.248   2.219
 4461SOL    HW114282   2.654   0.267   2.278
 4461SOL    HW214283   2.565   0.323   2.154
 4462SOL     OW14284   0.052   5.389   1.500
 4462SOL    HW114285   0.010   5.456   1.562
 4462SOL    HW214286   0.033   5.297   1.533
 4463SOL     OW14287   1.396   3.639   6.241
 4463SOL    HW114288   1.471   3.617   6.179
 4463SOL    HW214289   1.408   3.590   6.327
 4464SOL     OW14290   5.517   3.202   6.987
 4464SOL    HW114291   5.429   3.190   6.942
 4464SOL    HW214292   5.585   3.141   6.945
 4465SOL     OW14293   1.176   6.543   2.275
 4465SOL    HW114294   1.173   6.604   2.354
 4465SOL    HW214295   1.226   6.459   2.299
 4466SOL     OW14296   0.900   1.824   3.198
 4466SOL    HW114297   0.810   1.782   3.212
 4466SOL    HW214298   0.932   1.864   3.283
 4467SOL     OW14299   0.962   6.372   3.478
 4467SOL    HW114300   0.889   6.383   3.545
 4467SOL    HW214301   0.953   6.440   3.405
 4468SOL     OW14302   1.409   2.732   0.203
 4468SOL    HW114303   1.361   2.785   0.273
 4468SOL    HW214304   1.497   2.776   0.183
 4469SOL     OW14305   4.123   0.209   0.752
 4469SOL    HW114306   4.123   0.122   0.703
 4469SOL    HW214307   4.216   0.231   0.781
 4470SOL     OW14308   4.752   4.068   0.868
 4470SOL    HW114309   4.828   4.004   0.864
 4470SOL    HW214310   4.787   4.161   0.878
 4471SOL     OW14311   6.273   3.289   1.446
 4471SOL    HW114312   6.268   3.240   1.359
 4471SOL    HW214313   6.361   3.334   1.455
 4472SOL     OW14314   1.771   4.130   2.512
 4472SOL    HW114315   1.710   4.117   2.434
 4472SOL    HW214316   1.775   4.227   2.535
 4473SOL     OW14317   6.757   6.726   4.326
 4473SOL    HW114318   6.814   6.655   4.285
 4473SOL    HW214319   6.747   6.802   4.262
 4474SOL     OW14320   4.399   0.280   2.794
 4474SOL    HW114321   4.385   0.236   2.883
 4474SOL    HW214322   4.497   0.279   2.771
 4475SOL     OW14323   1.975   3.881   0.360
 4475SOL    HW114324   1.992   3.978   0.378
 4475SOL    HW214325   2.048   3.844   0.303
 4476SOL     OW14326   4.935   6.230   1.863
 4476SOL    HW114327   4.845   6.189   1.853
 4476SOL    HW214328   4.935   6.294   1.940
 4477SOL     OW14329   1.572   1.382   0.634
 4477SOL    HW114330   1.665   1.347   0.635
 4477SOL    HW214331   1.570   1.472   0.679
 4478SOL     OW14332   2.126   6.664   1.835
 4478SOL    HW114333   2.057   6.649   1.764
 4478SOL    HW214334   2.180   6.581   1.847
 4479SOL     OW14335   1.007   0.148   5.497
 4479SOL    HW114336   0.963   0.236   5.516
 4479SOL    HW214337   0.963   0.106   5.417
 4480SOL     OW14338   0.607   4.727   3.906
 4480SOL    HW114339   0.528   4.789   3.913
 4480SOL    HW214340   0.602   4.658   3.978
 4481SOL     OW14341   0.972   6.395   4.388
 4481SOL    HW114342   0.946   6.387   4.484
 4481SOL    HW214343   1.013   6.309   4.358
 4482SOL     OW14344   0.002   4.517   4.243
 4482SOL    HW114345   0.101   4.517   4.231
 4482SOL    HW214346   6.997   4.612   4.252
 4483SOL     OW14347   5.583   2.981   2.034
 4483SOL    HW114348   5.615   3.057   2.091
 4483SOL    HW214349   5.493   3.004   1.996
 4484SOL     OW14350   4.299   2.922   5.771
 4484SOL    HW114351   4.237   2.951   5.698
 4484SOL    HW214352   4.268   2.959   5.858
 4485SOL     OW14353   5.461   1.903   6.606
 4485SOL    HW114354   5.548   1.950   6.620
 4485SOL    HW214355   5.428   1.920   6.513
 4486SOL     OW14356   6.307   3.123   4.508
 4486SOL    HW114357   6.213   3.143   4.536
 4486SOL    HW214358   6.359   3.208   4.503
 4487SOL     OW14359   3.007   2.914   6.057
 4487SOL    HW114360   2.916   2.925   6.019
 4487SOL    HW214361   3.073   2.965   6.002
 4488SOL     OW14362   0.279   1.514   4.317
 4488SOL    HW114363   0.218   1.551   4.387
 4488SOL    HW214364   0.276   1.414   4.319
 4489SOL     OW14365   5.820   6.915   4.409
 4489SOL    HW114366   5.830   6.915   4.309
 4489SOL    HW214367   5.792   6.824   4.440
 4490SOL     OW14368   6.595   1.643   2.807
 4490SOL    HW114369   6.665   1.708   2.778
 4490SOL    HW214370   6.520   1.642   2.741
 4491SOL     OW14371   0.914   3.744   2.705
 4491SOL    HW114372   1.012   3.763   2.700
 4491SOL    HW214373   0.900   3.650   2.737
 4492SOL     OW14374   4.548   3.206   0.069
 4492SOL    HW114375   4.622   3.220   0.136
 4492SOL    HW214376   4.461   3.199   0.116
 4493SOL     OW14377   5.721   5.308   4.547
 4493SOL    HW114378   5.816   5.295   4.573
 4493SOL    HW214379   5.707   5.275   4.453
 4494SOL     OW14380   5.971   3.999   5.182
 4494SOL    HW114381   5.929   3.921   5.229
 4494SOL    HW214382   6.069   3.984   5.172
 4495SOL     OW14383   4.690   6.088   1.842
 4495SOL    HW114384   4.686   6.009   1.781
 4495SOL    HW214385   4.623   6.156   1.813
 4496SOL     OW14386   4.929   4.059   5.532
 4496SOL    HW114387   4.944   3.994   5.607
 4496SOL    HW214388   5.012   4.067   5.477
 4497SOL     OW14389   6.349   5.010   0.411
 4497SOL    HW114390   6.437   4.972   0.383
 4497SOL    HW214391   6.332   4.987   0.507
 4498SOL     OW14392   6.596   3.410   0.050
 4498SOL    HW114393   6.629   3.322   0.085
 4498SOL    HW214394   6.672   3.475   0.045
 4499SOL     OW14395   6.954   2.717   5.876
 4499SOL    HW114396   6.868   2.735   5.925
 4499SOL    HW214397   7.010   2.800   5.877
 4500SOL     OW14398   2.979   3.778   4.545
 4500SOL    HW114399   2.894   3.738   4.511
 4500SOL    HW214400   3.033   3.707   4.591
 4501SOL     OW14401   6.925   4.301   5.441
 4501SOL    HW114402   6.887   4.301   5.534
 4501SOL    HW214403   7.015   4.258   5.441
 4502SOL     OW14404   0.445   2.564   0.062
 4502SOL    HW114405   0.447   2.662   0.081
 4502SOL    HW214406   0.364   2.542   0.008
 4503SOL     OW14407   0.848   1.925   3.994
 4503SOL    HW114408   0.809   1.988   3.927
 4503SOL    HW214409   0.814   1.833   3.977
 4504SOL     OW14410   5.093   2.222   4.184
 4504SOL    HW114411   5.117   2.293   4.118
 4504SOL    HW214412   5.100   2.259   4.277
 4505SOL     OW14413   1.791   6.587   5.468
 4505SOL    HW114414   1.714   6.646   5.491
 4505SOL    HW214415   1.773   6.494   5.500
 4506SOL     OW14416   4.107   0.355   4.941
 4506SOL    HW114417   4.116   0.400   4.852
 4506SOL    HW214418   4.010   0.336   4.958
 4507SOL     OW14419   5.772   4.731   0.592
 4507SOL    HW114420   5.794   4.794   0.667
 4507SOL    HW214421   5.748   4.642   0.629
 4508SOL     OW14422   0.994   3.762   0.108
 4508SOL    HW114423   0.900   3.732   0.120
 4508SOL    HW214424   0.998   3.862   0.105
 4509SOL     OW14425   2.909   1.831   4.264
 4509SOL    HW114426   2.885   1.737   4.242
 4509SOL    HW214427   3.009   1.839   4.269
 4510SOL     OW14428   4.567   6.846   5.211
 4510SOL    HW114429   4.491   6.883   5.264
 4510SOL    HW214430   4.602   6.916   5.148
 4511SOL     OW14431   6.413   2.428   0.828
 4511SOL    HW114432   6.377   2.484   0.754
 4511SOL    HW214433   6.489   2.373   0.795
 4512SOL     OW14434   2.975   5.875   0.001
 4512SOL    HW114435   3.074   5.888   7.027
 4512SOL    HW214436   2.932   5.956   0.041
 4513SOL     OW14437   5.013   0.652   1.622
 4513SOL    HW114438   4.914   0.651   1.630
 4513SOL    HW214439   5.052   0.701   1.700
 4514SOL     OW14440   2.800   1.422   5.237
 4514SOL    HW114441   2.747   1.337   5.238
 4514SOL    HW214442   2.853   1.429   5.321
 4515SOL     OW14443   0.423   5.154   1.276
 4515SOL    HW114444   0.417   5.078   1.211
 4515SOL    HW214445   0.422   5.240   1.226
 4516SOL     OW14446   1.054   0.805   4.986
 4516SOL    HW114447   1.066   0.725   4.927
 4516SOL    HW214448   0.969   0.851   4.962
 4517SOL     OW14449   3.476   6.396   5.410
 4517SOL    HW114450   3.388   6.395   5.361
 4517SOL    HW214451   3.459   6.395   5.508
 4518SOL     OW14452   1.335   2.426   4.146
 4518SOL    HW114453   1.383   2.358   4.090
 4518SOL    HW214454   1.285   2.381   4.219
 4519SOL     OW14455   0.046   3.165   3.769
 4519SOL    HW114456   0.091   3.252   3.784
 4519SOL    HW214457   6.989   3.162   3.823
 4520SOL     OW14458   6.981   4.417   3.093
 4520SOL    HW114459   0.019   4.492   3.091
 4520SOL    HW214460   6.978   4.372   3.003
 4521SOL     OW14461   5.348   2.590   6.890
 4521SOL    HW114462   5.270   2.571   6.831
 4521SOL    HW214463   5.363   2.689   6.894
 4522SOL     OW14464   5.792   0.383   4.528
 4522SOL    HW114465   5.870   0.446   4.527
 4522SOL    HW214466   5.815   0.302   4.581
 4523SOL     OW14467   3.298   4.210   6.994
 4523SOL    HW114468   3.295   4.281   6.923
 4523SOL    HW214469   3.219   4.149   6.983
 4524SOL     OW14470   5.263   0.146   4.806
 4524SOL    HW114471   5.297   0.055   4.780
 4524SOL    HW214472   5.212   0.186   4.730
 4525SOL     OW14473   6.329   1.787   4.971
 4525SOL    HW114474   6.388   1.708   4.986
 4525SOL    HW214475   6.349   1.828   4.882
 4526SOL     OW14476   4.679   6.829   0.876
 4526SOL    HW114477   4.741   6.858   0.803
 4526SOL    HW214478   4.731   6.780   0.946
 4527SOL     OW14479   4.788   0.711   2.251
 4527SOL    HW114480   4.789   0.762   2.336
 4527SOL    HW214481   4.778   0.774   2.174
 4528SOL     OW14482   5.863   0.150   0.935
 4528SOL    HW114483   5.863   0.103   0.847
 4528SOL    HW214484   5.772   0.148   0.975
 4529SOL     OW14485   3.643   6.765   3.160
 4529SOL    HW114486   3.692   6.680   3.141
 4529SOL    HW214487   3.547   6.754   3.133
 4530SOL     OW14488   0.396   3.284   5.839
 4530SOL    HW114489   0.323   3.320   5.897
 4530SOL    HW214490   0.398   3.184   5.846
 4531SOL     OW14491   0.156   3.201   4.199
 4531SOL    HW114492   0.136   3.103   4.206
 4531SOL    HW214493   0.245   3.220   4.239
 4532SOL     OW14494   6.386   1.085   0.921
 4532SOL    HW114495   6.466   1.028   0.905
 4532SOL    HW214496   6.341   1.106   0.834
 4533SOL     OW14497   2.157   5.622   2.927
 4533SOL    HW114498   2.096   5.690   2.968
 4533SOL    HW214499   2.104   5.562   2.866
 4534SOL     OW14500   6.008   3.628   4.928
 4534SOL    HW114501   6.075   3.565   4.890
 4534SOL    HW214502   6.054   3.710   4.961
 4535SOL     OW14503   4.892   3.271   2.136
 4535SOL    HW114504   4.862   3.183   2.098
 4535SOL    HW214505   4.958   3.312   2.074
 4536SOL     OW14506   6.253   0.885   4.316
 4536SOL    HW114507   6.228   0.808   4.257
 4536SOL    HW214508   6.180   0.953   4.315
 4537SOL     OW14509   3.656   2.799   6.880
 4537SOL    HW114510   3.680   2.894   6.903
 4537SOL    HW214511   3.721   2.764   6.813
 4538SOL     OW14512   3.520   1.030   2.554
 4538SOL    HW114513   3.504   1.052   2.457
 4538SOL    HW214514   3.440   0.983   2.590
 4539SOL     OW14515   1.964   1.615   3.009
 4539SOL    HW114516   2.023   1.617   2.928
 4539SOL    HW214517   1.884   1.557   2.990
 4540SOL     OW14518   3.802   3.568   4.521
 4540SOL    HW114519   3.841   3.539   4.434
 4540SOL    HW214520   3.842   3.513   4.595
 4541SOL     OW14521   5.027   1.912   1.395
 4541SOL    HW114522   5.089   1.981   1.359
 4541SOL    HW214523   4.952   1.956   1.445
 4542SOL     OW14524   5.804   6.909   2.690
 4542SOL    HW114525   5.880   6.916   2.626
 4542SOL    HW214526   5.727   6.964   2.658
 4543SOL     OW14527   5.635   1.452   1.124
 4543SOL    HW114528   5.637   1.552   1.128
 4543SOL    HW214529   5.567   1.423   1.057
 4544SOL     OW14530   3.276   5.569   6.478
 4544SOL    HW114531   3.304   5.483   6.522
 4544SOL    HW214532   3.178   5.565   6.458
 4545SOL     OW14533   3.796   2.247   5.538
 4545SOL    HW114534   3.894   2.225   5.529
 4545SOL    HW214535   3.762   2.209   5.624
 4546SOL     OW14536   1.426   6.143   6.363
 4546SOL    HW114537   1.402   6.151   6.460
 4546SOL    HW214538   1.367   6.203   6.310
 4547SOL     OW14539   5.075   2.316   1.929
 4547SOL    HW114540   5.122   2.373   1.861
 4547SOL    HW214541   5.079   2.220   1.901
 4548SOL     OW14542   0.715   4.104   3.594
 4548SOL    HW114543   0.689   4.007   3.600
 4548SOL    HW214544   0.813   4.114   3.609
 4549SOL     OW14545   6.858   2.863   2.563
 4549SOL    HW114546   6.881   2.952   2.602
 4549SOL    HW214547   6.840   2.797   2.636
 4550SOL     OW14548   0.904   5.396   4.114
 4550SOL    HW114549   0.975   5.441   4.059
 4550SOL    HW214550   0.839   5.465   4.147
 4551SOL     OW14551   1.066   2.376   5.733
 4551SOL    HW114552   1.097   2.431   5.655
 4551SOL    HW214553   1.098   2.282   5.722
 4552SOL     OW14554   0.196   3.475   4.774
 4552SOL    HW114555   0.150   3.394   4.809
 4552SOL    HW214556   0.219   3.536   4.849
 4553SOL     OW14557   4.229   4.801   0.372
 4553SOL    HW114558   4.297   4.777   0.302
 4553SOL    HW214559   4.275   4.813   0.460
 4554SOL     OW14560   5.020   6.581   2.803
 4554SOL    HW114561   5.009   6.590   2.902
 4554SOL    HW214562   5.093   6.516   2.784
 4555SOL     OW14563   5.281   2.691   6.530
 4555SOL    HW114564   5.245   2.647   6.613
 4555SOL    HW214565   5.360   2.639   6.496
 4556SOL     OW14566   4.262   0.780   3.415
 4556SOL    HW114567   4.173   0.819   3.390
 4556SOL    HW214568   4.322   0.852   3.447
 4557SOL     OW14569   5.431   6.968   6.071
 4557SOL    HW114570   5.356   0.003   6.090
 4557SOL    HW214571   5.500   6.975   6.144
 4558SOL     OW14572   6.406   3.304   6.906
 4558SOL    HW114573   6.308   3.312   6.925
 4558SOL    HW214574   6.458   3.360   6.970
 4559SOL     OW14575   1.244   6.628   1.419
 4559SOL    HW114576   1.245   6.577   1.333
 4559SOL    HW214577   1.151   6.628   1.457
 4560SOL     OW14578   5.200   3.232   2.902
 4560SOL    HW114579   5.156   3.153   2.860
 4560SOL    HW214580   5.134   3.281   2.959
 4561SOL     OW14581   3.554   0.287   6.512
 4561SOL    HW114582   3.544   0.363   6.576
 4561SOL    HW214583   3.496   0.211   6.542
 4562SOL     OW14584   2.876   5.012   6.863
 4562SOL    HW114585   2.952   5.076   6.849
 4562SOL    HW214586   2.834   5.029   6.952
 4563SOL     OW14587   5.720   2.042   6.570
 4563SOL    HW114588   5.744   2.063   6.475
 4563SOL    HW214589   5.803   2.038   6.625
 4564SOL     OW14590   1.716   6.374   0.408
 4564SOL    HW114591   1.617   6.373   0.412
 4564SOL    HW214592   1.749   6.296   0.355
 4565SOL     OW14593   1.326   0.686   5.262
 4565SOL    HW114594   1.260   0.631   5.314
 4565SOL    HW214595   1.281   0.769   5.229
 4566SOL     OW14596   6.648   1.110   6.904
 4566SOL    HW114597   6.728   1.132   6.960
 4566SOL    HW214598   6.676   1.101   6.808
 4567SOL     OW14599   6.689   1.153   1.016
 4567SOL    HW114600   6.595   1.153   0.981
 4567SOL    HW214601   6.712   1.063   1.051
 4568SOL     OW14602   3.078   4.471   5.757
 4568SOL    HW114603   3.127   4.521   5.685
 4568SOL    HW214604   3.054   4.535   5.830
 4569SOL     OW14605   1.024   1.207   4.157
 4569SOL    HW114606   1.096   1.184   4.222
 4569SOL    HW214607   1.020   1.306   4.145
 4570SOL     OW14608   0.118   5.770   4.007
 4570SOL    HW114609   0.093   5.706   3.934
 4570SOL    HW214610   0.189   5.832   3.974
 4571SOL     OW14611   3.559   3.256   4.598
 4571SOL    HW114612   3.515   3.237   4.510
 4571SOL    HW214613   3.628   3.186   4.616
 4572SOL     OW14614   1.641   6.974   1.384
 4572SOL    HW114615   1.664   6.992   1.288
 4572SOL    HW214616   1.664   0.026   1.439
 4573SOL     OW14617   5.593   6.293   0.781
 4573SOL    HW114618   5.651   6.253   0.710
 4573SOL    HW214619   5.537   6.222   0.823
 4574SOL     OW14620   6.950   4.396   1.453
 4574SOL    HW114621   0.016   4.363   1.465
 4574SOL    HW214622   6.949   4.496   1.458
 4575SOL     OW14623   6.833   0.220   2.112
 4575SOL    HW114624   6.800   0.275   2.188
 4575SOL    HW214625   6.760   0.161   2.078
 4576SOL     OW14626   3.443   5.359   6.039
 4576SOL    HW114627   3.463   5.424   6.113
 4576SOL    HW214628   3.357   5.312   6.059
 4577SOL     OW14629   1.420   3.311   3.405
 4577SOL    HW114630   1.323   3.295   3.421
 4577SOL    HW214631   1.433   3.347   3.312
 4578SOL     OW14632   6.940   3.692   4.228
 4578SOL    HW114633   6.890   3.654   4.306
 4578SOL    HW214634   7.021   3.637   4.210
 4579SOL     OW14635   5.789   2.160   3.631
 4579SOL    HW114636   5.724   2.164   3.555
 4579SOL    HW214637   5.835   2.248   3.640
 4580SOL     OW14638   6.443   6.431   0.879
 4580SOL    HW114639   6.394   6.473   0.803
 4580SOL    HW214640   6.427   6.332   0.879
 4581SOL     OW14641   3.092   5.325   3.006
 4581SOL    HW114642   3.080   5.421   2.982
 4581SOL    HW214643   3.019   5.297   3.069
 4582SOL     OW14644   5.662   6.244   2.948
 4582SOL    HW114645   5.719   6.325   2.939
 4582SOL    HW214646   5.602   6.236   2.868
 4583SOL     OW14647   3.439   1.923   5.409
 4583SOL    HW114648   3.461   1.876   5.494
 4583SOL    HW214649   3.344   1.953   5.410
 4584SOL     OW14650   0.879   5.137   5.495
 4584SOL    HW114651   0.899   5.109   5.401
 4584SOL    HW214652   0.819   5.217   5.494
 4585SOL     OW14653   3.638   6.225   2.911
 4585SOL    HW114654   3.588   6.311   2.917
 4585SOL    HW214655   3.652   6.187   3.002
 4586SOL     OW14656   3.656   5.704   2.153
 4586SOL    HW114657   3.686   5.717   2.058
 4586SOL    HW214658   3.725   5.740   2.215
 4587SOL     OW14659   2.685   3.626   1.405
 4587SOL    HW114660   2.761   3.691   1.411
 4587SOL    HW214661   2.719   3.535   1.383
 4588SOL     OW14662   3.894   3.739   5.329
 4588SOL    HW114663   3.972   3.797   5.305
 4588SOL    HW214664   3.920   3.643   5.321
 4589SOL     OW14665   6.574   2.071   4.540
 4589SOL    HW114666   6.651   2.025   4.586
 4589SOL    HW214667   6.533   2.137   4.603
 4590SOL     OW14668   4.332   5.291   2.631
 4590SOL    HW114669   4.386   5.229   2.574
 4590SOL    HW214670   4.252   5.322   2.580
 4591SOL     OW14671   5.315   6.052   5.478
 4591SOL    HW114672   5.239   5.988   5.490
 4591SOL    HW214673   5.400   6.000   5.467
 4592SOL     OW14674   4.009   2.495   6.802
 4592SOL    HW114675   4.052   2.485   6.712
 4592SOL    HW214676   4.023   2.412   6.855
 4593SOL     OW14677   3.709   6.453   2.589
 4593SOL    HW114678   3.795   6.404   2.607
 4593SOL    HW214679   3.719   6.549   2.615
 4594SOL     OW14680   2.103   1.508   2.318
 4594SOL    HW114681   2.083   1.597   2.276
 4594SOL    HW214682   2.018   1.467   2.350
 4595SOL     OW14683   3.814   3.042   6.670
 4595SOL    HW114684   3.745   3.101   6.712
 4595SOL    HW214685   3.866   3.093   6.602
 4596SOL     OW14686   5.471   0.058   1.663
 4596SOL    HW114687   5.520   0.105   1.590
 4596SOL    HW214688   5.461   0.120   1.742
 4597SOL     OW14689   5.139   4.239   6.660
 4597SOL    HW114690   5.205   4.266   6.731
 4597SOL    HW214691   5.167   4.279   6.572
 4598SOL     OW14692   2.314   5.168   6.798
 4598SOL    HW114693   2.327   5.184   6.700
 4598SOL    HW214694   2.297   5.256   6.844
 4599SOL     OW14695   1.528   4.652   1.166
 4599SOL    HW114696   1.570   4.603   1.242
 4599SOL    HW214697   1.592   4.656   1.089
 4600SOL     OW14698   2.686   5.503   0.770
 4600SOL    HW114699   2.662   5.410   0.799
 4600SOL    HW214700   2.707   5.558   0.851
 4601SOL     OW14701   2.026   0.220   5.329
 4601SOL    HW114702   1.998   0.280   5.403
 4601SOL    HW214703   1.946   0.191   5.276
 4602SOL     OW14704   1.381   0.326   2.213
 4602SOL    HW114705   1.459   0.272   2.245
 4602SOL    HW214706   1.385   0.335   2.113
 4603SOL     OW14707   3.253   6.534   1.306
 4603SOL    HW114708   3.223   6.490   1.391
 4603SOL    HW214709   3.276   6.464   1.239
 4604SOL     OW14710   3.549   6.793   1.904
 4604SOL    HW114711   3.623   6.728   1.888
 4604SOL    HW214712   3.556   6.868   1.839
 4605SOL     OW14713   5.179   6.822   4.964
 4605SOL    HW114714   5.193   6.873   4.879
 4605SOL    HW214715   5.185   6.886   5.041
 4606SOL     OW14716   6.537   6.177   5.113
 4606SOL    HW114717   6.620   6.229   5.134
 4606SOL    HW214718   6.460   6.214   5.164
 4607SOL     OW14719   3.244   1.887   1.634
 4607SOL    HW114720   3.340   1.898   1.662
 4607SOL    HW214721   3.194   1.841   1.707
 4608SOL     OW14722   2.009   3.762   5.709
 4608SOL    HW114723   2.031   3.844   5.763
 4608SOL    HW214724   2.059   3.765   5.622
 4609SOL     OW14725   5.167   6.824   6.821
 4609SOL    HW114726   5.203   6.796   6.733
 4609SOL    HW214727   5.155   6.924   6.822
 4610SOL     OW14728   0.073   3.070   6.628
 4610SOL    HW114729   7.014   3.116   6.652
 4610SOL    HW214730   0.127   3.056   6.711
 4611SOL     OW14731   0.504   4.081   6.930
 4611SOL    HW114732   0.442   4.152   6.897
 4611SOL    HW214733   0.453   4.016   6.987
 4612SOL     OW14734   2.415   6.554   6.874
 4612SOL    HW114735   2.515   6.557   6.874
 4612SOL    HW214736   2.383   6.495   6.947
 4613SOL     OW14737   3.313   5.374   2.398
 4613SOL    HW114738   3.376   5.451   2.405
 4613SOL    HW214739   3.360   5.296   2.358
 4614SOL     OW14740   1.398   5.513   0.283
 4614SOL    HW114741   1.395   5.430   0.227
 4614SOL    HW214742   1.385   5.488   0.380
 4615SOL     OW14743   0.979   2.296   0.793
 4615SOL    HW114744   0.937   2.212   0.758
 4615SOL    HW214745   1.051   2.325   0.730
 4616SOL     OW14746   5.398   1.508   6.393
 4616SOL    HW114747   5.323   1.502   6.327
 4616SOL    HW214748   5.484   1.520   6.343
 4617SOL     OW14749   0.411   2.555   1.580
 4617SOL    HW114750   0.318   2.588   1.563
 4617SOL    HW214751   0.412   2.498   1.662
 4618SOL     OW14752   1.373   2.175   6.367
 4618SOL    HW114753   1.426   2.242   6.418
 4618SOL    HW214754   1.313   2.222   6.302
 4619SOL     OW14755   3.938   0.525   3.299
 4619SOL    HW114756   3.982   0.599   3.248
 4619SOL    HW214757   3.971   0.525   3.393
 4620SOL     OW14758   2.725   4.667   6.659
 4620SOL    HW114759   2.677   4.725   6.725
 4620SOL    HW214760   2.686   4.575   6.662
 4621SOL     OW14761   0.153   6.728   5.614
 4621SOL    HW114762   0.144   6.816   5.567
 4621SOL    HW214763   0.238   6.684   5.585
 4622SOL     OW14764   1.650   4.245   0.577
 4622SOL    HW114765   1.634   4.173   0.510
 4622SOL    HW214766   1.604   4.223   0.663
 4623SOL     OW14767   6.847   5.174   1.640
 4623SOL    HW114768   6.771   5.153   1.702
 4623SOL    HW214769   6.866   5.095   1.583
 4624SOL     OW14770   5.159   0.255   4.595
 4624SOL    HW114771   5.090   0.202   4.548
 4624SOL    HW214772   5.144   0.352   4.579
 4625SOL     OW14773   1.031   4.073   6.724
 4625SOL    HW114774   1.000   3.982   6.749
 4625SOL    HW214775   1.080   4.069   6.637
 4626SOL     OW14776   6.735   5.357   1.189
 4626SOL    HW114777   6.713   5.330   1.282
 4626SOL    HW214778   6.824   5.404   1.188
 4627SOL     OW14779   3.598   6.037   5.368
 4627SOL    HW114780   3.511   5.989   5.378
 4627SOL    HW214781   3.673   5.974   5.388
 4628SOL     OW14782   6.973   4.063   1.904
 4628SOL    HW114783   7.019   4.100   1.984
 4628SOL    HW214784   6.941   4.139   1.846
 4629SOL     OW14785   1.936   4.539   5.709
 4629SOL    HW114786   1.875   4.480   5.762
 4629SOL    HW214787   2.031   4.510   5.723
 4630SOL     OW14788   2.246   6.176   3.102
 4630SOL    HW114789   2.324   6.143   3.048
 4630SOL    HW214790   2.271   6.262   3.147
 4631SOL     OW14791   2.784   6.528   2.540
 4631SOL    HW114792   2.749   6.579   2.462
 4631SOL    HW214793   2.708   6.488   2.591
 4632SOL     OW14794   5.226   5.446   4.323
 4632SOL    HW114795   5.159   5.386   4.279
 4632SOL    HW214796   5.235   5.530   4.270
 4633SOL     OW14797   6.357   1.943   4.437
 4633SOL    HW114798   6.431   2.006   4.461
 4633SOL    HW214799   6.361   1.922   4.340
 4634SOL     OW14800   3.105   4.723   1.013
 4634SOL    HW114801   3.202   4.708   0.994
 4634SOL    HW214802   3.060   4.635   1.028
 4635SOL     OW14803   5.124   3.289   1.951
 4635SOL    HW114804   5.084   3.208   1.906
 4635SOL    HW214805   5.160   3.351   1.881
 4636SOL     OW14806   3.160   5.441   0.398
 4636SOL    HW114807   3.167   5.471   0.493
 4636SOL    HW214808   3.191   5.515   0.338
 4637SOL     OW14809   1.045   1.027   5.383
 4637SOL    HW114810   1.134   0.982   5.379
 4637SOL    HW214811   1.013   1.029   5.477
 4638SOL     OW14812   5.210   3.618   5.874
 4638SOL    HW114813   5.201   3.621   5.774
 4638SOL    HW214814   5.229   3.710   5.908
 4639SOL     OW14815   0.124   3.740   5.630
 4639SOL    HW114816   0.085   3.832   5.633
 4639SOL    HW214817   0.204   3.736   5.690
 4640SOL     OW14818   5.530   4.483   2.633
 4640SOL    HW114819   5.498   4.410   2.694
 4640SOL    HW214820   5.476   4.483   2.549
 4641SOL     OW14821   2.096   4.956   4.870
 4641SOL    HW114822   2.110   4.922   4.777
 4641SOL    HW214823   2.184   4.965   4.916
 4642SOL     OW14824   6.114   5.917   4.934
 4642SOL    HW114825   6.051   5.892   4.860
 4642SOL    HW214826   6.162   6.001   4.910
 4643SOL     OW14827   3.819   2.210   1.710
 4643SOL    HW114828   3.902   2.250   1.749
 4643SOL    HW214829   3.739   2.239   1.763
 4644SOL     OW14830   2.024   6.087   4.800
 4644SOL    HW114831   2.032   6.001   4.852
 4644SOL    HW214832   2.051   6.164   4.859
 4645SOL     OW14833   1.938   6.384   4.650
 4645SOL    HW114834   1.865   6.378   4.581
 4645SOL    HW214835   1.935   6.302   4.708
 4646SOL     OW14836   3.694   0.747   2.091
 4646SOL    HW114837   3.704   0.705   2.001
 4646SOL    HW214838   3.783   0.753   2.135
 4647SOL     OW14839   6.082   0.428   4.493
 4647SOL    HW114840   6.065   0.461   4.400
 4647SOL    HW214841   6.178   0.445   4.517
 4648SOL     OW14842   2.372   5.725   2.741
 4648SOL    HW114843   2.455   5.676   2.768
 4648SOL    HW214844   2.293   5.686   2.789
 4649SOL     OW14845   5.383   0.805   5.979
 4649SOL    HW114846   5.310   0.842   6.036
 4649SOL    HW214847   5.442   0.746   6.035
 4650SOL     OW14848   5.625   5.246   2.279
 4650SOL    HW114849   5.581   5.311   2.216
 4650SOL    HW214850   5.581   5.157   2.271
 4651SOL     OW14851   0.364   2.362   1.792
 4651SOL    HW114852   0.294   2.339   1.859
 4651SOL    HW214853   0.390   2.279   1.743
 4652SOL     OW14854   6.575   6.839   5.389
 4652SOL    HW114855   6.635   6.869   5.315
 4652SOL    HW214856   6.485   6.880   5.378
 4653SOL     OW14857   0.383   6.377   7.012
 4653SOL    HW114858   0.355   6.424   6.928
 4653SOL    HW214859   0.478   6.399   0.005
 4654SOL     OW14860   1.385   0.573   6.996
 4654SOL    HW114861   1.443   0.493   6.983
 4654SOL    HW214862   1.344   0.570   0.060
 4655SOL     OW14863   0.410   4.677   3.273
 4655SOL    HW114864   0.438   4.615   3.347
 4655SOL    HW214865   0.485   4.684   3.207
 4656SOL     OW14866   1.241   0.415   3.959
 4656SOL    HW114867   1.222   0.446   3.865
 4656SOL    HW214868   1.316   0.469   3.997
 4657SOL     OW14869   5.118   6.908   1.002
 4657SOL    HW114870   5.170   6.945   0.925
 4657SOL    HW214871   5.065   6.981   1.045
 4658SOL     OW14872   4.938   0.265   3.174
 4658SOL    HW114873   5.022   0.316   3.154
 4658SOL    HW214874   4.868   0.328   3.209
 4659SOL     OW14875   1.772   2.709   5.084
 4659SOL    HW114876   1.784   2.734   5.180
 4659SOL    HW214877   1.755   2.792   5.030
 4660SOL     OW14878   0.127   0.989   6.258
 4660SOL    HW114879   0.049   0.944   6.214
 4660SOL    HW214880   0.183   0.921   6.304
 4661SOL     OW14881   3.036   3.620   3.929
 4661SOL    HW114882   3.002   3.668   4.010
 4661SOL    HW214883   2.985   3.535   3.917
 4662SOL     OW14884   4.988   0.515   5.493
 4662SOL    HW114885   4.902   0.564   5.486
 4662SOL    HW214886   4.997   0.452   5.416
 4663SOL     OW14887   0.584   2.349   2.446
 4663SOL    HW114888   0.627   2.345   2.537
 4663SOL    HW214889   0.649   2.386   2.380
 4664SOL     OW14890   3.222   2.119   0.282
 4664SOL    HW114891   3.216   2.019   0.287
 4664SOL    HW214892   3.318   2.146   0.278
 4665SOL     OW14893   4.939   0.081   0.058
 4665SOL    HW114894   4.843   0.065   0.034
 4665SOL    HW214895   4.993   7.028   0.035
 4666SOL     OW14896   2.464   1.420   0.568
 4666SOL    HW114897   2.447   1.504   0.619
 4666SOL    HW214898   2.556   1.424   0.528
 4667SOL     OW14899   0.075   5.231   6.548
 4667SOL    HW114900   0.059   5.221   6.450
 4667SOL    HW214901   7.017   5.217   6.598
 4668SOL     OW14902   6.769   1.638   4.156
 4668SOL    HW114903   6.822   1.597   4.231
 4668SOL    HW214904   6.830   1.693   4.098
 4669SOL     OW14905   1.481   0.280   0.488
 4669SOL    HW114906   1.415   0.354   0.477
 4669SOL    HW214907   1.573   0.317   0.493
 4670SOL     OW14908   2.339   2.171   4.041
 4670SOL    HW114909   2.258   2.134   3.995
 4670SOL    HW214910   2.323   2.266   4.065
 4671SOL     OW14911   5.711   3.521   1.770
 4671SOL    HW114912   5.808   3.547   1.774
 4671SOL    HW214913   5.686   3.502   1.675
 4672SOL     OW14914   2.054   3.608   6.307
 4672SOL    HW114915   1.954   3.606   6.313
 4672SOL    HW214916   2.093   3.605   6.399
 4673SOL     OW14917   4.209   0.888   2.878
 4673SOL    HW114918   4.286   0.949   2.861
 4673SOL    HW214919   4.238   0.811   2.934
 4674SOL     OW14920   4.370   5.706   5.350
 4674SOL    HW114921   4.287   5.695   5.296
 4674SOL    HW214922   4.440   5.751   5.295
 4675SOL     OW14923   0.889   4.395   0.271
 4675SOL    HW114924   0.955   4.337   0.317
 4675SOL    HW214925   0.816   4.420   0.335
 4676SOL     OW14926   1.192   5.718   3.580
 4676SOL    HW114927   1.189   5.618   3.591
 4676SOL    HW214928   1.255   5.757   3.647
 4677SOL     OW14929   1.761   2.934   0.298
 4677SOL    HW114930   1.733   3.019   0.343
 4677SOL    HW214931   1.740   2.856   0.357
 4678SOL     OW14932   2.118   4.889   2.852
 4678SOL    HW114933   2.108   4.983   2.884
 4678SOL    HW214934   2.035   4.861   2.804
 4679SOL     OW14935   5.117   0.179   1.736
 4679SOL    HW114936   5.143   0.181   1.639
 4679SOL    HW214937   5.178   0.239   1.788
 4680SOL     OW14938   2.397   1.379   1.949
 4680SOL    HW114939   2.400   1.394   1.850
 4680SOL    HW214940   2.361   1.288   1.968
 4681SOL     OW14941   5.719   4.094   1.382
 4681SOL    HW114942   5.661   4.069   1.459
 4681SOL    HW214943   5.795   4.151   1.414
 4682SOL     OW14944   3.886   3.495   6.723
 4682SOL    HW114945   3.980   3.528   6.730
 4682SOL    HW214946   3.884   3.407   6.676
 4683SOL     OW14947   6.283   4.132   3.571
 4683SOL    HW114948   6.273   4.073   3.651
 4683SOL    HW214949   6.379   4.157   3.559
 4684SOL     OW14950   4.804   6.283   0.133
 4684SOL    HW114951   4.886   6.302   0.186
 4684SOL    HW214952   4.830   6.237   0.048
 4685SOL     OW14953   2.518   3.565   5.945
 4685SOL    HW114954   2.431   3.518   5.958
 4685SOL    HW214955   2.572   3.517   5.876
 4686SOL     OW14956   2.885   6.090   0.137
 4686SOL    HW114957   2.786   6.097   0.149
 4686SOL    HW214958   2.923   6.180   0.117
 4687SOL     OW14959   2.981   0.564   2.635
 4687SOL    HW114960   3.023   0.514   2.560
 4687SOL    HW214961   2.885   0.584   2.613
 4688SOL     OW14962   5.633   3.391   5.898
 4688SOL    HW114963   5.679   3.344   5.823
 4688SOL    HW214964   5.573   3.463   5.861
 4689SOL     OW14965   5.731   0.882   0.805
 4689SOL    HW114966   5.744   0.975   0.771
 4689SOL    HW214967   5.800   0.822   0.766
 4690SOL     OW14968   2.740   1.405   0.523
 4690SOL    HW114969   2.725   1.326   0.463
 4690SOL    HW214970   2.837   1.430   0.522
 4691SOL     OW14971   6.508   4.597   0.999
 4691SOL    HW114972   6.523   4.637   1.089
 4691SOL    HW214973   6.526   4.664   0.928
 4692SOL     OW14974   6.450   4.071   3.038
 4692SOL    HW114975   6.496   3.991   3.002
 4692SOL    HW214976   6.456   4.072   3.138
 4693SOL     OW14977   1.981   0.857   3.939
 4693SOL    HW114978   1.990   0.867   3.840
 4693SOL    HW214979   2.005   0.763   3.965
 4694SOL     OW14980   2.477   1.496   0.068
 4694SOL    HW114981   2.570   1.480   0.101
 4694SOL    HW214982   2.439   1.576   0.115
 4695SOL     OW14983   1.120   6.033   1.581
 4695SOL    HW114984   1.165   6.008   1.495
 4695SOL    HW214985   1.136   5.961   1.648
 4696SOL     OW14986   0.800   4.955   6.179
 4696SOL    HW114987   0.871   4.933   6.111
 4696SOL    HW214988   0.731   4.882   6.180
 4697SOL     OW14989   2.993   4.761   0.744
 4697SOL    HW114990   2.920   4.828   0.751
 4697SOL    HW214991   3.017   4.729   0.836
 4698SOL     OW14992   4.873   0.800   2.987
 4698SOL    HW114993   4.782   0.759   2.986
 4698SOL    HW214994   4.943   0.729   2.987
 4699SOL     OW14995   1.201   0.068   2.687
 4699SOL    HW114996   1.256   0.009   2.627
 4699SOL    HW214997   1.257   0.099   2.764
 4700SOL     OW14998   5.783   2.097   2.755
 4700SOL    HW114999   5.814   2.005   2.730
 4700SOL    HW215000   5.697   2.117   2.709
 4701SOL     OW15001   3.135   1.936   2.024
 4701SOL    HW115002   3.154   2.028   1.989
 4701SOL    HW215003   3.089   1.943   2.113
 4702SOL     OW15004   5.193   4.883   6.202
 4702SOL    HW115005   5.235   4.902   6.113
 4702SOL    HW215006   5.258   4.907   6.274
 4703SOL     OW15007   0.665   4.741   3.423
 4703SOL    HW115008   0.693   4.708   3.333
 4703SOL    HW215009   0.633   4.663   3.478
 4704SOL     OW15010   0.965   4.917   5.672
 4704SOL    HW115011   0.955   4.987   5.602
 4704SOL    HW215012   0.875   4.888   5.704
 4705SOL     OW15013   3.157   2.860   1.890
 4705SOL    HW115014   3.175   2.871   1.988
 4705SOL    HW215015   3.142   2.763   1.870
 4706SOL     OW15016   1.536   1.043   0.345
 4706SOL    HW115017   1.628   1.044   0.307
 4706SOL    HW215018   1.536   1.087   0.435
 4707SOL     OW15019   1.099   0.334   1.328
 4707SOL    HW115020   1.033   0.268   1.364
 4707SOL    HW215021   1.190   0.292   1.327
 4708SOL     OW15022   0.593   2.659   4.210
 4708SOL    HW115023   0.647   2.615   4.138
 4708SOL    HW215024   0.538   2.732   4.170
 4709SOL     OW15025   4.630   3.917   5.322
 4709SOL    HW115026   4.706   3.856   5.345
 4709SOL    HW215027   4.635   3.999   5.380
 4710SOL     OW15028   5.796   6.280   4.170
 4710SOL    HW115029   5.860   6.213   4.131
 4710SOL    HW215030   5.734   6.234   4.233
 4711SOL     OW15031   6.206   3.185   3.105
 4711SOL    HW115032   6.289   3.241   3.105
 4711SOL    HW215033   6.128   3.242   3.132
 4712SOL     OW15034   4.316   4.204   5.335
 4712SOL    HW115035   4.309   4.290   5.284
 4712SOL    HW215036   4.405   4.162   5.316
 4713SOL     OW15037   5.870   4.345   0.898
 4713SOL    HW115038   5.798   4.364   0.964
 4713SOL    HW215039   5.844   4.382   0.809
 4714SOL     OW15040   5.982   0.873   6.143
 4714SOL    HW115041   5.923   0.953   6.156
 4714SOL    HW215042   6.075   0.904   6.123
 4715SOL     OW15043   6.037   1.560   1.706
 4715SOL    HW115044   6.103   1.539   1.778
 4715SOL    HW215045   6.083   1.605   1.630
 4716SOL     OW15046   4.059   4.590   5.486
 4716SOL    HW115047   4.090   4.652   5.414
 4716SOL    HW215048   3.963   4.566   5.471
 4717SOL     OW15049   2.794   5.682   5.280
 4717SOL    HW115050   2.744   5.595   5.287
 4717SOL    HW215051   2.834   5.689   5.188
 4718SOL     OW15052   5.428   4.255   0.987
 4718SOL    HW115053   5.352   4.234   1.049
 4718SOL    HW215054   5.500   4.187   0.997
 4719SOL     OW15055   6.754   3.409   3.721
 4719SOL    HW115056   6.654   3.403   3.719
 4719SOL    HW215057   6.792   3.322   3.751
 4720SOL     OW15058   2.927   4.148   6.783
 4720SOL    HW115059   2.842   4.183   6.744
 4720SOL    HW215060   3.005   4.180   6.729
 4721SOL     OW15061   6.548   3.596   2.630
 4721SOL    HW115062   6.493   3.677   2.610
 4721SOL    HW215063   6.553   3.584   2.730
 4722SOL     OW15064   1.025   4.183   6.258
 4722SOL    HW115065   0.928   4.209   6.261
 4722SOL    HW215066   1.081   4.266   6.267
 4723SOL     OW15067   3.932   3.765   6.589
 4723SOL    HW115068   3.940   3.685   6.648
 4723SOL    HW215069   4.015   3.819   6.595
 4724SOL     OW15070   1.081   6.795   4.479
 4724SOL    HW115071   1.152   6.853   4.441
 4724SOL    HW215072   1.017   6.768   4.407
 4725SOL     OW15073   6.321   5.844   0.776
 4725SOL    HW115074   6.393   5.790   0.821
 4725SOL    HW215075   6.254   5.872   0.844
 4726SOL     OW15076   1.504   3.172   5.552
 4726SOL    HW115077   1.583   3.188   5.493
 4726SOL    HW215078   1.420   3.182   5.498
 4727SOL     OW15079   1.177   5.809   0.276
 4727SOL    HW115080   1.157   5.907   0.269
 4727SOL    HW215081   1.210   5.788   0.368
 4728SOL     OW15082   6.166   1.418   4.008
 4728SOL    HW115083   6.135   1.329   4.042
 4728SOL    HW215084   6.264   1.414   3.989
 4729SOL     OW15085   6.282   0.777   0.467
 4729SOL    HW115086   6.264   0.703   0.532
 4729SOL    HW215087   6.232   0.760   0.382
 4730SOL     OW15088   3.644   0.417   5.041
 4730SOL    HW115089   3.639   0.502   4.988
 4730SOL    HW215090   3.740   0.396   5.059
 4731SOL     OW15091   3.156   0.794   0.791
 4731SOL    HW115092   3.218   0.753   0.723
 4731SOL    HW215093   3.135   0.726   0.861
 4732SOL     OW15094   6.775   4.095   4.231
 4732SOL    HW115095   6.804   4.182   4.191
 4732SOL    HW215096   6.771   4.104   4.331
 4733SOL     OW15097   2.130   3.178   2.962
 4733SOL    HW115098   2.069   3.237   2.910
 4733SOL    HW215099   2.122   3.200   3.060
 4734SOL     OW15100   4.871   3.918   6.548
 4734SOL    HW115101   4.818   3.989   6.595
 4734SOL    HW215102   4.928   3.869   6.615
 4735SOL     OW15103   0.300   6.415   5.059
 4735SOL    HW115104   0.209   6.395   5.022
 4735SOL    HW215105   0.357   6.332   5.053
 4736SOL     OW15106   6.351   1.775   2.906
 4736SOL    HW115107   6.417   1.768   2.831
 4736SOL    HW215108   6.392   1.828   2.981
 4737SOL     OW15109   2.257   4.963   1.042
 4737SOL    HW115110   2.312   5.026   1.096
 4737SOL    HW215111   2.199   4.908   1.103
 4738SOL     OW15112   2.012   0.245   3.843
 4738SOL    HW115113   2.104   0.208   3.831
 4738SOL    HW215114   1.980   0.226   3.936
 4739SOL     OW15115   5.764   3.524   4.317
 4739SOL    HW115116   5.737   3.537   4.222
 4739SOL    HW215117   5.682   3.523   4.375
 4740SOL     OW15118   0.363   0.997   1.270
 4740SOL    HW115119   0.395   1.068   1.208
 4740SOL    HW215120   0.283   1.030   1.320
 4741SOL     OW15121   4.542   4.708   1.697
 4741SOL    HW115122   4.505   4.646   1.765
 4741SOL    HW215123   4.471   4.729   1.629
 4742SOL     OW15124   2.702   5.997   1.470
 4742SOL    HW115125   2.731   5.978   1.564
 4742SOL    HW215126   2.773   6.051   1.423
 4743SOL     OW15127   2.237   2.334   0.195
 4743SOL    HW115128   2.271   2.264   0.259
 4743SOL    HW215129   2.187   2.290   0.121
 4744SOL     OW15130   1.930   3.488   5.512
 4744SOL    HW115131   1.887   3.579   5.506
 4744SOL    HW215132   2.029   3.498   5.511
 4745SOL     OW15133   3.489   5.707   4.655
 4745SOL    HW115134   3.433   5.635   4.695
 4745SOL    HW215135   3.519   5.770   4.726
 4746SOL     OW15136   6.618   6.777   1.052
 4746SOL    HW115137   6.573   6.866   1.065
 4746SOL    HW215138   6.664   6.750   1.136
 4747SOL     OW15139   6.689   1.875   0.702
 4747SOL    HW115140   6.691   1.920   0.613
 4747SOL    HW215141   6.602   1.895   0.747
 4748SOL     OW15142   1.224   1.196   1.410
 4748SOL    HW115143   1.155   1.129   1.436
 4748SOL    HW215144   1.314   1.164   1.438
 4749SOL     OW15145   2.099   7.001   0.141
 4749SOL    HW115146   2.053   0.048   0.189
 4749SOL    HW215147   2.147   6.943   0.207
 4750SOL     OW15148   6.942   0.458   4.416
 4750SOL    HW115149   7.000   0.535   4.389
 4750SOL    HW215150   6.994   0.398   4.477
 4751SOL     OW15151   1.376   4.514   5.953
 4751SOL    HW115152   1.379   4.460   6.037
 4751SOL    HW215153   1.291   4.494   5.904
 4752SOL     OW15154   3.039   6.055   1.974
 4752SOL    HW115155   3.018   6.123   2.044
 4752SOL    HW215156   3.131   6.018   1.990
 4753SOL     OW15157   5.801   6.561   5.399
 4753SOL    HW115158   5.826   6.466   5.414
 4753SOL    HW215159   5.880   6.620   5.418
 4754SOL     OW15160   0.393   0.767   5.870
 4754SOL    HW115161   0.467   0.738   5.809
 4754SOL    HW215162   0.306   0.768   5.819
 4755SOL     OW15163   2.265   1.219   6.253
 4755SOL    HW115164   2.225   1.271   6.177
 4755SOL    HW215165   2.300   1.132   6.218
 4756SOL     OW15166   4.685   2.894   1.499
 4756SOL    HW115167   4.748   2.936   1.434
 4756SOL    HW215168   4.636   2.819   1.455
 4757SOL     OW15169   2.198   2.093   1.671
 4757SOL    HW115170   2.263   2.017   1.669
 4757SOL    HW215171   2.104   2.057   1.670
 4758SOL     OW15172   5.224   5.142   5.080
 4758SOL    HW115173   5.176   5.064   5.120
 4758SOL    HW215174   5.321   5.122   5.074
 4759SOL     OW15175   5.570   5.543   6.318
 4759SOL    HW115176   5.641   5.484   6.281
 4759SOL    HW215177   5.505   5.567   6.246
 4760SOL     OW15178   1.855   1.274   1.643
 4760SOL    HW115179   1.921   1.276   1.717
 4760SOL    HW215180   1.900   1.293   1.556
 4761SOL     OW15181   6.758   6.908   6.613
 4761SOL    HW115182   6.848   6.873   6.642
 4761SOL    HW215183   6.693   6.898   6.688
 4762SOL     OW15184   2.415   5.950   1.728
 4762SOL    HW115185   2.350   5.875   1.718
 4762SOL    HW215186   2.388   6.007   1.805
 4763SOL     OW15187   5.913   6.136   3.534
 4763SOL    HW115188   5.842   6.067   3.550
 4763SOL    HW215189   5.872   6.227   3.540
 4764SOL     OW15190   3.741   3.933   4.792
 4764SOL    HW115191   3.713   3.889   4.706
 4764SOL    HW215192   3.841   3.929   4.800
 4765SOL     OW15193   5.153   5.740   4.848
 4765SOL    HW115194   5.214   5.672   4.887
 4765SOL    HW215195   5.105   5.701   4.769
 4766SOL     OW15196   2.494   0.039   3.429
 4766SOL    HW115197   2.521   6.986   3.481
 4766SOL    HW215198   2.568   0.105   3.429
 4767SOL     OW15199   4.239   6.703   6.598
 4767SOL    HW115200   4.148   6.713   6.638
 4767SOL    HW215201   4.287   6.627   6.642
 4768SOL     OW15202   6.507   0.683   4.995
 4768SOL    HW115203   6.599   0.643   4.995
 4768SOL    HW215204   6.512   0.777   5.030
 4769SOL     OW15205   4.254   6.432   1.764
 4769SOL    HW115206   4.179   6.372   1.790
 4769SOL    HW215207   4.224   6.527   1.770
 4770SOL     OW15208   2.828   0.637   3.303
 4770SOL    HW115209   2.862   0.548   3.334
 4770SOL    HW215210   2.734   0.628   3.269
 4771SOL     OW15211   4.080   4.241   5.700
 4771SOL    HW115212   4.145   4.165   5.697
 4771SOL    HW215213   4.019   4.236   5.622
 4772SOL     OW15214   2.928   1.422   1.575
 4772SOL    HW115215   2.911   1.514   1.612
 4772SOL    HW215216   3.025   1.413   1.552
 4773SOL     OW15217   0.088   5.872   3.540
 4773SOL    HW115218   0.169   5.825   3.575
 4773SOL    HW215219   0.061   5.832   3.452
 4774SOL     OW15220   0.566   3.793   1.093
 4774SOL    HW115221   0.603   3.877   1.053
 4774SOL    HW215222   0.579   3.717   1.030
 4775SOL     OW15223   4.327   0.290   2.301
 4775SOL    HW115224   4.340   0.385   2.272
 4775SOL    HW215225   4.379   0.274   2.385
 4776SOL     OW15226   2.731   5.729   2.569
 4776SOL    HW115227   2.659   5.692   2.628
 4776SOL    HW215228   2.762   5.816   2.606
 4777SOL     OW15229   2.971   4.314   1.162
 4777SOL    HW115230   2.893   4.277   1.213
 4777SOL    HW215231   2.949   4.406   1.129
 4778SOL     OW15232   4.873   3.813   2.268
 4778SOL    HW115233   4.850   3.716   2.261
 4778SOL    HW215234   4.949   3.833   2.205
 4779SOL     OW15235   5.910   0.684   2.885
 4779SOL    HW115236   5.954   0.620   2.947
 4779SOL    HW215237   5.960   0.686   2.798
 4780SOL     OW15238   1.478   7.012   6.534
 4780SOL    HW115239   1.405   6.968   6.588
 4780SOL    HW215240   1.501   0.072   6.576
 4781SOL     OW15241   2.701   5.546   1.292
 4781SOL    HW115242   2.621   5.539   1.353
 4781SOL    HW215243   2.709   5.640   1.259
 4782SOL     OW15244   5.482   6.499   6.949
 4782SOL    HW115245   5.557   6.478   7.012
 4782SOL    HW215246   5.466   6.422   6.887
 4783SOL     OW15247   5.526   4.234   0.699
 4783SOL    HW115248   5.502   4.257   0.605
 4783SOL    HW215249   5.494   4.306   0.761
 4784SOL     OW15250   5.158   4.882   4.845
 4784SOL    HW115251   5.218   4.842   4.913
 4784SOL    HW215252   5.150   4.820   4.766
 4785SOL     OW15253   6.640   6.396   1.160
 4785SOL    HW115254   6.680   6.424   1.073
 4785SOL    HW215255   6.605   6.303   1.153
 4786SOL     OW15256   2.040   3.339   1.960
 4786SOL    HW115257   2.029   3.323   1.862
 4786SOL    HW215258   2.112   3.406   1.975
 4787SOL     OW15259   3.326   1.947   3.230
 4787SOL    HW115260   3.387   2.012   3.187
 4787SOL    HW215261   3.319   1.967   3.328
 4788SOL     OW15262   1.076   5.056   4.426
 4788SOL    HW115263   1.172   5.087   4.420
 4788SOL    HW215264   1.060   4.985   4.358
 4789SOL     OW15265   5.712   0.495   6.965
 4789SOL    HW115266   5.767   0.571   6.998
 4789SOL    HW215267   5.630   0.485   7.022
 4790SOL     OW15268   5.819   2.549   6.414
 4790SOL    HW115269   5.828   2.630   6.356
 4790SOL    HW215270   5.783   2.576   6.503
 4791SOL     OW15271   5.414   6.787   1.894
 4791SOL    HW115272   5.322   6.823   1.911
 4791SOL    HW215273   5.431   6.708   1.953
 4792SOL     OW15274   2.106   2.475   2.891
 4792SOL    HW115275   2.172   2.404   2.863
 4792SOL    HW215276   2.146   2.565   2.874
 4793SOL     OW15277   1.638   6.831   6.419
 4793SOL    HW115278   1.591   6.903   6.471
 4793SOL    HW215279   1.711   6.793   6.475
 4794SOL     OW15280   2.851   0.222   2.968
 4794SOL    HW115281   2.765   0.199   2.923
 4794SOL    HW215282   2.916   0.257   2.901
 4795SOL     OW15283   6.739   3.073   4.323
 4795SOL    HW115284   6.762   3.093   4.419
 4795SOL    HW215285   6.706   2.980   4.315
 4796SOL     OW15286   6.098   3.639   1.007
 4796SOL    HW115287   6.126   3.717   0.951
 4796SOL    HW215288   6.025   3.589   0.961
 4797SOL     OW15289   0.558   4.572   5.706
 4797SOL    HW115290   0.474   4.553   5.758
 4797SOL    HW215291   0.587   4.488   5.660
 4798SOL     OW15292   0.243   3.876   4.514
 4798SOL    HW115293   0.233   3.898   4.611
 4798SOL    HW215294   0.190   3.941   4.459
 4799SOL     OW15295   4.257   1.527   5.293
 4799SOL    HW115296   4.200   1.536   5.211
 4799SOL    HW215297   4.314   1.609   5.302
 4800SOL     OW15298   2.293   2.449   5.371
 4800SOL    HW115299   2.264   2.541   5.399
 4800SOL    HW215300   2.213   2.394   5.350
 4801SOL     OW15301   1.563   1.659   0.686
 4801SOL    HW115302   1.466   1.681   0.694
 4801SOL    HW215303   1.618   1.742   0.694
 4802SOL     OW15304   3.177   0.308   1.784
 4802SOL    HW115305   3.175   0.236   1.713
 4802SOL    HW215306   3.157   0.396   1.742
 4803SOL     OW15307   0.746   0.332   0.495
 4803SOL    HW115308   0.761   0.331   0.594
 4803SOL    HW215309   0.826   0.370   0.449
 4804SOL     OW15310   4.100   5.416   6.128
 4804SOL    HW115311   4.168   5.356   6.087
 4804SOL    HW215312   4.124   5.433   6.224
 4805SOL     OW15313   0.032   1.419   0.556
 4805SOL    HW115314   0.096   1.438   0.630
 4805SOL    HW215315   6.990   1.491   0.552
 4806SOL     OW15316   0.485   3.373   2.779
 4806SOL    HW115317   0.469   3.406   2.685
 4806SOL    HW215318   0.450   3.280   2.788
 4807SOL     OW15319   0.266   6.355   1.337
 4807SOL    HW115320   0.243   6.452   1.341
 4807SOL    HW215321   0.266   6.316   1.429
 4808SOL     OW15322   4.958   3.534   1.260
 4808SOL    HW115323   4.864   3.508   1.237
 4808SOL    HW215324   4.972   3.522   1.358
 4809SOL     OW15325   3.529   5.251   6.872
 4809SOL    HW115326   3.449   5.305   6.846
 4809SOL    HW215327   3.504   5.182   6.939
 4810SOL     OW15328   0.804   6.597   1.719
 4810SOL    HW115329   0.752   6.667   1.768
 4810SOL    HW215330   0.756   6.510   1.726
 4811SOL     OW15331   3.614   5.094   2.046
 4811SOL    HW115332   3.619   5.037   1.964
 4811SOL    HW215333   3.538   5.064   2.103
 4812SOL     OW15334   0.043   5.390   4.327
 4812SOL    HW115335   0.059   5.367   4.423
 4812SOL    HW215336   0.129   5.386   4.277
 4813SOL     OW15337   4.996   2.240   2.512
 4813SOL    HW115338   4.949   2.259   2.426
 4813SOL    HW215339   5.005   2.325   2.565
 4814SOL     OW15340   0.306   4.042   0.771
 4814SOL    HW115341   0.210   4.016   0.777
 4814SOL    HW215342   0.354   3.979   0.710
 4815SOL     OW15343   4.891   5.564   1.352
 4815SOL    HW115344   4.896   5.466   1.338
 4815SOL    HW215345   4.801   5.598   1.324
 4816SOL     OW15346   5.212   5.230   2.933
 4816SOL    HW115347   5.223   5.310   2.991
 4816SOL    HW215348   5.205   5.259   2.837
 4817SOL     OW15349   1.540   2.545   6.166
 4817SOL    HW115350   1.519   2.510   6.074
 4817SOL    HW215351   1.456   2.577   6.209
 4818SOL     OW15352   0.336   6.880   3.892
 4818SOL    HW115353   0.319   6.878   3.793
 4818SOL    HW215354   0.434   6.891   3.908
 4819SOL     OW15355   1.428   3.417   0.346
 4819SOL    HW115356   1.445   3.438   0.442
 4819SOL    HW215357   1.484   3.339   0.319
 4820SOL     OW15358   0.308   3.075   1.761
 4820SOL    HW115359   0.246   3.124   1.699
 4820SOL    HW215360   0.403   3.095   1.735
 4821SOL     OW15361   6.773   5.947   2.837
 4821SOL    HW115362   6.697   5.883   2.828
 4821SOL    HW215363   6.858   5.896   2.850
 4822SOL     OW15364   1.201   3.655   4.361
 4822SOL    HW115365   1.205   3.708   4.276
 4822SOL    HW215366   1.135   3.580   4.350
 4823SOL     OW15367   1.826   2.664   2.115
 4823SOL    HW115368   1.805   2.718   2.033
 4823SOL    HW215369   1.920   2.630   2.109
 4824SOL     OW15370   6.318   1.309   5.217
 4824SOL    HW115371   6.352   1.267   5.301
 4824SOL    HW215372   6.334   1.248   5.139
 4825SOL     OW15373   1.780   6.992   4.010
 4825SOL    HW115374   1.819   0.057   4.010
 4825SOL    HW215375   1.795   6.951   4.100
 4826SOL     OW15376   4.481   0.341   1.714
 4826SOL    HW115377   4.473   0.285   1.632
 4826SOL    HW215378   4.557   0.405   1.704
 4827SOL     OW15379   6.971   2.015   1.190
 4827SOL    HW115380   6.897   1.954   1.215
 4827SOL    HW215381   0.007   1.968   1.129
 4828SOL     OW15382   4.529   0.600   2.353
 4828SOL    HW115383   4.469   0.611   2.432
 4828SOL    HW215384   4.619   0.639   2.373
 4829SOL     OW15385   3.881   0.282   5.103
 4829SOL    HW115386   3.911   0.187   5.113
 4829SOL    HW215387   3.876   0.325   5.193
 4830SOL     OW15388   3.021   5.767   3.393
 4830SOL    HW115389   3.013   5.686   3.335
 4830SOL    HW215390   2.929   5.798   3.418
 4831SOL     OW15391   3.317   4.833   6.122
 4831SOL    HW115392   3.237   4.879   6.084
 4831SOL    HW215393   3.295   4.796   6.213
 4832SOL     OW15394   3.208   3.243   4.195
 4832SOL    HW115395   3.234   3.306   4.121
 4832SOL    HW215396   3.108   3.241   4.204
 4833SOL     OW15397   0.082   2.700   4.060
 4833SOL    HW115398   0.088   2.792   4.021
 4833SOL    HW215399   0.023   2.643   4.002
 4834SOL     OW15400   1.784   5.070   1.769
 4834SOL    HW115401   1.684   5.062   1.774
 4834SOL    HW215402   1.810   5.111   1.681
 4835SOL     OW15403   6.849   2.627   5.267
 4835SOL    HW115404   6.907   2.646   5.188
 4835SOL    HW215405   6.874   2.688   5.342
 4836SOL     OW15406   4.854   1.393   5.254
 4836SOL    HW115407   4.805   1.329   5.313
 4836SOL    HW215408   4.788   1.449   5.203
 4837SOL     OW15409   6.760   4.092   4.505
 4837SOL    HW115410   6.755   3.998   4.541
 4837SOL    HW215411   6.782   4.154   4.580
 4838SOL     OW15412   1.290   4.642   6.705
 4838SOL    HW115413   1.338   4.591   6.634
 4838SOL    HW215414   1.264   4.732   6.670
 4839SOL     OW15415   2.444   1.414   6.833
 4839SOL    HW115416   2.386   1.483   6.789
 4839SOL    HW215417   2.449   1.434   6.931
 4840SOL     OW15418   5.615   3.572   4.781
 4840SOL    HW115419   5.586   3.604   4.872
 4840SOL    HW215420   5.673   3.491   4.791
 4841SOL     OW15421   3.127   5.590   2.932
 4841SOL    HW115422   3.160   5.584   2.838
 4841SOL    HW215423   3.136   5.685   2.964
 4842SOL     OW15424   2.740   5.492   3.124
 4842SOL    HW115425   2.777   5.400   3.129
 4842SOL    HW215426   2.644   5.491   3.153
 4843SOL     OW15427   0.741   2.420   2.234
 4843SOL    HW115428   0.808   2.494   2.241
 4843SOL    HW215429   0.660   2.453   2.185
 4844SOL     OW15430   1.101   5.680   4.715
 4844SOL    HW115431   1.115   5.677   4.814
 4844SOL    HW215432   1.012   5.641   4.692
 4845SOL     OW15433   4.867   3.898   4.937
 4845SOL    HW115434   4.835   3.813   4.978
 4845SOL    HW215435   4.869   3.888   4.837
 4846SOL     OW15436   6.873   3.683   4.974
 4846SOL    HW115437   6.844   3.638   5.058
 4846SOL    HW215438   6.932   3.760   4.996
 4847SOL     OW15439   2.285   6.597   6.382
 4847SOL    HW115440   2.362   6.611   6.444
 4847SOL    HW215441   2.318   6.592   6.288
 4848SOL     OW15442   3.152   0.702   4.180
 4848SOL    HW115443   3.187   0.647   4.104
 4848SOL    HW215444   3.055   0.682   4.193
 4849SOL     OW15445   1.771   6.991   1.146
 4849SOL    HW115446   1.759   6.944   1.059
 4849SOL    HW215447   1.861   6.972   1.183
 4850SOL     OW15448   4.615   0.419   0.480
 4850SOL    HW115449   4.534   0.437   0.535
 4850SOL    HW215450   4.588   0.403   0.385
 4851SOL     OW15451   3.673   5.304   6.394
 4851SOL    HW115452   3.699   5.360   6.316
 4851SOL    HW215453   3.662   5.209   6.364
 4852SOL     OW15454   4.868   5.328   4.680
 4852SOL    HW115455   4.947   5.352   4.623
 4852SOL    HW215456   4.890   5.248   4.735
 4853SOL     OW15457   3.965   0.022   2.339
 4853SOL    HW115458   3.986   0.118   2.357
 4853SOL    HW215459   3.886   0.017   2.278
 4854SOL     OW15460   5.793   6.101   1.668
 4854SOL    HW115461   5.748   6.163   1.604
 4854SOL    HW215462   5.855   6.040   1.618
 4855SOL     OW15463   6.294   4.957   4.969
 4855SOL    HW115464   6.286   4.953   4.869
 4855SOL    HW215465   6.390   4.974   4.994
 4856SOL     OW15466   0.182   4.011   3.112
 4856SOL    HW115467   0.109   4.062   3.067
 4856SOL    HW215468   0.195   3.923   3.066
 4857SOL     OW15469   2.934   1.932   4.914
 4857SOL    HW115470   2.920   1.921   5.013
 4857SOL    HW215471   2.928   2.029   4.890
 4858SOL     OW15472   0.435   5.842   4.119
 4858SOL    HW115473   0.432   5.748   4.153
 4858SOL    HW215474   0.365   5.896   4.165
 4859SOL     OW15475   0.891   5.940   2.439
 4859SOL    HW115476   0.840   5.874   2.494
 4859SOL    HW215477   0.829   5.987   2.377
 4860SOL     OW15478   4.280   5.549   0.890
 4860SOL    HW115479   4.361   5.539   0.833
 4860SOL    HW215480   4.307   5.571   0.983
 4861SOL     OW15481   0.288   4.715   6.711
 4861SOL    HW115482   0.385   4.691   6.708
 4861SOL    HW215483   0.273   4.802   6.665
 4862SOL     OW15484   2.588   5.153   5.394
 4862SOL    HW115485   2.565   5.228   5.456
 4862SOL    HW215486   2.507   5.128   5.340
 4863SOL     OW15487   4.490   1.835   2.828
 4863SOL    HW115488   4.401   1.803   2.861
 4863SOL    HW215489   4.502   1.931   2.853
 4864SOL     OW15490   2.689   1.349   1.725
 4864SOL    HW115491   2.758   1.386   1.662
 4864SOL    HW215492   2.730   1.336   1.815
 4865SOL     OW15493   3.803   5.869   5.428
 4865SOL    HW115494   3.815   5.801   5.500
 4865SOL    HW215495   3.882   5.931   5.426
 4866SOL     OW15496   6.582   4.705   1.225
 4866SOL    HW115497   6.551   4.627   1.280
 4866SOL    HW215498   6.555   4.790   1.272
 4867SOL     OW15499   5.098   5.897   3.063
 4867SOL    HW115500   5.186   5.917   3.107
 4867SOL    HW215501   5.114   5.847   2.978
 4868SOL     OW15502   0.564   6.011   1.140
 4868SOL    HW115503   0.536   5.997   1.045
 4868SOL    HW215504   0.536   5.932   1.195
 4869SOL     OW15505   6.195   0.576   0.631
 4869SOL    HW115506   6.222   0.599   0.724
 4869SOL    HW215507   6.195   0.476   0.620
 4870SOL     OW15508   6.219   6.034   2.350
 4870SOL    HW115509   6.249   5.939   2.340
 4870SOL    HW215510   6.299   6.092   2.366
 4871SOL     OW15511   1.168   3.291   4.173
 4871SOL    HW115512   1.263   3.264   4.187
 4871SOL    HW215513   1.162   3.351   4.093
 4872SOL     OW15514   0.865   0.835   2.874
 4872SOL    HW115515   0.884   0.814   2.970
 4872SOL    HW215516   0.899   0.927   2.852
 4873SOL     OW15517   0.487   5.570   5.381
 4873SOL    HW115518   0.441   5.558   5.469
 4873SOL    HW215519   0.428   5.624   5.320
 4874SOL     OW15520   5.493   3.639   3.166
 4874SOL    HW115521   5.451   3.730   3.166
 4874SOL    HW215522   5.428   3.571   3.199
 4875SOL     OW15523   5.919   2.444   0.117
 4875SOL    HW115524   5.904   2.416   0.022
 4875SOL    HW215525   5.852   2.514   0.142
 4876SOL     OW15526   0.412   1.467   6.716
 4876SOL    HW115527   0.419   1.448   6.814
 4876SOL    HW215528   0.490   1.426   6.669
 4877SOL     OW15529   6.692   1.131   1.342
 4877SOL    HW115530   6.720   1.041   1.375
 4877SOL    HW215531   6.772   1.179   1.305
 4878SOL     OW15532   0.217   1.925   1.723
 4878SOL    HW115533   0.212   1.834   1.765
 4878SOL    HW215534   0.189   1.920   1.628
 4879SOL     OW15535   4.447   5.085   3.558
 4879SOL    HW115536   4.382   5.096   3.483
 4879SOL    HW215537   4.530   5.137   3.537
 4880SOL     OW15538   5.627   1.897   5.620
 4880SOL    HW115539   5.619   1.805   5.581
 4880SOL    HW215540   5.541   1.921   5.665
 4881SOL     OW15541   3.448   6.218   6.400
 4881SOL    HW115542   3.509   6.285   6.442
 4881SOL    HW215543   3.417   6.253   6.312
 4882SOL     OW15544   5.401   0.458   5.708
 4882SOL    HW115545   5.380   0.553   5.729
 4882SOL    HW215546   5.360   0.433   5.620
 4883SOL     OW15547   6.952   5.637   1.584
 4883SOL    HW115548   6.896   5.651   1.502
 4883SOL    HW215549   7.005   5.719   1.603
 4884SOL     OW15550   3.249   6.436   1.557
 4884SOL    HW115551   3.258   6.482   1.645
 4884SOL    HW215552   3.216   6.342   1.571
 4885SOL     OW15553   1.637   6.953   1.767
 4885SOL    HW115554   1.666   0.018   1.744
 4885SOL    HW215555   1.537   6.949   1.773
 4886SOL     OW15556   6.536   0.542   6.553
 4886SOL    HW115557   6.553   0.630   6.510
 4886SOL    HW215558   6.464   0.494   6.503
 4887SOL     OW15559   0.233   1.900   4.239
 4887SOL    HW115560   0.250   1.897   4.338
 4887SOL    HW215561   0.318   1.924   4.192
 4888SOL     OW15562   2.846   5.281   2.730
 4888SOL    HW115563   2.819   5.343   2.803
 4888SOL    HW215564   2.870   5.334   2.648
 4889SOL     OW15565   1.269   1.877   0.268
 4889SOL    HW115566   1.356   1.916   0.299
 4889SOL    HW215567   1.269   1.871   0.168
 4890SOL     OW15568   1.194   0.657   4.538
 4890SOL    HW115569   1.224   0.606   4.457
 4890SOL    HW215570   1.159   0.746   4.509
 4891SOL     OW15571   0.888   4.781   0.005
 4891SOL    HW115572   0.885   4.844   6.955
 4891SOL    HW215573   0.808   4.721   0.002
 4892SOL     OW15574   0.717   5.554   1.208
 4892SOL    HW115575   0.779   5.475   1.209
 4892SOL    HW215576   0.628   5.527   1.246
 4893SOL     OW15577   0.246   3.629   6.615
 4893SOL    HW115578   0.252   3.696   6.542
 4893SOL    HW215579   0.164   3.645   6.669
 4894SOL     OW15580   2.627   0.978   2.910
 4894SOL    HW115581   2.585   0.993   3.000
 4894SOL    HW215582   2.680   0.893   2.912
 4895SOL     OW15583   0.882   3.445   0.215
 4895SOL    HW115584   0.914   3.445   0.309
 4895SOL    HW215585   0.946   3.497   0.158
 4896SOL     OW15586   3.933   5.440   4.289
 4896SOL    HW115587   3.987   5.494   4.224
 4896SOL    HW215588   3.915   5.350   4.251
 4897SOL     OW15589   3.395   5.522   6.238
 4897SOL    HW115590   3.334   5.559   6.169
 4897SOL    HW215591   3.364   5.551   6.329
 4898SOL     OW15592   5.764   1.981   5.194
 4898SOL    HW115593   5.752   2.057   5.258
 4898SOL    HW215594   5.822   1.912   5.236
 4899SOL     OW15595   5.601   3.954   4.172
 4899SOL    HW115596   5.526   4.018   4.188
 4899SOL    HW215597   5.666   3.995   4.108
 4900SOL     OW15598   1.168   6.721   5.344
 4900SOL    HW115599   1.107   6.663   5.398
 4900SOL    HW215600   1.165   6.815   5.379
 4901SOL     OW15601   1.088   6.986   3.760
 4901SOL    HW115602   1.158   6.945   3.702
 4901SOL    HW215603   1.080   6.934   3.845
 4902SOL     OW15604   2.646   4.819   1.939
 4902SOL    HW115605   2.704   4.738   1.938
 4902SOL    HW215606   2.589   4.821   1.857
 4903SOL     OW15607   4.929   0.099   6.558
 4903SOL    HW115608   4.875   0.168   6.509
 4903SOL    HW215609   4.867   0.043   6.614
 4904SOL     OW15610   2.978   5.901   3.715
 4904SOL    HW115611   2.912   5.903   3.640
 4904SOL    HW215612   3.061   5.855   3.686
 4905SOL     OW15613   5.619   3.368   2.129
 4905SOL    HW115614   5.604   3.466   2.116
 4905SOL    HW215615   5.666   3.331   2.049
 4906SOL     OW15616   5.365   0.564   0.617
 4906SOL    HW115617   5.349   0.467   0.631
 4906SOL    HW215618   5.277   0.613   0.620
 4907SOL     OW15619   3.070   0.806   2.439
 4907SOL    HW115620   3.094   0.727   2.496
 4907SOL    HW215621   3.134   0.814   2.363
 4908SOL     OW15622   2.679   5.803   6.709
 4908SOL    HW115623   2.643   5.850   6.629
 4908SOL    HW215624   2.727   5.720   6.681
 4909SOL     OW15625   6.999   6.821   5.214
 4909SOL    HW115626   6.944   6.838   5.296
 4909SOL    HW215627   0.018   6.733   5.224
 4910SOL     OW15628   5.668   0.100   5.137
 4910SOL    HW115629   5.724   0.155   5.199
 4910SOL    HW215630   5.574   0.099   5.170
 4911SOL     OW15631   6.815   2.476   6.050
 4911SOL    HW115632   6.854   2.480   6.142
 4911SOL    HW215633   6.885   2.444   5.986
 4912SOL     OW15634   2.602   2.091   1.892
 4912SOL    HW115635   2.618   2.175   1.944
 4912SOL    HW215636   2.569   2.020   1.954
 4913SOL     OW15637   2.913   3.634   3.303
 4913SOL    HW115638   2.833   3.590   3.263
 4913SOL    HW215639   2.926   3.602   3.397
 4914SOL     OW15640   2.032   6.520   3.672
 4914SOL    HW115641   1.972   6.444   3.648
 4914SOL    HW215642   2.117   6.514   3.620
 4915SOL     OW15643   3.216   5.652   3.610
 4915SOL    HW115644   3.208   5.685   3.516
 4915SOL    HW215645   3.225   5.730   3.672
 4916SOL     OW15646   2.667   0.993   2.478
 4916SOL    HW115647   2.698   1.039   2.395
 4916SOL    HW215648   2.671   1.056   2.555
 4917SOL     OW15649   1.853   5.214   0.695
 4917SOL    HW115650   1.908   5.131   0.703
 4917SOL    HW215651   1.856   5.264   0.781
 4918SOL     OW15652   2.643   0.445   1.755
 4918SOL    HW115653   2.710   0.417   1.824
 4918SOL    HW215654   2.623   0.542   1.766
 4919SOL     OW15655   2.526   2.488   2.309
 4919SOL    HW115656   2.485   2.566   2.357
 4919SOL    HW215657   2.535   2.510   2.212
 4920SOL     OW15658   4.730   0.689   0.444
 4920SOL    HW115659   4.712   0.603   0.396
 4920SOL    HW215660   4.646   0.743   0.448
 4921SOL     OW15661   1.392   5.095   1.549
 4921SOL    HW115662   1.450   5.014   1.549
 4921SOL    HW215663   1.440   5.171   1.592
 4922SOL     OW15664   1.623   2.655   5.563
 4922SOL    HW115665   1.568   2.728   5.521
 4922SOL    HW215666   1.698   2.631   5.503
 4923SOL     OW15667   4.625   1.274   0.793
 4923SOL    HW115668   4.681   1.350   0.760
 4923SOL    HW215669   4.560   1.307   0.861
 4924SOL     OW15670   0.417   3.805   4.788
 4924SOL    HW115671   0.368   3.735   4.841
 4924SOL    HW215672   0.472   3.761   4.717
 4925SOL     OW15673   4.575   6.139   0.033
 4925SOL    HW115674   4.601   6.183   0.119
 4925SOL    HW215675   4.633   6.174   6.987
 4926SOL     OW15676   4.833   2.421   1.952
 4926SOL    HW115677   4.759   2.355   1.952
 4926SOL    HW215678   4.921   2.373   1.955
 4927SOL     OW15679   3.585   3.166   3.240
 4927SOL    HW115680   3.497   3.163   3.193
 4927SOL    HW215681   3.651   3.219   3.186
 4928SOL     OW15682   0.335   6.106   7.004
 4928SOL    HW115683   0.346   6.205   7.016
 4928SOL    HW215684   0.305   6.087   6.910
 4929SOL     OW15685   0.794   4.985   4.180
 4929SOL    HW115686   0.856   4.961   4.105
 4929SOL    HW215687   0.739   5.065   4.154
 4930SOL     OW15688   0.347   1.988   0.897
 4930SOL    HW115689   0.376   2.011   0.804
 4930SOL    HW215690   0.426   1.956   0.949
 4931SOL     OW15691   0.020   0.824   0.668
 4931SOL    HW115692   6.994   0.833   0.584
 4931SOL    HW215693   7.024   0.898   0.731
 4932SOL     OW15694   2.565   2.341   1.723
 4932SOL    HW115695   2.601   2.249   1.704
 4932SOL    HW215696   2.640   2.407   1.719
 4933SOL     OW15697   3.217   0.733   4.476
 4933SOL    HW115698   3.189   0.729   4.381
 4933SOL    HW215699   3.136   0.739   4.535
 4934SOL     OW15700   1.032   6.174   4.860
 4934SOL    HW115701   0.947   6.176   4.913
 4934SOL    HW215702   1.052   6.080   4.834
 4935SOL     OW15703   1.526   1.064   0.643
 4935SOL    HW115704   1.573   1.023   0.721
 4935SOL    HW215705   1.446   1.114   0.675
 4936SOL     OW15706   3.741   5.517   0.597
 4936SOL    HW115707   3.754   5.549   0.504
 4936SOL    HW215708   3.716   5.594   0.656
 4937SOL     OW15709   0.300   3.138   6.485
 4937SOL    HW115710   0.296   3.235   6.461
 4937SOL    HW215711   0.209   3.107   6.514
 4938SOL     OW15712   3.438   4.775   1.454
 4938SOL    HW115713   3.431   4.742   1.548
 4938SOL    HW215714   3.349   4.769   1.409
 4939SOL     OW15715   1.918   1.700   2.205
 4939SOL    HW115716   1.927   1.668   2.110
 4939SOL    HW215717   1.877   1.792   2.205
 4940SOL     OW15718   0.350   2.244   4.992
 4940SOL    HW115719   0.287   2.321   5.003
 4940SOL    HW215720   0.389   2.247   4.900
 4941SOL     OW15721   3.989   2.011   5.219
 4941SOL    HW115722   3.982   1.948   5.297
 4941SOL    HW215723   4.065   1.983   5.160
 4942SOL     OW15724   6.516   2.124   4.071
 4942SOL    HW115725   6.434   2.066   4.075
 4942SOL    HW215726   6.539   2.141   3.975
 4943SOL     OW15727   5.327   3.155   6.235
 4943SOL    HW115728   5.408   3.159   6.294
 4943SOL    HW215729   5.335   3.077   6.173
 4944SOL     OW15730   1.291   5.258   1.000
 4944SOL    HW115731   1.276   5.352   1.032
 4944SOL    HW215732   1.311   5.199   1.079
 4945SOL     OW15733   1.865   1.247   4.831
 4945SOL    HW115734   1.859   1.167   4.891
 4945SOL    HW215735   1.830   1.327   4.879
 4946SOL     OW15736   2.496   5.055   7.025
 4946SOL    HW115737   2.454   5.111   6.953
 4946SOL    HW215738   2.450   5.073   0.084
 4947SOL     OW15739   1.443   1.202   1.968
 4947SOL    HW115740   1.360   1.152   1.991
 4947SOL    HW215741   1.427   1.300   1.983
 4948SOL     OW15742   1.266   2.518   1.788
 4948SOL    HW115743   1.188   2.485   1.841
 4948SOL    HW215744   1.333   2.444   1.779
 4949SOL     OW15745   6.696   3.756   0.169
 4949SOL    HW115746   6.766   3.815   0.209
 4949SOL    HW215747   6.661   3.693   0.239
 4950SOL     OW15748   2.315   3.798   5.277
 4950SOL    HW115749   2.335   3.723   5.214
 4950SOL    HW215750   2.356   3.882   5.242
 4951SOL     OW15751   4.970   5.369   3.879
 4951SOL    HW115752   4.916   5.394   3.960
 4951SOL    HW215753   5.067   5.380   3.899
 4952SOL     OW15754   0.285   6.541   5.996
 4952SOL    HW115755   0.283   6.625   6.050
 4952SOL    HW215756   0.289   6.462   6.058
 4953SOL     OW15757   0.716   2.303   4.787
 4953SOL    HW115758   0.758   2.271   4.872
 4953SOL    HW215759   0.769   2.380   4.751
 4954SOL     OW15760   3.110   4.093   5.240
 4954SOL    HW115761   3.116   4.186   5.275
 4954SOL    HW215762   3.115   4.095   5.140
 4955SOL     OW15763   3.482   5.390   6.568
 4955SOL    HW115764   3.547   5.388   6.492
 4955SOL    HW215765   3.500   5.312   6.629
 4956SOL     OW15766   2.709   6.907   4.834
 4956SOL    HW115767   2.781   6.925   4.901
 4956SOL    HW215768   2.625   6.953   4.862
 4957SOL     OW15769   5.776   4.474   0.229
 4957SOL    HW115770   5.834   4.541   0.275
 4957SOL    HW215771   5.690   4.518   0.201
 4958SOL     OW15772   3.030   6.319   0.102
 4958SOL    HW115773   3.016   6.323   0.003
 4958SOL    HW215774   3.128   6.320   0.122
 4959SOL     OW15775   1.079   3.482   2.494
 4959SOL    HW115776   1.061   3.503   2.398
 4959SOL    HW215777   1.072   3.566   2.548
 4960SOL     OW15778   4.411   5.692   4.591
 4960SOL    HW115779   4.334   5.721   4.535
 4960SOL    HW215780   4.466   5.771   4.616
 4961SOL     OW15781   4.236   1.257   0.034
 4961SOL    HW115782   4.259   1.160   0.043
 4961SOL    HW215783   4.280   1.308   0.107
 4962SOL     OW15784   1.325   4.556   0.919
 4962SOL    HW115785   1.420   4.546   0.889
 4962SOL    HW215786   1.281   4.630   0.868
 4963SOL     OW15787   0.982   3.908   6.067
 4963SOL    HW115788   1.063   3.934   6.014
 4963SOL    HW215789   0.964   3.978   6.136
 4964SOL     OW15790   3.102   0.010   4.545
 4964SOL    HW115791   3.124   0.101   4.582
 4964SOL    HW215792   3.080   6.976   4.621
 4965SOL     OW15793   1.774   6.285   3.038
 4965SOL    HW115794   1.808   6.362   3.093
 4965SOL    HW215795   1.683   6.306   3.003
 4966SOL     OW15796   3.661   6.524   4.326
 4966SOL    HW115797   3.745   6.515   4.274
 4966SOL    HW215798   3.648   6.443   4.383
 4967SOL     OW15799   4.350   4.791   5.030
 4967SOL    HW115800   4.323   4.873   4.980
 4967SOL    HW215801   4.312   4.710   4.984
 4968SOL     OW15802   6.751   2.053   3.273
 4968SOL    HW115803   6.717   2.131   3.220
 4968SOL    HW215804   6.836   2.020   3.232
 4969SOL     OW15805   0.816   6.177   3.170
 4969SOL    HW115806   0.757   6.220   3.103
 4969SOL    HW215807   0.911   6.184   3.141
 4970SOL     OW15808   1.048   1.656   1.694
 4970SOL    HW115809   1.023   1.595   1.770
 4970SOL    HW215810   1.102   1.733   1.730
 4971SOL     OW15811   6.866   6.281   3.045
 4971SOL    HW115812   6.882   6.190   3.084
 4971SOL    HW215813   6.924   6.348   3.092
 4972SOL     OW15814   1.654   4.487   1.351
 4972SOL    HW115815   1.635   4.410   1.412
 4972SOL    HW215816   1.693   4.454   1.266
 4973SOL     OW15817   6.773   0.860   1.107
 4973SOL    HW115818   6.765   0.844   1.205
 4973SOL    HW215819   6.870   0.864   1.082
 4974SOL     OW15820   3.508   5.361   4.992
 4974SOL    HW115821   3.531   5.349   5.089
 4974SOL    HW215822   3.577   5.420   4.949
 4975SOL     OW15823   5.762   3.967   0.571
 4975SOL    HW115824   5.833   4.037   0.586
 4975SOL    HW215825   5.693   3.974   0.643
 4976SOL     OW15826   1.773   0.043   4.311
 4976SOL    HW115827   1.706   0.077   4.376
 4976SOL    HW215828   1.842   7.017   4.359
 4977SOL     OW15829   2.308   4.792   6.452
 4977SOL    HW115830   2.362   4.870   6.420
 4977SOL    HW215831   2.299   4.726   6.378
 4978SOL     OW15832   4.909   4.594   4.903
 4978SOL    HW115833   4.891   4.548   4.816
 4978SOL    HW215834   4.981   4.545   4.952
 4979SOL     OW15835   2.288   6.933   6.502
 4979SOL    HW115836   2.343   6.952   6.420
 4979SOL    HW215837   2.313   6.843   6.538
 4980SOL     OW15838   5.896   3.445   2.978
 4980SOL    HW115839   5.921   3.349   2.967
 4980SOL    HW215840   5.873   3.463   3.074
 4981SOL     OW15841   3.643   4.969   1.791
 4981SOL    HW115842   3.715   4.924   1.738
 4981SOL    HW215843   3.591   4.900   1.842
 4982SOL     OW15844   4.211   1.588   6.528
 4982SOL    HW115845   4.155   1.654   6.479
 4982SOL    HW215846   4.158   1.504   6.543
 4983SOL     OW15847   0.103   5.470   3.057
 4983SOL    HW115848   0.072   5.383   3.097
 4983SOL    HW215849   0.197   5.460   3.026
 4984SOL     OW15850   5.213   4.588   2.904
 4984SOL    HW115851   5.252   4.621   2.990
 4984SOL    HW215852   5.136   4.646   2.877
 4985SOL     OW15853   5.922   6.313   2.579
 4985SOL    HW115854   5.984   6.274   2.648
 4985SOL    HW215855   5.973   6.380   2.524
 4986SOL     OW15856   0.933   4.819   2.598
 4986SOL    HW115857   0.970   4.758   2.529
 4986SOL    HW215858   0.833   4.808   2.604
 4987SOL     OW15859   0.691   0.955   2.430
 4987SOL    HW115860   0.770   1.007   2.397
 4987SOL    HW215861   0.668   0.885   2.362
 4988SOL     OW15862   5.967   0.032   3.646
 4988SOL    HW115863   6.014   0.100   3.702
 4988SOL    HW215864   6.035   7.006   3.595
 4989SOL     OW15865   4.298   0.545   2.806
 4989SOL    HW115866   4.348   0.459   2.808
 4989SOL    HW215867   4.204   0.528   2.778
 4990SOL     OW15868   4.831   1.840   5.590
 4990SOL    HW115869   4.804   1.845   5.686
 4990SOL    HW215870   4.768   1.781   5.540
 4991SOL     OW15871   1.037   5.550   4.976
 4991SOL    HW115872   1.027   5.571   5.073
 4991SOL    HW215873   0.979   5.472   4.952
 4992SOL     OW15874   7.014   1.470   3.370
 4992SOL    HW115875   6.924   1.498   3.405
 4992SOL    HW215876   7.014   1.371   3.354
 4993SOL     OW15877   3.895   6.519   4.487
 4993SOL    HW115878   3.898   6.617   4.508
 4993SOL    HW215879   3.861   6.469   4.566
 4994SOL     OW15880   3.007   5.145   5.809
 4994SOL    HW115881   3.078   5.185   5.751
 4994SOL    HW215882   2.918   5.187   5.786
 4995SOL     OW15883   0.589   0.314   5.413
 4995SOL    HW115884   0.589   0.215   5.422
 4995SOL    HW215885   0.672   0.352   5.454
 4996SOL     OW15886   6.968   0.882   4.601
 4996SOL    HW115887   6.979   0.978   4.574
 4996SOL    HW215888   6.903   0.877   4.677
 4997SOL     OW15889   3.714   2.072   0.916
 4997SOL    HW115890   3.725   2.030   0.825
 4997SOL    HW215891   3.660   2.010   0.974
 4998SOL     OW15892   0.793   3.226   4.066
 4998SOL    HW115893   0.724   3.244   3.995
 4998SOL    HW215894   0.814   3.129   4.067
 4999SOL     OW15895   0.505   3.818   4.505
 4999SOL    HW115896   0.551   3.896   4.548
 4999SOL    HW215897   0.406   3.829   4.512
 5000SOL     OW15898   2.869   5.134   3.391
 5000SOL    HW115899   2.821   5.202   3.446
 5000SOL    HW215900   2.961   5.167   3.371
 5001SOL     OW15901   0.834   5.225   2.892
 5001SOL    HW115902   0.818   5.127   2.895
 5001SOL    HW215903   0.838   5.261   2.985
 5002SOL     OW15904   0.806   3.490   3.567
 5002SOL    HW115905   0.786   3.397   3.538
 5002SOL    HW215906   0.767   3.506   3.658
 5003SOL     OW15907   4.515   6.362   4.169
 5003SOL    HW115908   4.448   6.430   4.200
 5003SOL    HW215909   4.468   6.293   4.114
 5004SOL     OW15910   2.438   5.717   6.461
 5004SOL    HW115911   2.473   5.806   6.491
 5004SOL    HW215912   2.422   5.659   6.541
 5005SOL     OW15913   2.803   2.570   6.601
 5005SOL    HW115914   2.843   2.627   6.672
 5005SOL    HW215915   2.829   2.605   6.511
 5006SOL     OW15916   5.569   1.845   2.015
 5006SOL    HW115917   5.521   1.801   1.939
 5006SOL    HW215918   5.626   1.919   1.979
 5007SOL     OW15919   5.814   7.016   1.973
 5007SOL    HW115920   5.858   6.933   2.007
 5007SOL    HW215921   5.869   0.068   1.996
 5008SOL     OW15922   5.875   6.604   2.005
 5008SOL    HW115923   5.886   6.505   1.995
 5008SOL    HW215924   5.948   6.651   1.956
 5009SOL     OW15925   0.644   2.595   0.679
 5009SOL    HW115926   0.630   2.570   0.583
 5009SOL    HW215927   0.620   2.517   0.737
 5010SOL     OW15928   3.417   3.658   0.647
 5010SOL    HW115929   3.444   3.562   0.648
 5010SOL    HW215930   3.487   3.712   0.601
 5011SOL     OW15931   2.051   3.990   6.733
 5011SOL    HW115932   1.955   3.963   6.743
 5011SOL    HW215933   2.059   4.054   6.657
 5012SOL     OW15934   6.140   1.732   5.159
 5012SOL    HW115935   6.170   1.653   5.213
 5012SOL    HW215936   6.215   1.763   5.101
 5013SOL     OW15937   5.952   0.398   5.713
 5013SOL    HW115938   5.993   0.312   5.682
 5013SOL    HW215939   5.855   0.384   5.729
 5014SOL     OW15940   6.751   3.280   1.795
 5014SOL    HW115941   6.799   3.271   1.882
 5014SOL    HW215942   6.671   3.220   1.795
 5015SOL     OW15943   5.681   6.624   4.088
 5015SOL    HW115944   5.647   6.561   4.158
 5015SOL    HW215945   5.761   6.584   4.043
 5016SOL     OW15946   1.673   3.409   4.839
 5016SOL    HW115947   1.588   3.456   4.812
 5016SOL    HW215948   1.695   3.340   4.770
 5017SOL     OW15949   0.732   2.358   1.643
 5017SOL    HW115950   0.714   2.416   1.563
 5017SOL    HW215951   0.827   2.371   1.672
 5018SOL     OW15952   0.727   6.324   1.722
 5018SOL    HW115953   0.762   6.323   1.815
 5018SOL    HW215954   0.798   6.295   1.659
 5019SOL     OW15955   1.254   5.240   5.009
 5019SOL    HW115956   1.334   5.299   5.000
 5019SOL    HW215957   1.173   5.287   4.973
 5020SOL     OW15958   1.244   0.014   4.725
 5020SOL    HW115959   1.298   6.994   4.656
 5020SOL    HW215960   1.178   6.979   4.765
 5021SOL     OW15961   1.758   0.881   1.136
 5021SOL    HW115962   1.754   0.896   1.037
 5021SOL    HW215963   1.747   0.969   1.183
 5022SOL     OW15964   0.603   3.283   1.588
 5022SOL    HW115965   0.611   3.238   1.677
 5022SOL    HW215966   0.530   3.240   1.535
 5023SOL     OW15967   0.394   4.346   2.385
 5023SOL    HW115968   0.387   4.282   2.309
 5023SOL    HW215969   0.464   4.314   2.450
 5024SOL     OW15970   5.095   3.770   1.511
 5024SOL    HW115971   5.089   3.775   1.611
 5024SOL    HW215972   5.077   3.676   1.481
 5025SOL     OW15973   4.359   1.131   3.303
 5025SOL    HW115974   4.261   1.116   3.285
 5025SOL    HW215975   4.386   1.079   3.384
 5026SOL     OW15976   5.786   6.361   5.181
 5026SOL    HW115977   5.750   6.443   5.224
 5026SOL    HW215978   5.718   6.288   5.186
 5027SOL     OW15979   5.190   0.943   6.562
 5027SOL    HW115980   5.145   0.853   6.565
 5027SOL    HW215981   5.146   0.999   6.492
 5028SOL     OW15982   0.651   2.347   2.883
 5028SOL    HW115983   0.683   2.433   2.844
 5028SOL    HW215984   0.684   2.338   2.977
 5029SOL     OW15985   6.472   2.168   2.095
 5029SOL    HW115986   6.521   2.255   2.089
 5029SOL    HW215987   6.479   2.120   2.008
 5030SOL     OW15988   6.776   5.289   6.909
 5030SOL    HW115989   6.731   5.251   6.989
 5030SOL    HW215990   6.786   5.218   6.839
 5031SOL     OW15991   6.863   0.630   5.753
 5031SOL    HW115992   6.847   0.538   5.719
 5031SOL    HW215993   6.820   0.641   5.842
 5032SOL     OW15994   3.380   3.071   5.453
 5032SOL    HW115995   3.308   3.083   5.520
 5032SOL    HW215996   3.399   3.158   5.407
 5033SOL     OW15997   2.298   1.403   0.331
 5033SOL    HW115998   2.335   1.342   0.261
 5033SOL    HW215999   2.333   1.376   0.421
 5034SOL     OW16000   4.683   5.887   4.165
 5034SOL    HW116001   4.741   5.913   4.088
 5034SOL    HW216002   4.611   5.955   4.177
 5035SOL     OW16003   0.489   4.808   4.299
 5035SOL    HW116004   0.563   4.868   4.329
 5035SOL    HW216005   0.519   4.712   4.307
 5036SOL     OW16006   6.571   3.365   5.095
 5036SOL    HW116007   6.585   3.431   5.168
 5036SOL    HW216008   6.490   3.390   5.042
 5037SOL     OW16009   4.332   4.188   1.194
 5037SOL    HW116010   4.355   4.136   1.276
 5037SOL    HW216011   4.406   4.180   1.127
 5038SOL     OW16012   3.285   3.529   4.050
 5038SOL    HW116013   3.210   3.557   3.990
 5038SOL    HW216014   3.333   3.452   4.010
 5039SOL     OW16015   1.419   2.841   6.931
 5039SOL    HW116016   1.499   2.863   6.988
 5039SOL    HW216017   1.336   2.855   6.984
 5040SOL     OW16018   1.383   5.796   5.927
 5040SOL    HW116019   1.479   5.789   5.899
 5040SOL    HW216020   1.353   5.710   5.969
 5041SOL     OW16021   0.152   3.058   2.260
 5041SOL    HW116022   0.247   3.062   2.290
 5041SOL    HW216023   0.149   3.023   2.166
 5042SOL     OW16024   7.025   3.197   6.177
 5042SOL    HW116025   0.006   3.098   6.188
 5042SOL    HW216026   7.013   3.219   6.080
 5043SOL     OW16027   4.111   0.360   1.008
 5043SOL    HW116028   4.115   0.344   0.910
 5043SOL    HW216029   4.197   0.401   1.039
 5044SOL     OW16030   6.667   5.483   0.468
 5044SOL    HW116031   6.570   5.474   0.491
 5044SOL    HW216032   6.686   5.578   0.441
 5045SOL     OW16033   6.159   3.777   6.308
 5045SOL    HW116034   6.155   3.677   6.319
 5045SOL    HW216035   6.084   3.807   6.249
 5046SOL     OW16036   3.389   3.280   3.955
 5046SOL    HW116037   3.389   3.243   3.862
 5046SOL    HW216038   3.461   3.236   4.008
 5047SOL     OW16039   1.812   3.446   3.369
 5047SOL    HW116040   1.843   3.503   3.446
 5047SOL    HW216041   1.816   3.499   3.285
 5048SOL     OW16042   1.314   1.210   5.775
 5048SOL    HW116043   1.337   1.183   5.681
 5048SOL    HW216044   1.271   1.133   5.822
 5049SOL     OW16045   5.799   0.650   6.236
 5049SOL    HW116046   5.879   0.708   6.222
 5049SOL    HW216047   5.825   0.554   6.225
 5050SOL     OW16048   1.847   0.884   0.514
 5050SOL    HW116049   1.838   0.911   0.418
 5050SOL    HW216050   1.862   0.965   0.570
 5051SOL     OW16051   3.713   4.807   1.408
 5051SOL    HW116052   3.615   4.816   1.429
 5051SOL    HW216053   3.730   4.716   1.370
 5052SOL     OW16054   3.450   1.719   5.223
 5052SOL    HW116055   3.437   1.794   5.289
 5052SOL    HW216056   3.548   1.699   5.215
 5053SOL     OW16057   0.517   5.644   2.320
 5053SOL    HW116058   0.470   5.624   2.235
 5053SOL    HW216059   0.605   5.596   2.321
 5054SOL     OW16060   3.844   4.906   4.813
 5054SOL    HW116061   3.813   4.949   4.898
 5054SOL    HW216062   3.944   4.912   4.807
 5055SOL     OW16063   6.564   2.986   6.559
 5055SOL    HW116064   6.537   2.902   6.511
 5055SOL    HW216065   6.619   2.963   6.639
 5056SOL     OW16066   5.026   3.657   5.200
 5056SOL    HW116067   4.980   3.634   5.115
 5056SOL    HW216068   4.960   3.655   5.275
 5057SOL     OW16069   1.137   6.488   2.706
 5057SOL    HW116070   1.065   6.507   2.773
 5057SOL    HW216071   1.140   6.390   2.687
 5058SOL     OW16072   3.033   4.791   6.689
 5058SOL    HW116073   2.959   4.734   6.725
 5058SOL    HW216074   3.085   4.830   6.765
 5059SOL     OW16075   0.216   0.538   3.063
 5059SOL    HW116076   0.262   0.467   3.117
 5059SOL    HW216077   0.264   0.551   2.977
 5060SOL     OW16078   6.155   1.892   6.185
 5060SOL    HW116079   6.119   1.970   6.237
 5060SOL    HW216080   6.082   1.824   6.172
 5061SOL     OW16081   4.708   3.272   0.273
 5061SOL    HW116082   4.670   3.221   0.350
 5061SOL    HW216083   4.766   3.346   0.307
 5062SOL     OW16084   0.042   0.166   1.296
 5062SOL    HW116085   0.026   0.265   1.304
 5062SOL    HW216086   0.084   0.133   1.380
 5063SOL     OW16087   0.978   6.888   2.120
 5063SOL    HW116088   0.935   6.958   2.062
 5063SOL    HW216089   1.070   6.916   2.145
 5064SOL     OW16090   4.655   3.176   0.546
 5064SOL    HW116091   4.596   3.206   0.621
 5064SOL    HW216092   4.749   3.166   0.580
 5065SOL     OW16093   2.782   6.649   5.403
 5065SOL    HW116094   2.746   6.716   5.337
 5065SOL    HW216095   2.841   6.696   5.468
 5066SOL     OW16096   5.993   4.611   1.330
 5066SOL    HW116097   6.065   4.624   1.263
 5066SOL    HW216098   6.027   4.554   1.405
 5067SOL     OW16099   4.974   0.815   0.504
 5067SOL    HW116100   4.893   0.758   0.489
 5067SOL    HW216101   4.981   0.838   0.601
 5068SOL     OW16102   2.798   4.746   6.994
 5068SOL    HW116103   2.824   4.794   6.910
 5068SOL    HW216104   2.715   4.692   6.978
 5069SOL     OW16105   1.027   4.292   2.671
 5069SOL    HW116106   1.002   4.225   2.742
 5069SOL    HW216107   0.946   4.340   2.640
 5070SOL     OW16108   4.907   3.317   4.092
 5070SOL    HW116109   4.928   3.226   4.057
 5070SOL    HW216110   4.879   3.310   4.188
 5071SOL     OW16111   4.653   2.158   5.784
 5071SOL    HW116112   4.741   2.115   5.806
 5071SOL    HW216113   4.636   2.150   5.686
 5072SOL     OW16114   0.368   4.274   1.227
 5072SOL    HW116115   0.423   4.201   1.186
 5072SOL    HW216116   0.387   4.360   1.181
 5073SOL     OW16117   5.423   0.234   2.465
 5073SOL    HW116118   5.384   0.143   2.476
 5073SOL    HW216119   5.358   0.303   2.496
 5074SOL     OW16120   2.636   4.177   6.742
 5074SOL    HW116121   2.554   4.145   6.695
 5074SOL    HW216122   2.646   4.128   6.828
 5075SOL     OW16123   0.207   5.468   4.828
 5075SOL    HW116124   0.241   5.388   4.877
 5075SOL    HW216125   0.231   5.551   4.879
 5076SOL     OW16126   3.433   0.869   1.053
 5076SOL    HW116127   3.514   0.905   1.099
 5076SOL    HW216128   3.374   0.822   1.119
 5077SOL     OW16129   1.105   2.735   3.707
 5077SOL    HW116130   1.056   2.804   3.761
 5077SOL    HW216131   1.172   2.688   3.765
 5078SOL     OW16132   1.861   2.002   4.718
 5078SOL    HW116133   1.894   1.917   4.758
 5078SOL    HW216134   1.785   2.038   4.773
 5079SOL     OW16135   3.548   4.849   5.582
 5079SOL    HW116136   3.618   4.883   5.645
 5079SOL    HW216137   3.460   4.845   5.629
 5080SOL     OW16138   5.389   6.673   5.767
 5080SOL    HW116139   5.373   6.694   5.864
 5080SOL    HW216140   5.384   6.574   5.754
 5081SOL     OW16141   3.492   3.571   3.426
 5081SOL    HW116142   3.426   3.567   3.350
 5081SOL    HW216143   3.507   3.666   3.452
 5082SOL     OW16144   5.372   5.942   6.020
 5082SOL    HW116145   5.317   5.940   6.104
 5082SOL    HW216146   5.376   6.036   5.986
 5083SOL     OW16147   1.736   6.859   2.020
 5083SOL    HW116148   1.692   6.778   1.982
 5083SOL    HW216149   1.716   6.939   1.963
 5084SOL     OW16150   1.238   5.747   4.236
 5084SOL    HW116151   1.299   5.768   4.312
 5084SOL    HW216152   1.169   5.681   4.266
 5085SOL     OW16153   5.785   1.759   6.396
 5085SOL    HW116154   5.880   1.744   6.423
 5085SOL    HW216155   5.724   1.730   6.470
 5086SOL     OW16156   6.354   5.020   3.751
 5086SOL    HW116157   6.353   5.041   3.653
 5086SOL    HW216158   6.349   5.105   3.803
 5087SOL     OW16159   6.717   5.562   5.479
 5087SOL    HW116160   6.694   5.653   5.446
 5087SOL    HW216161   6.764   5.511   5.407
 5088SOL     OW16162   5.945   0.699   5.936
 5088SOL    HW116163   5.866   0.647   5.969
 5088SOL    HW216164   5.960   0.778   5.996
 5089SOL     OW16165   5.729   3.532   2.774
 5089SOL    HW116166   5.757   3.472   2.698
 5089SOL    HW216167   5.780   3.507   2.856
 5090SOL     OW16168   1.797   5.150   1.521
 5090SOL    HW116169   1.766   5.245   1.528
 5090SOL    HW216170   1.732   5.098   1.465
 5091SOL     OW16171   1.066   6.214   2.789
 5091SOL    HW116172   1.049   6.188   2.694
 5091SOL    HW216173   1.043   6.137   2.849
 5092SOL     OW16174   3.729   2.278   1.096
 5092SOL    HW116175   3.805   2.248   1.154
 5092SOL    HW216176   3.708   2.207   1.029
 5093SOL     OW16177   1.798   1.949   2.179
 5093SOL    HW116178   1.782   1.984   2.086
 5093SOL    HW216179   1.759   2.013   2.245
 5094SOL     OW16180   0.636   6.416   4.798
 5094SOL    HW116181   0.595   6.410   4.707
 5094SOL    HW216182   0.595   6.493   4.848
 5095SOL     OW16183   2.987   0.633   5.081
 5095SOL    HW116184   2.978   0.726   5.116
 5095SOL    HW216185   2.964   0.568   5.153
 5096SOL     OW16186   5.115   3.722   0.800
 5096SOL    HW116187   5.017   3.727   0.820
 5096SOL    HW216188   5.161   3.672   0.873
 5097SOL     OW16189   1.464   6.488   6.009
 5097SOL    HW116190   1.561   6.480   5.987
 5097SOL    HW216191   1.425   6.566   5.960
 5098SOL     OW16192   0.058   1.691   2.837
 5098SOL    HW116193   0.111   1.671   2.919
 5098SOL    HW216194   6.989   1.668   2.853
 5099SOL     OW16195   1.298   0.375   5.243
 5099SOL    HW116196   1.205   0.344   5.221
 5099SOL    HW216197   1.293   0.445   5.314
 5100SOL     OW16198   5.774   6.035   0.105
 5100SOL    HW116199   5.802   5.999   0.194
 5100SOL    HW216200   5.675   6.045   0.103
 5101SOL     OW16201   4.311   6.574   0.025
 5101SOL    HW116202   4.402   6.595   7.016
 5101SOL    HW216203   4.279   6.487   7.015
 5102SOL     OW16204   3.974   6.783   4.871
 5102SOL    HW116205   3.898   6.732   4.830
 5102SOL    HW216206   3.975   6.875   4.834
 5103SOL     OW16207   6.984   0.380   3.973
 5103SOL    HW116208   6.934   0.393   4.058
 5103SOL    HW216209   6.921   0.387   3.896
 5104SOL     OW16210   1.220   0.873   1.564
 5104SOL    HW116211   1.131   0.917   1.555
 5104SOL    HW216212   1.215   0.798   1.630
 5105SOL     OW16213   3.241   3.691   6.419
 5105SOL    HW116214   3.192   3.710   6.504
 5105SOL    HW216215   3.244   3.774   6.363
 5106SOL     OW16216   3.536   0.728   2.304
 5106SOL    HW116217   3.581   0.697   2.387
 5106SOL    HW216218   3.604   0.743   2.232
 5107SOL     OW16219   2.358   0.048   6.045
 5107SOL    HW116220   2.449   0.024   6.010
 5107SOL    HW216221   2.361   0.140   6.086
 5108SOL     OW16222   3.107   3.959   4.359
 5108SOL    HW116223   3.093   3.885   4.425
 5108SOL    HW216224   3.205   3.979   4.351
 5109SOL     OW16225   0.172   1.092   1.434
 5109SOL    HW116226   0.175   1.071   1.531
 5109SOL    HW216227   0.083   1.063   1.397
 5110SOL     OW16228   1.733   5.496   5.712
 5110SOL    HW116229   1.637   5.480   5.691
 5110SOL    HW216230   1.744   5.508   5.811
 5111SOL     OW16231   2.040   1.571   0.363
 5111SOL    HW116232   2.126   1.520   0.368
 5111SOL    HW216233   2.024   1.600   0.269
 5112SOL     OW16234   0.433   5.945   3.857
 5112SOL    HW116235   0.524   5.975   3.827
 5112SOL    HW216236   0.442   5.897   3.945
 5113SOL     OW16237   1.674   0.932   6.609
 5113SOL    HW116238   1.751   0.910   6.548
 5113SOL    HW216239   1.658   1.031   6.608
 5114SOL     OW16240   3.378   5.073   6.524
 5114SOL    HW116241   3.433   5.122   6.457
 5114SOL    HW216242   3.369   4.977   6.496
 5115SOL     OW16243   1.328   3.196   5.237
 5115SOL    HW116244   1.253   3.258   5.217
 5115SOL    HW216245   1.410   3.226   5.188
 5116SOL     OW16246   6.452   4.484   0.523
 5116SOL    HW116247   6.540   4.530   0.505
 5116SOL    HW216248   6.449   4.455   0.618
 5117SOL     OW16249   2.493   4.485   4.794
 5117SOL    HW116250   2.492   4.538   4.879
 5117SOL    HW216251   2.414   4.424   4.793
 5118SOL     OW16252   4.161   6.269   0.567
 5118SOL    HW116253   4.072   6.224   0.553
 5118SOL    HW216254   4.167   6.299   0.662
 5119SOL     OW16255   5.768   0.246   2.176
 5119SOL    HW116256   5.674   0.276   2.192
 5119SOL    HW216257   5.804   0.202   2.258
 5120SOL     OW16258   4.970   2.027   2.672
 5120SOL    HW116259   4.997   2.110   2.623
 5120SOL    HW216260   5.046   1.997   2.730
 5121SOL     OW16261   0.017   3.357   5.142
 5121SOL    HW116262   7.007   3.266   5.159
 5121SOL    HW216263   6.980   3.426   5.173
 5122SOL     OW16264   2.164   6.934   3.661
 5122SOL    HW116265   2.198   6.917   3.569
 5122SOL    HW216266   2.219   6.882   3.726
 5123SOL     OW16267   5.227   4.852   2.260
 5123SOL    HW116268   5.274   4.865   2.172
 5123SOL    HW216269   5.287   4.803   2.323
 5124SOL     OW16270   3.099   6.517   6.645
 5124SOL    HW116271   3.009   6.479   6.625
 5124SOL    HW216272   3.169   6.449   6.623
 5125SOL     OW16273   0.302   2.711   4.535
 5125SOL    HW116274   0.268   2.637   4.594
 5125SOL    HW216275   0.293   2.684   4.439
 5126SOL     OW16276   6.120   4.144   6.378
 5126SOL    HW116277   6.022   4.123   6.378
 5126SOL    HW216278   6.172   4.061   6.401
 5127SOL     OW16279   5.717   3.127   6.808
 5127SOL    HW116280   5.702   3.216   6.764
 5127SOL    HW216281   5.804   3.128   6.857
 5128SOL     OW16282   6.952   0.544   6.990
 5128SOL    HW116283   0.019   0.518   7.003
 5128SOL    HW216284   6.947   0.620   6.925
 5129SOL     OW16285   4.549   1.948   2.263
 5129SOL    HW116286   4.590   2.024   2.313
 5129SOL    HW216287   4.517   1.878   2.327
 5130SOL     OW16288   0.704   5.915   4.101
 5130SOL    HW116289   0.704   5.998   4.156
 5130SOL    HW216290   0.615   5.870   4.108
 5131SOL     OW16291   3.047   4.889   3.386
 5131SOL    HW116292   3.042   4.832   3.305
 5131SOL    HW216293   2.960   4.937   3.398
 5132SOL     OW16294   3.874   1.585   6.828
 5132SOL    HW116295   3.953   1.551   6.879
 5132SOL    HW216296   3.792   1.575   6.884
 5133SOL     OW16297   4.066   4.433   6.708
 5133SOL    HW116298   4.105   4.496   6.776
 5133SOL    HW216299   4.077   4.472   6.617
 5134SOL     OW16300   6.829   5.837   1.399
 5134SOL    HW116301   6.879   5.898   1.338
 5134SOL    HW216302   6.779   5.770   1.345
 5135SOL     OW16303   6.514   3.223   2.085
 5135SOL    HW116304   6.560   3.163   2.150
 5135SOL    HW216305   6.558   3.313   2.087
 5136SOL     OW16306   0.942   0.543   5.747
 5136SOL    HW116307   0.959   0.458   5.797
 5136SOL    HW216308   0.897   0.609   5.808
 5137SOL     OW16309   5.494   0.858   4.592
 5137SOL    HW116310   5.523   0.763   4.585
 5137SOL    HW216311   5.440   0.882   4.511
 5138SOL     OW16312   3.498   3.010   3.723
 5138SOL    HW116313   3.449   3.011   3.809
 5138SOL    HW216314   3.493   3.101   3.681
 5139SOL     OW16315   2.474   0.195   4.834
 5139SOL    HW116316   2.556   0.216   4.780
 5139SOL    HW216317   2.403   0.262   4.815
 5140SOL     OW16318   4.493   2.290   6.523
 5140SOL    HW116319   4.584   2.261   6.549
 5140SOL    HW216320   4.467   2.244   6.437
 5141SOL     OW16321   6.307   2.852   1.791
 5141SOL    HW116322   6.239   2.911   1.834
 5141SOL    HW216323   6.382   2.836   1.854
 5142SOL     OW16324   6.968   0.444   2.699
 5142SOL    HW116325   6.911   0.426   2.779
 5142SOL    HW216326   6.982   0.359   2.649
 5143SOL     OW16327   0.551   5.830   3.243
 5143SOL    HW116328   0.549   5.919   3.196
 5143SOL    HW216329   0.611   5.835   3.322
 5144SOL     OW16330   2.678   2.826   5.592
 5144SOL    HW116331   2.612   2.874   5.534
 5144SOL    HW216332   2.633   2.797   5.677
 5145SOL     OW16333   2.689   6.322   7.013
 5145SOL    HW116334   2.764   6.275   6.968
 5145SOL    HW216335   2.607   6.317   6.956
 5146SOL     OW16336   4.971   4.784   6.316
 5146SOL    HW116337   5.069   4.798   6.311
 5146SOL    HW216338   4.951   4.686   6.320
 5147SOL     OW16339   4.651   2.631   3.540
 5147SOL    HW116340   4.655   2.718   3.589
 5147SOL    HW216341   4.651   2.555   3.606
 5148SOL     OW16342   0.629   0.199   0.241
 5148SOL    HW116343   0.551   0.249   0.204
 5148SOL    HW216344   0.665   0.247   0.320
 5149SOL     OW16345   5.067   4.658   3.211
 5149SOL    HW116346   5.034   4.721   3.140
 5149SOL    HW216347   4.990   4.607   3.248
 5150SOL     OW16348   0.266   6.057   3.650
 5150SOL    HW116349   0.181   6.006   3.640
 5150SOL    HW216350   0.301   6.045   3.743
 5151SOL     OW16351   6.157   5.299   1.557
 5151SOL    HW116352   6.173   5.225   1.622
 5151SOL    HW216353   6.109   5.263   1.476
 5152SOL     OW16354   0.895   1.315   6.713
 5152SOL    HW116355   0.912   1.222   6.747
 5152SOL    HW216356   0.936   1.381   6.775
 5153SOL     OW16357   1.380   1.942   0.973
 5153SOL    HW116358   1.291   1.985   0.986
 5153SOL    HW216359   1.389   1.910   0.879
 5154SOL     OW16360   6.723   2.833   0.017
 5154SOL    HW116361   6.808   2.849   6.995
 5154SOL    HW216362   6.743   2.812   0.112
 5155SOL     OW16363   1.849   1.311   0.873
 5155SOL    HW116364   1.790   1.292   0.952
 5155SOL    HW216365   1.839   1.407   0.846
 5156SOL     OW16366   5.253   5.851   5.787
 5156SOL    HW116367   5.311   5.773   5.760
 5156SOL    HW216368   5.277   5.879   5.880
 5157SOL     OW16369   3.993   0.187   1.398
 5157SOL    HW116370   4.066   0.252   1.377
 5157SOL    HW216371   3.927   0.187   1.324
 5158SOL     OW16372   2.380   1.926   2.311
 5158SOL    HW116373   2.425   2.012   2.284
 5158SOL    HW216374   2.442   1.873   2.368
 5159SOL     OW16375   6.410   3.017   5.173
 5159SOL    HW116376   6.351   2.944   5.139
 5159SOL    HW216377   6.394   3.100   5.120
 5160SOL     OW16378   6.394   6.231   3.508
 5160SOL    HW116379   6.331   6.239   3.431
 5160SOL    HW216380   6.485   6.207   3.475
 5161SOL     OW16381   1.040   3.805   0.434
 5161SOL    HW116382   0.985   3.849   0.362
 5161SOL    HW216383   1.055   3.869   0.508
 5162SOL     OW16384   0.207   6.772   3.431
 5162SOL    HW116385   0.210   6.691   3.372
 5162SOL    HW216386   0.170   6.746   3.520
 5163SOL     OW16387   3.143   6.754   2.006
 5163SOL    HW116388   3.100   6.822   1.947
 5163SOL    HW216389   3.224   6.793   2.049
 5164SOL     OW16390   3.225   3.867   0.632
 5164SOL    HW116391   3.279   3.783   0.639
 5164SOL    HW216392   3.130   3.844   0.609
 5165SOL     OW16393   1.582   4.378   6.841
 5165SOL    HW116394   1.508   4.430   6.799
 5165SOL    HW216395   1.574   4.384   6.941
 5166SOL     OW16396   1.718   6.116   1.934
 5166SOL    HW116397   1.809   6.129   1.972
 5166SOL    HW216398   1.670   6.204   1.930
 5167SOL     OW16399   5.328   2.499   4.894
 5167SOL    HW116400   5.330   2.528   4.798
 5167SOL    HW216401   5.309   2.401   4.900
 5168SOL     OW16402   4.446   2.434   2.152
 5168SOL    HW116403   4.413   2.462   2.242
 5168SOL    HW216404   4.435   2.335   2.141
 5169SOL     OW16405   4.300   6.254   3.983
 5169SOL    HW116406   4.211   6.283   4.018
 5169SOL    HW216407   4.318   6.300   3.896
 5170SOL     OW16408   1.524   3.440   6.466
 5170SOL    HW116409   1.601   3.451   6.529
 5170SOL    HW216410   1.510   3.343   6.446
 5171SOL     OW16411   1.667   5.823   5.497
 5171SOL    HW116412   1.571   5.820   5.468
 5171SOL    HW216413   1.717   5.749   5.453
 5172SOL     OW16414   6.434   5.184   4.382
 5172SOL    HW116415   6.420   5.258   4.448
 5172SOL    HW216416   6.532   5.175   4.363
 5173SOL     OW16417   4.473   4.202   5.699
 5173SOL    HW116418   4.412   4.124   5.710
 5173SOL    HW216419   4.426   4.274   5.648
 5174SOL     OW16420   2.599   6.306   3.434
 5174SOL    HW116421   2.698   6.320   3.423
 5174SOL    HW216422   2.577   6.299   3.531
 5175SOL     OW16423   3.073   4.056   6.997
 5175SOL    HW116424   3.002   4.065   6.928
 5175SOL    HW216425   3.045   3.989   0.038
 5176SOL     OW16426   5.765   5.733   0.326
 5176SOL    HW116427   5.698   5.755   0.397
 5176SOL    HW216428   5.825   5.812   0.311
 5177SOL     OW16429   5.653   0.082   0.419
 5177SOL    HW116430   5.753   0.088   0.429
 5177SOL    HW216431   5.627   0.114   0.328
 5178SOL     OW16432   0.687   4.342   1.795
 5178SOL    HW116433   0.765   4.361   1.855
 5178SOL    HW216434   0.718   4.343   1.700
 5179SOL     OW16435   5.652   5.118   2.742
 5179SOL    HW116436   5.587   5.104   2.817
 5179SOL    HW216437   5.743   5.134   2.779
 5180SOL     OW16438   2.484   6.990   2.232
 5180SOL    HW116439   2.514   0.057   2.234
 5180SOL    HW216440   2.471   6.958   2.326
 5181SOL     OW16441   0.347   0.394   6.253
 5181SOL    HW116442   0.314   0.324   6.189
 5181SOL    HW216443   0.377   0.474   6.202
 5182SOL     OW16444   3.412   5.240   3.156
 5182SOL    HW116445   3.378   5.251   3.063
 5182SOL    HW216446   3.372   5.158   3.196
 5183SOL     OW16447   3.837   1.463   3.843
 5183SOL    HW116448   3.900   1.540   3.831
 5183SOL    HW216449   3.768   1.485   3.912
 5184SOL     OW16450   2.942   1.121   3.982
 5184SOL    HW116451   2.936   1.060   4.060
 5184SOL    HW216452   2.996   1.201   4.006
 5185SOL     OW16453   6.120   0.657   1.655
 5185SOL    HW116454   6.129   0.569   1.702
 5185SOL    HW216455   6.204   0.676   1.604
 5186SOL     OW16456   6.848   3.183   6.635
 5186SOL    HW116457   6.831   3.173   6.537
 5186SOL    HW216458   6.787   3.121   6.686
 5187SOL     OW16459   1.865   4.790   5.585
 5187SOL    HW116460   1.881   4.705   5.634
 5187SOL    HW216461   1.767   4.802   5.569
 5188SOL     OW16462   6.219   6.601   2.145
 5188SOL    HW116463   6.262   6.691   2.148
 5188SOL    HW216464   6.260   6.547   2.072
 5189SOL     OW16465   5.416   6.873   6.386
 5189SOL    HW116466   5.432   6.962   6.430
 5189SOL    HW216467   5.497   6.847   6.333
 5190SOL     OW16468   1.260   4.292   0.539
 5190SOL    HW116469   1.281   4.388   0.561
 5190SOL    HW216470   1.326   4.259   0.472
 5191SOL     OW16471   3.307   4.882   2.640
 5191SOL    HW116472   3.314   4.979   2.663
 5191SOL    HW216473   3.388   4.854   2.589
 5192SOL     OW16474   2.247   4.620   2.258
 5192SOL    HW116475   2.236   4.562   2.177
 5192SOL    HW216476   2.309   4.576   2.323
 5193SOL     OW16477   5.615   0.140   6.161
 5193SOL    HW116478   5.517   0.158   6.155
 5193SOL    HW216479   5.652   0.182   6.244
 5194SOL     OW16480   5.291   2.319   6.510
 5194SOL    HW116481   5.373   2.368   6.537
 5194SOL    HW216482   5.314   2.249   6.443
 5195SOL     OW16483   0.085   0.288   4.586
 5195SOL    HW116484   0.073   0.216   4.654
 5195SOL    HW216485   0.165   0.267   4.529
 5196SOL     OW16486   5.640   6.286   2.583
 5196SOL    HW116487   5.740   6.283   2.577
 5196SOL    HW216488   5.602   6.310   2.494
 5197SOL     OW16489   1.467   3.952   5.454
 5197SOL    HW116490   1.507   3.982   5.368
 5197SOL    HW216491   1.368   3.968   5.452
 5198SOL     OW16492   5.862   5.669   2.562
 5198SOL    HW116493   5.947   5.651   2.612
 5198SOL    HW216494   5.884   5.714   2.475
 5199SOL     OW16495   6.838   4.722   0.963
 5199SOL    HW116496   6.770   4.692   1.030
 5199SOL    HW216497   6.927   4.681   0.985
 5200SOL     OW16498   0.208   3.875   4.978
 5200SOL    HW116499   0.276   3.854   5.049
 5200SOL    HW216500   0.256   3.902   4.894
 5201SOL     OW16501   1.597   5.057   4.025
 5201SOL    HW116502   1.613   5.033   3.929
 5201SOL    HW216503   1.666   5.122   4.055
 5202SOL     OW16504   0.187   4.831   0.973
 5202SOL    HW116505   0.129   4.912   0.982
 5202SOL    HW216506   0.139   4.752   1.010
 5203SOL     OW16507   1.351   2.253   0.044
 5203SOL    HW116508   1.269   2.206   0.076
 5203SOL    HW216509   1.334   2.351   0.038
 5204SOL     OW16510   4.675   5.118   0.103
 5204SOL    HW116511   4.765   5.079   0.082
 5204SOL    HW216512   4.608   5.085   0.036
 5205SOL     OW16513   1.373   0.419   1.917
 5205SOL    HW116514   1.434   0.362   1.862
 5205SOL    HW216515   1.389   0.516   1.895
 5206SOL     OW16516   0.176   4.273   6.517
 5206SOL    HW116517   0.274   4.289   6.506
 5206SOL    HW216518   0.126   4.327   6.449
 5207SOL     OW16519   1.891   4.762   4.279
 5207SOL    HW116520   1.795   4.769   4.251
 5207SOL    HW216521   1.898   4.702   4.359
 5208SOL     OW16522   3.617   1.482   6.720
 5208SOL    HW116523   3.535   1.443   6.677
 5208SOL    HW216524   3.697   1.455   6.667
 5209SOL     OW16525   5.540   6.330   3.185
 5209SOL    HW116526   5.552   6.254   3.249
 5209SOL    HW216527   5.574   6.303   3.094
 5210SOL     OW16528   5.084   4.998   4.034
 5210SOL    HW116529   5.090   5.028   3.939
 5210SOL    HW216530   4.999   4.948   4.048
 5211SOL     OW16531   4.092   3.302   3.251
 5211SOL    HW116532   4.000   3.282   3.217
 5211SOL    HW216533   4.108   3.252   3.336
 5212SOL     OW16534   1.196   2.144   0.950
 5212SOL    HW116535   1.263   2.197   1.001
 5212SOL    HW216536   1.104   2.170   0.978
 5213SOL     OW16537   4.338   2.419   5.779
 5213SOL    HW116538   4.374   2.365   5.703
 5213SOL    HW216539   4.396   2.407   5.859
 5214SOL     OW16540   5.442   1.273   5.333
 5214SOL    HW116541   5.386   1.290   5.253
 5214SOL    HW216542   5.533   1.243   5.305
 5215SOL     OW16543   5.079   4.803   2.817
 5215SOL    HW116544   5.027   4.852   2.887
 5215SOL    HW216545   5.017   4.774   2.744
 5216SOL     OW16546   4.883   4.879   0.695
 5216SOL    HW116547   4.799   4.871   0.750
 5216SOL    HW216548   4.862   4.923   0.608
 5217SOL     OW16549   2.432   5.079   4.197
 5217SOL    HW116550   2.388   5.012   4.136
 5217SOL    HW216551   2.417   5.053   4.292
 5218SOL     OW16552   1.540   6.654   3.473
 5218SOL    HW116553   1.495   6.723   3.529
 5218SOL    HW216554   1.635   6.680   3.457
 5219SOL     OW16555   3.475   6.988   6.157
 5219SOL    HW116556   3.479   6.889   6.162
 5219SOL    HW216557   3.418   7.023   6.232
 5220SOL     OW16558   0.957   6.449   2.959
 5220SOL    HW116559   0.861   6.476   2.966
 5220SOL    HW216560   0.963   6.360   2.914
 5221SOL     OW16561   5.201   1.167   4.818
 5221SOL    HW116562   5.278   1.105   4.836
 5221SOL    HW216563   5.236   1.253   4.782
 5222SOL     OW16564   1.739   0.659   3.580
 5222SOL    HW116565   1.774   0.569   3.606
 5222SOL    HW216566   1.647   0.671   3.617
 5223SOL     OW16567   4.542   0.319   1.434
 5223SOL    HW116568   4.615   0.375   1.394
 5223SOL    HW216569   4.453   0.360   1.414
 5224SOL     OW16570   6.065   1.774   2.111
 5224SOL    HW116571   5.987   1.720   2.077
 5224SOL    HW216572   6.053   1.792   2.208
 5225SOL     OW16573   5.845   5.967   4.432
 5225SOL    HW116574   5.906   6.044   4.451
 5225SOL    HW216575   5.764   5.973   4.489
 5226SOL     OW16576   1.140   6.464   4.185
 5226SOL    HW116577   1.084   6.453   4.267
 5226SOL    HW216578   1.163   6.373   4.149
 5227SOL     OW16579   5.929   4.510   2.842
 5227SOL    HW116580   5.840   4.465   2.828
 5227SOL    HW216581   5.916   4.591   2.899
 5228SOL     OW16582   5.357   1.577   0.748
 5228SOL    HW116583   5.404   1.603   0.664
 5228SOL    HW216584   5.299   1.653   0.778
 5229SOL     OW16585   1.198   3.985   5.474
 5229SOL    HW116586   1.176   3.947   5.563
 5229SOL    HW216587   1.124   3.964   5.410
 5230SOL     OW16588   0.170   0.435   0.125
 5230SOL    HW116589   0.147   0.468   0.217
 5230SOL    HW216590   0.148   0.338   0.118
 5231SOL     OW16591   4.119   3.314   3.809
 5231SOL    HW116592   4.043   3.249   3.796
 5231SOL    HW216593   4.181   3.308   3.731
 5232SOL     OW16594   4.317   2.569   6.769
 5232SOL    HW116595   4.242   2.578   6.703
 5232SOL    HW216596   4.338   2.472   6.782
 5233SOL     OW16597   0.886   6.649   2.398
 5233SOL    HW116598   0.820   6.707   2.446
 5233SOL    HW216599   0.978   6.688   2.406
 5234SOL     OW16600   3.587   6.703   0.772
 5234SOL    HW116601   3.566   6.756   0.690
 5234SOL    HW216602   3.673   6.734   0.812
 5235SOL     OW16603   0.970   3.116   0.864
 5235SOL    HW116604   1.015   3.054   0.928
 5235SOL    HW216605   0.938   3.065   0.784
 5236SOL     OW16606   5.182   3.496   1.019
 5236SOL    HW116607   5.109   3.485   1.087
 5236SOL    HW216608   5.269   3.509   1.066
 5237SOL     OW16609   2.597   2.260   5.436
 5237SOL    HW116610   2.527   2.193   5.459
 5237SOL    HW216611   2.581   2.345   5.487
 5238SOL     OW16612   1.994   4.821   0.964
 5238SOL    HW116613   2.016   4.869   1.049
 5238SOL    HW216614   2.066   4.754   0.944
 5239SOL     OW16615   3.246   3.005   3.578
 5239SOL    HW116616   3.292   2.932   3.528
 5239SOL    HW216617   3.298   3.025   3.661
 5240SOL     OW16618   3.535   2.076   5.059
 5240SOL    HW116619   3.463   2.088   5.128
 5240SOL    HW216620   3.508   2.124   4.975
 5241SOL     OW16621   1.839   6.110   6.668
 5241SOL    HW116622   1.872   6.046   6.737
 5241SOL    HW216623   1.739   6.116   6.672
 5242SOL     OW16624   6.148   1.187   5.642
 5242SOL    HW116625   6.102   1.103   5.669
 5242SOL    HW216626   6.234   1.164   5.595
 5243SOL     OW16627   1.549   5.306   0.861
 5243SOL    HW116628   1.477   5.288   0.928
 5243SOL    HW216629   1.575   5.221   0.815
 5244SOL     OW16630   5.254   4.635   5.260
 5244SOL    HW116631   5.207   4.711   5.303
 5244SOL    HW216632   5.340   4.618   5.308
 5245SOL     OW16633   4.930   3.995   6.891
 5245SOL    HW116634   4.844   3.992   6.840
 5245SOL    HW216635   5.000   3.944   6.841
 5246SOL     OW16636   1.205   3.672   2.643
 5246SOL    HW116637   1.247   3.645   2.556
 5246SOL    HW216638   1.276   3.677   2.713
 5247SOL     OW16639   0.290   5.249   1.002
 5247SOL    HW116640   0.225   5.187   1.046
 5247SOL    HW216641   0.339   5.199   0.930
 5248SOL     OW16642   4.836   0.529   5.779
 5248SOL    HW116643   4.882   0.544   5.867
 5248SOL    HW216644   4.902   0.538   5.705
 5249SOL     OW16645   0.816   5.058   4.839
 5249SOL    HW116646   0.880   4.982   4.828
 5249SOL    HW216647   0.761   5.069   4.756
 5250SOL     OW16648   0.657   1.579   6.430
 5250SOL    HW116649   0.663   1.512   6.504
 5250SOL    HW216650   0.708   1.547   6.350
 5251SOL     OW16651   6.367   2.919   1.240
 5251SOL    HW116652   6.380   2.823   1.265
 5251SOL    HW216653   6.378   2.976   1.321
 5252SOL     OW16654   3.782   5.904   0.510
 5252SOL    HW116655   3.828   5.927   0.425
 5252SOL    HW216656   3.847   5.913   0.586
 5253SOL     OW16657   5.555   3.548   4.490
 5253SOL    HW116658   5.508   3.544   4.578
 5253SOL    HW216659   5.563   3.644   4.462
 5254SOL     OW16660   4.347   0.591   3.656
 5254SOL    HW116661   4.441   0.612   3.682
 5254SOL    HW216662   4.329   0.627   3.564
 5255SOL     OW16663   2.878   6.533   5.114
 5255SOL    HW116664   2.928   6.448   5.129
 5255SOL    HW216665   2.782   6.520   5.139
 5256SOL     OW16666   5.102   0.170   3.394
 5256SOL    HW116667   5.030   0.213   3.339
 5256SOL    HW216668   5.085   0.072   3.400
 5257SOL     OW16669   3.920   0.129   0.348
 5257SOL    HW116670   3.907   0.181   0.432
 5257SOL    HW216671   4.011   0.150   0.310
 5258SOL     OW16672   5.116   4.242   2.292
 5258SOL    HW116673   5.088   4.146   2.300
 5258SOL    HW216674   5.035   4.299   2.287
 5259SOL     OW16675   4.896   5.420   2.702
 5259SOL    HW116676   4.851   5.340   2.742
 5259SOL    HW216677   4.921   5.485   2.774
 5260SOL     OW16678   5.580   3.628   1.541
 5260SOL    HW116679   5.654   3.658   1.481
 5260SOL    HW216680   5.515   3.703   1.554
 5261SOL     OW16681   0.811   2.144   4.580
 5261SOL    HW116682   0.893   2.088   4.596
 5261SOL    HW216683   0.779   2.183   4.666
 5262SOL     OW16684   3.173   6.352   1.900
 5262SOL    HW116685   3.128   6.285   1.842
 5262SOL    HW216686   3.113   6.375   1.978
 5263SOL     OW16687   1.829   6.987   6.269
 5263SOL    HW116688   1.755   6.922   6.288
 5263SOL    HW216689   1.869   6.967   6.179
 5264SOL     OW16690   0.276   2.250   0.960
 5264SOL    HW116691   0.215   2.256   1.040
 5264SOL    HW216692   0.299   2.155   0.942
 5265SOL     OW16693   5.453   4.734   1.679
 5265SOL    HW116694   5.359   4.708   1.701
 5265SOL    HW216695   5.477   4.702   1.588
 5266SOL     OW16696   1.447   6.553   1.600
 5266SOL    HW116697   1.395   6.602   1.531
 5266SOL    HW216698   1.518   6.612   1.637
 5267SOL     OW16699   5.025   4.803   5.134
 5267SOL    HW116700   5.118   4.826   5.107
 5267SOL    HW216701   5.013   4.703   5.131
 5268SOL     OW16702   5.944   5.393   5.389
 5268SOL    HW116703   6.034   5.399   5.431
 5268SOL    HW216704   5.890   5.474   5.413
 5269SOL     OW16705   1.813   5.597   4.183
 5269SOL    HW116706   1.881   5.590   4.109
 5269SOL    HW216707   1.852   5.560   4.267
 5270SOL     OW16708   6.370   2.505   1.900
 5270SOL    HW116709   6.273   2.520   1.880
 5270SOL    HW216710   6.379   2.471   1.994
 5271SOL     OW16711   5.348   4.328   5.151
 5271SOL    HW116712   5.262   4.323   5.100
 5271SOL    HW216713   5.397   4.242   5.143
 5272SOL     OW16714   0.551   6.897   4.523
 5272SOL    HW116715   0.485   6.863   4.456
 5272SOL    HW216716   0.512   6.889   4.615
 5273SOL     OW16717   0.703   1.293   3.736
 5273SOL    HW116718   0.704   1.340   3.824
 5273SOL    HW216719   0.644   1.342   3.672
 5274SOL     OW16720   6.670   5.147   4.075
 5274SOL    HW116721   6.762   5.185   4.087
 5274SOL    HW216722   6.602   5.220   4.083
 5275SOL     OW16723   2.700   0.399   6.813
 5275SOL    HW116724   2.745   0.409   6.901
 5275SOL    HW216725   2.601   0.401   6.825
 5276SOL     OW16726   0.013   6.685   1.649
 5276SOL    HW116727   0.012   6.713   1.745
 5276SOL    HW216728   0.023   6.765   1.591
 5277SOL     OW16729   0.971   1.564   3.092
 5277SOL    HW116730   0.916   1.505   3.151
 5277SOL    HW216731   0.959   1.660   3.119
 5278SOL     OW16732   0.725   5.376   5.599
 5278SOL    HW116733   0.714   5.464   5.554
 5278SOL    HW216734   0.782   5.386   5.680
 5279SOL     OW16735   1.558   5.512   6.290
 5279SOL    HW116736   1.637   5.551   6.242
 5279SOL    HW216737   1.483   5.498   6.225
 5280SOL     OW16738   4.042   5.913   4.643
 5280SOL    HW116739   4.076   5.956   4.727
 5280SOL    HW216740   3.948   5.945   4.626
 5281SOL     OW16741   2.237   0.383   4.892
 5281SOL    HW116742   2.194   0.470   4.916
 5281SOL    HW216743   2.200   0.311   4.950
 5282SOL     OW16744   1.416   0.457   2.444
 5282SOL    HW116745   1.335   0.429   2.495
 5282SOL    HW216746   1.418   0.409   2.356
 5283SOL     OW16747   6.987   0.922   4.173
 5283SOL    HW116748   6.922   0.994   4.198
 5283SOL    HW216749   0.053   0.959   4.178
 5284SOL     OW16750   5.331   2.152   1.965
 5284SOL    HW116751   5.298   2.070   1.918
 5284SOL    HW216752   5.277   2.168   2.047
 5285SOL     OW16753   0.718   2.948   3.660
 5285SOL    HW116754   0.793   2.908   3.607
 5285SOL    HW216755   0.712   2.904   3.749
 5286SOL     OW16756   6.328   2.667   1.388
 5286SOL    HW116757   6.248   2.611   1.367
 5286SOL    HW216758   6.368   2.636   1.475
 5287SOL     OW16759   3.172   4.933   1.574
 5287SOL    HW116760   3.189   4.865   1.503
 5287SOL    HW216761   3.211   4.900   1.661
 5288SOL     OW16762   5.341   0.632   2.245
 5288SOL    HW116763   5.262   0.572   2.251
 5288SOL    HW216764   5.323   0.706   2.181
 5289SOL     OW16765   2.003   4.825   6.442
 5289SOL    HW116766   1.961   4.735   6.455
 5289SOL    HW216767   2.033   4.862   6.530
 5290SOL     OW16768   1.566   3.374   5.755
 5290SOL    HW116769   1.557   3.318   5.672
 5290SOL    HW216770   1.499   3.343   5.823
 5291SOL     OW16771   2.667   4.569   5.305
 5291SOL    HW116772   2.725   4.487   5.295
 5291SOL    HW216773   2.718   4.649   5.273
 5292SOL     OW16774   6.439   4.292   6.602
 5292SOL    HW116775   6.529   4.333   6.617
 5292SOL    HW216776   6.442   4.195   6.626
 5293SOL     OW16777   1.939   5.274   4.626
 5293SOL    HW116778   1.979   5.272   4.535
 5293SOL    HW216779   1.841   5.295   4.620
 5294SOL     OW16780   4.183   0.746   5.140
 5294SOL    HW116781   4.168   0.648   5.157
 5294SOL    HW216782   4.237   0.757   5.056
 5295SOL     OW16783   3.273   0.737   2.207
 5295SOL    HW116784   3.211   0.813   2.186
 5295SOL    HW216785   3.362   0.774   2.234
 5296SOL     OW16786   3.935   4.432   1.016
 5296SOL    HW116787   3.979   4.379   0.945
 5296SOL    HW216788   3.996   4.440   1.095
 5297SOL     OW16789   2.188   4.217   0.230
 5297SOL    HW116790   2.251   4.289   0.201
 5297SOL    HW216791   2.228   4.128   0.211
 5298SOL     OW16792   2.455   0.012   0.300
 5298SOL    HW116793   2.394   6.961   0.296
 5298SOL    HW216794   2.400   0.096   0.310
 5299SOL     OW16795   2.910   1.958   0.612
 5299SOL    HW116796   2.949   2.024   0.547
 5299SOL    HW216797   2.923   1.992   0.705
 5300SOL     OW16798   1.687   4.864   0.418
 5300SOL    HW116799   1.659   4.803   0.345
 5300SOL    HW216800   1.651   4.956   0.401
 5301SOL     OW16801   4.523   0.373   6.412
 5301SOL    HW116802   4.477   0.285   6.400
 5301SOL    HW216803   4.493   0.436   6.340
 5302SOL     OW16804   4.932   5.604   3.241
 5302SOL    HW116805   4.924   5.534   3.312
 5302SOL    HW216806   5.011   5.662   3.261
 5303SOL     OW16807   6.739   5.131   6.164
 5303SOL    HW116808   6.703   5.039   6.150
 5303SOL    HW216809   6.726   5.185   6.082
 5304SOL     OW16810   6.432   1.180   1.225
 5304SOL    HW116811   6.412   1.260   1.167
 5304SOL    HW216812   6.528   1.181   1.251
 5305SOL     OW16813   1.300   5.409   2.719
 5305SOL    HW116814   1.201   5.411   2.711
 5305SOL    HW216815   1.331   5.483   2.779
 5306SOL     OW16816   6.743   3.975   6.047
 5306SOL    HW116817   6.792   4.013   6.125
 5306SOL    HW216818   6.648   3.956   6.073
 5307SOL     OW16819   4.642   2.511   0.590
 5307SOL    HW116820   4.642   2.532   0.687
 5307SOL    HW216821   4.569   2.564   0.545
 5308SOL     OW16822   1.348   4.579   2.844
 5308SOL    HW116823   1.338   4.486   2.878
 5308SOL    HW216824   1.268   4.604   2.790
 5309SOL     OW16825   4.108   6.073   2.957
 5309SOL    HW116826   4.141   6.162   2.925
 5309SOL    HW216827   4.122   6.065   3.055
 5310SOL     OW16828   6.170   3.204   2.783
 5310SOL    HW116829   6.197   3.278   2.722
 5310SOL    HW216830   6.192   3.116   2.740
 5311SOL     OW16831   6.114   6.699   0.668
 5311SOL    HW116832   6.047   6.684   0.740
 5311SOL    HW216833   6.067   6.718   0.582
 5312SOL     OW16834   0.725   6.840   1.881
 5312SOL    HW116835   0.628   6.858   1.862
 5312SOL    HW216836   0.733   6.789   1.967
 5313SOL     OW16837   6.948   5.277   5.651
 5313SOL    HW116838   6.892   5.195   5.644
 5313SOL    HW216839   0.017   5.252   5.656
 5314SOL     OW16840   5.930   6.720   1.007
 5314SOL    HW116841   5.852   6.755   1.060
 5314SOL    HW216842   5.905   6.712   0.911
 5315SOL     OW16843   4.492   1.993   3.377
 5315SOL    HW116844   4.501   1.990   3.278
 5315SOL    HW216845   4.431   1.920   3.408
 5316SOL     OW16846   0.588   3.272   5.297
 5316SOL    HW116847   0.671   3.309   5.340
 5316SOL    HW216848   0.607   3.256   5.200
 5317SOL     OW16849   6.504   1.001   5.725
 5317SOL    HW116850   6.577   0.955   5.674
 5317SOL    HW216851   6.542   1.036   5.811
 5318SOL     OW16852   6.431   3.335   0.396
 5318SOL    HW116853   6.367   3.316   0.321
 5318SOL    HW216854   6.427   3.432   0.420
 5319SOL     OW16855   4.319   6.755   1.027
 5319SOL    HW116856   4.349   6.771   1.121
 5319SOL    HW216857   4.261   6.831   0.997
 5320SOL     OW16858   3.683   5.647   1.596
 5320SOL    HW116859   3.737   5.564   1.604
 5320SOL    HW216860   3.587   5.624   1.584
 5321SOL     OW16861   1.439   4.524   5.117
 5321SOL    HW116862   1.506   4.594   5.143
 5321SOL    HW216863   1.385   4.556   5.039
 5322SOL     OW16864   5.578   6.607   1.651
 5322SOL    HW116865   5.549   6.527   1.704
 5322SOL    HW216866   5.535   6.603   1.560
 5323SOL     OW16867   4.642   1.682   5.496
 5323SOL    HW116868   4.594   1.744   5.558
 5323SOL    HW216869   4.583   1.659   5.419
 5324SOL     OW16870   2.519   2.436   6.674
 5324SOL    HW116871   2.441   2.443   6.612
 5324SOL    HW216872   2.585   2.508   6.653
 5325SOL     OW16873   3.003   1.788   5.253
 5325SOL    HW116874   3.006   1.876   5.205
 5325SOL    HW216875   3.044   1.717   5.196
 5326SOL     OW16876   6.570   5.753   2.810
 5326SOL    HW116877   6.470   5.762   2.803
 5326SOL    HW216878   6.598   5.665   2.773
 5327SOL     OW16879   5.327   2.517   4.630
 5327SOL    HW116880   5.249   2.524   4.568
 5327SOL    HW216881   5.398   2.460   4.588
 5328SOL     OW16882   4.079   3.967   6.020
 5328SOL    HW116883   4.123   3.885   6.058
 5328SOL    HW216884   4.019   3.940   5.944
 5329SOL     OW16885   1.418   5.654   6.470
 5329SOL    HW116886   1.466   5.623   6.388
 5329SOL    HW216887   1.454   5.607   6.550
 5330SOL     OW16888   3.877   3.557   0.636
 5330SOL    HW116889   3.813   3.483   0.657
 5330SOL    HW216890   3.970   3.529   0.659
 5331SOL     OW16891   6.816   2.010   6.766
 5331SOL    HW116892   6.778   1.939   6.825
 5331SOL    HW216893   6.750   2.084   6.756
 5332SOL     OW16894   1.364   4.625   1.680
 5332SOL    HW116895   1.318   4.570   1.610
 5332SOL    HW216896   1.368   4.573   1.766
 5333SOL     OW16897   1.612   0.108   3.506
 5333SOL    HW116898   1.682   0.090   3.437
 5333SOL    HW216899   1.553   0.028   3.515
 5334SOL     OW16900   2.978   0.246   5.055
 5334SOL    HW116901   2.888   0.289   5.046
 5334SOL    HW216902   3.036   0.303   5.113
 5335SOL     OW16903   6.688   5.753   0.378
 5335SOL    HW116904   6.779   5.764   0.339
 5335SOL    HW216905   6.626   5.821   0.339
 5336SOL     OW16906   1.831   3.580   2.176
 5336SOL    HW116907   1.839   3.570   2.076
 5336SOL    HW216908   1.735   3.587   2.201
 5337SOL     OW16909   5.186   4.197   1.158
 5337SOL    HW116910   5.134   4.124   1.114
 5337SOL    HW216911   5.229   4.161   1.242
 5338SOL     OW16912   6.676   1.793   0.049
 5338SOL    HW116913   6.640   1.793   6.984
 5338SOL    HW216914   6.610   1.836   0.111
 5339SOL     OW16915   6.867   2.094   3.789
 5339SOL    HW116916   6.789   2.152   3.813
 5339SOL    HW216917   6.851   2.001   3.823
 5340SOL     OW16918   5.573   2.857   7.021
 5340SOL    HW116919   5.528   2.886   0.077
 5340SOL    HW216920   5.505   2.848   6.948
 5341SOL     OW16921   3.911   1.884   5.459
 5341SOL    HW116922   3.893   1.909   5.555
 5341SOL    HW216923   3.986   1.818   5.455
 5342SOL     OW16924   4.119   0.599   4.777
 5342SOL    HW116925   4.127   0.605   4.678
 5342SOL    HW216926   4.198   0.644   4.820
 5343SOL     OW16927   4.159   3.550   2.590
 5343SOL    HW116928   4.222   3.615   2.549
 5343SOL    HW216929   4.121   3.587   2.674
 5344SOL     OW16930   1.458   2.598   2.699
 5344SOL    HW116931   1.454   2.612   2.798
 5344SOL    HW216932   1.435   2.502   2.678
 5345SOL     OW16933   4.671   6.209   0.968
 5345SOL    HW116934   4.571   6.213   0.969
 5345SOL    HW216935   4.702   6.177   0.879
 5346SOL     OW16936   3.137   6.089   3.459
 5346SOL    HW116937   3.050   6.075   3.411
 5346SOL    HW216938   3.197   6.011   3.442
 5347SOL     OW16939   0.464   2.023   1.852
 5347SOL    HW116940   0.526   2.061   1.783
 5347SOL    HW216941   0.377   2.000   1.809
 5348SOL     OW16942   1.177   1.411   0.391
 5348SOL    HW116943   1.226   1.490   0.427
 5348SOL    HW216944   1.202   1.397   0.295
 5349SOL     OW16945   7.002   2.061   0.351
 5349SOL    HW116946   6.988   1.999   0.275
 5349SOL    HW216947   6.922   2.121   0.360
 5350SOL     OW16948   2.345   0.334   6.130
 5350SOL    HW116949   2.303   0.354   6.218
 5350SOL    HW216950   2.280   0.355   6.057
 5351SOL     OW16951   5.122   5.907   1.282
 5351SOL    HW116952   5.033   5.904   1.326
 5351SOL    HW216953   5.117   5.966   1.201
 5352SOL     OW16954   2.102   5.765   4.191
 5352SOL    HW116955   2.198   5.792   4.190
 5352SOL    HW216956   2.072   5.742   4.098
 5353SOL     OW16957   4.573   6.248   4.991
 5353SOL    HW116958   4.573   6.297   4.904
 5353SOL    HW216959   4.637   6.172   4.986
 5354SOL     OW16960   2.359   5.129   2.202
 5354SOL    HW116961   2.367   5.177   2.289
 5354SOL    HW216962   2.428   5.057   2.197
 5355SOL     OW16963   4.238   1.795   3.862
 5355SOL    HW116964   4.275   1.741   3.786
 5355SOL    HW216965   4.273   1.758   3.949
 5356SOL     OW16966   6.204   3.753   1.664
 5356SOL    HW116967   6.225   3.703   1.580
 5356SOL    HW216968   6.267   3.725   1.736
 5357SOL     OW16969   3.987   0.475   0.423
 5357SOL    HW116970   3.985   0.439   0.329
 5357SOL    HW216971   3.962   0.402   0.487
 5358SOL     OW16972   3.882   2.360   0.852
 5358SOL    HW116973   3.843   2.350   0.944
 5358SOL    HW216974   3.840   2.293   0.791
 5359SOL     OW16975   2.404   1.713   1.110
 5359SOL    HW116976   2.462   1.632   1.108
 5359SOL    HW216977   2.458   1.793   1.084
 5360SOL     OW16978   3.589   6.724   5.207
 5360SOL    HW116979   3.616   6.762   5.119
 5360SOL    HW216980   3.624   6.631   5.215
 5361SOL     OW16981   2.275   1.260   4.755
 5361SOL    HW116982   2.325   1.336   4.714
 5361SOL    HW216983   2.180   1.264   4.726
 5362SOL     OW16984   4.880   4.441   2.949
 5362SOL    HW116985   4.967   4.400   2.975
 5362SOL    HW216986   4.807   4.374   2.957
 5363SOL     OW16987   1.085   5.928   5.693
 5363SOL    HW116988   1.157   5.983   5.733
 5363SOL    HW216989   1.121   5.880   5.612
 5364SOL     OW16990   6.640   5.944   1.171
 5364SOL    HW116991   6.738   5.958   1.153
 5364SOL    HW216992   6.597   6.032   1.190
 5365SOL     OW16993   4.248   3.134   6.231
 5365SOL    HW116994   4.327   3.073   6.235
 5365SOL    HW216995   4.193   3.112   6.151
 5366SOL     OW16996   4.027   4.618   0.420
 5366SOL    HW116997   4.088   4.665   0.356
 5366SOL    HW216998   4.044   4.520   0.417
 5367SOL     OW16999   0.407   5.114   0.791
 5367SOL    HW117000   0.397   5.196   0.733
 5367SOL    HW217001   0.421   5.034   0.733
 5368SOL     OW17002   5.413   1.837   2.219
 5368SOL    HW117003   5.461   1.849   2.306
 5368SOL    HW217004   5.480   1.836   2.144
 5369SOL     OW17005   2.268   4.839   3.344
 5369SOL    HW117006   2.209   4.920   3.348
 5369SOL    HW217007   2.239   4.782   3.267
 5370SOL     OW17008   3.740   3.107   1.673
 5370SOL    HW117009   3.827   3.117   1.625
 5370SOL    HW217010   3.737   3.019   1.720
 5371SOL     OW17011   1.828   4.181   4.804
 5371SOL    HW117012   1.802   4.151   4.712
 5371SOL    HW217013   1.888   4.112   4.846
 5372SOL     OW17014   3.225   5.535   2.103
 5372SOL    HW117015   3.215   5.512   2.200
 5372SOL    HW217016   3.146   5.589   2.074
 5373SOL     OW17017   3.201   4.858   4.286
 5373SOL    HW117018   3.300   4.870   4.297
 5373SOL    HW217019   3.159   4.845   4.376
 5374SOL     OW17020   1.697   3.237   6.815
 5374SOL    HW117021   1.649   3.155   6.785
 5374SOL    HW217022   1.633   3.297   6.864
 5375SOL     OW17023   1.286   4.016   5.081
 5375SOL    HW117024   1.296   4.096   5.022
 5375SOL    HW217025   1.190   3.993   5.090
 5376SOL     OW17026   1.791   3.445   1.634
 5376SOL    HW117027   1.821   3.461   1.540
 5376SOL    HW217028   1.869   3.414   1.689
 5377SOL     OW17029   6.803   6.846   1.871
 5377SOL    HW117030   6.729   6.798   1.824
 5377SOL    HW217031   6.833   6.923   1.815
 5378SOL     OW17032   6.198   0.285   0.161
 5378SOL    HW117033   6.167   0.372   0.123
 5378SOL    HW217034   6.295   0.273   0.141
 5379SOL     OW17035   0.170   4.861   3.863
 5379SOL    HW117036   0.227   4.803   3.921
 5379SOL    HW217037   0.088   4.889   3.913
 5380SOL     OW17038   2.370   0.590   3.625
 5380SOL    HW117039   2.272   0.608   3.620
 5380SOL    HW217040   2.397   0.532   3.549
 5381SOL     OW17041   6.120   3.912   0.910
 5381SOL    HW117042   6.122   4.009   0.934
 5381SOL    HW217043   6.139   3.901   0.813
 5382SOL     OW17044   3.294   0.347   1.430
 5382SOL    HW117045   3.317   0.414   1.359
 5382SOL    HW217046   3.243   0.271   1.388
 5383SOL     OW17047   2.907   2.266   5.596
 5383SOL    HW117048   2.958   2.310   5.523
 5383SOL    HW217049   2.810   2.264   5.573
 5384SOL     OW17050   6.469   6.408   4.412
 5384SOL    HW117051   6.487   6.486   4.471
 5384SOL    HW217052   6.410   6.437   4.336
 5385SOL     OW17053   2.872   3.659   2.643
 5385SOL    HW117054   2.875   3.617   2.552
 5385SOL    HW217055   2.853   3.589   2.712
 5386SOL     OW17056   4.940   6.127   4.112
 5386SOL    HW117057   4.981   6.124   4.021
 5386SOL    HW217058   4.877   6.205   4.117
 5387SOL     OW17059   2.381   5.674   2.474
 5387SOL    HW117060   2.360   5.751   2.414
 5387SOL    HW217061   2.404   5.708   2.565
 5388SOL     OW17062   5.467   6.375   2.362
 5388SOL    HW117063   5.383   6.430   2.366
 5388SOL    HW217064   5.443   6.278   2.361
 5389SOL     OW17065   4.734   1.075   1.882
 5389SOL    HW117066   4.803   1.061   1.810
 5389SOL    HW217067   4.735   1.170   1.912
 5390SOL     OW17068   5.402   4.915   4.429
 5390SOL    HW117069   5.427   4.881   4.519
 5390SOL    HW217070   5.393   5.015   4.432
 5391SOL     OW17071   2.846   3.574   0.185
 5391SOL    HW117072   2.804   3.528   0.107
 5391SOL    HW217073   2.888   3.506   0.245
 5392SOL     OW17074   5.828   2.884   1.552
 5392SOL    HW117075   5.866   2.874   1.644
 5392SOL    HW217076   5.898   2.863   1.484
 5393SOL     OW17077   0.007   6.874   6.962
 5393SOL    HW117078   7.018   6.807   0.006
 5393SOL    HW217079   7.011   6.835   6.873
 5394SOL     OW17080   0.790   3.968   6.339
 5394SOL    HW117081   0.716   3.967   6.407
 5394SOL    HW217082   0.876   3.991   6.384
 5395SOL     OW17083   4.442   0.482   0.710
 5395SOL    HW117084   4.355   0.514   0.748
 5395SOL    HW217085   4.470   0.398   0.756
 5396SOL     OW17086   5.227   3.780   2.265
 5396SOL    HW117087   5.229   3.777   2.365
 5396SOL    HW217088   5.210   3.688   2.230
 5397SOL     OW17089   6.944   2.991   1.850
 5397SOL    HW117090   6.914   3.075   1.894
 5397SOL    HW217091   6.988   2.931   1.917
 5398SOL     OW17092   3.129   2.623   1.776
 5398SOL    HW117093   3.051   2.563   1.797
 5398SOL    HW217094   3.135   2.637   1.677
 5399SOL     OW17095   2.769   6.365   0.784
 5399SOL    HW117096   2.722   6.450   0.763
 5399SOL    HW217097   2.719   6.288   0.746
 5400SOL     OW17098   2.635   4.486   0.475
 5400SOL    HW117099   2.633   4.388   0.495
 5400SOL    HW217100   2.729   4.517   0.467
 5401SOL     OW17101   5.966   3.065   2.189
 5401SOL    HW117102   6.002   3.150   2.227
 5401SOL    HW217103   6.014   3.043   2.105
 5402SOL     OW17104   2.689   5.988   1.754
 5402SOL    HW117105   2.591   5.977   1.736
 5402SOL    HW217106   2.702   6.030   1.844
 5403SOL     OW17107   0.255   3.398   6.415
 5403SOL    HW117108   0.159   3.422   6.419
 5403SOL    HW217109   0.306   3.447   6.485
 5404SOL     OW17110   1.368   2.898   3.623
 5404SOL    HW117111   1.313   2.944   3.693
 5404SOL    HW217112   1.383   2.802   3.651
 5405SOL     OW17113   6.939   5.481   6.836
 5405SOL    HW117114   0.009   5.466   6.818
 5405SOL    HW217115   6.894   5.393   6.850
 5406SOL     OW17116   1.760   2.194   0.408
 5406SOL    HW117117   1.823   2.136   0.356
 5406SOL    HW217118   1.709   2.253   0.346
 5407SOL     OW17119   4.496   3.621   0.376
 5407SOL    HW117120   4.543   3.577   0.452
 5407SOL    HW217121   4.397   3.614   0.389
 5408SOL     OW17122   2.718   1.067   5.367
 5408SOL    HW117123   2.704   1.047   5.464
 5408SOL    HW217124   2.651   1.133   5.336
 5409SOL     OW17125   5.230   0.267   2.998
 5409SOL    HW117126   5.259   0.360   3.020
 5409SOL    HW217127   5.266   0.240   2.909
 5410SOL     OW17128   3.142   2.164   1.878
 5410SOL    HW117129   3.215   2.211   1.827
 5410SOL    HW217130   3.082   2.232   1.920
 5411SOL     OW17131   6.504   4.924   6.029
 5411SOL    HW117132   6.450   4.996   5.985
 5411SOL    HW217133   6.488   4.837   5.983
 5412SOL     OW17134   4.886   2.823   0.497
 5412SOL    HW117135   4.796   2.829   0.453
 5412SOL    HW217136   4.958   2.829   0.428
 5413SOL     OW17137   2.899   1.879   1.484
 5413SOL    HW117138   2.883   1.898   1.387
 5413SOL    HW217139   2.959   1.949   1.522
 5414SOL     OW17140   5.234   1.631   4.627
 5414SOL    HW117141   5.259   1.692   4.702
 5414SOL    HW217142   5.210   1.686   4.546
 5415SOL     OW17143   0.173   6.188   1.147
 5415SOL    HW117144   0.197   6.238   1.229
 5415SOL    HW217145   0.176   6.090   1.165
 5416SOL     OW17146   4.011   4.816   5.127
 5416SOL    HW117147   3.934   4.876   5.147
 5416SOL    HW217148   4.054   4.845   5.041
 5417SOL     OW17149   3.524   0.157   5.249
 5417SOL    HW117150   3.581   0.231   5.284
 5417SOL    HW217151   3.573   0.108   5.177
 5418SOL     OW17152   3.647   0.271   2.530
 5418SOL    HW117153   3.713   0.308   2.595
 5418SOL    HW217154   3.666   0.306   2.439
 5419SOL     OW17155   3.603   4.798   0.059
 5419SOL    HW117156   3.548   4.856   7.026
 5419SOL    HW217157   3.550   4.778   0.142
 5420SOL     OW17158   2.084   2.755   3.323
 5420SOL    HW117159   2.167   2.782   3.373
 5420SOL    HW217160   2.109   2.699   3.245
 5421SOL     OW17161   1.731   3.767   1.171
 5421SOL    HW117162   1.831   3.772   1.173
 5421SOL    HW217163   1.695   3.851   1.129
 5422SOL     OW17164   1.345   4.870   1.187
 5422SOL    HW117165   1.418   4.803   1.174
 5422SOL    HW217166   1.314   4.902   1.097
 5423SOL     OW17167   6.286   2.764   6.650
 5423SOL    HW117168   6.282   2.676   6.697
 5423SOL    HW217169   6.237   2.832   6.703
 5424SOL     OW17170   4.956   3.580   4.084
 5424SOL    HW117171   4.905   3.495   4.067
 5424SOL    HW217172   5.019   3.566   4.160
 5425SOL     OW17173   4.208   1.163   4.781
 5425SOL    HW117174   4.196   1.160   4.880
 5425SOL    HW217175   4.152   1.237   4.743
 5426SOL     OW17176   5.637   6.252   4.392
 5426SOL    HW117177   5.642   6.258   4.491
 5426SOL    HW217178   5.591   6.333   4.356
 5427SOL     OW17179   4.401   5.880   6.347
 5427SOL    HW117180   4.420   5.815   6.273
 5427SOL    HW217181   4.302   5.888   6.360
 5428SOL     OW17182   0.753   0.315   0.765
 5428SOL    HW117183   0.805   0.375   0.825
 5428SOL    HW217184   0.685   0.265   0.819
 5429SOL     OW17185   1.956   1.636   0.129
 5429SOL    HW117186   1.889   1.707   0.106
 5429SOL    HW217187   1.923   1.548   0.094
 5430SOL     OW17188   0.305   2.195   6.451
 5430SOL    HW117189   0.276   2.116   6.506
 5430SOL    HW217190   0.354   2.162   6.370
 5431SOL     OW17191   3.242   6.731   6.592
 5431SOL    HW117192   3.171   6.663   6.609
 5431SOL    HW217193   3.200   6.820   6.579
 5432SOL     OW17194   5.453   0.000   6.943
 5432SOL    HW117195   5.496   0.022   6.856
 5432SOL    HW217196   5.355   0.020   6.939
 5433SOL     OW17197   0.269   1.860   4.505
 5433SOL    HW117198   0.194   1.906   4.552
 5433SOL    HW217199   0.301   1.783   4.559
 5434SOL     OW17200   3.086   7.001   5.536
 5434SOL    HW117201   3.095   0.021   5.623
 5434SOL    HW217202   3.162   7.027   5.476
 5435SOL     OW17203   4.842   6.856   1.863
 5435SOL    HW117204   4.751   6.888   1.890
 5435SOL    HW217205   4.833   6.773   1.807
 5436SOL     OW17206   4.628   4.348   3.161
 5436SOL    HW117207   4.672   4.330   3.249
 5436SOL    HW217208   4.648   4.274   3.098
 5437SOL     OW17209   2.439   4.353   0.182
 5437SOL    HW117210   2.527   4.308   0.168
 5437SOL    HW217211   2.454   4.447   0.214
 5438SOL     OW17212   6.830   2.537   1.697
 5438SOL    HW117213   6.818   2.585   1.611
 5438SOL    HW217214   6.922   2.498   1.702
 5439SOL     OW17215   1.751   2.046   1.348
 5439SOL    HW117216   1.701   2.103   1.283
 5439SOL    HW217217   1.844   2.081   1.359
 5440SOL     OW17218   1.598   1.614   1.448
 5440SOL    HW117219   1.564   1.576   1.362
 5440SOL    HW217220   1.694   1.637   1.439
 5441SOL     OW17221   3.566   2.084   4.065
 5441SOL    HW117222   3.665   2.088   4.052
 5441SOL    HW217223   3.545   2.086   4.163
 5442SOL     OW17224   4.090   6.369   2.624
 5442SOL    HW117225   4.024   6.344   2.695
 5442SOL    HW217226   4.158   6.296   2.614
 5443SOL     OW17227   2.948   0.220   5.423
 5443SOL    HW117228   2.974   0.133   5.464
 5443SOL    HW217229   2.854   0.215   5.389
 5444SOL     OW17230   0.733   0.504   4.087
 5444SOL    HW117231   0.833   0.498   4.085
 5444SOL    HW217232   0.697   0.484   3.996
 5445SOL     OW17233   6.468   3.803   3.445
 5445SOL    HW117234   6.395   3.743   3.412
 5445SOL    HW217235   6.546   3.748   3.474
 5446SOL     OW17236   5.708   5.561   4.908
 5446SOL    HW117237   5.648   5.561   4.828
 5446SOL    HW217238   5.665   5.512   4.983
 5447SOL     OW17239   2.931   2.741   6.772
 5447SOL    HW117240   3.012   2.698   6.810
 5447SOL    HW217241   2.957   2.827   6.728
 5448SOL     OW17242   5.271   2.110   5.207
 5448SOL    HW117243   5.191   2.050   5.206
 5448SOL    HW217244   5.340   2.072   5.268
 5449SOL     OW17245   1.405   2.653   6.766
 5449SOL    HW117246   1.390   2.720   6.839
 5449SOL    HW217247   1.328   2.589   6.765
 5450SOL     OW17248   2.329   1.092   1.961
 5450SOL    HW117249   2.269   1.039   1.900
 5450SOL    HW217250   2.296   1.085   2.055
 5451SOL     OW17251   1.041   5.717   3.089
 5451SOL    HW117252   1.065   5.799   3.036
 5451SOL    HW217253   1.103   5.709   3.167
 5452SOL     OW17254   2.084   4.384   0.021
 5452SOL    HW117255   2.003   4.443   0.020
 5452SOL    HW217256   2.099   4.350   0.114
 5453SOL     OW17257   6.706   4.183   0.548
 5453SOL    HW117258   6.743   4.251   0.485
 5453SOL    HW217259   6.768   4.105   0.553
 5454SOL     OW17260   6.840   4.610   6.506
 5454SOL    HW117261   6.744   4.632   6.491
 5454SOL    HW217262   6.874   4.660   6.586
 5455SOL     OW17263   0.184   3.050   0.996
 5455SOL    HW117264   0.120   3.060   1.072
 5455SOL    HW217265   0.230   2.962   1.001
 5456SOL     OW17266   3.493   0.931   6.425
 5456SOL    HW117267   3.501   0.948   6.523
 5456SOL    HW217268   3.570   0.975   6.377
 5457SOL     OW17269   5.588   2.815   0.743
 5457SOL    HW117270   5.599   2.719   0.769
 5457SOL    HW217271   5.568   2.870   0.824
 5458SOL     OW17272   0.875   4.591   6.794
 5458SOL    HW117273   0.877   4.642   6.880
 5458SOL    HW217274   0.967   4.561   6.771
 5459SOL     OW17275   2.188   5.150   0.168
 5459SOL    HW117276   2.171   5.070   0.111
 5459SOL    HW217277   2.226   5.223   0.112
 5460SOL     OW17278   3.487   0.243   1.645
 5460SOL    HW117279   3.448   0.155   1.617
 5460SOL    HW217280   3.462   0.313   1.578
 5461SOL     OW17281   4.998   6.540   5.299
 5461SOL    HW117282   5.057   6.614   5.330
 5461SOL    HW217283   5.049   6.454   5.302
 5462SOL     OW17284   1.664   0.792   0.732
 5462SOL    HW117285   1.682   0.861   0.803
 5462SOL    HW217286   1.751   0.756   0.699
 5463SOL     OW17287   6.174   2.292   0.888
 5463SOL    HW117288   6.133   2.354   0.954
 5463SOL    HW217289   6.259   2.332   0.853
 5464SOL     OW17290   1.662   0.643   4.269
 5464SOL    HW117291   1.661   0.543   4.257
 5464SOL    HW217292   1.694   0.686   4.185
 5465SOL     OW17293   4.021   6.698   3.770
 5465SOL    HW117294   4.008   6.599   3.774
 5465SOL    HW217295   3.932   6.743   3.768
 5466SOL     OW17296   5.211   4.233   4.678
 5466SOL    HW117297   5.277   4.177   4.727
 5466SOL    HW217298   5.227   4.330   4.699
 5467SOL     OW17299   5.493   1.772   2.701
 5467SOL    HW117300   5.418   1.730   2.650
 5467SOL    HW217301   5.455   1.826   2.777
 5468SOL     OW17302   4.921   1.778   4.560
 5468SOL    HW117303   4.863   1.813   4.486
 5468SOL    HW217304   5.011   1.822   4.556
 5469SOL     OW17305   4.272   4.321   6.302
 5469SOL    HW117306   4.218   4.286   6.226
 5469SOL    HW217307   4.339   4.252   6.330
 5470SOL     OW17308   2.101   4.980   3.714
 5470SOL    HW117309   2.188   4.936   3.736
 5470SOL    HW217310   2.036   4.964   3.787
 5471SOL     OW17311   5.404   6.166   0.920
 5471SOL    HW117312   5.308   6.152   0.893
 5471SOL    HW217313   5.409   6.171   1.020
 5472SOL     OW17314   4.363   3.715   6.234
 5472SOL    HW117315   4.436   3.774   6.198
 5472SOL    HW217316   4.286   3.716   6.170
 5473SOL     OW17317   0.920   3.921   3.020
 5473SOL    HW117318   1.019   3.912   3.022
 5473SOL    HW217319   0.879   3.831   3.002
 5474SOL     OW17320   2.191   4.904   4.338
 5474SOL    HW117321   2.270   4.920   4.396
 5474SOL    HW217322   2.210   4.830   4.273
 5475SOL     OW17323   3.298   2.384   1.119
 5475SOL    HW117324   3.345   2.325   1.185
 5475SOL    HW217325   3.208   2.409   1.155
 5476SOL     OW17326   1.616   3.186   6.280
 5476SOL    HW117327   1.681   3.243   6.230
 5476SOL    HW217328   1.579   3.116   6.219
 5477SOL     OW17329   2.165   3.305   3.458
 5477SOL    HW117330   2.103   3.318   3.535
 5477SOL    HW217331   2.236   3.239   3.483
 5478SOL     OW17332   5.164   5.876   6.232
 5478SOL    HW117333   5.129   5.824   6.310
 5478SOL    HW217334   5.153   5.974   6.250
 5479SOL     OW17335   4.922   0.418   4.406
 5479SOL    HW117336   4.960   0.382   4.321
 5479SOL    HW217337   4.929   0.518   4.406
 5480SOL     OW17338   1.077   4.247   4.699
 5480SOL    HW117339   1.073   4.263   4.797
 5480SOL    HW217340   0.986   4.256   4.659
 5481SOL     OW17341   3.285   0.267   4.894
 5481SOL    HW117342   3.315   0.314   4.977
 5481SOL    HW217343   3.293   0.168   4.906
 5482SOL     OW17344   3.682   4.462   1.613
 5482SOL    HW117345   3.668   4.517   1.696
 5482SOL    HW217346   3.711   4.370   1.639
 5483SOL     OW17347   0.310   2.449   6.179
 5483SOL    HW117348   0.236   2.383   6.164
 5483SOL    HW217349   0.395   2.400   6.196
 5484SOL     OW17350   4.668   0.353   4.408
 5484SOL    HW117351   4.650   0.447   4.381
 5484SOL    HW217352   4.765   0.343   4.434
 5485SOL     OW17353   2.511   6.178   5.448
 5485SOL    HW117354   2.540   6.117   5.374
 5485SOL    HW217355   2.447   6.129   5.508
 5486SOL     OW17356   2.767   5.838   4.934
 5486SOL    HW117357   2.764   5.921   4.990
 5486SOL    HW217358   2.680   5.829   4.883
 5487SOL     OW17359   2.733   4.486   5.839
 5487SOL    HW117360   2.669   4.434   5.783
 5487SOL    HW217361   2.741   4.579   5.802
 5488SOL     OW17362   5.714   1.393   0.637
 5488SOL    HW117363   5.687   1.298   0.619
 5488SOL    HW217364   5.632   1.448   0.653
 5489SOL     OW17365   6.859   3.204   2.051
 5489SOL    HW117366   6.927   3.275   2.072
 5489SOL    HW217367   6.824   3.165   2.136
 5490SOL     OW17368   0.980   6.819   2.855
 5490SOL    HW117369   1.071   6.830   2.897
 5490SOL    HW217370   0.991   6.793   2.759
 5491SOL     OW17371   0.055   3.086   0.754
 5491SOL    HW117372   0.036   3.183   0.768
 5491SOL    HW217373   0.096   3.048   0.836
 5492SOL     OW17374   0.426   1.844   5.683
 5492SOL    HW117375   0.479   1.882   5.759
 5492SOL    HW217376   0.400   1.917   5.620
 5493SOL     OW17377   4.111   3.658   1.820
 5493SOL    HW117378   4.102   3.739   1.763
 5493SOL    HW217379   4.117   3.685   1.916
 5494SOL     OW17380   5.829   4.287   5.232
 5494SOL    HW117381   5.902   4.230   5.195
 5494SOL    HW217382   5.789   4.242   5.312
 5495SOL     OW17383   5.939   0.554   0.544
 5495SOL    HW117384   5.948   0.468   0.495
 5495SOL    HW217385   6.026   0.577   0.587
 5496SOL     OW17386   4.307   0.847   4.371
 5496SOL    HW117387   4.375   0.838   4.298
 5496SOL    HW217388   4.226   0.793   4.350
 5497SOL     OW17389   0.768   1.047   6.268
 5497SOL    HW117390   0.859   1.086   6.276
 5497SOL    HW217391   0.747   1.032   6.171
 5498SOL     OW17392   1.108   4.956   1.900
 5498SOL    HW117393   1.040   5.009   1.951
 5498SOL    HW217394   1.143   5.010   1.824
 5499SOL     OW17395   0.714   0.281   4.972
 5499SOL    HW117396   0.693   0.199   5.025
 5499SOL    HW217397   0.807   0.275   4.937
 5500SOL     OW17398   2.476   0.743   0.312
 5500SOL    HW117399   2.386   0.700   0.315
 5500SOL    HW217400   2.546   0.676   0.338
 5501SOL     OW17401   3.969   2.291   7.016
 5501SOL    HW117402   3.983   2.364   0.055
 5501SOL    HW217403   3.975   2.202   0.035
 5502SOL     OW17404   4.485   2.318   0.041
 5502SOL    HW117405   4.568   2.281   0.084
 5502SOL    HW217406   4.490   2.303   6.970
 5503SOL     OW17407   0.632   3.416   0.173
 5503SOL    HW117408   0.729   3.407   0.197
 5503SOL    HW217409   0.624   3.471   0.090
 5504SOL     OW17410   3.700   0.785   6.932
 5504SOL    HW117411   3.710   0.805   6.835
 5504SOL    HW217412   3.673   0.690   6.944
 5505SOL     OW17413   2.661   4.681   4.482
 5505SOL    HW117414   2.700   4.668   4.573
 5505SOL    HW217415   2.730   4.722   4.422
 5506SOL     OW17416   0.272   3.602   6.223
 5506SOL    HW117417   0.307   3.517   6.262
 5506SOL    HW217418   0.173   3.607   6.237
 5507SOL     OW17419   3.100   0.210   6.295
 5507SOL    HW117420   3.018   0.197   6.351
 5507SOL    HW217421   3.119   0.308   6.286
 5508SOL     OW17422   0.567   0.984   6.816
 5508SOL    HW117423   0.561   0.908   6.751
 5508SOL    HW217424   0.663   0.999   6.841
 5509SOL     OW17425   6.900   5.614   0.597
 5509SOL    HW117426   6.833   5.680   0.565
 5509SOL    HW217427   6.885   5.596   0.694
 5510SOL     OW17428   4.120   5.392   6.788
 5510SOL    HW117429   4.168   5.308   6.761
 5510SOL    HW217430   4.024   5.371   6.806
 5511SOL     OW17431   0.463   1.305   5.458
 5511SOL    HW117432   0.469   1.368   5.381
 5511SOL    HW217433   0.507   1.219   5.433
 5512SOL     OW17434   4.181   0.908   2.043
 5512SOL    HW117435   4.248   0.885   2.113
 5512SOL    HW217436   4.195   1.003   2.013
 5513SOL     OW17437   4.222   5.072   6.699
 5513SOL    HW117438   4.125   5.061   6.678
 5513SOL    HW217439   4.267   4.983   6.690
 5514SOL     OW17440   3.032   0.264   5.968
 5514SOL    HW117441   2.943   0.295   5.935
 5514SOL    HW217442   3.085   0.342   6.002
 5515SOL     OW17443   2.254   6.034   1.966
 5515SOL    HW117444   2.220   5.961   2.025
 5515SOL    HW217445   2.179   6.068   1.908
 5516SOL     OW17446   2.455   2.675   4.978
 5516SOL    HW117447   2.487   2.644   5.068
 5516SOL    HW217448   2.434   2.773   4.984
 5517SOL     OW17449   1.875   3.629   3.180
 5517SOL    HW117450   1.861   3.605   3.084
 5517SOL    HW217451   1.961   3.680   3.189
 5518SOL     OW17452   4.688   4.449   5.496
 5518SOL    HW117453   4.602   4.439   5.446
 5518SOL    HW217454   4.719   4.359   5.528
 5519SOL     OW17455   4.631   2.428   3.734
 5519SOL    HW117456   4.701   2.358   3.720
 5519SOL    HW217457   4.552   2.386   3.779
 5520SOL     OW17458   5.463   6.582   2.104
 5520SOL    HW117459   5.525   6.505   2.087
 5520SOL    HW217460   5.373   6.547   2.132
 5521SOL     OW17461   5.917   5.874   1.489
 5521SOL    HW117462   5.991   5.879   1.422
 5521SOL    HW217463   5.941   5.809   1.561
 5522SOL     OW17464   6.433   5.452   0.922
 5522SOL    HW117465   6.440   5.391   1.001
 5522SOL    HW217466   6.449   5.546   0.950
 5523SOL     OW17467   5.749   1.079   2.305
 5523SOL    HW117468   5.750   1.040   2.213
 5523SOL    HW217469   5.693   1.162   2.304
 5524SOL     OW17470   3.028   0.743   4.661
 5524SOL    HW117471   2.985   0.687   4.731
 5524SOL    HW217472   2.962   0.760   4.587
 5525SOL     OW17473   6.609   2.292   1.397
 5525SOL    HW117474   6.643   2.216   1.453
 5525SOL    HW217475   6.512   2.307   1.416
 5526SOL     OW17476   4.708   5.013   3.247
 5526SOL    HW117477   4.635   4.956   3.209
 5526SOL    HW217478   4.695   5.107   3.216
 5527SOL     OW17479   5.824   2.070   3.891
 5527SOL    HW117480   5.886   2.141   3.925
 5527SOL    HW217481   5.794   2.093   3.799
 5528SOL     OW17482   1.071   2.010   1.563
 5528SOL    HW117483   1.104   2.104   1.560
 5528SOL    HW217484   1.129   1.956   1.624
 5529SOL     OW17485   3.933   0.828   2.196
 5529SOL    HW117486   3.982   0.909   2.161
 5529SOL    HW217487   3.903   0.846   2.289
 5530SOL     OW17488   6.782   2.531   1.393
 5530SOL    HW117489   6.720   2.452   1.388
 5530SOL    HW217490   6.870   2.507   1.352
 5531SOL     OW17491   3.190   4.132   1.309
 5531SOL    HW117492   3.180   4.039   1.346
 5531SOL    HW217493   3.106   4.184   1.328
 5532SOL     OW17494   1.573   2.990   1.517
 5532SOL    HW117495   1.519   3.047   1.455
 5532SOL    HW217496   1.648   3.045   1.556
 5533SOL     OW17497   4.143   1.461   3.886
 5533SOL    HW117498   4.095   1.547   3.876
 5533SOL    HW217499   4.173   1.428   3.796
 5534SOL     OW17500   0.919   1.248   4.978
 5534SOL    HW117501   0.846   1.209   4.923
 5534SOL    HW217502   0.977   1.306   4.921
 5535SOL     OW17503   0.949   1.990   3.406
 5535SOL    HW117504   1.015   1.955   3.473
 5535SOL    HW217505   0.906   2.073   3.441
 5536SOL     OW17506   3.368   0.365   4.457
 5536SOL    HW117507   3.346   0.388   4.363
 5536SOL    HW217508   3.442   0.424   4.489
 5537SOL     OW17509   3.143   1.002   3.133
 5537SOL    HW117510   3.130   1.085   3.079
 5537SOL    HW217511   3.188   1.025   3.220
 5538SOL     OW17512   4.723   5.816   4.427
 5538SOL    HW117513   4.710   5.863   4.340
 5538SOL    HW217514   4.674   5.729   4.426
 5539SOL     OW17515   2.779   3.338   0.626
 5539SOL    HW117516   2.690   3.294   0.617
 5539SOL    HW217517   2.819   3.316   0.715
 5540SOL     OW17518   5.354   4.687   2.459
 5540SOL    HW117519   5.317   4.597   2.436
 5540SOL    HW217520   5.334   4.708   2.555
 5541SOL     OW17521   4.546   1.352   5.465
 5541SOL    HW117522   4.514   1.362   5.560
 5541SOL    HW217523   4.497   1.276   5.422
 5542SOL     OW17524   4.529   4.402   6.096
 5542SOL    HW117525   4.558   4.391   6.191
 5542SOL    HW217526   4.482   4.490   6.085
 5543SOL     OW17527   6.439   2.619   5.814
 5543SOL    HW117528   6.534   2.633   5.789
 5543SOL    HW217529   6.434   2.579   5.906
 5544SOL     OW17530   5.696   1.076   5.937
 5544SOL    HW117531   5.730   1.091   5.844
 5544SOL    HW217532   5.605   1.034   5.932
 5545SOL     OW17533   2.890   2.226   2.287
 5545SOL    HW117534   2.817   2.158   2.283
 5545SOL    HW217535   2.914   2.254   2.194
 5546SOL     OW17536   1.786   4.886   5.881
 5546SOL    HW117537   1.795   4.801   5.934
 5546SOL    HW217538   1.773   4.863   5.785
 5547SOL     OW17539   3.784   5.786   4.725
 5547SOL    HW117540   3.709   5.780   4.791
 5547SOL    HW217541   3.834   5.700   4.723
 5548SOL     OW17542   6.294   3.412   5.542
 5548SOL    HW117543   6.310   3.415   5.641
 5548SOL    HW217544   6.342   3.334   5.503
 5549SOL     OW17545   2.530   4.759   6.864
 5549SOL    HW117546   2.517   4.834   6.930
 5549SOL    HW217547   2.472   4.682   6.888
 5550SOL     OW17548   4.553   6.164   1.402
 5550SOL    HW117549   4.504   6.215   1.331
 5550SOL    HW217550   4.575   6.225   1.478
 5551SOL     OW17551   0.385   1.333   2.934
 5551SOL    HW117552   0.327   1.308   3.012
 5551SOL    HW217553   0.460   1.269   2.927
 5552SOL     OW17554   0.193   2.541   1.994
 5552SOL    HW117555   0.174   2.586   2.081
 5552SOL    HW217556   0.265   2.591   1.946
 5553SOL     OW17557   4.749   6.002   0.447
 5553SOL    HW117558   4.745   6.095   0.484
 5553SOL    HW217559   4.813   5.999   0.370
 5554SOL     OW17560   2.962   2.068   4.538
 5554SOL    HW117561   2.980   2.059   4.636
 5554SOL    HW217562   3.018   2.002   4.488
 5555SOL     OW17563   0.268   5.886   2.725
 5555SOL    HW117564   0.273   5.787   2.723
 5555SOL    HW217565   0.360   5.925   2.717
 5556SOL     OW17566   0.406   1.118   4.813
 5556SOL    HW117567   0.390   1.032   4.861
 5556SOL    HW217568   0.381   1.195   4.872
 5557SOL     OW17569   2.318   0.165   3.758
 5557SOL    HW117570   2.296   0.118   3.843
 5557SOL    HW217571   2.324   0.099   3.684
 5558SOL     OW17572   5.341   2.797   4.909
 5558SOL    HW117573   5.268   2.834   4.967
 5558SOL    HW217574   5.373   2.710   4.947
 5559SOL     OW17575   2.198   0.603   1.307
 5559SOL    HW117576   2.119   0.622   1.250
 5559SOL    HW217577   2.172   0.542   1.382
 5560SOL     OW17578   0.293   0.595   4.429
 5560SOL    HW117579   0.273   0.624   4.523
 5560SOL    HW217580   0.210   0.606   4.373
 5561SOL     OW17581   1.466   3.433   3.740
 5561SOL    HW117582   1.390   3.378   3.772
 5561SOL    HW217583   1.528   3.376   3.686
 5562SOL     OW17584   2.483   2.527   5.720
 5562SOL    HW117585   2.544   2.456   5.755
 5562SOL    HW217586   2.525   2.616   5.735
 5563SOL     OW17587   4.354   5.669   1.511
 5563SOL    HW117588   4.440   5.657   1.561
 5563SOL    HW217589   4.331   5.767   1.508
 5564SOL     OW17590   5.696   4.374   1.693
 5564SOL    HW117591   5.703   4.426   1.608
 5564SOL    HW217592   5.601   4.350   1.710
 5565SOL     OW17593   3.159   3.616   5.610
 5565SOL    HW117594   3.221   3.607   5.688
 5565SOL    HW217595   3.095   3.691   5.628
 5566SOL     OW17596   2.086   4.852   1.232
 5566SOL    HW117597   2.037   4.891   1.311
 5566SOL    HW217598   2.100   4.754   1.247
 5567SOL     OW17599   1.504   5.554   2.149
 5567SOL    HW117600   1.459   5.615   2.084
 5567SOL    HW217601   1.442   5.533   2.224
 5568SOL     OW17602   3.289   2.339   1.540
 5568SOL    HW117603   3.307   2.248   1.501
 5568SOL    HW217604   3.190   2.354   1.545
 5569SOL     OW17605   5.643   1.701   0.030
 5569SOL    HW117606   5.737   1.703   7.025
 5569SOL    HW217607   5.584   1.747   6.991
 5570SOL     OW17608   6.652   4.471   6.085
 5570SOL    HW117609   6.624   4.518   6.001
 5570SOL    HW217610   6.597   4.503   6.161
 5571SOL     OW17611   6.845   4.729   5.958
 5571SOL    HW117612   6.859   4.760   6.053
 5571SOL    HW217613   6.751   4.695   5.948
 5572SOL     OW17614   5.085   2.718   5.592
 5572SOL    HW117615   5.008   2.689   5.649
 5572SOL    HW217616   5.157   2.757   5.650
 5573SOL     OW17617   1.000   4.207   0.435
 5573SOL    HW117618   1.082   4.150   0.447
 5573SOL    HW217619   1.009   4.291   0.488
 5574SOL     OW17620   0.282   5.875   4.743
 5574SOL    HW117621   0.195   5.831   4.722
 5574SOL    HW217622   0.333   5.891   4.659
 5575SOL     OW17623   2.065   1.163   1.018
 5575SOL    HW117624   2.075   1.093   0.947
 5575SOL    HW217625   1.995   1.229   0.989
 5576SOL     OW17626   5.956   6.142   6.326
 5576SOL    HW117627   5.977   6.199   6.405
 5576SOL    HW217628   5.990   6.049   6.343
 5577SOL     OW17629   2.112   3.867   5.443
 5577SOL    HW117630   2.041   3.924   5.402
 5577SOL    HW217631   2.187   3.856   5.377
 5578SOL     OW17632   4.126   2.343   6.089
 5578SOL    HW117633   4.127   2.441   6.106
 5578SOL    HW217634   4.104   2.325   5.993
 5579SOL     OW17635   5.061   5.243   0.526
 5579SOL    HW117636   5.129   5.310   0.497
 5579SOL    HW217637   5.073   5.159   0.473
 5580SOL     OW17638   5.813   1.369   0.918
 5580SOL    HW117639   5.803   1.374   0.819
 5580SOL    HW217640   5.728   1.399   0.962
 5581SOL     OW17641   2.869   2.497   6.992
 5581SOL    HW117642   2.890   2.541   0.052
 5581SOL    HW217643   2.775   2.463   6.994
 5582SOL     OW17644   3.839   3.387   3.644
 5582SOL    HW117645   3.764   3.354   3.586
 5582SOL    HW217646   3.838   3.487   3.647
 5583SOL     OW17647   3.996   0.659   0.632
 5583SOL    HW117648   3.989   0.590   0.560
 5583SOL    HW217649   3.914   0.658   0.688
 5584SOL     OW17650   6.000   2.973   3.298
 5584SOL    HW117651   6.065   2.976   3.374
 5584SOL    HW217652   5.955   3.062   3.288
 5585SOL     OW17653   6.430   6.958   4.209
 5585SOL    HW117654   6.385   0.019   4.215
 5585SOL    HW217655   6.403   6.902   4.288
 5586SOL     OW17656   2.126   1.030   6.392
 5586SOL    HW117657   2.153   1.110   6.339
 5586SOL    HW217658   2.163   0.947   6.348
 5587SOL     OW17659   3.532   6.927   3.917
 5587SOL    HW117660   3.525   6.983   3.835
 5587SOL    HW217661   3.441   6.897   3.946
 5588SOL     OW17662   4.121   0.338   6.140
 5588SOL    HW117663   4.087   0.262   6.195
 5588SOL    HW217664   4.207   0.312   6.096
 5589SOL     OW17665   3.702   3.175   6.375
 5589SOL    HW117666   3.658   3.125   6.300
 5589SOL    HW217667   3.776   3.232   6.338
 5590SOL     OW17668   7.006   6.792   3.211
 5590SOL    HW117669   0.059   6.816   3.264
 5590SOL    HW217670   6.964   6.710   3.248
 5591SOL     OW17671   5.175   0.855   0.052
 5591SOL    HW117672   5.235   0.918   0.102
 5591SOL    HW217673   5.085   0.853   0.095
 5592SOL     OW17674   2.006   1.752   2.662
 5592SOL    HW117675   2.071   1.686   2.700
 5592SOL    HW217676   1.979   1.817   2.733
 5593SOL     OW17677   1.548   3.297   5.142
 5593SOL    HW117678   1.525   3.366   5.072
 5593SOL    HW217679   1.644   3.270   5.132
 5594SOL     OW17680   3.117   0.557   6.637
 5594SOL    HW117681   3.025   0.593   6.625
 5594SOL    HW217682   3.112   0.463   6.672
 5595SOL     OW17683   0.262   1.412   4.877
 5595SOL    HW117684   0.199   1.375   4.945
 5595SOL    HW217685   0.320   1.481   4.921
 5596SOL     OW17686   4.913   1.761   2.884
 5596SOL    HW117687   4.996   1.817   2.893
 5596SOL    HW217688   4.857   1.771   2.966
 5597SOL     OW17689   0.164   1.229   6.109
 5597SOL    HW117690   0.193   1.217   6.014
 5597SOL    HW217691   0.168   1.141   6.157
 5598SOL     OW17692   6.791   2.421   4.112
 5598SOL    HW117693   6.812   2.479   4.033
 5598SOL    HW217694   6.694   2.398   4.112
 5599SOL     OW17695   4.719   2.844   3.340
 5599SOL    HW117696   4.673   2.774   3.395
 5599SOL    HW217697   4.683   2.842   3.247
 5600SOL     OW17698   2.506   1.414   2.185
 5600SOL    HW117699   2.440   1.423   2.110
 5600SOL    HW217700   2.543   1.322   2.186
 5601SOL     OW17701   5.994   2.762   5.615
 5601SOL    HW117702   5.982   2.684   5.553
 5601SOL    HW217703   6.085   2.757   5.657
 5602SOL     OW17704   6.678   2.426   2.935
 5602SOL    HW117705   6.778   2.428   2.936
 5602SOL    HW217706   6.645   2.432   2.841
 5603SOL     OW17707   4.469   0.980   5.444
 5603SOL    HW117708   4.494   0.950   5.352
 5603SOL    HW217709   4.420   0.906   5.491
 5604SOL     OW17710   1.077   0.187   3.916
 5604SOL    HW117711   1.101   0.122   3.844
 5604SOL    HW217712   1.147   0.258   3.922
 5605SOL     OW17713   4.522   6.397   4.480
 5605SOL    HW117714   4.585   6.320   4.469
 5605SOL    HW217715   4.435   6.375   4.436
 5606SOL     OW17716   4.658   2.810   0.366
 5606SOL    HW117717   4.605   2.855   0.294
 5606SOL    HW217718   4.599   2.791   0.444
 5607SOL     OW17719   6.308   2.346   2.810
 5607SOL    HW117720   6.310   2.446   2.800
 5607SOL    HW217721   6.370   2.305   2.743
 5608SOL     OW17722   4.896   0.687   3.380
 5608SOL    HW117723   4.933   0.779   3.393
 5608SOL    HW217724   4.969   0.625   3.355
 5609SOL     OW17725   0.115   0.379   0.650
 5609SOL    HW117726   0.065   0.333   0.724
 5609SOL    HW217727   0.056   0.383   0.569
 5610SOL     OW17728   5.007   5.003   1.468
 5610SOL    HW117729   4.974   5.094   1.442
 5610SOL    HW217730   4.930   4.943   1.486
 5611SOL     OW17731   6.274   5.162   1.783
 5611SOL    HW117732   6.216   5.098   1.732
 5611SOL    HW217733   6.295   5.124   1.873
 5612SOL     OW17734   3.662   1.604   0.939
 5612SOL    HW117735   3.694   1.659   1.016
 5612SOL    HW217736   3.672   1.507   0.961
 5613SOL     OW17737   5.434   4.572   6.066
 5613SOL    HW117738   5.411   4.578   6.163
 5613SOL    HW217739   5.380   4.638   6.015
 5614SOL     OW17740   5.176   3.655   3.863
 5614SOL    HW117741   5.130   3.590   3.923
 5614SOL    HW217742   5.113   3.684   3.791
 5615SOL     OW17743   6.918   2.279   3.238
 5615SOL    HW117744   6.986   2.268   3.166
 5615SOL    HW217745   6.919   2.198   3.298
 5616SOL     OW17746   1.508   3.119   2.331
 5616SOL    HW117747   1.579   3.053   2.356
 5616SOL    HW217748   1.418   3.082   2.355
 5617SOL     OW17749   1.841   5.074   6.079
 5617SOL    HW117750   1.859   5.018   5.998
 5617SOL    HW217751   1.767   5.032   6.132
 5618SOL     OW17752   5.669   6.609   2.469
 5618SOL    HW117753   5.669   6.671   2.391
 5618SOL    HW217754   5.635   6.519   2.440
 5619SOL     OW17755   3.888   2.998   3.512
 5619SOL    HW117756   3.823   2.948   3.455
 5619SOL    HW217757   3.901   2.950   3.599
 5620SOL     OW17758   4.923   4.201   4.804
 5620SOL    HW117759   4.923   4.103   4.823
 5620SOL    HW217760   4.936   4.216   4.706
 5621SOL     OW17761   0.863   2.129   6.063
 5621SOL    HW117762   0.928   2.130   6.139
 5621SOL    HW217763   0.867   2.217   6.015
 5622SOL     OW17764   4.688   6.024   3.752
 5622SOL    HW117765   4.778   5.992   3.725
 5622SOL    HW217766   4.691   6.122   3.773
 5623SOL     OW17767   4.993   5.287   4.240
 5623SOL    HW117768   4.951   5.375   4.261
 5623SOL    HW217769   4.922   5.219   4.222
 5624SOL     OW17770   5.691   5.174   3.229
 5624SOL    HW117771   5.771   5.223   3.262
 5624SOL    HW217772   5.651   5.223   3.152
 5625SOL     OW17773   1.676   6.061   5.646
 5625SOL    HW117774   1.670   5.986   5.580
 5625SOL    HW217775   1.762   6.053   5.697
 5626SOL     OW17776   1.042   4.860   6.399
 5626SOL    HW117777   1.093   4.803   6.334
 5626SOL    HW217778   0.967   4.906   6.351
 5627SOL     OW17779   0.742   5.456   0.145
 5627SOL    HW117780   0.838   5.433   0.155
 5627SOL    HW217781   0.710   5.428   0.054
 5628SOL     OW17782   2.874   3.191   0.827
 5628SOL    HW117783   2.804   3.120   0.824
 5628SOL    HW217784   2.881   3.228   0.920
 5629SOL     OW17785   5.742   3.335   2.565
 5629SOL    HW117786   5.769   3.379   2.480
 5629SOL    HW217787   5.747   3.235   2.555
 5630SOL     OW17788   1.080   3.977   6.435
 5630SOL    HW117789   1.156   3.924   6.398
 5630SOL    HW217790   1.087   4.071   6.402
 5631SOL     OW17791   3.645   1.841   2.120
 5631SOL    HW117792   3.664   1.853   2.022
 5631SOL    HW217793   3.617   1.929   2.159
 5632SOL     OW17794   5.031   0.044   5.740
 5632SOL    HW117795   5.082   7.026   5.667
 5632SOL    HW217796   5.026   0.142   5.721
 5633SOL     OW17797   0.838   4.671   5.261
 5633SOL    HW117798   0.897   4.747   5.234
 5633SOL    HW217799   0.889   4.608   5.319
 5634SOL     OW17800   2.369   0.381   1.208
 5634SOL    HW117801   2.446   0.445   1.209
 5634SOL    HW217802   2.285   0.428   1.235
 5635SOL     OW17803   2.749   0.451   0.758
 5635SOL    HW117804   2.724   0.357   0.782
 5635SOL    HW217805   2.831   0.478   0.808
 5636SOL     OW17806   5.435   1.385   5.629
 5636SOL    HW117807   5.346   1.430   5.636
 5636SOL    HW217808   5.444   1.344   5.538
 5637SOL     OW17809   5.013   6.551   4.514
 5637SOL    HW117810   5.096   6.573   4.565
 5637SOL    HW217811   4.963   6.477   4.560
 5638SOL     OW17812   6.173   5.143   1.148
 5638SOL    HW117813   6.112   5.164   1.071
 5638SOL    HW217814   6.266   5.172   1.125
 5639SOL     OW17815   2.189   0.457   1.559
 5639SOL    HW117816   2.131   0.399   1.616
 5639SOL    HW217817   2.224   0.533   1.613
 5640SOL     OW17818   3.020   6.603   2.779
 5640SOL    HW117819   3.007   6.624   2.682
 5640SOL    HW217820   2.985   6.512   2.800
 5641SOL     OW17821   0.204   4.485   4.063
 5641SOL    HW117822   0.186   4.438   3.976
 5641SOL    HW217823   0.253   4.423   4.125
 5642SOL     OW17824   1.626   4.126   0.027
 5642SOL    HW117825   1.612   4.224   0.021
 5642SOL    HW217826   1.603   4.083   6.968
 5643SOL     OW17827   4.703   2.179   5.267
 5643SOL    HW117828   4.623   2.123   5.286
 5643SOL    HW217829   4.786   2.124   5.276
 5644SOL     OW17830   4.438   1.229   4.655
 5644SOL    HW117831   4.456   1.325   4.676
 5644SOL    HW217832   4.364   1.196   4.714
 5645SOL     OW17833   6.146   5.809   4.049
 5645SOL    HW117834   6.201   5.864   3.987
 5645SOL    HW217835   6.049   5.826   4.031
 5646SOL     OW17836   0.410   5.860   4.472
 5646SOL    HW117837   0.413   5.924   4.395
 5646SOL    HW217838   0.330   5.800   4.461
 5647SOL     OW17839   5.555   5.104   6.274
 5647SOL    HW117840   5.501   5.184   6.300
 5647SOL    HW217841   5.587   5.114   6.180
 5648SOL     OW17842   2.114   1.650   5.197
 5648SOL    HW117843   2.133   1.746   5.219
 5648SOL    HW217844   2.198   1.596   5.206
 5649SOL     OW17845   0.839   0.751   5.587
 5649SOL    HW117846   0.886   0.781   5.504
 5649SOL    HW217847   0.904   0.703   5.646
 5650SOL     OW17848   6.491   4.763   0.073
 5650SOL    HW117849   6.419   4.799   0.014
 5650SOL    HW217850   6.512   4.669   0.047
 5651SOL     OW17851   6.387   1.171   2.760
 5651SOL    HW117852   6.397   1.256   2.709
 5651SOL    HW217853   6.290   1.150   2.773
 5652SOL     OW17854   4.794   4.843   0.423
 5652SOL    HW117855   4.862   4.774   0.444
 5652SOL    HW217856   4.722   4.803   0.367
 5653SOL     OW17857   1.937   6.405   6.207
 5653SOL    HW117858   1.949   6.409   6.108
 5653SOL    HW217859   1.854   6.354   6.229
 5654SOL     OW17860   0.806   6.005   5.706
 5654SOL    HW117861   0.775   6.098   5.687
 5654SOL    HW217862   0.904   5.998   5.686
 5655SOL     OW17863   6.989   3.489   3.621
 5655SOL    HW117864   6.986   3.501   3.522
 5655SOL    HW217865   6.896   3.491   3.658
 5656SOL     OW17866   3.126   4.541   0.070
 5656SOL    HW117867   3.180   4.463   0.101
 5656SOL    HW217868   3.185   4.608   0.025
 5657SOL     OW17869   4.230   6.038   2.063
 5657SOL    HW117870   4.171   6.117   2.045
 5657SOL    HW217871   4.174   5.959   2.085
 5658SOL     OW17872   4.769   6.755   5.626
 5658SOL    HW117873   4.681   6.797   5.647
 5658SOL    HW217874   4.795   6.778   5.532
 5659SOL     OW17875   3.699   3.538   2.872
 5659SOL    HW117876   3.780   3.485   2.849
 5659SOL    HW217877   3.685   3.610   2.804
 5660SOL     OW17878   5.793   6.473   0.902
 5660SOL    HW117879   5.715   6.412   0.891
 5660SOL    HW217880   5.778   6.556   0.847
 5661SOL     OW17881   6.271   5.780   4.557
 5661SOL    HW117882   6.366   5.763   4.579
 5661SOL    HW217883   6.263   5.809   4.462
 5662SOL     OW17884   2.474   4.472   4.528
 5662SOL    HW117885   2.529   4.545   4.488
 5662SOL    HW217886   2.482   4.476   4.628
 5663SOL     OW17887   1.010   4.015   0.069
 5663SOL    HW117888   0.931   4.022   0.008
 5663SOL    HW217889   1.080   4.080   0.040
 5664SOL     OW17890   0.381   4.896   2.771
 5664SOL    HW117891   0.421   4.959   2.704
 5664SOL    HW217892   0.318   4.833   2.724
 5665SOL     OW17893   2.325   2.563   6.175
 5665SOL    HW117894   2.400   2.530   6.233
 5665SOL    HW217895   2.250   2.496   6.176
 5666SOL     OW17896   5.863   5.519   0.456
 5666SOL    HW117897   5.802   5.500   0.534
 5666SOL    HW217898   5.831   5.601   0.408
 5667SOL     OW17899   0.144   5.193   3.512
 5667SOL    HW117900   0.080   5.230   3.579
 5667SOL    HW217901   0.236   5.230   3.530
 5668SOL     OW17902   6.138   2.437   5.718
 5668SOL    HW117903   6.107   2.345   5.694
 5668SOL    HW217904   6.235   2.448   5.695
 5669SOL     OW17905   6.690   3.390   6.187
 5669SOL    HW117906   6.598   3.427   6.181
 5669SOL    HW217907   6.757   3.464   6.173
 5670SOL     OW17908   0.820   4.295   3.910
 5670SOL    HW117909   0.851   4.380   3.868
 5670SOL    HW217910   0.899   4.241   3.940
 5671SOL     OW17911   1.807   1.401   6.065
 5671SOL    HW117912   1.828   1.307   6.038
 5671SOL    HW217913   1.830   1.463   5.990
 5672SOL     OW17914   5.287   5.134   5.701
 5672SOL    HW117915   5.237   5.093   5.625
 5672SOL    HW217916   5.366   5.078   5.724
 5673SOL     OW17917   0.847   0.733   2.272
 5673SOL    HW117918   0.888   0.781   2.194
 5673SOL    HW217919   0.751   0.715   2.252
 5674SOL     OW17920   6.834   3.400   1.555
 5674SOL    HW117921   6.811   3.359   1.643
 5674SOL    HW217922   6.932   3.387   1.537
 5675SOL     OW17923   4.144   2.437   5.597
 5675SOL    HW117924   4.166   2.452   5.501
 5675SOL    HW217925   4.218   2.471   5.654
 5676SOL     OW17926   3.123   0.507   1.600
 5676SOL    HW117927   3.182   0.441   1.554
 5676SOL    HW217928   3.052   0.538   1.537
 5677SOL     OW17929   6.807   0.433   4.184
 5677SOL    HW117930   6.857   0.421   4.270
 5677SOL    HW217931   6.757   0.520   4.187
 5678SOL     OW17932   1.697   5.540   3.161
 5678SOL    HW117933   1.741   5.595   3.090
 5678SOL    HW217934   1.758   5.466   3.188
 5679SOL     OW17935   1.797   6.119   5.120
 5679SOL    HW117936   1.822   6.171   5.201
 5679SOL    HW217937   1.853   6.147   5.043
 5680SOL     OW17938   2.435   6.746   6.679
 5680SOL    HW117939   2.418   6.678   6.751
 5680SOL    HW217940   2.438   6.837   6.720
 5681SOL     OW17941   1.161   3.332   0.280
 5681SOL    HW117942   1.246   3.339   0.333
 5681SOL    HW217943   1.170   3.387   0.197
 5682SOL     OW17944   1.143   3.538   4.618
 5682SOL    HW117945   1.092   3.493   4.545
 5682SOL    HW217946   1.238   3.507   4.617
 5683SOL     OW17947   3.561   2.546   5.358
 5683SOL    HW117948   3.628   2.618   5.338
 5683SOL    HW217949   3.473   2.588   5.381
 5684SOL     OW17950   3.151   4.012   3.654
 5684SOL    HW117951   3.229   4.059   3.695
 5684SOL    HW217952   3.144   4.037   3.557
 5685SOL     OW17953   0.153   5.388   1.994
 5685SOL    HW117954   0.078   5.356   1.937
 5685SOL    HW217955   0.237   5.339   1.970
 5686SOL     OW17956   3.503   6.651   6.624
 5686SOL    HW117957   3.523   6.640   6.721
 5686SOL    HW217958   3.409   6.683   6.613
 5687SOL     OW17959   5.194   5.523   5.939
 5687SOL    HW117960   5.189   5.572   5.852
 5687SOL    HW217961   5.179   5.425   5.923
 5688SOL     OW17962   5.673   1.932   1.285
 5688SOL    HW117963   5.701   1.969   1.373
 5688SOL    HW217964   5.747   1.944   1.219
 5689SOL     OW17965   3.468   2.675   0.649
 5689SOL    HW117966   3.428   2.699   0.738
 5689SOL    HW217967   3.455   2.577   0.633
 5690SOL     OW17968   4.841   6.518   1.238
 5690SOL    HW117969   4.828   6.545   1.334
 5690SOL    HW217970   4.827   6.420   1.228
 5691SOL     OW17971   1.116   0.351   1.822
 5691SOL    HW117972   1.036   0.397   1.863
 5691SOL    HW217973   1.199   0.388   1.863
 5692SOL     OW17974   5.791   2.776   6.272
 5692SOL    HW117975   5.717   2.780   6.204
 5692SOL    HW217976   5.826   2.868   6.287
 5693SOL     OW17977   4.694   2.777   3.059
 5693SOL    HW117978   4.786   2.772   3.021
 5693SOL    HW217979   4.661   2.686   3.080
 5694SOL     OW17980   0.140   1.850   4.006
 5694SOL    HW117981   0.175   1.877   4.096
 5694SOL    HW217982   0.165   1.755   3.988
 5695SOL     OW17983   1.821   3.166   3.407
 5695SOL    HW117984   1.886   3.109   3.357
 5695SOL    HW217985   1.859   3.258   3.418
 5696SOL     OW17986   3.153   0.435   5.579
 5696SOL    HW117987   3.080   0.367   5.569
 5696SOL    HW217988   3.228   0.413   5.516
 5697SOL     OW17989   6.214   2.933   6.953
 5697SOL    HW117990   6.215   2.994   0.005
 5697SOL    HW217991   6.137   2.957   6.894
 5698SOL     OW17992   0.449   3.723   1.950
 5698SOL    HW117993   0.506   3.744   2.029
 5698SOL    HW217994   0.352   3.732   1.975
 5699SOL     OW17995   6.137   0.838   5.069
 5699SOL    HW117996   6.083   0.901   5.124
 5699SOL    HW217997   6.150   0.876   4.977
 5700SOL     OW17998   1.579   5.539   3.630
 5700SOL    HW117999   1.592   5.512   3.535
 5700SOL    HW218000   1.631   5.478   3.690
 5701SOL     OW18001   6.096   5.617   1.163
 5701SOL    HW118002   6.056   5.563   1.236
 5701SOL    HW218003   6.050   5.595   1.076
 5702SOL     OW18004   2.013   0.661   6.506
 5702SOL    HW118005   1.974   0.569   6.508
 5702SOL    HW218006   2.005   0.703   6.596
 5703SOL     OW18007   4.225   4.401   0.808
 5703SOL    HW118008   4.183   4.434   0.723
 5703SOL    HW218009   4.191   4.310   0.829
 5704SOL     OW18010   3.581   5.185   3.425
 5704SOL    HW118011   3.560   5.262   3.485
 5704SOL    HW218012   3.603   5.220   3.333
 5705SOL     OW18013   6.280   0.909   1.891
 5705SOL    HW118014   6.361   0.875   1.843
 5705SOL    HW218015   6.220   0.956   1.827
 5706SOL     OW18016   1.490   1.364   6.848
 5706SOL    HW118017   1.410   1.419   6.872
 5706SOL    HW218018   1.548   1.415   6.785
 5707SOL     OW18019   2.629   2.190   0.531
 5707SOL    HW118020   2.543   2.215   0.486
 5707SOL    HW218021   2.706   2.217   0.474
 5708SOL     OW18022   5.243   6.550   1.677
 5708SOL    HW118023   5.258   6.583   1.584
 5708SOL    HW218024   5.322   6.497   1.707
 5709SOL     OW18025   1.631   0.455   2.872
 5709SOL    HW118026   1.672   0.467   2.781
 5709SOL    HW218027   1.613   0.544   2.912
 5710SOL     OW18028   2.885   3.699   6.394
 5710SOL    HW118029   2.809   3.725   6.453
 5710SOL    HW218030   2.949   3.775   6.387
 5711SOL     OW18031   4.109   1.024   3.690
 5711SOL    HW118032   4.204   1.028   3.718
 5711SOL    HW218033   4.054   1.084   3.748
 5712SOL     OW18034   0.030   6.081   6.340
 5712SOL    HW118035   0.113   6.027   6.327
 5712SOL    HW218036   6.979   6.020   6.349
 5713SOL     OW18037   6.598   2.191   2.630
 5713SOL    HW118038   6.670   2.145   2.579
 5713SOL    HW218039   6.570   2.133   2.707
 5714SOL     OW18040   1.271   0.933   6.193
 5714SOL    HW118041   1.230   1.015   6.232
 5714SOL    HW218042   1.296   0.870   6.267
 5715SOL     OW18043   1.129   6.252   3.218
 5715SOL    HW118044   1.145   6.200   3.302
 5715SOL    HW218045   1.071   6.331   3.238
 5716SOL     OW18046   2.169   3.363   6.193
 5716SOL    HW118047   2.200   3.384   6.100
 5716SOL    HW218048   2.140   3.447   6.238
 5717SOL     OW18049   1.095   3.924   0.663
 5717SOL    HW118050   1.155   4.003   0.677
 5717SOL    HW218051   1.127   3.847   0.717
 5718SOL     OW18052   2.528   4.472   5.578
 5718SOL    HW118053   2.486   4.555   5.616
 5718SOL    HW218054   2.561   4.492   5.485
 5719SOL     OW18055   3.526   1.056   6.648
 5719SOL    HW118056   3.439   1.058   6.698
 5719SOL    HW218057   3.600   1.035   6.711
 5720SOL     OW18058   0.982   4.831   4.809
 5720SOL    HW118059   1.046   4.760   4.840
 5720SOL    HW218060   1.033   4.914   4.785
 5721SOL     OW18061   0.561   4.211   1.451
 5721SOL    HW118062   0.542   4.296   1.402
 5721SOL    HW218063   0.485   4.147   1.439
 5722SOL     OW18064   5.615   0.035   4.367
 5722SOL    HW118065   5.627   0.134   4.370
 5722SOL    HW218066   5.695   7.018   4.408
 5723SOL     OW18067   2.651   5.284   0.955
 5723SOL    HW118068   2.564   5.306   0.999
 5723SOL    HW218069   2.715   5.248   1.023
 5724SOL     OW18070   5.204   1.676   6.639
 5724SOL    HW118071   5.261   1.706   6.716
 5724SOL    HW218072   5.262   1.637   6.568
 5725SOL     OW18073   5.148   5.447   6.228
 5725SOL    HW118074   5.167   5.443   6.130
 5725SOL    HW218075   5.219   5.499   6.274
 5726SOL     OW18076   5.377   3.467   6.160
 5726SOL    HW118077   5.330   3.488   6.074
 5726SOL    HW218078   5.370   3.369   6.178
 5727SOL     OW18079   6.165   1.995   3.523
 5727SOL    HW118080   6.151   2.075   3.465
 5727SOL    HW218081   6.091   1.989   3.590
 5728SOL     OW18082   6.104   0.696   5.679
 5728SOL    HW118083   6.043   0.717   5.756
 5728SOL    HW218084   6.199   0.704   5.708
 5729SOL     OW18085   0.526   2.298   6.300
 5729SOL    HW118086   0.541   2.261   6.392
 5729SOL    HW218087   0.581   2.246   6.234
 5730SOL     OW18088   5.387   4.601   5.601
 5730SOL    HW118089   5.325   4.537   5.647
 5730SOL    HW218090   5.472   4.553   5.576
 5731SOL     OW18091   3.488   0.743   3.834
 5731SOL    HW118092   3.569   0.685   3.828
 5731SOL    HW218093   3.497   0.819   3.769
 5732SOL     OW18094   5.706   4.518   4.635
 5732SOL    HW118095   5.744   4.565   4.715
 5732SOL    HW218096   5.713   4.577   4.555
 5733SOL     OW18097   3.463   1.409   0.351
 5733SOL    HW118098   3.429   1.327   0.305
 5733SOL    HW218099   3.503   1.383   0.439
 5734SOL     OW18100   2.398   6.487   5.765
 5734SOL    HW118101   2.483   6.530   5.735
 5734SOL    HW218102   2.418   6.416   5.833
 5735SOL     OW18103   4.403   0.756   1.885
 5735SOL    HW118104   4.425   0.835   1.942
 5735SOL    HW218105   4.455   0.677   1.916
 5736SOL     OW18106   4.860   4.329   6.727
 5736SOL    HW118107   4.956   4.305   6.713
 5736SOL    HW218108   4.838   4.410   6.673
 5737SOL     OW18109   4.052   5.425   0.892
 5737SOL    HW118110   4.143   5.466   0.884
 5737SOL    HW218111   4.000   5.473   0.963
 5738SOL     OW18112   3.375   1.360   6.549
 5738SOL    HW118113   3.354   1.302   6.628
 5738SOL    HW218114   3.298   1.359   6.485
 5739SOL     OW18115   2.141   0.485   5.692
 5739SOL    HW118116   2.202   0.409   5.669
 5739SOL    HW218117   2.074   0.496   5.619
 5740SOL     OW18118   5.336   3.098   2.013
 5740SOL    HW118119   5.313   3.107   2.109
 5740SOL    HW218120   5.261   3.133   1.957
 5741SOL     OW18121   0.297   3.472   4.518
 5741SOL    HW118122   0.306   3.376   4.493
 5741SOL    HW218123   0.281   3.480   4.616
 5742SOL     OW18124   5.024   0.338   3.584
 5742SOL    HW118125   5.085   0.411   3.613
 5742SOL    HW218126   5.064   0.289   3.507
 5743SOL     OW18127   3.986   3.935   5.592
 5743SOL    HW118128   3.915   3.865   5.596
 5743SOL    HW218129   3.991   3.973   5.500
 5744SOL     OW18130   6.092   6.493   2.360
 5744SOL    HW118131   6.005   6.447   2.342
 5744SOL    HW218132   6.135   6.519   2.273
 5745SOL     OW18133   1.856   2.177   2.656
 5745SOL    HW118134   1.927   2.124   2.610
 5745SOL    HW218135   1.896   2.230   2.730
 5746SOL     OW18136   4.376   0.375   3.239
 5746SOL    HW118137   4.423   0.460   3.262
 5746SOL    HW218138   4.433   0.321   3.176
 5747SOL     OW18139   0.650   6.367   1.326
 5747SOL    HW118140   0.599   6.364   1.412
 5747SOL    HW218141   0.603   6.312   1.258
 5748SOL     OW18142   0.544   5.824   0.621
 5748SOL    HW118143   0.521   5.915   0.587
 5748SOL    HW218144   0.628   5.792   0.577
 5749SOL     OW18145   1.966   5.974   5.376
 5749SOL    HW118146   1.949   5.962   5.278
 5749SOL    HW218147   1.949   6.069   5.402
 5750SOL     OW18148   6.444   4.499   4.109
 5750SOL    HW118149   6.413   4.593   4.097
 5750SOL    HW218150   6.365   4.438   4.114
 5751SOL     OW18151   2.068   3.773   4.409
 5751SOL    HW118152   2.111   3.701   4.464
 5751SOL    HW218153   2.040   3.848   4.468
 5752SOL     OW18154   5.082   0.586   0.680
 5752SOL    HW118155   5.049   0.491   0.685
 5752SOL    HW218156   5.080   0.626   0.772
 5753SOL     OW18157   3.095   3.991   4.737
 5753SOL    HW118158   3.148   4.068   4.703
 5753SOL    HW218159   3.041   3.952   4.663
 5754SOL     OW18160   0.883   6.140   1.513
 5754SOL    HW118161   0.976   6.114   1.540
 5754SOL    HW218162   0.868   6.114   1.418
 5755SOL     OW18163   1.635   2.543   6.905
 5755SOL    HW118164   1.634   2.559   7.004
 5755SOL    HW218165   1.564   2.599   6.861
 5756SOL     OW18166   5.707   5.783   1.362
 5756SOL    HW118167   5.786   5.822   1.410
 5756SOL    HW218168   5.724   5.783   1.263
 5757SOL     OW18169   6.307   6.985   3.959
 5757SOL    HW118170   6.300   6.978   3.860
 5757SOL    HW218171   6.365   6.911   3.993
 5758SOL     OW18172   0.469   0.506   2.773
 5758SOL    HW118173   0.477   0.421   2.721
 5758SOL    HW218174   0.377   0.543   2.763
 5759SOL     OW18175   3.423   0.194   0.788
 5759SOL    HW118176   3.435   0.137   0.706
 5759SOL    HW218177   3.472   0.281   0.775
 5760SOL     OW18178   0.418   3.122   1.443
 5760SOL    HW118179   0.335   3.163   1.404
 5760SOL    HW218180   0.394   3.038   1.491
 5761SOL     OW18181   5.509   5.883   5.497
 5761SOL    HW118182   5.493   5.829   5.579
 5761SOL    HW218183   5.545   5.824   5.425
 5762SOL     OW18184   5.798   4.836   6.556
 5762SOL    HW118185   5.774   4.908   6.491
 5762SOL    HW218186   5.896   4.818   6.551
 5763SOL     OW18187   5.327   0.416   0.265
 5763SOL    HW118188   5.405   0.389   0.321
 5763SOL    HW218189   5.293   0.336   0.215
 5764SOL     OW18190   4.011   5.966   3.916
 5764SOL    HW118191   4.001   6.050   3.863
 5764SOL    HW218192   4.059   5.897   3.861
 5765SOL     OW18193   6.377   5.597   1.214
 5765SOL    HW118194   6.392   5.542   1.296
 5765SOL    HW218195   6.285   5.581   1.179
 5766SOL     OW18196   0.853   2.053   4.314
 5766SOL    HW118197   0.809   2.099   4.391
 5766SOL    HW218198   0.862   2.118   4.238
 5767SOL     OW18199   2.552   0.631   0.727
 5767SOL    HW118200   2.465   0.583   0.722
 5767SOL    HW218201   2.627   0.565   0.737
 5768SOL     OW18202   0.421   6.609   4.869
 5768SOL    HW118203   0.379   6.560   4.945
 5768SOL    HW218204   0.352   6.633   4.801
 5769SOL     OW18205   1.523   5.057   6.222
 5769SOL    HW118206   1.535   5.033   6.126
 5769SOL    HW218207   1.576   4.994   6.279
 5770SOL     OW18208   2.149   4.913   1.655
 5770SOL    HW118209   2.155   4.828   1.708
 5770SOL    HW218210   2.074   4.907   1.589
 5771SOL     OW18211   2.315   5.327   4.152
 5771SOL    HW118212   2.352   5.237   4.129
 5771SOL    HW218213   2.250   5.356   4.081
 5772SOL     OW18214   4.391   0.475   1.934
 5772SOL    HW118215   4.394   0.376   1.952
 5772SOL    HW218216   4.453   0.496   1.858
 5773SOL     OW18217   4.263   2.241   2.470
 5773SOL    HW118218   4.307   2.152   2.463
 5773SOL    HW218219   4.186   2.246   2.406
 5774SOL     OW18220   0.076   6.165   3.366
 5774SOL    HW118221   0.167   6.207   3.366
 5774SOL    HW218222   0.080   6.077   3.413
 5775SOL     OW18223   0.152   5.729   2.077
 5775SOL    HW118224   0.083   5.742   2.005
 5775SOL    HW218225   0.120   5.659   2.140
 5776SOL     OW18226   2.222   0.405   3.265
 5776SOL    HW118227   2.300   0.427   3.324
 5776SOL    HW218228   2.200   0.483   3.208
 5777SOL     OW18229   1.820   0.087   3.317
 5777SOL    HW118230   1.871   0.022   3.374
 5777SOL    HW218231   1.869   0.174   3.313
 5778SOL     OW18232   0.961   1.547   6.909
 5778SOL    HW118233   0.957   1.508   7.002
 5778SOL    HW218234   1.051   1.589   6.895
 5779SOL     OW18235   5.692   2.647   6.640
 5779SOL    HW118236   5.671   2.744   6.637
 5779SOL    HW218237   5.672   2.611   6.731
 5780SOL     OW18238   5.384   5.341   3.456
 5780SOL    HW118239   5.335   5.327   3.542
 5780SOL    HW218240   5.482   5.345   3.475
 5781SOL     OW18241   0.376   3.720   5.740
 5781SOL    HW118242   0.424   3.651   5.686
 5781SOL    HW218243   0.412   3.811   5.718
 5782SOL     OW18244   0.337   1.311   0.623
 5782SOL    HW118245   0.266   1.344   0.685
 5782SOL    HW218246   0.295   1.258   0.549
 5783SOL     OW18247   2.105   1.724   1.734
 5783SOL    HW118248   2.202   1.706   1.749
 5783SOL    HW218249   2.061   1.640   1.702
 5784SOL     OW18250   0.470   6.319   6.726
 5784SOL    HW118251   0.448   6.391   6.660
 5784SOL    HW218252   0.546   6.349   6.784
 5785SOL     OW18253   1.829   1.507   1.204
 5785SOL    HW118254   1.856   1.463   1.290
 5785SOL    HW218255   1.798   1.601   1.223
 5786SOL     OW18256   0.153   3.722   0.705
 5786SOL    HW118257   0.189   3.660   0.775
 5786SOL    HW218258   0.229   3.758   0.650
 5787SOL     OW18259   3.060   1.711   5.854
 5787SOL    HW118260   3.122   1.650   5.803
 5787SOL    HW218261   3.009   1.768   5.789
 5788SOL     OW18262   2.673   0.700   2.949
 5788SOL    HW118263   2.667   0.696   2.849
 5788SOL    HW218264   2.768   0.684   2.977
 5789SOL     OW18265   4.248   4.954   6.014
 5789SOL    HW118266   4.274   5.004   6.096
 5789SOL    HW218267   4.317   4.884   5.994
 5790SOL     OW18268   0.687   2.828   3.904
 5790SOL    HW118269   0.717   2.735   3.928
 5790SOL    HW218270   0.598   2.847   3.946
 5791SOL     OW18271   2.744   0.214   2.564
 5791SOL    HW118272   2.779   0.218   2.470
 5791SOL    HW218273   2.798   0.148   2.617
 5792SOL     OW18274   6.862   2.144   2.972
 5792SOL    HW118275   6.901   2.214   2.913
 5792SOL    HW218276   6.767   2.168   2.994
 5793SOL     OW18277   6.423   1.466   3.908
 5793SOL    HW118278   6.514   1.445   3.873
 5793SOL    HW218279   6.362   1.490   3.831
 5794SOL     OW18280   3.467   3.669   6.817
 5794SOL    HW118281   3.537   3.609   6.854
 5794SOL    HW218282   3.509   3.746   6.769
 5795SOL     OW18283   5.826   4.374   5.822
 5795SOL    HW118284   5.781   4.360   5.910
 5795SOL    HW218285   5.884   4.455   5.827
 5796SOL     OW18286   3.611   1.897   6.855
 5796SOL    HW118287   3.604   1.997   6.855
 5796SOL    HW218288   3.535   1.859   6.908
 5797SOL     OW18289   3.442   2.043   4.624
 5797SOL    HW118290   3.385   2.064   4.704
 5797SOL    HW218291   3.538   2.062   4.646
 5798SOL     OW18292   6.767   4.614   4.982
 5798SOL    HW118293   6.853   4.615   4.931
 5798SOL    HW218294   6.695   4.656   4.927
 5799SOL     OW18295   5.104   6.848   3.162
 5799SOL    HW118296   5.187   6.793   3.152
 5799SOL    HW218297   5.112   6.930   3.105
 5800SOL     OW18298   5.691   4.481   1.054
 5800SOL    HW118299   5.603   4.435   1.066
 5800SOL    HW218300   5.697   4.558   1.118
 5801SOL     OW18301   0.863   0.590   3.335
 5801SOL    HW118302   0.834   0.525   3.405
 5801SOL    HW218303   0.796   0.589   3.260
 5802SOL     OW18304   0.145   3.873   6.050
 5802SOL    HW118305   0.071   3.806   6.040
 5802SOL    HW218306   0.233   3.828   6.032
 5803SOL     OW18307   1.197   4.760   0.754
 5803SOL    HW118308   1.103   4.783   0.779
 5803SOL    HW218309   1.218   4.800   0.665
 5804SOL     OW18310   5.977   4.336   4.278
 5804SOL    HW118311   6.005   4.240   4.289
 5804SOL    HW218312   5.877   4.342   4.277
 5805SOL     OW18313   4.623   3.897   6.438
 5805SOL    HW118314   4.720   3.887   6.460
 5805SOL    HW218315   4.569   3.835   6.495
 5806SOL     OW18316   0.791   6.161   6.992
 5806SOL    HW118317   0.810   6.218   6.912
 5806SOL    HW218318   0.873   6.109   7.015
 5807SOL     OW18319   1.456   3.457   1.007
 5807SOL    HW118320   1.543   3.499   0.981
 5807SOL    HW218321   1.419   3.503   1.088
 5808SOL     OW18322   5.766   4.525   2.175
 5808SOL    HW118323   5.704   4.463   2.129
 5808SOL    HW218324   5.713   4.588   2.233
 5809SOL     OW18325   7.017   2.996   4.437
 5809SOL    HW118326   6.980   3.088   4.430
 5809SOL    HW218327   6.944   2.933   4.464
 5810SOL     OW18328   3.244   1.411   3.698
 5810SOL    HW118329   3.226   1.462   3.614
 5810SOL    HW218330   3.196   1.453   3.775
 5811SOL     OW18331   2.703   0.321   4.706
 5811SOL    HW118332   2.802   0.319   4.717
 5811SOL    HW218333   2.664   0.389   4.769
 5812SOL     OW18334   4.693   0.210   2.827
 5812SOL    HW118335   4.700   0.110   2.831
 5812SOL    HW218336   4.780   0.248   2.797
 5813SOL     OW18337   1.283   0.909   5.502
 5813SOL    HW118338   1.260   0.903   5.599
 5813SOL    HW218339   1.377   0.878   5.489
 5814SOL     OW18340   0.116   5.087   1.119
 5814SOL    HW118341   0.113   5.092   1.219
 5814SOL    HW218342   0.023   5.093   1.082
 5815SOL     OW18343   3.940   2.078   3.058
 5815SOL    HW118344   3.932   2.098   2.960
 5815SOL    HW218345   3.854   2.101   3.104
 5816SOL     OW18346   4.649   0.087   7.012
 5816SOL    HW118347   4.633   0.134   0.071
 5816SOL    HW218348   4.660   0.155   6.939
 5817SOL     OW18349   5.198   3.259   5.871
 5817SOL    HW118350   5.159   3.317   5.943
 5817SOL    HW218351   5.126   3.225   5.812
 5818SOL     OW18352   5.850   6.929   5.825
 5818SOL    HW118353   5.792   6.867   5.877
 5818SOL    HW218354   5.830   6.919   5.727
 5819SOL     OW18355   5.731   0.511   0.854
 5819SOL    HW118356   5.817   0.461   0.859
 5819SOL    HW218357   5.678   0.496   0.937
 5820SOL     OW18358   4.747   6.746   3.466
 5820SOL    HW118359   4.672   6.748   3.401
 5820SOL    HW218360   4.795   6.834   3.465
 5821SOL     OW18361   3.012   0.529   1.867
 5821SOL    HW118362   2.955   0.465   1.918
 5821SOL    HW218363   3.028   0.493   1.775
 5822SOL     OW18364   0.869   2.235   2.074
 5822SOL    HW118365   0.801   2.292   2.119
 5822SOL    HW218366   0.863   2.141   2.109
 5823SOL     OW18367   1.670   1.365   5.012
 5823SOL    HW118368   1.714   1.313   5.086
 5823SOL    HW218369   1.662   1.461   5.039
 5824SOL     OW18370   6.613   6.762   3.325
 5824SOL    HW118371   6.665   6.779   3.408
 5824SOL    HW218372   6.614   6.664   3.304
 5825SOL     OW18373   2.116   0.959   6.897
 5825SOL    HW118374   2.143   1.055   6.886
 5825SOL    HW218375   2.165   0.920   6.975
 5826SOL     OW18376   6.298   6.109   4.847
 5826SOL    HW118377   6.304   6.197   4.894
 5826SOL    HW218378   6.390   6.073   4.832
 5827SOL     OW18379   0.483   5.579   4.779
 5827SOL    HW118380   0.421   5.514   4.734
 5827SOL    HW218381   0.434   5.664   4.798
 5828SOL     OW18382   0.531   3.803   2.417
 5828SOL    HW118383   0.463   3.874   2.439
 5828SOL    HW218384   0.598   3.797   2.491
 5829SOL     OW18385   2.826   1.217   1.908
 5829SOL    HW118386   2.919   1.244   1.885
 5829SOL    HW218387   2.803   1.251   1.999
 5830SOL     OW18388   3.649   0.817   5.692
 5830SOL    HW118389   3.584   0.839   5.620
 5830SOL    HW218390   3.611   0.747   5.752
 5831SOL     OW18391   5.855   6.421   2.950
 5831SOL    HW118392   5.829   6.475   2.870
 5831SOL    HW218393   5.931   6.467   2.997
 5832SOL     OW18394   4.160   3.849   5.222
 5832SOL    HW118395   4.187   3.942   5.198
 5832SOL    HW218396   4.237   3.802   5.267
 5833SOL     OW18397   2.917   3.356   3.996
 5833SOL    HW118398   2.917   3.322   4.090
 5833SOL    HW218399   2.948   3.283   3.935
 5834SOL     OW18400   5.533   2.092   0.746
 5834SOL    HW118401   5.601   2.157   0.780
 5834SOL    HW218402   5.502   2.122   0.656
 5835SOL     OW18403   4.859   2.372   3.365
 5835SOL    HW118404   4.955   2.384   3.338
 5835SOL    HW218405   4.853   2.366   3.465
 5836SOL     OW18406   3.136   6.279   2.419
 5836SOL    HW118407   3.170   6.324   2.502
 5836SOL    HW218408   3.133   6.180   2.434
 5837SOL     OW18409   4.699   4.226   0.337
 5837SOL    HW118410   4.728   4.296   0.403
 5837SOL    HW218411   4.778   4.173   0.307
 5838SOL     OW18412   1.286   1.724   5.800
 5838SOL    HW118413   1.329   1.755   5.885
 5838SOL    HW218414   1.356   1.712   5.730
 5839SOL     OW18415   6.891   3.750   2.706
 5839SOL    HW118416   6.906   3.714   2.798
 5839SOL    HW218417   6.906   3.678   2.639
 5840SOL     OW18418   1.705   5.789   6.780
 5840SOL    HW118419   1.798   5.775   6.815
 5840SOL    HW218420   1.659   5.859   6.835
 5841SOL     OW18421   6.368   3.140   3.903
 5841SOL    HW118422   6.283   3.178   3.939
 5841SOL    HW218423   6.382   3.048   3.941
 5842SOL     OW18424   3.936   3.178   0.672
 5842SOL    HW118425   4.029   3.167   0.636
 5842SOL    HW218426   3.874   3.115   0.625
 5843SOL     OW18427   1.837   2.862   2.712
 5843SOL    HW118428   1.872   2.918   2.787
 5843SOL    HW218429   1.803   2.922   2.639
 5844SOL     OW18430   0.245   5.880   6.311
 5844SOL    HW118431   0.239   5.849   6.217
 5844SOL    HW218432   0.338   5.866   6.346
 5845SOL     OW18433   1.127   2.370   3.830
 5845SOL    HW118434   1.128   2.459   3.875
 5845SOL    HW218435   1.053   2.368   3.762
 5846SOL     OW18436   6.880   2.775   5.478
 5846SOL    HW118437   6.937   2.834   5.534
 5846SOL    HW218438   6.790   2.817   5.466
 5847SOL     OW18439   2.227   2.133   2.537
 5847SOL    HW118440   2.244   2.062   2.606
 5847SOL    HW218441   2.142   2.114   2.489
 5848SOL     OW18442   1.925   4.711   3.213
 5848SOL    HW118443   1.873   4.651   3.152
 5848SOL    HW218444   1.977   4.656   3.278
 5849SOL     OW18445   1.410   0.414   5.860
 5849SOL    HW118446   1.453   0.350   5.923
 5849SOL    HW218447   1.358   0.364   5.791
 5850SOL     OW18448   1.546   4.473   2.251
 5850SOL    HW118449   1.643   4.499   2.249
 5850SOL    HW218450   1.519   4.455   2.345
 5851SOL     OW18451   6.372   4.399   2.458
 5851SOL    HW118452   6.303   4.468   2.437
 5851SOL    HW218453   6.344   4.347   2.539
 5852SOL     OW18454   4.127   5.895   2.688
 5852SOL    HW118455   4.094   5.929   2.776
 5852SOL    HW218456   4.227   5.895   2.688
 5853SOL     OW18457   3.405   4.667   5.914
 5853SOL    HW118458   3.359   4.721   5.985
 5853SOL    HW218459   3.377   4.699   5.824
 5854SOL     OW18460   6.892   1.998   5.663
 5854SOL    HW118461   6.803   1.967   5.628
 5854SOL    HW218462   6.919   2.080   5.614
 5855SOL     OW18463   1.409   0.890   4.595
 5855SOL    HW118464   1.324   0.865   4.548
 5855SOL    HW218465   1.387   0.949   4.673
 5856SOL     OW18466   2.464   5.192   3.234
 5856SOL    HW118467   2.528   5.123   3.268
 5856SOL    HW218468   2.463   5.271   3.296
 5857SOL     OW18469   6.643   2.311   4.819
 5857SOL    HW118470   6.545   2.294   4.830
 5857SOL    HW218471   6.667   2.309   4.722
 5858SOL     OW18472   3.062   0.995   2.623
 5858SOL    HW118473   3.055   0.931   2.546
 5858SOL    HW218474   3.114   0.952   2.697
 5859SOL     OW18475   6.624   6.618   0.828
 5859SOL    HW118476   6.622   6.684   0.904
 5859SOL    HW218477   6.595   6.529   0.861
 5860SOL     OW18478   1.585   4.319   1.715
 5860SOL    HW118479   1.515   4.386   1.739
 5860SOL    HW218480   1.576   4.295   1.618
 5861SOL     OW18481   5.433   2.490   3.996
 5861SOL    HW118482   5.487   2.406   3.991
 5861SOL    HW218483   5.494   2.569   3.987
 5862SOL     OW18484   4.061   5.146   2.728
 5862SOL    HW118485   4.139   5.153   2.665
 5862SOL    HW218486   4.075   5.069   2.789
 5863SOL     OW18487   1.925   1.049   6.176
 5863SOL    HW118488   1.988   1.088   6.242
 5863SOL    HW218489   1.841   1.020   6.222
 5864SOL     OW18490   4.249   4.247   1.621
 5864SOL    HW118491   4.309   4.279   1.548
 5864SOL    HW218492   4.300   4.245   1.707
 5865SOL     OW18493   5.010   0.928   3.370
 5865SOL    HW118494   5.059   0.981   3.439
 5865SOL    HW218495   5.066   0.921   3.288
 5866SOL     OW18496   4.206   6.783   5.361
 5866SOL    HW118497   4.230   6.686   5.372
 5866SOL    HW218498   4.168   6.817   5.446
 5867SOL     OW18499   0.671   2.771   1.678
 5867SOL    HW118500   0.581   2.813   1.665
 5867SOL    HW218501   0.737   2.841   1.704
 5868SOL     OW18502   1.591   0.266   5.543
 5868SOL    HW118503   1.602   0.241   5.447
 5868SOL    HW218504   1.565   0.362   5.550
 5869SOL     OW18505   2.685   4.658   4.755
 5869SOL    HW118506   2.613   4.589   4.759
 5869SOL    HW218507   2.736   4.658   4.841
 5870SOL     OW18508   5.267   5.213   4.065
 5870SOL    HW118509   5.170   5.196   4.078
 5870SOL    HW218510   5.316   5.198   4.151
 5871SOL     OW18511   3.627   3.054   6.992
 5871SOL    HW118512   3.693   3.104   0.021
 5871SOL    HW218513   3.545   3.035   0.017
 5872SOL     OW18514   4.274   5.990   5.924
 5872SOL    HW118515   4.341   5.929   5.966
 5872SOL    HW218516   4.212   6.026   5.994
 5873SOL     OW18517   2.792   3.067   0.442
 5873SOL    HW118518   2.749   3.040   0.356
 5873SOL    HW218519   2.723   3.102   0.504
 5874SOL     OW18520   2.341   3.721   1.716
 5874SOL    HW118521   2.327   3.642   1.776
 5874SOL    HW218522   2.265   3.785   1.727
 5875SOL     OW18523   3.488   2.372   0.026
 5875SOL    HW118524   3.539   2.456   0.043
 5875SOL    HW218525   3.427   2.385   6.976
 5876SOL     OW18526   2.992   3.469   6.679
 5876SOL    HW118527   3.003   3.462   6.778
 5876SOL    HW218528   3.063   3.530   6.642
 5877SOL     OW18529   6.458   0.569   1.671
 5877SOL    HW118530   6.503   0.516   1.743
 5877SOL    HW218531   6.476   0.666   1.686
 5878SOL     OW18532   4.418   5.311   2.115
 5878SOL    HW118533   4.485   5.246   2.081
 5878SOL    HW218534   4.463   5.397   2.139
 5879SOL     OW18535   3.037   3.297   6.482
 5879SOL    HW118536   3.024   3.211   6.531
 5879SOL    HW218537   3.024   3.374   6.545
 5880SOL     OW18538   5.018   3.882   5.711
 5880SOL    HW118539   5.088   3.940   5.753
 5880SOL    HW218540   5.061   3.800   5.673
 5881SOL     OW18541   0.961   6.368   2.268
 5881SOL    HW118542   0.866   6.396   2.257
 5881SOL    HW218543   1.018   6.449   2.286
 5882SOL     OW18544   1.659   6.325   5.550
 5882SOL    HW118545   1.636   6.234   5.583
 5882SOL    HW218546   1.593   6.354   5.481
 5883SOL     OW18547   0.480   3.810   0.732
 5883SOL    HW118548   0.561   3.867   0.743
 5883SOL    HW218549   0.479   3.738   0.801
 5884SOL     OW18550   5.901   1.713   3.613
 5884SOL    HW118551   5.831   1.780   3.587
 5884SOL    HW218552   5.965   1.755   3.677
 5885SOL     OW18553   0.175   5.386   0.289
 5885SOL    HW118554   0.123   5.430   0.216
 5885SOL    HW218555   0.150   5.425   0.377
 5886SOL     OW18556   1.336   4.107   3.626
 5886SOL    HW118557   1.253   4.051   3.625
 5886SOL    HW218558   1.395   4.078   3.701
 5887SOL     OW18559   2.163   2.854   1.154
 5887SOL    HW118560   2.064   2.869   1.151
 5887SOL    HW218561   2.191   2.837   1.248
 5888SOL     OW18562   3.008   6.350   1.408
 5888SOL    HW118563   3.080   6.316   1.469
 5888SOL    HW218564   2.963   6.428   1.451
 5889SOL     OW18565   6.926   0.443   1.010
 5889SOL    HW118566   6.938   0.450   1.109
 5889SOL    HW218567   6.830   0.459   0.988
 5890SOL     OW18568   2.708   6.687   2.318
 5890SOL    HW118569   2.625   6.656   2.271
 5890SOL    HW218570   2.779   6.707   2.250
 5891SOL     OW18571   2.490   3.725   0.576
 5891SOL    HW118572   2.470   3.627   0.575
 5891SOL    HW218573   2.465   3.765   0.488
 5892SOL     OW18574   0.768   3.324   0.921
 5892SOL    HW118575   0.820   3.241   0.902
 5892SOL    HW218576   0.693   3.302   0.983
 5893SOL     OW18577   0.850   5.776   1.709
 5893SOL    HW118578   0.941   5.817   1.710
 5893SOL    HW218579   0.805   5.791   1.797
 5894SOL     OW18580   1.967   5.663   5.628
 5894SOL    HW118581   1.925   5.575   5.607
 5894SOL    HW218582   1.956   5.683   5.725
 5895SOL     OW18583   5.564   3.011   4.337
 5895SOL    HW118584   5.582   3.085   4.402
 5895SOL    HW218585   5.578   3.045   4.244
 5896SOL     OW18586   6.053   2.171   1.480
 5896SOL    HW118587   6.147   2.141   1.463
 5896SOL    HW218588   6.050   2.225   1.563
 5897SOL     OW18589   4.736   1.744   0.670
 5897SOL    HW118590   4.700   1.815   0.731
 5897SOL    HW218591   4.835   1.757   0.659
 5898SOL     OW18592   1.816   1.716   5.354
 5898SOL    HW118593   1.874   1.784   5.308
 5898SOL    HW218594   1.765   1.761   5.427
 5899SOL     OW18595   0.160   5.148   5.746
 5899SOL    HW118596   0.202   5.060   5.765
 5899SOL    HW218597   0.117   5.184   5.829
 5900SOL     OW18598   6.179   6.201   3.271
 5900SOL    HW118599   6.192   6.114   3.319
 5900SOL    HW218600   6.108   6.190   3.201
 5901SOL     OW18601   2.041   6.919   6.066
 5901SOL    HW118602   2.109   6.992   6.059
 5901SOL    HW218603   2.057   6.867   6.151
 5902SOL     OW18604   5.170   4.069   5.316
 5902SOL    HW118605   5.270   4.075   5.314
 5902SOL    HW218606   5.142   3.984   5.271
 5903SOL     OW18607   6.033   1.714   6.487
 5903SOL    HW118608   6.009   1.650   6.560
 5903SOL    HW218609   6.100   1.780   6.522
 5904SOL     OW18610   1.940   4.424   2.770
 5904SOL    HW118611   2.021   4.481   2.753
 5904SOL    HW218612   1.886   4.464   2.844
 5905SOL     OW18613   6.008   1.044   4.324
 5905SOL    HW118614   5.978   1.050   4.420
 5905SOL    HW218615   5.928   1.042   4.265
 5906SOL     OW18616   5.106   0.547   5.078
 5906SOL    HW118617   5.171   0.496   5.022
 5906SOL    HW218618   5.017   0.549   5.033
 5907SOL     OW18619   1.869   2.405   0.150
 5907SOL    HW118620   1.789   2.464   0.139
 5907SOL    HW218621   1.946   2.460   0.183
 5908SOL     OW18622   4.202   3.378   6.362
 5908SOL    HW118623   4.279   3.419   6.412
 5908SOL    HW218624   4.232   3.294   6.317
 5909SOL     OW18625   6.969   4.623   4.812
 5909SOL    HW118626   7.010   4.532   4.810
 5909SOL    HW218627   6.943   4.651   4.720
 5910SOL     OW18628   1.997   3.819   1.135
 5910SOL    HW118629   2.054   3.753   1.183
 5910SOL    HW218630   1.987   3.792   1.039
 5911SOL     OW18631   6.550   5.888   6.239
 5911SOL    HW118632   6.615   5.831   6.290
 5911SOL    HW218633   6.548   5.858   6.143
 5912SOL     OW18634   6.237   3.944   0.195
 5912SOL    HW118635   6.323   3.989   0.219
 5912SOL    HW218636   6.237   3.922   0.097
 5913SOL     OW18637   1.651   1.561   5.634
 5913SOL    HW118638   1.605   1.481   5.674
 5913SOL    HW218639   1.587   1.637   5.629
 5914SOL     OW18640   1.978   5.775   0.919
 5914SOL    HW118641   2.003   5.856   0.972
 5914SOL    HW218642   1.941   5.803   0.830
 5915SOL     OW18643   4.975   2.776   2.497
 5915SOL    HW118644   4.889   2.796   2.544
 5915SOL    HW218645   4.999   2.852   2.437
 5916SOL     OW18646   3.886   0.213   5.850
 5916SOL    HW118647   3.913   0.170   5.936
 5916SOL    HW218648   3.788   0.200   5.836
 5917SOL     OW18649   3.460   3.622   2.958
 5917SOL    HW118650   3.419   3.575   3.036
 5917SOL    HW218651   3.516   3.558   2.905
 5918SOL     OW18652   1.754   3.311   4.079
 5918SOL    HW118653   1.762   3.326   4.178
 5918SOL    HW218654   1.841   3.278   4.043
 5919SOL     OW18655   1.778   2.849   6.870
 5919SOL    HW118656   1.723   2.810   6.796
 5919SOL    HW218657   1.835   2.778   6.911
 5920SOL     OW18658   3.618   0.480   6.993
 5920SOL    HW118659   3.681   0.418   0.012
 5920SOL    HW218660   3.547   0.510   0.028
 5921SOL     OW18661   3.770   4.849   5.423
 5921SOL    HW118662   3.678   4.836   5.459
 5921SOL    HW218663   3.804   4.763   5.386
 5922SOL     OW18664   6.222   4.528   2.852
 5922SOL    HW118665   6.276   4.454   2.891
 5922SOL    HW218666   6.126   4.499   2.845
 5923SOL     OW18667   0.006   0.052   3.927
 5923SOL    HW118668   0.078   0.112   3.961
 5923SOL    HW218669   7.021   0.067   3.829
 5924SOL     OW18670   5.141   2.230   4.611
 5924SOL    HW118671   5.074   2.303   4.605
 5924SOL    HW218672   5.112   2.163   4.679
 5925SOL     OW18673   5.054   6.129   1.102
 5925SOL    HW118674   5.118   6.184   1.155
 5925SOL    HW218675   5.064   6.151   1.005
 5926SOL     OW18676   3.894   5.015   1.453
 5926SOL    HW118677   3.823   4.946   1.438
 5926SOL    HW218678   3.867   5.100   1.409
 5927SOL     OW18679   2.650   5.920   2.176
 5927SOL    HW118680   2.716   5.891   2.107
 5927SOL    HW218681   2.688   5.995   2.230
 5928SOL     OW18682   1.514   0.051   3.170
 5928SOL    HW118683   1.609   0.020   3.156
 5928SOL    HW218684   1.455   6.999   3.181
 5929SOL     OW18685   1.785   6.481   6.563
 5929SOL    HW118686   1.697   6.467   6.518
 5929SOL    HW218687   1.816   6.396   6.604
 5930SOL     OW18688   6.619   1.426   4.787
 5930SOL    HW118689   6.588   1.376   4.706
 5930SOL    HW218690   6.705   1.387   4.820
 5931SOL     OW18691   6.573   5.757   1.546
 5931SOL    HW118692   6.649   5.821   1.561
 5931SOL    HW218693   6.574   5.725   1.452
 5932SOL     OW18694   2.402   6.767   0.807
 5932SOL    HW118695   2.498   6.794   0.820
 5932SOL    HW218696   2.367   6.729   0.893
 5933SOL     OW18697   6.936   3.774   2.983
 5933SOL    HW118698   7.010   3.840   2.970
 5933SOL    HW218699   6.932   3.748   3.080
 5934SOL     OW18700   3.683   3.605   3.125
 5934SOL    HW118701   3.607   3.666   3.148
 5934SOL    HW218702   3.691   3.600   3.025
 5935SOL     OW18703   4.052   3.873   4.355
 5935SOL    HW118704   4.010   3.949   4.404
 5935SOL    HW218705   4.074   3.800   4.420
 5936SOL     OW18706   5.453   5.342   6.946
 5936SOL    HW118707   5.429   5.424   6.997
 5936SOL    HW218708   5.371   5.297   6.913
 5937SOL     OW18709   2.079   3.169   1.164
 5937SOL    HW118710   2.102   3.121   1.248
 5937SOL    HW218711   2.084   3.106   1.086
 5938SOL     OW18712   1.644   4.150   3.172
 5938SOL    HW118713   1.721   4.092   3.144
 5938SOL    HW218714   1.600   4.189   3.091
 5939SOL     OW18715   3.250   6.980   2.777
 5939SOL    HW118716   3.335   7.000   2.729
 5939SOL    HW218717   3.180   6.954   2.711
 5940SOL     OW18718   4.102   6.594   3.050
 5940SOL    HW118719   4.172   6.660   3.079
 5940SOL    HW218720   4.098   6.518   3.115
 5941SOL     OW18721   6.231   4.889   2.577
 5941SOL    HW118722   6.236   4.888   2.477
 5941SOL    HW218723   6.140   4.919   2.605
 5942SOL     OW18724   4.058   3.531   5.922
 5942SOL    HW118725   3.969   3.484   5.923
 5942SOL    HW218726   4.128   3.469   5.958
 5943SOL     OW18727   1.779   6.023   0.774
 5943SOL    HW118728   1.842   6.084   0.822
 5943SOL    HW218729   1.690   6.024   0.820
 5944SOL     OW18730   5.020   1.821   2.504
 5944SOL    HW118731   4.975   1.898   2.550
 5944SOL    HW218732   5.118   1.822   2.526
 5945SOL     OW18733   6.429   5.046   5.779
 5945SOL    HW118734   6.437   5.000   5.691
 5945SOL    HW218735   6.345   5.016   5.824
 5946SOL     OW18736   5.009   3.171   5.681
 5946SOL    HW118737   5.016   3.122   5.594
 5946SOL    HW218738   4.919   3.156   5.721
 5947SOL     OW18739   4.420   3.663   1.704
 5947SOL    HW118740   4.382   3.588   1.649
 5947SOL    HW218741   4.360   3.680   1.782
 5948SOL     OW18742   4.007   4.780   2.990
 5948SOL    HW118743   3.911   4.802   2.976
 5948SOL    HW218744   4.020   4.745   3.083
 5949SOL     OW18745   4.167   5.033   1.312
 5949SOL    HW118746   4.092   5.023   1.377
 5949SOL    HW218747   4.171   5.128   1.280
 5950SOL     OW18748   6.552   2.270   4.307
 5950SOL    HW118749   6.511   2.220   4.231
 5950SOL    HW218750   6.575   2.207   4.381
 5951SOL     OW18751   1.896   5.809   3.984
 5951SOL    HW118752   1.798   5.821   3.996
 5951SOL    HW218753   1.945   5.887   4.022
 5952SOL     OW18754   6.908   6.629   3.900
 5952SOL    HW118755   6.819   6.584   3.904
 5952SOL    HW218756   6.966   6.594   3.974
 5953SOL     OW18757   6.740   2.873   6.141
 5953SOL    HW118758   6.755   2.957   6.088
 5953SOL    HW218759   6.642   2.855   6.149
 5954SOL     OW18760   0.080   4.920   6.752
 5954SOL    HW118761   0.027   4.999   6.783
 5954SOL    HW218762   0.161   4.909   6.809
 5955SOL     OW18763   5.024   5.300   1.577
 5955SOL    HW118764   4.975   5.367   1.633
 5955SOL    HW218765   5.077   5.347   1.507
 5956SOL     OW18766   5.357   2.398   0.057
 5956SOL    HW118767   5.370   2.462   7.009
 5956SOL    HW218768   5.417   2.319   0.045
 5957SOL     OW18769   5.988   6.118   6.062
 5957SOL    HW118770   5.963   6.116   6.159
 5957SOL    HW218771   5.943   6.043   6.014
 5958SOL     OW18772   6.783   5.551   2.106
 5958SOL    HW118773   6.757   5.507   2.020
 5958SOL    HW218774   6.850   5.623   2.087
 5959SOL     OW18775   2.046   1.869   6.024
 5959SOL    HW118776   2.106   1.939   5.986
 5959SOL    HW218777   1.992   1.908   6.098
 5960SOL     OW18778   3.250   0.098   3.871
 5960SOL    HW118779   3.189   0.172   3.843
 5960SOL    HW218780   3.244   0.086   3.970
 5961SOL     OW18781   3.365   0.716   4.701
 5961SOL    HW118782   3.309   0.708   4.618
 5961SOL    HW218783   3.441   0.779   4.683
 5962SOL     OW18784   4.895   5.299   2.009
 5962SOL    HW118785   4.990   5.268   2.015
 5962SOL    HW218786   4.878   5.368   2.079
 5963SOL     OW18787   3.930   3.754   2.446
 5963SOL    HW118788   3.998   3.691   2.409
 5963SOL    HW218789   3.958   3.783   2.538
 5964SOL     OW18790   0.020   5.470   6.162
 5964SOL    HW118791   6.994   5.387   6.178
 5964SOL    HW218792   0.033   5.517   6.249
 5965SOL     OW18793   2.327   2.780   6.014
 5965SOL    HW118794   2.335   2.715   6.089
 5965SOL    HW218795   2.231   2.802   5.999
 5966SOL     OW18796   3.157   5.929   4.742
 5966SOL    HW118797   3.208   5.909   4.659
 5966SOL    HW218798   3.068   5.883   4.738
 5967SOL     OW18799   4.720   6.272   3.084
 5967SOL    HW118800   4.671   6.254   3.170
 5967SOL    HW218801   4.806   6.222   3.084
 5968SOL     OW18802   6.888   2.507   3.371
 5968SOL    HW118803   6.806   2.467   3.413
 5968SOL    HW218804   6.929   2.441   3.308
 5969SOL     OW18805   5.845   3.899   3.503
 5969SOL    HW118806   5.847   3.913   3.602
 5969SOL    HW218807   5.763   3.848   3.479
 5970SOL     OW18808   1.753   3.278   2.631
 5970SOL    HW118809   1.660   3.285   2.593
 5970SOL    HW218810   1.808   3.218   2.573
 5971SOL     OW18811   1.975   6.676   2.714
 5971SOL    HW118812   2.044   6.748   2.708
 5971SOL    HW218813   1.959   6.637   2.623
 5972SOL     OW18814   4.977   6.874   0.273
 5972SOL    HW118815   4.886   6.906   0.300
 5972SOL    HW218816   4.978   6.855   0.175
 5973SOL     OW18817   1.518   4.240   2.967
 5973SOL    HW118818   1.423   4.269   2.982
 5973SOL    HW218819   1.531   4.217   2.871
 5974SOL     OW18820   6.960   3.846   0.265
 5974SOL    HW118821   0.025   3.811   0.279
 5974SOL    HW218822   6.963   3.946   0.258
 5975SOL     OW18823   2.774   2.964   1.265
 5975SOL    HW118824   2.677   2.986   1.255
 5975SOL    HW218825   2.801   2.974   1.361
 5976SOL     OW18826   3.131   3.338   4.896
 5976SOL    HW118827   3.198   3.267   4.919
 5976SOL    HW218828   3.106   3.389   4.978
 5977SOL     OW18829   1.394   4.283   2.120
 5977SOL    HW118830   1.466   4.350   2.139
 5977SOL    HW218831   1.335   4.274   2.200
 5978SOL     OW18832   5.495   5.004   2.227
 5978SOL    HW118833   5.468   4.932   2.163
 5978SOL    HW218834   5.507   4.965   2.318
 5979SOL     OW18835   6.602   0.966   3.125
 5979SOL    HW118836   6.604   0.922   3.215
 5979SOL    HW218837   6.696   0.982   3.095
 5980SOL     OW18838   5.264   4.646   0.574
 5980SOL    HW118839   5.311   4.733   0.561
 5980SOL    HW218840   5.314   4.574   0.525
 5981SOL     OW18841   5.379   0.642   2.529
 5981SOL    HW118842   5.282   0.667   2.531
 5981SOL    HW218843   5.406   0.621   2.435
 5982SOL     OW18844   0.005   2.064   6.908
 5982SOL    HW118845   0.048   2.136   6.854
 5982SOL    HW218846   6.955   2.026   6.858
 5983SOL     OW18847   1.571   1.328   4.129
 5983SOL    HW118848   1.650   1.310   4.070
 5983SOL    HW218849   1.560   1.251   4.192
 5984SOL     OW18850   0.247   6.059   4.967
 5984SOL    HW118851   0.279   6.005   4.889
 5984SOL    HW218852   0.324   6.112   5.004
 5985SOL     OW18853   4.760   1.603   4.247
 5985SOL    HW118854   4.689   1.595   4.317
 5985SOL    HW218855   4.722   1.574   4.158
 5986SOL     OW18856   3.397   3.118   2.614
 5986SOL    HW118857   3.299   3.095   2.611
 5986SOL    HW218858   3.432   3.129   2.521
 5987SOL     OW18859   4.365   6.956   4.834
 5987SOL    HW118860   4.396   6.903   4.755
 5987SOL    HW218861   4.441   7.009   4.872
 5988SOL     OW18862   4.603   6.684   4.275
 5988SOL    HW118863   4.522   6.697   4.333
 5988SOL    HW218864   4.671   6.629   4.324
 5989SOL     OW18865   3.390   0.279   6.037
 5989SOL    HW118866   3.321   0.350   6.024
 5989SOL    HW218867   3.355   0.192   6.003
 5990SOL     OW18868   3.039   5.396   0.859
 5990SOL    HW118869   3.114   5.445   0.815
 5990SOL    HW218870   3.076   5.335   0.930
 5991SOL     OW18871   3.179   5.495   4.272
 5991SOL    HW118872   3.142   5.477   4.363
 5991SOL    HW218873   3.181   5.409   4.220
 5992SOL     OW18874   4.212   0.418   3.840
 5992SOL    HW118875   4.125   0.410   3.792
 5992SOL    HW218876   4.275   0.474   3.785
 5993SOL     OW18877   2.495   6.279   5.936
 5993SOL    HW118878   2.548   6.276   6.021
 5993SOL    HW218879   2.412   6.224   5.947
 5994SOL     OW18880   6.047   2.412   2.423
 5994SOL    HW118881   6.076   2.485   2.361
 5994SOL    HW218882   6.035   2.327   2.373
 5995SOL     OW18883   6.664   5.322   0.850
 5995SOL    HW118884   6.581   5.378   0.852
 5995SOL    HW218885   6.639   5.225   0.841
 5996SOL     OW18886   0.115   5.274   5.974
 5996SOL    HW118887   0.086   5.255   6.068
 5996SOL    HW218888   0.123   5.373   5.962
 5997SOL     OW18889   0.601   6.942   2.174
 5997SOL    HW118890   0.647   6.865   2.130
 5997SOL    HW218891   0.647   6.963   2.261
 5998SOL     OW18892   5.504   2.346   2.472
 5998SOL    HW118893   5.539   2.431   2.513
 5998SOL    HW218894   5.551   2.330   2.385
 5999SOL     OW18895   1.626   2.116   2.818
 5999SOL    HW118896   1.629   2.039   2.881
 5999SOL    HW218897   1.717   2.129   2.776
 6000SOL     OW18898   4.508   5.545   2.493
 6000SOL    HW118899   4.475   5.451   2.490
 6000SOL    HW218900   4.464   5.594   2.568
 6001SOL     OW18901   6.637   2.535   6.528
 6001SOL    HW118902   6.667   2.547   6.623
 6001SOL    HW218903   6.691   2.463   6.486
 6002SOL     OW18904   1.630   0.245   1.838
 6002SOL    HW118905   1.717   0.284   1.868
 6002SOL    HW218906   1.612   0.273   1.744
 6003SOL     OW18907   4.847   4.095   5.140
 6003SOL    HW118908   4.944   4.094   5.167
 6003SOL    HW218909   4.827   4.014   5.085
 6004SOL     OW18910   0.504   3.402   2.456
 6004SOL    HW118911   0.576   3.470   2.472
 6004SOL    HW218912   0.524   3.350   2.373
 6005SOL     OW18913   3.324   5.415   3.357
 6005SOL    HW118914   3.372   5.395   3.442
 6005SOL    HW218915   3.350   5.349   3.287
 6006SOL     OW18916   3.080   6.997   6.606
 6006SOL    HW118917   3.044   0.044   6.550
 6006SOL    HW218918   3.039   6.911   6.577
 6007SOL     OW18919   5.981   2.381   4.129
 6007SOL    HW118920   5.942   2.446   4.194
 6007SOL    HW218921   5.909   2.349   4.068
 6008SOL     OW18922   2.919   4.778   6.152
 6008SOL    HW118923   2.926   4.681   6.129
 6008SOL    HW218924   2.940   4.790   6.249
 6009SOL     OW18925   2.365   1.983   4.238
 6009SOL    HW118926   2.357   2.061   4.175
 6009SOL    HW218927   2.460   1.951   4.238
 6010SOL     OW18928   1.987   4.150   2.825
 6010SOL    HW118929   1.973   4.248   2.810
 6010SOL    HW218930   1.974   4.101   2.739
 6011SOL     OW18931   5.425   2.832   2.572
 6011SOL    HW118932   5.485   2.765   2.529
 6011SOL    HW218933   5.411   2.909   2.509
 6012SOL     OW18934   6.677   3.233   0.995
 6012SOL    HW118935   6.675   3.202   1.090
 6012SOL    HW218936   6.730   3.317   0.987
 6013SOL     OW18937   5.633   0.645   2.861
 6013SOL    HW118938   5.627   0.552   2.825
 6013SOL    HW218939   5.726   0.680   2.850
 6014SOL     OW18940   5.796   0.379   0.325
 6014SOL    HW118941   5.764   0.325   0.247
 6014SOL    HW218942   5.719   0.428   0.365
 6015SOL     OW18943   5.411   2.008   4.015
 6015SOL    HW118944   5.331   2.047   4.061
 6015SOL    HW218945   5.382   1.940   3.948
 6016SOL     OW18946   2.144   1.065   5.448
 6016SOL    HW118947   2.083   0.995   5.486
 6016SOL    HW218948   2.128   1.151   5.494
 6017SOL     OW18949   6.569   5.277   2.654
 6017SOL    HW118950   6.541   5.197   2.707
 6017SOL    HW218951   6.607   5.248   2.567
 6018SOL     OW18952   2.628   3.920   0.756
 6018SOL    HW118953   2.583   4.005   0.784
 6018SOL    HW218954   2.568   3.869   0.695
 6019SOL     OW18955   3.709   0.908   3.986
 6019SOL    HW118956   3.706   0.954   3.898
 6019SOL    HW218957   3.777   0.835   3.983
 6020SOL     OW18958   4.062   0.519   2.654
 6020SOL    HW118959   4.053   0.496   2.557
 6020SOL    HW218960   4.047   0.617   2.667
 6021SOL     OW18961   4.451   1.512   2.253
 6021SOL    HW118962   4.530   1.550   2.205
 6021SOL    HW218963   4.374   1.574   2.244
 6022SOL     OW18964   3.957   1.636   3.507
 6022SOL    HW118965   3.993   1.577   3.434
 6022SOL    HW218966   3.975   1.593   3.595
 6023SOL     OW18967   0.570   1.622   2.937
 6023SOL    HW118968   0.525   1.534   2.955
 6023SOL    HW218969   0.521   1.670   2.864
 6024SOL     OW18970   0.674   4.847   1.466
 6024SOL    HW118971   0.681   4.846   1.566
 6024SOL    HW218972   0.725   4.925   1.430
 6025SOL     OW18973   4.613   1.654   1.235
 6025SOL    HW118974   4.569   1.564   1.234
 6025SOL    HW218975   4.643   1.677   1.142
 6026SOL     OW18976   6.638   4.479   5.211
 6026SOL    HW118977   6.613   4.575   5.223
 6026SOL    HW218978   6.712   4.472   5.144
 6027SOL     OW18979   2.738   3.333   6.680
 6027SOL    HW118980   2.766   3.338   6.776
 6027SOL    HW218981   2.815   3.358   6.622
 6028SOL     OW18982   1.699   3.854   0.357
 6028SOL    HW118983   1.668   3.947   0.335
 6028SOL    HW218984   1.798   3.849   0.347
 6029SOL     OW18985   2.301   6.533   1.534
 6029SOL    HW118986   2.394   6.510   1.506
 6029SOL    HW218987   2.278   6.625   1.503
 6030SOL     OW18988   2.132   0.918   1.913
 6030SOL    HW118989   2.126   0.820   1.933
 6030SOL    HW218990   2.103   0.970   1.993
 6031SOL     OW18991   4.793   6.509   5.489
 6031SOL    HW118992   4.869   6.507   5.424
 6031SOL    HW218993   4.796   6.594   5.541
 6032SOL     OW18994   0.869   2.915   2.562
 6032SOL    HW118995   0.863   3.010   2.594
 6032SOL    HW218996   0.955   2.875   2.593
 6033SOL     OW18997   0.837   1.677   3.568
 6033SOL    HW118998   0.930   1.707   3.590
 6033SOL    HW218999   0.812   1.599   3.627
 6034SOL     OW19000   1.638   4.292   5.025
 6034SOL    HW119001   1.602   4.262   4.936
 6034SOL    HW219002   1.576   4.360   5.064
 6035SOL     OW19003   5.902   0.209   4.183
 6035SOL    HW119004   5.825   0.206   4.118
 6035SOL    HW219005   5.940   0.301   4.185
 6036SOL     OW19006   0.480   6.558   5.520
 6036SOL    HW119007   0.552   6.494   5.496
 6036SOL    HW219008   0.435   6.590   5.436
 6037SOL     OW19009   5.716   5.710   5.223
 6037SOL    HW119010   5.638   5.662   5.181
 6037SOL    HW219011   5.755   5.774   5.157
 6038SOL     OW19012   6.241   4.347   5.955
 6038SOL    HW119013   6.286   4.334   5.867
 6038SOL    HW219014   6.270   4.275   6.019
 6039SOL     OW19015   3.316   3.441   2.481
 6039SOL    HW119016   3.268   3.513   2.432
 6039SOL    HW219017   3.411   3.436   2.449
 6040SOL     OW19018   0.566   2.092   0.284
 6040SOL    HW119019   0.526   2.179   0.255
 6040SOL    HW219020   0.493   2.029   0.311
 6041SOL     OW19021   1.231   1.919   6.991
 6041SOL    HW119022   1.239   1.821   6.975
 6041SOL    HW219023   1.220   1.966   6.903
 6042SOL     OW19024   5.050   5.115   3.114
 6042SOL    HW119025   5.070   5.164   3.198
 6042SOL    HW219026   5.112   5.144   3.042
 6043SOL     OW19027   1.086   4.595   4.600
 6043SOL    HW119028   0.990   4.582   4.625
 6043SOL    HW219029   1.092   4.653   4.519
 6044SOL     OW19030   0.474   0.700   0.999
 6044SOL    HW119031   0.531   0.665   0.925
 6044SOL    HW219032   0.402   0.758   0.961
 6045SOL     OW19033   6.603   4.409   1.343
 6045SOL    HW119034   6.697   4.441   1.339
 6045SOL    HW219035   6.579   4.386   1.437
 6046SOL     OW19036   3.220   2.650   0.422
 6046SOL    HW119037   3.245   2.658   0.326
 6046SOL    HW219038   3.303   2.652   0.479
 6047SOL     OW19039   6.614   7.011   4.422
 6047SOL    HW119040   6.694   0.009   4.368
 6047SOL    HW219041   6.534   0.036   4.392
 6048SOL     OW19042   4.499   6.988   4.256
 6048SOL    HW119043   4.544   6.952   4.175
 6048SOL    HW219044   4.422   6.929   4.282
 6049SOL     OW19045   5.252   4.537   6.692
 6049SOL    HW119046   5.335   4.500   6.734
 6049SOL    HW219047   5.274   4.620   6.641
 6050SOL     OW19048   4.455   4.507   5.393
 6050SOL    HW119049   4.481   4.603   5.398
 6050SOL    HW219050   4.364   4.495   5.435
 6051SOL     OW19051   2.026   1.893   2.905
 6051SOL    HW119052   1.991   1.848   2.987
 6051SOL    HW219053   2.001   1.990   2.907
 6052SOL     OW19054   0.731   1.417   1.073
 6052SOL    HW119055   0.756   1.466   0.990
 6052SOL    HW219056   0.721   1.481   1.149
 6053SOL     OW19057   1.774   6.995   6.699
 6053SOL    HW119058   1.737   6.987   6.791
 6053SOL    HW219059   1.874   7.001   6.703
 6054SOL     OW19060   1.589   4.793   0.156
 6054SOL    HW119061   1.505   4.740   0.143
 6054SOL    HW219062   1.569   4.890   0.150
 6055SOL     OW19063   4.745   0.784   4.999
 6055SOL    HW119064   4.779   0.840   5.075
 6055SOL    HW219065   4.645   0.783   5.001
 6056SOL     OW19066   4.105   2.216   6.472
 6056SOL    HW119067   4.100   2.137   6.532
 6056SOL    HW219068   4.167   2.196   6.395
 6057SOL     OW19069   2.928   0.986   4.770
 6057SOL    HW119070   2.962   0.920   4.702
 6057SOL    HW219071   2.867   1.051   4.726
 6058SOL     OW19072   5.809   2.042   4.321
 6058SOL    HW119073   5.756   1.996   4.251
 6058SOL    HW219074   5.900   2.064   4.285
 6059SOL     OW19075   5.538   4.288   0.013
 6059SOL    HW119076   5.526   4.239   0.099
 6059SOL    HW219077   5.449   4.298   6.995
 6060SOL     OW19078   4.344   5.418   5.472
 6060SOL    HW119079   4.372   5.448   5.563
 6060SOL    HW219080   4.355   5.493   5.407
 6061SOL     OW19081   3.173   1.566   6.422
 6061SOL    HW119082   3.137   1.553   6.514
 6061SOL    HW219083   3.249   1.631   6.425
 6062SOL     OW19084   1.738   0.567   4.905
 6062SOL    HW119085   1.747   0.651   4.851
 6062SOL    HW219086   1.647   0.562   4.945
 6063SOL     OW19087   4.303   0.978   0.116
 6063SOL    HW119088   4.396   0.949   0.091
 6063SOL    HW219089   4.277   0.934   0.202
 6064SOL     OW19090   0.887   5.672   3.534
 6064SOL    HW119091   0.814   5.703   3.473
 6064SOL    HW219092   0.975   5.681   3.487
 6065SOL     OW19093   6.853   6.824   0.764
 6065SOL    HW119094   6.877   6.758   0.835
 6065SOL    HW219095   6.933   6.882   0.746
 6066SOL     OW19096   4.173   2.355   0.843
 6066SOL    HW119097   4.166   2.355   0.943
 6066SOL    HW219098   4.084   2.376   0.803
 6067SOL     OW19099   6.139   1.244   5.987
 6067SOL    HW119100   6.081   1.293   5.922
 6067SOL    HW219101   6.134   1.289   6.076
 6068SOL     OW19102   4.739   2.887   4.900
 6068SOL    HW119103   4.762   2.930   4.987
 6068SOL    HW219104   4.751   2.953   4.826
 6069SOL     OW19105   6.659   3.864   4.935
 6069SOL    HW119106   6.622   3.885   5.025
 6069SOL    HW219107   6.727   3.790   4.943
 6070SOL     OW19108   4.106   2.637   6.264
 6070SOL    HW119109   4.084   2.635   6.166
 6070SOL    HW219110   4.194   2.683   6.276
 6071SOL     OW19111   4.014   6.691   5.132
 6071SOL    HW119112   3.990   6.710   5.037
 6071SOL    HW219113   4.049   6.774   5.175
 6072SOL     OW19114   0.570   1.712   1.821
 6072SOL    HW119115   0.591   1.809   1.805
 6072SOL    HW219116   0.614   1.657   1.750
 6073SOL     OW19117   6.673   2.637   0.915
 6073SOL    HW119118   6.644   2.612   1.008
 6073SOL    HW219119   6.596   2.676   0.865
 6074SOL     OW19120   0.121   0.199   4.956
 6074SOL    HW119121   0.176   0.149   4.890
 6074SOL    HW219122   0.046   0.141   4.987
 6075SOL     OW19123   5.743   3.380   0.411
 6075SOL    HW119124   5.739   3.310   0.339
 6075SOL    HW219125   5.773   3.467   0.371
 6076SOL     OW19126   1.881   6.307   3.591
 6076SOL    HW119127   1.891   6.214   3.554
 6076SOL    HW219128   1.792   6.344   3.564
 6077SOL     OW19129   5.755   6.131   1.923
 6077SOL    HW119130   5.764   6.036   1.953
 6077SOL    HW219131   5.773   6.138   1.825
 6078SOL     OW19132   2.831   4.918   4.000
 6078SOL    HW119133   2.768   4.977   3.949
 6078SOL    HW219134   2.794   4.825   4.004
 6079SOL     OW19135   2.492   2.187   6.792
 6079SOL    HW119136   2.443   2.205   6.878
 6079SOL    HW219137   2.507   2.274   6.744
 6080SOL     OW19138   5.862   2.299   1.291
 6080SOL    HW119139   5.930   2.262   1.354
 6080SOL    HW219140   5.820   2.380   1.332
 6081SOL     OW19141   6.784   3.159   3.821
 6081SOL    HW119142   6.815   3.181   3.914
 6081SOL    HW219143   6.729   3.076   3.823
 6082SOL     OW19144   4.079   1.386   2.769
 6082SOL    HW119145   4.177   1.376   2.754
 6082SOL    HW219146   4.050   1.478   2.745
 6083SOL     OW19147   1.400   6.308   6.907
 6083SOL    HW119148   1.438   6.384   6.960
 6083SOL    HW219149   1.354   6.344   6.826
 6084SOL     OW19150   0.086   5.673   5.578
 6084SOL    HW119151   0.052   5.739   5.510
 6084SOL    HW219152   0.013   5.650   5.642
 6085SOL     OW19153   5.921   3.766   6.937
 6085SOL    HW119154   5.964   3.850   6.902
 6085SOL    HW219155   5.850   3.790   7.003
 6086SOL     OW19156   3.170   2.082   4.171
 6086SOL    HW119157   3.170   2.160   4.233
 6086SOL    HW219158   3.079   2.069   4.132
 6087SOL     OW19159   5.790   6.717   6.499
 6087SOL    HW119160   5.883   6.680   6.495
 6087SOL    HW219161   5.727   6.653   6.455
 6088SOL     OW19162   0.633   0.039   5.098
 6088SOL    HW119163   0.600   7.014   5.177
 6088SOL    HW219164   0.683   7.006   5.036
 6089SOL     OW19165   0.172   3.525   0.948
 6089SOL    HW119166   0.121   3.586   1.010
 6089SOL    HW219167   0.173   3.432   0.986
 6090SOL     OW19168   0.893   5.154   5.204
 6090SOL    HW119169   0.911   5.194   5.114
 6090SOL    HW219170   0.797   5.168   5.228
 6091SOL     OW19171   6.261   1.513   1.896
 6091SOL    HW119172   6.359   1.526   1.884
 6091SOL    HW219173   6.241   1.487   1.991
 6092SOL     OW19174   1.905   1.268   2.836
 6092SOL    HW119175   1.963   1.229   2.907
 6092SOL    HW219176   1.862   1.352   2.871
 6093SOL     OW19177   1.245   2.812   1.455
 6093SOL    HW119178   1.197   2.870   1.389
 6093SOL    HW219179   1.275   2.728   1.409
 6094SOL     OW19180   0.729   1.141   1.270
 6094SOL    HW119181   0.769   1.233   1.276
 6094SOL    HW219182   0.630   1.149   1.258
 6095SOL     OW19183   6.514   3.491   6.479
 6095SOL    HW119184   6.469   3.477   6.391
 6095SOL    HW219185   6.528   3.402   6.524
 6096SOL     OW19186   3.761   1.873   3.727
 6096SOL    HW119187   3.693   1.943   3.748
 6096SOL    HW219188   3.719   1.800   3.673
 6097SOL     OW19189   2.682   1.185   2.178
 6097SOL    HW119190   2.688   1.087   2.162
 6097SOL    HW219191   2.759   1.214   2.236
 6098SOL     OW19192   2.239   2.264   5.658
 6098SOL    HW119193   2.140   2.261   5.643
 6098SOL    HW219194   2.275   2.351   5.626
 6099SOL     OW19195   5.751   5.832   4.951
 6099SOL    HW119196   5.805   5.882   4.884
 6099SOL    HW219197   5.750   5.735   4.928
 6100SOL     OW19198   6.137   2.559   0.219
 6100SOL    HW119199   6.190   2.617   0.156
 6100SOL    HW219200   6.060   2.518   0.169
 6101SOL     OW19201   6.781   1.318   5.698
 6101SOL    HW119202   6.725   1.329   5.617
 6101SOL    HW219203   6.834   1.234   5.691
 6102SOL     OW19204   2.712   0.820   4.834
 6102SOL    HW119205   2.789   0.883   4.840
 6102SOL    HW219206   2.746   0.727   4.825
 6103SOL     OW19207   6.555   6.652   5.065
 6103SOL    HW119208   6.653   6.643   5.085
 6103SOL    HW219209   6.502   6.605   5.136
 6104SOL     OW19210   6.343   1.740   6.362
 6104SOL    HW119211   6.331   1.644   6.388
 6104SOL    HW219212   6.254   1.779   6.337
 6105SOL     OW19213   3.316   5.729   5.171
 6105SOL    HW119214   3.339   5.792   5.096
 6105SOL    HW219215   3.398   5.683   5.202
 6106SOL     OW19216   3.544   4.999   5.839
 6106SOL    HW119217   3.545   4.901   5.862
 6106SOL    HW219218   3.580   5.051   5.916
 6107SOL     OW19219   2.111   4.493   5.207
 6107SOL    HW119220   2.059   4.409   5.195
 6107SOL    HW219221   2.102   4.551   5.127
 6108SOL     OW19222   0.943   1.801   4.333
 6108SOL    HW119223   1.039   1.794   4.308
 6108SOL    HW219224   0.913   1.896   4.323
 6109SOL     OW19225   5.759   3.580   1.037
 6109SOL    HW119226   5.827   3.546   0.971
 6109SOL    HW219227   5.696   3.642   0.991
 6110SOL     OW19228   3.522   1.433   4.903
 6110SOL    HW119229   3.476   1.520   4.918
 6110SOL    HW219230   3.543   1.422   4.806
 6111SOL     OW19231   1.288   4.660   3.138
 6111SOL    HW119232   1.199   4.682   3.100
 6111SOL    HW219233   1.294   4.562   3.155
 6112SOL     OW19234   0.806   2.038   3.010
 6112SOL    HW119235   0.738   2.103   3.044
 6112SOL    HW219236   0.813   1.962   3.073
 6113SOL     OW19237   2.000   6.803   5.693
 6113SOL    HW119238   1.911   6.770   5.723
 6113SOL    HW219239   2.030   6.750   5.613
 6114SOL     OW19240   4.274   6.021   0.901
 6114SOL    HW119241   4.209   5.946   0.903
 6114SOL    HW219242   4.354   5.998   0.956
 6115SOL     OW19243   5.440   5.254   2.475
 6115SOL    HW119244   5.413   5.160   2.495
 6115SOL    HW219245   5.504   5.255   2.398
 6116SOL     OW19246   3.953   1.118   1.939
 6116SOL    HW119247   3.939   1.211   1.971
 6116SOL    HW219248   4.050   1.103   1.920
 6117SOL     OW19249   5.544   6.989   4.712
 6117SOL    HW119250   5.628   7.014   4.664
 6117SOL    HW219251   5.485   0.042   4.721
 6118SOL     OW19252   6.025   0.831   3.485
 6118SOL    HW119253   6.125   0.827   3.481
 6118SOL    HW219254   5.988   0.815   3.393
 6119SOL     OW19255   6.867   4.890   4.914
 6119SOL    HW119256   6.867   4.801   4.867
 6119SOL    HW219257   6.962   4.917   4.932
 6120SOL     OW19258   2.081   6.876   2.541
 6120SOL    HW119259   2.163   6.931   2.554
 6120SOL    HW219260   2.098   6.806   2.472
 6121SOL     OW19261   0.573   2.227   3.966
 6121SOL    HW119262   0.574   2.196   3.871
 6121SOL    HW219263   0.662   2.267   3.989
 6122SOL     OW19264   3.890   5.667   3.277
 6122SOL    HW119265   3.835   5.583   3.277
 6122SOL    HW219266   3.854   5.730   3.208
 6123SOL     OW19267   6.222   1.283   2.351
 6123SOL    HW119268   6.147   1.227   2.388
 6123SOL    HW219269   6.295   1.223   2.320
 6124SOL     OW19270   3.632   0.444   5.672
 6124SOL    HW119271   3.652   0.375   5.742
 6124SOL    HW219272   3.566   0.510   5.708
 6125SOL     OW19273   2.331   6.438   1.862
 6125SOL    HW119274   2.349   6.455   1.765
 6125SOL    HW219275   2.417   6.415   1.908
 6126SOL     OW19276   5.362   4.868   2.763
 6126SOL    HW119277   5.378   4.952   2.815
 6126SOL    HW219278   5.268   4.838   2.777
 6127SOL     OW19279   1.918   6.370   1.700
 6127SOL    HW119280   1.964   6.360   1.788
 6127SOL    HW219281   1.970   6.322   1.630
 6128SOL     OW19282   6.093   1.959   0.248
 6128SOL    HW119283   6.061   2.050   0.272
 6128SOL    HW219284   6.014   1.898   0.239
 6129SOL     OW19285   6.277   4.306   2.990
 6129SOL    HW119286   6.348   4.238   3.011
 6129SOL    HW219287   6.219   4.319   3.071
 6130SOL     OW19288   5.001   3.294   3.080
 6130SOL    HW119289   5.030   3.285   3.176
 6130SOL    HW219290   4.928   3.228   3.060
 6131SOL     OW19291   6.375   1.131   5.498
 6131SOL    HW119292   6.428   1.130   5.583
 6131SOL    HW219293   6.355   1.037   5.470
 6132SOL     OW19294   3.971   2.984   0.889
 6132SOL    HW119295   4.026   2.904   0.915
 6132SOL    HW219296   4.028   3.050   0.842
 6133SOL     OW19297   0.789   4.102   1.557
 6133SOL    HW119298   0.824   4.036   1.491
 6133SOL    HW219299   0.691   4.115   1.543
 6134SOL     OW19300   4.121   3.607   6.741
 6134SOL    HW119301   4.176   3.556   6.807
 6134SOL    HW219302   4.154   3.701   6.736
 6135SOL     OW19303   6.277   6.504   1.411
 6135SOL    HW119304   6.323   6.542   1.331
 6135SOL    HW219305   6.317   6.415   1.434
 6136SOL     OW19306   1.324   1.748   1.943
 6136SOL    HW119307   1.336   1.657   1.905
 6136SOL    HW219308   1.403   1.772   2.000
 6137SOL     OW19309   2.985   6.244   5.775
 6137SOL    HW119310   2.902   6.262   5.829
 6137SOL    HW219311   2.987   6.305   5.697
 6138SOL     OW19312   3.632   5.966   3.227
 6138SOL    HW119313   3.701   5.965   3.300
 6138SOL    HW219314   3.656   5.898   3.157
 6139SOL     OW19315   1.398   4.640   4.639
 6139SOL    HW119316   1.429   4.546   4.624
 6139SOL    HW219317   1.367   4.679   4.552
 6140SOL     OW19318   1.387   0.049   1.496
 6140SOL    HW119319   1.348   7.015   1.564
 6140SOL    HW219320   1.485   0.031   1.487
 6141SOL     OW19321   6.581   5.791   5.905
 6141SOL    HW119322   6.590   5.813   5.808
 6141SOL    HW219323   6.553   5.695   5.915
 6142SOL     OW19324   6.883   4.456   1.100
 6142SOL    HW119325   6.970   4.410   1.117
 6142SOL    HW219326   6.824   4.396   1.044
 6143SOL     OW19327   5.735   5.127   6.470
 6143SOL    HW119328   5.655   5.112   6.412
 6143SOL    HW219329   5.706   5.133   6.565
 6144SOL     OW19330   0.176   3.975   4.252
 6144SOL    HW119331   0.269   3.944   4.274
 6144SOL    HW219332   0.155   3.953   4.157
 6145SOL     OW19333   5.149   5.454   3.100
 6145SOL    HW119334   5.062   5.474   3.055
 6145SOL    HW219335   5.160   5.513   3.180
 6146SOL     OW19336   5.388   1.414   3.540
 6146SOL    HW119337   5.419   1.397   3.633
 6146SOL    HW219338   5.465   1.403   3.477
 6147SOL     OW19339   2.077   3.456   2.571
 6147SOL    HW119340   2.114   3.371   2.533
 6147SOL    HW219341   2.135   3.533   2.543
 6148SOL     OW19342   6.050   6.191   4.438
 6148SOL    HW119343   6.145   6.174   4.465
 6148SOL    HW219344   6.048   6.258   4.363
 6149SOL     OW19345   3.193   5.591   3.205
 6149SOL    HW119346   3.229   5.511   3.253
 6149SOL    HW219347   3.151   5.562   3.119
 6150SOL     OW19348   4.618   5.937   5.917
 6150SOL    HW119349   4.710   5.907   5.891
 6150SOL    HW219350   4.563   5.952   5.835
 6151SOL     OW19351   5.242   2.580   5.397
 6151SOL    HW119352   5.215   2.533   5.313
 6151SOL    HW219353   5.161   2.600   5.452
 6152SOL     OW19354   6.257   4.675   6.536
 6152SOL    HW119355   6.276   4.694   6.632
 6152SOL    HW219356   6.239   4.577   6.524
 6153SOL     OW19357   4.172   3.862   1.612
 6153SOL    HW119358   4.180   3.819   1.522
 6153SOL    HW219359   4.260   3.902   1.638
 6154SOL     OW19360   4.842   3.130   3.359
 6154SOL    HW119361   4.807   3.043   3.324
 6154SOL    HW219362   4.844   3.127   3.459
 6155SOL     OW19363   0.282   3.759   5.405
 6155SOL    HW119364   0.341   3.682   5.381
 6155SOL    HW219365   0.234   3.740   5.491
 6156SOL     OW19366   6.185   6.780   3.399
 6156SOL    HW119367   6.248   6.798   3.324
 6156SOL    HW219368   6.225   6.712   3.461
 6157SOL     OW19369   2.358   1.259   4.104
 6157SOL    HW119370   2.309   1.172   4.111
 6157SOL    HW219371   2.339   1.315   4.185
 6158SOL     OW19372   4.606   1.518   5.824
 6158SOL    HW119373   4.602   1.524   5.924
 6158SOL    HW219374   4.697   1.486   5.796
 6159SOL     OW19375   5.421   2.946   0.251
 6159SOL    HW119376   5.354   3.016   0.276
 6159SOL    HW219377   5.377   2.856   0.257
 6160SOL     OW19378   5.499   5.894   1.996
 6160SOL    HW119379   5.596   5.899   2.022
 6160SOL    HW219380   5.490   5.921   1.900
 6161SOL     OW19381   5.733   0.133   5.911
 6161SOL    HW119382   5.706   0.150   6.006
 6161SOL    HW219383   5.805   0.063   5.909
 6162SOL     OW19384   6.552   4.930   4.564
 6162SOL    HW119385   6.562   4.988   4.483
 6162SOL    HW219386   6.455   4.917   4.584
 6163SOL     OW19387   6.351   4.610   1.486
 6163SOL    HW119388   6.403   4.560   1.556
 6163SOL    HW219389   6.266   4.645   1.525
 6164SOL     OW19390   3.730   1.787   1.118
 6164SOL    HW119391   3.644   1.838   1.115
 6164SOL    HW219392   3.806   1.851   1.110
 6165SOL     OW19393   3.422   6.212   0.104
 6165SOL    HW119394   3.455   6.123   0.071
 6165SOL    HW219395   3.410   6.274   0.027
 6166SOL     OW19396   2.878   1.482   6.020
 6166SOL    HW119397   2.837   1.473   5.929
 6166SOL    HW219398   2.806   1.475   6.089
 6167SOL     OW19399   0.645   3.811   3.538
 6167SOL    HW119400   0.546   3.798   3.531
 6167SOL    HW219401   0.686   3.805   3.447
 6168SOL     OW19402   0.102   4.364   2.564
 6168SOL    HW119403   0.183   4.383   2.508
 6168SOL    HW219404   0.021   4.360   2.505
 6169SOL     OW19405   2.045   4.069   2.548
 6169SOL    HW119406   2.097   3.999   2.498
 6169SOL    HW219407   1.958   4.086   2.502
 6170SOL     OW19408   0.371   3.137   5.396
 6170SOL    HW119409   0.385   3.072   5.321
 6170SOL    HW219410   0.429   3.217   5.382
 6171SOL     OW19411   0.090   0.541   6.234
 6171SOL    HW119412   0.152   0.462   6.228
 6171SOL    HW219413   7.024   0.511   6.215
 6172SOL     OW19414   0.577   3.528   2.982
 6172SOL    HW119415   0.541   3.465   2.913
 6172SOL    HW219416   0.523   3.612   2.980
 6173SOL     OW19417   6.767   6.928   3.161
 6173SOL    HW119418   6.865   6.914   3.179
 6173SOL    HW219419   6.713   6.871   3.222
 6174SOL     OW19420   5.523   3.830   2.931
 6174SOL    HW119421   5.622   3.811   2.933
 6174SOL    HW219422   5.473   3.744   2.938
 6175SOL     OW19423   2.512   1.907   5.559
 6175SOL    HW119424   2.441   1.966   5.520
 6175SOL    HW219425   2.600   1.927   5.515
 6176SOL     OW19426   3.977   4.354   5.253
 6176SOL    HW119427   4.061   4.347   5.199
 6176SOL    HW219428   3.906   4.299   5.211
 6177SOL     OW19429   5.906   0.824   1.641
 6177SOL    HW119430   5.943   0.915   1.622
 6177SOL    HW219431   5.980   0.764   1.670
 6178SOL     OW19432   4.702   4.508   1.637
 6178SOL    HW119433   4.643   4.588   1.640
 6178SOL    HW219434   4.796   4.536   1.617
 6179SOL     OW19435   5.783   4.949   3.047
 6179SOL    HW119436   5.688   4.916   3.045
 6179SOL    HW219437   5.784   5.045   3.076
 6180SOL     OW19438   2.648   4.242   0.078
 6180SOL    HW119439   2.606   4.185   0.007
 6180SOL    HW219440   2.725   4.194   0.118
 6181SOL     OW19441   4.983   5.138   5.975
 6181SOL    HW119442   4.970   5.040   5.964
 6181SOL    HW219443   4.939   5.168   6.060
 6182SOL     OW19444   3.200   3.305   0.434
 6182SOL    HW119445   3.264   3.370   0.393
 6182SOL    HW219446   3.221   3.213   0.401
 6183SOL     OW19447   0.838   1.889   1.694
 6183SOL    HW119448   0.818   1.812   1.633
 6183SOL    HW219449   0.936   1.908   1.692
 6184SOL     OW19450   2.573   0.617   5.826
 6184SOL    HW119451   2.550   0.629   5.729
 6184SOL    HW219452   2.514   0.674   5.882
 6185SOL     OW19453   3.374   2.886   5.783
 6185SOL    HW119454   3.437   2.875   5.706
 6185SOL    HW219455   3.295   2.825   5.772
 6186SOL     OW19456   6.541   1.492   1.923
 6186SOL    HW119457   6.570   1.574   1.972
 6186SOL    HW219458   6.565   1.410   1.976
 6187SOL     OW19459   5.483   1.637   5.181
 6187SOL    HW119460   5.550   1.657   5.109
 6187SOL    HW219461   5.405   1.588   5.142
 6188SOL     OW19462   1.416   2.165   5.218
 6188SOL    HW119463   1.325   2.153   5.178
 6188SOL    HW219464   1.409   2.177   5.317
 6189SOL     OW19465   6.451   6.028   2.600
 6189SOL    HW119466   6.376   5.962   2.601
 6189SOL    HW219467   6.523   5.996   2.538
 6190SOL     OW19468   0.247   2.555   5.632
 6190SOL    HW119469   0.265   2.514   5.721
 6190SOL    HW219470   0.333   2.580   5.588
 6191SOL     OW19471   3.687   3.476   6.543
 6191SOL    HW119472   3.646   3.562   6.512
 6191SOL    HW219473   3.761   3.497   6.608
 6192SOL     OW19474   2.886   1.529   6.931
 6192SOL    HW119475   2.829   1.541   7.012
 6192SOL    HW219476   2.903   1.432   6.916
 6193SOL     OW19477   4.547   5.516   6.860
 6193SOL    HW119478   4.591   5.501   6.772
 6193SOL    HW219479   4.616   5.539   6.929
 6194SOL     OW19480   6.365   0.211   5.840
 6194SOL    HW119481   6.441   0.210   5.776
 6194SOL    HW219482   6.299   0.281   5.813
 6195SOL     OW19483   6.544   6.616   5.748
 6195SOL    HW119484   6.634   6.594   5.784
 6195SOL    HW219485   6.540   6.596   5.650
 6196SOL     OW19486   5.970   3.643   3.323
 6196SOL    HW119487   6.003   3.565   3.375
 6196SOL    HW219488   5.881   3.621   3.281
 6197SOL     OW19489   3.161   5.784   1.787
 6197SOL    HW119490   3.221   5.839   1.845
 6197SOL    HW219491   3.211   5.703   1.756
 6198SOL     OW19492   6.421   6.496   6.218
 6198SOL    HW119493   6.513   6.512   6.182
 6198SOL    HW219494   6.409   6.549   6.302
 6199SOL     OW19495   1.310   0.258   0.958
 6199SOL    HW119496   1.222   0.211   0.967
 6199SOL    HW219497   1.379   0.211   1.014
 6200SOL     OW19498   1.754   2.171   3.130
 6200SOL    HW119499   1.736   2.233   3.054
 6200SOL    HW219500   1.743   2.076   3.099
 6201SOL     OW19501   6.772   3.481   4.028
 6201SOL    HW119502   6.772   3.463   3.929
 6201SOL    HW219503   6.808   3.402   4.076
 6202SOL     OW19504   5.916   1.527   2.336
 6202SOL    HW119505   5.967   1.608   2.365
 6202SOL    HW219506   5.888   1.475   2.417
 6203SOL     OW19507   7.003   5.968   2.448
 6203SOL    HW119508   0.005   5.949   2.354
 6203SOL    HW219509   6.970   6.062   2.454
 6204SOL     OW19510   2.349   6.990   5.207
 6204SOL    HW119511   2.378   6.986   5.303
 6204SOL    HW219512   2.254   6.961   5.200
 6205SOL     OW19513   5.352   4.196   3.184
 6205SOL    HW119514   5.261   4.210   3.145
 6205SOL    HW219515   5.414   4.267   3.150
 6206SOL     OW19516   5.382   2.137   3.673
 6206SOL    HW119517   5.302   2.079   3.686
 6206SOL    HW219518   5.355   2.220   3.624
 6207SOL     OW19519   2.106   5.309   4.384
 6207SOL    HW119520   2.061   5.226   4.351
 6207SOL    HW219521   2.201   5.311   4.351
 6208SOL     OW19522   3.633   3.403   5.703
 6208SOL    HW119523   3.570   3.469   5.662
 6208SOL    HW219524   3.594   3.312   5.699
 6209SOL     OW19525   3.394   3.123   0.976
 6209SOL    HW119526   3.431   3.108   1.068
 6209SOL    HW219527   3.454   3.081   0.909
 6210SOL     OW19528   4.765   1.900   3.681
 6210SOL    HW119529   4.838   1.926   3.744
 6210SOL    HW219530   4.679   1.941   3.710
 6211SOL     OW19531   5.888   5.068   4.863
 6211SOL    HW119532   5.947   5.002   4.816
 6211SOL    HW219533   5.939   5.113   4.936
 6212SOL     OW19534   4.359   4.783   5.505
 6212SOL    HW119535   4.412   4.791   5.421
 6212SOL    HW219536   4.261   4.776   5.483
 6213SOL     OW19537   4.444   5.938   0.144
 6213SOL    HW119538   4.489   6.004   0.085
 6213SOL    HW219539   4.478   5.948   0.238
 6214SOL     OW19540   5.869   5.798   6.733
 6214SOL    HW119541   5.948   5.856   6.712
 6214SOL    HW219542   5.888   5.704   6.704
 6215SOL     OW19543   6.098   2.669   5.890
 6215SOL    HW119544   6.112   2.596   5.823
 6215SOL    HW219545   6.038   2.739   5.852
 6216SOL     OW19546   4.529   2.099   2.833
 6216SOL    HW119547   4.581   2.134   2.755
 6216SOL    HW219548   4.453   2.161   2.853
 6217SOL     OW19549   0.741   4.804   2.279
 6217SOL    HW119550   0.723   4.735   2.349
 6217SOL    HW219551   0.778   4.759   2.197
 6218SOL     OW19552   4.911   6.713   6.745
 6218SOL    HW119553   4.908   6.617   6.771
 6218SOL    HW219554   5.005   6.747   6.756
 6219SOL     OW19555   0.863   0.727   5.937
 6219SOL    HW119556   0.779   0.781   5.949
 6219SOL    HW219557   0.884   0.679   6.021
 6220SOL     OW19558   4.244   0.907   0.962
 6220SOL    HW119559   4.323   0.891   1.021
 6220SOL    HW219560   4.196   0.990   0.991
 6221SOL     OW19561   6.242   5.610   6.651
 6221SOL    HW119562   6.227   5.540   6.720
 6221SOL    HW219563   6.162   5.615   6.591
 6222SOL     OW19564   6.263   1.564   2.431
 6222SOL    HW119565   6.331   1.607   2.372
 6222SOL    HW219566   6.245   1.471   2.399
 6223SOL     OW19567   0.169   4.739   3.415
 6223SOL    HW119568   0.168   4.833   3.380
 6223SOL    HW219569   0.252   4.693   3.383
 6224SOL     OW19570   3.863   1.524   6.575
 6224SOL    HW119571   3.848   1.600   6.511
 6224SOL    HW219572   3.882   1.560   6.666
 6225SOL     OW19573   4.550   6.643   6.561
 6225SOL    HW119574   4.645   6.654   6.535
 6225SOL    HW219575   4.490   6.663   6.483
 6226SOL     OW19576   1.342   1.024   4.820
 6226SOL    HW119577   1.371   1.114   4.855
 6226SOL    HW219578   1.336   0.960   4.897
 6227SOL     OW19579   2.834   3.793   5.439
 6227SOL    HW119580   2.754   3.839   5.400
 6227SOL    HW219581   2.893   3.861   5.483
 6228SOL     OW19582   1.581   3.086   4.007
 6228SOL    HW119583   1.648   3.158   4.024
 6228SOL    HW219584   1.576   3.068   3.909
 6229SOL     OW19585   0.432   3.920   4.227
 6229SOL    HW119586   0.486   3.856   4.282
 6229SOL    HW219587   0.472   4.012   4.234
 6230SOL     OW19588   0.261   0.952   2.213
 6230SOL    HW119589   0.182   0.951   2.275
 6230SOL    HW219590   0.306   0.863   2.216
 6231SOL     OW19591   1.139   5.389   0.059
 6231SOL    HW119592   1.194   5.318   0.102
 6231SOL    HW219593   1.120   5.461   0.125
 6232SOL     OW19594   4.259   1.296   6.391
 6232SOL    HW119595   4.224   1.367   6.330
 6232SOL    HW219596   4.198   1.286   6.469
 6233SOL     OW19597   6.955   3.753   1.718
 6233SOL    HW119598   7.012   3.672   1.733
 6233SOL    HW219599   6.887   3.760   1.791
 6234SOL     OW19600   5.005   6.463   4.921
 6234SOL    HW119601   4.972   6.555   4.901
 6234SOL    HW219602   4.940   6.417   4.982
 6235SOL     OW19603   6.456   0.610   3.211
 6235SOL    HW119604   6.484   0.642   3.120
 6235SOL    HW219605   6.496   0.670   3.281
 6236SOL     OW19606   1.006   5.106   0.710
 6236SOL    HW119607   0.972   5.014   0.725
 6236SOL    HW219608   0.929   5.170   0.703
 6237SOL     OW19609   3.751   1.329   0.934
 6237SOL    HW119610   3.659   1.303   0.905
 6237SOL    HW219611   3.818   1.271   0.890
 6238SOL     OW19612   2.230   6.814   4.470
 6238SOL    HW119613   2.220   6.780   4.563
 6238SOL    HW219614   2.324   6.843   4.454
 6239SOL     OW19615   4.561   1.336   3.319
 6239SOL    HW119616   4.639   1.275   3.331
 6239SOL    HW219617   4.479   1.283   3.297
 6240SOL     OW19618   4.109   3.615   4.186
 6240SOL    HW119619   4.171   3.665   4.247
 6240SOL    HW219620   4.031   3.673   4.164
 6241SOL     OW19621   3.527   0.074   2.862
 6241SOL    HW119622   3.506   0.125   2.946
 6241SOL    HW219623   3.621   0.093   2.834
 6242SOL     OW19624   2.566   2.042   3.912
 6242SOL    HW119625   2.629   2.118   3.896
 6242SOL    HW219626   2.481   2.077   3.952
 6243SOL     OW19627   4.961   0.901   5.809
 6243SOL    HW119628   5.013   0.984   5.829
 6243SOL    HW219629   4.887   0.891   5.874
 6244SOL     OW19630   4.424   4.545   2.878
 6244SOL    HW119631   4.354   4.599   2.830
 6244SOL    HW219632   4.457   4.473   2.817
 6245SOL     OW19633   0.829   4.458   2.587
 6245SOL    HW119634   0.842   4.525   2.514
 6245SOL    HW219635   0.732   4.437   2.596
 6246SOL     OW19636   6.643   6.244   4.293
 6246SOL    HW119637   6.557   6.286   4.321
 6246SOL    HW219638   6.623   6.159   4.244
 6247SOL     OW19639   6.479   6.712   2.449
 6247SOL    HW119640   6.533   6.725   2.532
 6247SOL    HW219641   6.498   6.621   2.411
 6248SOL     OW19642   3.094   3.451   6.232
 6248SOL    HW119643   3.079   3.394   6.313
 6248SOL    HW219644   3.147   3.532   6.257
 6249SOL     OW19645   6.104   3.331   1.664
 6249SOL    HW119646   6.174   3.336   1.593
 6249SOL    HW219647   6.023   3.285   1.628
 6250SOL     OW19648   6.669   0.061   0.538
 6250SOL    HW119649   6.654   7.009   0.480
 6250SOL    HW219650   6.669   0.033   0.634
 6251SOL     OW19651   2.624   6.674   4.075
 6251SOL    HW119652   2.645   6.649   3.981
 6251SOL    HW219653   2.567   6.757   4.075
 6252SOL     OW19654   2.732   5.280   6.769
 6252SOL    HW119655   2.825   5.281   6.734
 6252SOL    HW219656   2.690   5.192   6.750
 6253SOL     OW19657   3.790   4.945   5.161
 6253SOL    HW119658   3.773   4.911   5.253
 6253SOL    HW219659   3.709   4.931   5.104
 6254SOL     OW19660   0.257   6.621   1.333
 6254SOL    HW119661   0.212   6.706   1.304
 6254SOL    HW219662   0.356   6.629   1.316
 6255SOL     OW19663   0.345   1.217   2.242
 6255SOL    HW119664   0.307   1.257   2.159
 6255SOL    HW219665   0.326   1.119   2.244
 6256SOL     OW19666   4.693   5.735   2.296
 6256SOL    HW119667   4.771   5.720   2.357
 6256SOL    HW219668   4.651   5.823   2.318
 6257SOL     OW19669   3.764   4.180   1.563
 6257SOL    HW119670   3.670   4.187   1.531
 6257SOL    HW219671   3.820   4.136   1.493
 6258SOL     OW19672   4.249   6.112   5.566
 6258SOL    HW119673   4.190   6.151   5.495
 6258SOL    HW219674   4.268   6.181   5.636
 6259SOL     OW19675   2.525   0.533   4.848
 6259SOL    HW119676   2.472   0.513   4.931
 6259SOL    HW219677   2.464   0.567   4.777
 6260SOL     OW19678   1.918   1.619   0.672
 6260SOL    HW119679   1.907   1.718   0.680
 6260SOL    HW219680   1.909   1.592   0.576
 6261SOL     OW19681   3.615   6.978   1.139
 6261SOL    HW119682   3.711   6.962   1.160
 6261SOL    HW219683   3.575   0.010   1.208
 6262SOL     OW19684   6.504   0.148   2.374
 6262SOL    HW119685   6.587   0.098   2.349
 6262SOL    HW219686   6.475   0.121   2.466
 6263SOL     OW19687   6.041   5.845   6.383
 6263SOL    HW119688   6.123   5.815   6.334
 6263SOL    HW219689   5.960   5.808   6.338
 6264SOL     OW19690   1.853   0.014   0.668
 6264SOL    HW119691   1.773   6.987   0.646
 6264SOL    HW219692   1.928   6.982   0.696
 6265SOL     OW19693   4.769   0.967   0.185
 6265SOL    HW119694   4.845   1.023   0.218
 6265SOL    HW219695   4.804   0.879   0.153
 6266SOL     OW19696   2.734   5.058   2.750
 6266SOL    HW119697   2.787   5.142   2.739
 6266SOL    HW219698   2.664   5.053   2.679
 6267SOL     OW19699   1.686   6.310   4.888
 6267SOL    HW119700   1.774   6.293   4.932
 6267SOL    HW219701   1.646   6.394   4.923
 6268SOL     OW19702   3.490   1.354   1.349
 6268SOL    HW119703   3.515   1.292   1.423
 6268SOL    HW219704   3.465   1.443   1.388
 6269SOL     OW19705   6.297   5.255   0.326
 6269SOL    HW119706   6.269   5.303   0.409
 6269SOL    HW219707   6.330   5.164   0.350
 6270SOL     OW19708   2.022   6.673   6.948
 6270SOL    HW119709   2.012   6.596   6.884
 6270SOL    HW219710   2.106   6.723   6.927
 6271SOL     OW19711   5.581   3.222   6.388
 6271SOL    HW119712   5.585   3.285   6.466
 6271SOL    HW219713   5.618   3.267   6.307
 6272SOL     OW19714   0.461   6.949   0.878
 6272SOL    HW119715   0.463   6.960   0.779
 6272SOL    HW219716   0.551   6.917   0.910
 6273SOL     OW19717   6.986   6.361   1.195
 6273SOL    HW119718   7.002   6.430   1.265
 6273SOL    HW219719   0.044   6.313   1.175
 6274SOL     OW19720   3.300   5.842   4.076
 6274SOL    HW119721   3.226   5.812   4.137
 6274SOL    HW219722   3.328   5.764   4.019
 6275SOL     OW19723   1.926   5.333   6.883
 6275SOL    HW119724   1.913   5.423   6.843
 6275SOL    HW219725   2.022   5.324   6.913
 6276SOL     OW19726   1.422   5.652   2.897
 6276SOL    HW119727   1.396   5.638   2.992
 6276SOL    HW219728   1.412   5.749   2.874
 6277SOL     OW19729   5.059   4.007   1.012
 6277SOL    HW119730   4.999   3.928   1.021
 6277SOL    HW219731   5.127   3.989   0.940
 6278SOL     OW19732   2.692   1.158   6.077
 6278SOL    HW119733   2.663   1.254   6.072
 6278SOL    HW219734   2.613   1.100   6.098
 6279SOL     OW19735   2.662   0.075   1.538
 6279SOL    HW119736   2.582   0.091   1.480
 6279SOL    HW219737   2.632   0.051   1.630
 6280SOL     OW19738   6.338   2.099   0.206
 6280SOL    HW119739   6.325   2.175   0.270
 6280SOL    HW219740   6.263   2.033   0.217
 6281SOL     OW19741   5.951   3.937   5.888
 6281SOL    HW119742   5.960   3.932   5.987
 6281SOL    HW219743   5.999   3.860   5.846
 6282SOL     OW19744   0.051   3.198   5.869
 6282SOL    HW119745   0.064   3.291   5.836
 6282SOL    HW219746   0.134   3.167   5.915
 6283SOL     OW19747   1.207   6.073   4.516
 6283SOL    HW119748   1.172   6.008   4.583
 6283SOL    HW219749   1.305   6.059   4.504
 6284SOL     OW19750   1.915   4.182   6.521
 6284SOL    HW119751   1.931   4.086   6.500
 6284SOL    HW219752   1.982   4.238   6.472
 6285SOL     OW19753   0.984   3.885   3.326
 6285SOL    HW119754   1.060   3.935   3.284
 6285SOL    HW219755   0.899   3.934   3.309
 6286SOL     OW19756   0.925   2.602   6.593
 6286SOL    HW119757   0.946   2.700   6.587
 6286SOL    HW219758   0.827   2.589   6.608
 6287SOL     OW19759   4.884   4.840   4.796
 6287SOL    HW119760   4.967   4.878   4.836
 6287SOL    HW219761   4.871   4.746   4.828
 6288SOL     OW19762   3.556   3.032   6.559
 6288SOL    HW119763   3.526   2.972   6.485
 6288SOL    HW219764   3.650   3.011   6.583
 6289SOL     OW19765   2.877   4.262   5.862
 6289SOL    HW119766   2.818   4.342   5.869
 6289SOL    HW219767   2.964   4.288   5.822
 6290SOL     OW19768   5.272   5.680   4.190
 6290SOL    HW119769   5.246   5.669   4.094
 6290SOL    HW219770   5.344   5.748   4.198
 6291SOL     OW19771   4.101   3.761   3.275
 6291SOL    HW119772   4.186   3.801   3.308
 6291SOL    HW219773   4.025   3.821   3.299
 6292SOL     OW19774   1.439   3.251   4.209
 6292SOL    HW119775   1.447   3.182   4.137
 6292SOL    HW219776   1.530   3.272   4.245
 6293SOL     OW19777   3.814   1.066   6.724
 6293SOL    HW119778   3.836   1.128   6.649
 6293SOL    HW219779   3.838   0.973   6.699
 6294SOL     OW19780   1.495   1.238   3.298
 6294SOL    HW119781   1.456   1.168   3.357
 6294SOL    HW219782   1.562   1.292   3.349
 6295SOL     OW19783   5.355   3.850   5.968
 6295SOL    HW119784   5.449   3.858   5.936
 6295SOL    HW219785   5.353   3.806   6.058
 6296SOL     OW19786   0.756   2.713   0.025
 6296SOL    HW119787   0.743   2.637   0.088
 6296SOL    HW219788   0.834   2.768   0.055
 6297SOL     OW19789   5.913   1.137   3.917
 6297SOL    HW119790   5.915   1.061   3.851
 6297SOL    HW219791   5.979   1.207   3.888
 6298SOL     OW19792   6.374   5.629   0.566
 6298SOL    HW119793   6.304   5.669   0.625
 6298SOL    HW219794   6.464   5.664   0.593
 6299SOL     OW19795   4.268   1.561   2.565
 6299SOL    HW119796   4.207   1.614   2.625
 6299SOL    HW219797   4.286   1.613   2.482
 6300SOL     OW19798   3.018   0.998   6.365
 6300SOL    HW119799   3.019   0.899   6.350
 6300SOL    HW219800   3.027   1.045   6.277
 6301SOL     OW19801   3.657   6.275   6.773
 6301SOL    HW119802   3.754   6.294   6.787
 6301SOL    HW219803   3.634   6.186   6.811
 6302SOL     OW19804   3.042   1.795   6.342
 6302SOL    HW119805   2.962   1.824   6.395
 6302SOL    HW219806   3.078   1.710   6.380
 6303SOL     OW19807   0.933   5.909   5.040
 6303SOL    HW119808   0.900   5.838   4.978
 6303SOL    HW219809   0.856   5.951   5.086
 6304SOL     OW19810   4.448   0.636   3.283
 6304SOL    HW119811   4.386   0.666   3.356
 6304SOL    HW219812   4.522   0.702   3.273
 6305SOL     OW19813   1.069   5.958   6.097
 6305SOL    HW119814   1.092   5.983   6.192
 6305SOL    HW219815   1.145   5.982   6.037
 6306SOL     OW19816   0.365   4.476   4.479
 6306SOL    HW119817   0.436   4.498   4.411
 6306SOL    HW219818   0.306   4.404   4.444
 6307SOL     OW19819   3.954   3.673   3.062
 6307SOL    HW119820   4.022   3.668   3.135
 6307SOL    HW219821   3.864   3.653   3.099
 6308SOL     OW19822   6.974   2.330   0.556
 6308SOL    HW119823   6.944   2.345   0.650
 6308SOL    HW219824   0.030   2.275   0.556
 6309SOL     OW19825   2.038   6.011   4.538
 6309SOL    HW119826   2.034   6.028   4.636
 6309SOL    HW219827   2.066   6.094   4.490
 6310SOL     OW19828   1.359   6.544   3.145
 6310SOL    HW119829   1.337   6.482   3.070
 6310SOL    HW219830   1.328   6.505   3.232
 6311SOL     OW19831   5.098   0.878   5.436
 6311SOL    HW119832   5.119   0.837   5.348
 6311SOL    HW219833   5.113   0.977   5.431
 6312SOL     OW19834   3.464   5.973   6.498
 6312SOL    HW119835   3.550   5.949   6.454
 6312SOL    HW219836   3.438   6.066   6.473
 6313SOL     OW19837   5.679   5.568   4.517
 6313SOL    HW119838   5.635   5.581   4.428
 6313SOL    HW219839   5.688   5.470   4.536
 6314SOL     OW19840   1.719   7.027   2.519
 6314SOL    HW119841   1.800   7.020   2.462
 6314SOL    HW219842   1.745   0.021   2.613
 6315SOL     OW19843   2.027   2.571   4.678
 6315SOL    HW119844   1.940   2.524   4.661
 6315SOL    HW219845   2.020   2.627   4.760
 6316SOL     OW19846   5.147   0.958   4.629
 6316SOL    HW119847   5.195   1.026   4.684
 6316SOL    HW219848   5.096   0.896   4.688
 6317SOL     OW19849   5.178   5.025   1.707
 6317SOL    HW119850   5.133   5.032   1.619
 6317SOL    HW219851   5.215   4.933   1.719
 6318SOL     OW19852   6.732   6.655   6.433
 6318SOL    HW119853   6.825   6.630   6.408
 6318SOL    HW219854   6.733   6.739   6.488
 6319SOL     OW19855   5.322   1.002   4.397
 6319SOL    HW119856   5.338   1.100   4.393
 6319SOL    HW219857   5.252   0.983   4.466
 6320SOL     OW19858   6.245   0.422   5.739
 6320SOL    HW119859   6.278   0.477   5.662
 6320SOL    HW219860   6.146   0.434   5.749
 6321SOL     OW19861   5.991   2.139   6.634
 6321SOL    HW119862   6.047   2.127   6.715
 6321SOL    HW219863   5.982   2.237   6.614
 6322SOL     OW19864   1.230   1.423   1.782
 6322SOL    HW119865   1.324   1.444   1.809
 6322SOL    HW219866   1.212   1.463   1.692
 6323SOL     OW19867   2.509   4.097   1.341
 6323SOL    HW119868   2.533   4.023   1.278
 6323SOL    HW219869   2.410   4.114   1.335
 6324SOL     OW19870   4.928   1.588   0.983
 6324SOL    HW119871   5.020   1.598   0.946
 6324SOL    HW219872   4.906   1.491   0.994
 6325SOL     OW19873   1.864   3.027   3.767
 6325SOL    HW119874   1.896   3.050   3.859
 6325SOL    HW219875   1.767   3.004   3.770
 6326SOL     OW19876   5.352   4.875   5.972
 6326SOL    HW119877   5.362   4.862   5.874
 6326SOL    HW219878   5.440   4.901   6.011
 6327SOL     OW19879   0.164   1.000   3.878
 6327SOL    HW119880   0.255   0.959   3.876
 6327SOL    HW219881   0.121   0.980   3.966
 6328SOL     OW19882   4.483   3.524   5.297
 6328SOL    HW119883   4.571   3.524   5.249
 6328SOL    HW219884   4.453   3.619   5.310
 6329SOL     OW19885   1.344   2.208   5.807
 6329SOL    HW119886   1.355   2.174   5.900
 6329SOL    HW219887   1.303   2.136   5.750
 6330SOL     OW19888   5.115   1.407   3.527
 6330SOL    HW119889   5.088   1.500   3.551
 6330SOL    HW219890   5.211   1.407   3.498
 6331SOL     OW19891   0.980   3.338   3.728
 6331SOL    HW119892   1.004   3.346   3.631
 6331SOL    HW219893   0.882   3.323   3.738
 6332SOL     OW19894   3.202   1.514   0.158
 6332SOL    HW119895   3.210   1.563   0.071
 6332SOL    HW219896   3.256   1.561   0.228
 6333SOL     OW19897   5.319   1.921   0.844
 6333SOL    HW119898   5.242   1.963   0.796
 6333SOL    HW219899   5.404   1.967   0.818
 6334SOL     OW19900   1.616   1.468   2.349
 6334SOL    HW119901   1.681   1.518   2.406
 6334SOL    HW219902   1.644   1.473   2.254
 6335SOL     OW19903   6.620   1.440   0.221
 6335SOL    HW119904   6.570   1.402   0.143
 6335SOL    HW219905   6.556   1.483   0.285
 6336SOL     OW19906   0.715   3.038   5.669
 6336SOL    HW119907   0.737   2.975   5.743
 6336SOL    HW219908   0.799   3.067   5.623
 6337SOL     OW19909   4.599   5.285   5.395
 6337SOL    HW119910   4.625   5.341   5.316
 6337SOL    HW219911   4.502   5.297   5.414
 6338SOL     OW19912   2.494   1.567   3.310
 6338SOL    HW119913   2.448   1.556   3.398
 6338SOL    HW219914   2.518   1.478   3.273
 6339SOL     OW19915   0.687   4.668   3.163
 6339SOL    HW119916   0.643   4.656   3.074
 6339SOL    HW219917   0.786   4.666   3.152
 6340SOL     OW19918   2.134   4.105   1.119
 6340SOL    HW119919   2.065   4.041   1.086
 6340SOL    HW219920   2.148   4.177   1.051
 6341SOL     OW19921   0.430   5.244   3.578
 6341SOL    HW119922   0.493   5.258   3.655
 6341SOL    HW219923   0.414   5.146   3.567
 6342SOL     OW19924   2.131   1.445   1.631
 6342SOL    HW119925   2.218   1.432   1.584
 6342SOL    HW219926   2.112   1.365   1.688
 6343SOL     OW19927   1.386   5.656   1.206
 6343SOL    HW119928   1.413   5.638   1.301
 6343SOL    HW219929   1.373   5.754   1.193
 6344SOL     OW19930   6.828   1.257   4.047
 6344SOL    HW119931   6.865   1.207   3.968
 6344SOL    HW219932   6.743   1.302   4.021
 6345SOL     OW19933   5.608   3.673   2.107
 6345SOL    HW119934   5.545   3.656   2.032
 6345SOL    HW219935   5.599   3.767   2.138
 6346SOL     OW19936   6.661   4.244   5.360
 6346SOL    HW119937   6.760   4.244   5.377
 6346SOL    HW219938   6.637   4.323   5.304
 6347SOL     OW19939   1.972   1.785   3.211
 6347SOL    HW119940   1.982   1.723   3.133
 6347SOL    HW219941   2.054   1.781   3.268
 6348SOL     OW19942   0.168   2.148   5.826
 6348SOL    HW119943   0.232   2.106   5.889
 6348SOL    HW219944   0.167   2.247   5.838
 6349SOL     OW19945   7.000   1.389   6.925
 6349SOL    HW119946   7.014   1.456   6.998
 6349SOL    HW219947   0.041   1.404   6.853
 6350SOL     OW19948   1.152   5.145   1.703
 6350SOL    HW119949   1.162   5.219   1.770
 6350SOL    HW219950   1.233   5.143   1.644
 6351SOL     OW19951   5.734   2.845   1.835
 6351SOL    HW119952   5.705   2.750   1.840
 6351SOL    HW219953   5.683   2.899   1.902
 6352SOL     OW19954   2.956   0.358   4.475
 6352SOL    HW119955   2.947   0.451   4.510
 6352SOL    HW219956   3.049   0.326   4.489
 6353SOL     OW19957   3.434   5.935   5.702
 6353SOL    HW119958   3.434   5.838   5.727
 6353SOL    HW219959   3.344   5.974   5.722
 6354SOL     OW19960   4.688   5.478   1.816
 6354SOL    HW119961   4.664   5.542   1.889
 6354SOL    HW219962   4.783   5.450   1.825
 6355SOL     OW19963   2.386   4.549   1.009
 6355SOL    HW119964   2.465   4.563   1.069
 6355SOL    HW219965   2.379   4.626   0.945
 6356SOL     OW19966   6.316   4.718   6.270
 6356SOL    HW119967   6.367   4.803   6.255
 6356SOL    HW219968   6.323   4.692   6.366
 6357SOL     OW19969   5.896   1.132   1.437
 6357SOL    HW119970   5.979   1.187   1.450
 6357SOL    HW219971   5.868   1.138   1.342
 6358SOL     OW19972   1.407   2.031   6.606
 6358SOL    HW119973   1.332   2.068   6.661
 6358SOL    HW219974   1.399   2.066   6.513
 6359SOL     OW19975   5.430   6.546   0.310
 6359SOL    HW119976   5.354   6.600   0.275
 6359SOL    HW219977   5.408   6.512   0.402
 6360SOL     OW19978   0.957   2.598   2.217
 6360SOL    HW119979   0.967   2.551   2.130
 6360SOL    HW219980   1.043   2.593   2.268
 6361SOL     OW19981   0.258   0.659   6.713
 6361SOL    HW119982   0.275   0.634   6.808
 6361SOL    HW219983   0.225   0.578   6.663
 6362SOL     OW19984   1.329   5.968   0.671
 6362SOL    HW119985   1.318   5.937   0.576
 6362SOL    HW219986   1.295   5.897   0.733
 6363SOL     OW19987   2.355   4.370   3.245
 6363SOL    HW119988   2.389   4.311   3.172
 6363SOL    HW219989   2.273   4.330   3.285
 6364SOL     OW19990   2.323   2.532   4.340
 6364SOL    HW119991   2.416   2.530   4.378
 6364SOL    HW219992   2.298   2.627   4.320
 6365SOL     OW19993   5.839   5.714   3.260
 6365SOL    HW119994   5.864   5.730   3.356
 6365SOL    HW219995   5.878   5.786   3.203
 6366SOL     OW19996   6.114   0.155   4.928
 6366SOL    HW119997   6.067   0.122   5.010
 6366SOL    HW219998   6.144   0.250   4.942
 6367SOL     OW19999   2.326   2.121   2.029
 6367SOL    HW120000   2.330   2.151   2.125
 6367SOL    HW220001   2.240   2.072   2.014
 6368SOL     OW20002   4.862   2.977   4.609
 6368SOL    HW120003   4.811   2.893   4.588
 6368SOL    HW220004   4.949   2.952   4.653
 6369SOL     OW20005   3.808   5.466   6.572
 6369SOL    HW120006   3.797   5.379   6.524
 6369SOL    HW220007   3.730   5.480   6.634
 6370SOL     OW20008   5.187   3.516   4.259
 6370SOL    HW120009   5.228   3.499   4.169
 6370SOL    HW220010   5.211   3.608   4.289
 6371SOL     OW20011   4.889   4.171   1.461
 6371SOL    HW120012   4.932   4.165   1.371
 6371SOL    HW220013   4.838   4.087   1.479
 6372SOL     OW20014   6.385   1.739   2.606
 6372SOL    HW120015   6.374   1.832   2.571
 6372SOL    HW220016   6.332   1.676   2.549
 6373SOL     OW20017   4.546   4.493   1.242
 6373SOL    HW120018   4.583   4.519   1.153
 6373SOL    HW220019   4.462   4.545   1.260
 6374SOL     OW20020   4.619   3.680   6.800
 6374SOL    HW120021   4.591   3.589   6.768
 6374SOL    HW220022   4.712   3.674   6.837
 6375SOL     OW20023   5.618   2.143   2.024
 6375SOL    HW120024   5.529   2.099   2.014
 6375SOL    HW220025   5.625   2.184   2.115
 6376SOL     OW20026   3.760   1.284   6.491
 6376SOL    HW120027   3.807   1.268   6.404
 6376SOL    HW220028   3.803   1.361   6.538
 6377SOL     OW20029   6.417   0.366   0.615
 6377SOL    HW120030   6.463   0.416   0.541
 6377SOL    HW220031   6.446   0.404   0.703
 6378SOL     OW20032   5.533   5.364   2.069
 6378SOL    HW120033   5.504   5.343   1.976
 6378SOL    HW220034   5.501   5.456   2.093
 6379SOL     OW20035   2.134   5.934   6.450
 6379SOL    HW120036   2.101   5.987   6.528
 6379SOL    HW220037   2.124   5.987   6.366
 6380SOL     OW20038   1.271   3.503   5.171
 6380SOL    HW120039   1.182   3.460   5.190
 6380SOL    HW220040   1.268   3.599   5.198
 6381SOL     OW20041   4.239   2.436   0.105
 6381SOL    HW120042   4.331   2.412   0.074
 6381SOL    HW220043   4.174   2.423   0.029
 6382SOL     OW20044   1.744   1.819   1.069
 6382SOL    HW120045   1.828   1.853   1.112
 6382SOL    HW220046   1.701   1.894   1.017
 6383SOL     OW20047   2.392   2.645   2.484
 6383SOL    HW120048   2.302   2.606   2.467
 6383SOL    HW220049   2.387   2.745   2.477
 6384SOL     OW20050   6.328   2.643   2.785
 6384SOL    HW120051   6.249   2.662   2.726
 6384SOL    HW220052   6.298   2.644   2.880
 6385SOL     OW20053   0.093   3.044   1.571
 6385SOL    HW120054   0.056   2.994   1.649
 6385SOL    HW220055   0.051   3.008   1.487
 6386SOL     OW20056   2.355   3.917   0.402
 6386SOL    HW120057   2.415   3.982   0.450
 6386SOL    HW220058   2.341   3.948   0.308
 6387SOL     OW20059   6.841   0.165   6.513
 6387SOL    HW120060   6.779   0.089   6.534
 6387SOL    HW220061   6.814   0.207   6.426
 6388SOL     OW20062   6.825   5.188   2.095
 6388SOL    HW120063   6.732   5.192   2.131
 6388SOL    HW220064   6.879   5.264   2.131
 6389SOL     OW20065   0.946   0.416   6.969
 6389SOL    HW120066   0.880   0.395   6.897
 6389SOL    HW220067   0.900   0.467   0.014
 6390SOL     OW20068   5.654   0.804   6.777
 6390SOL    HW120069   5.564   0.778   6.745
 6390SOL    HW220070   5.673   0.759   6.865
 6391SOL     OW20071   0.785   1.485   5.051
 6391SOL    HW120072   0.784   1.508   5.148
 6391SOL    HW220073   0.826   1.394   5.039
 6392SOL     OW20074   3.714   6.743   3.429
 6392SOL    HW120075   3.739   6.647   3.445
 6392SOL    HW220076   3.690   6.756   3.333
 6393SOL     OW20077   0.191   5.461   6.856
 6393SOL    HW120078   0.201   5.547   6.806
 6393SOL    HW220079   0.228   5.472   6.948
 6394SOL     OW20080   1.158   5.676   1.486
 6394SOL    HW120081   1.238   5.733   1.466
 6394SOL    HW220082   1.137   5.681   1.583
 6395SOL     OW20083   2.135   3.714   3.407
 6395SOL    HW120084   2.151   3.638   3.344
 6395SOL    HW220085   2.036   3.730   3.415
 6396SOL     OW20086   1.032   3.517   6.600
 6396SOL    HW120087   1.059   3.478   6.689
 6396SOL    HW220088   1.036   3.616   6.604
 6397SOL     OW20089   5.227   3.375   3.984
 6397SOL    HW120090   5.301   3.339   4.042
 6397SOL    HW220091   5.164   3.301   3.962
 6398SOL     OW20092   2.205   0.273   1.012
 6398SOL    HW120093   2.119   0.289   1.060
 6398SOL    HW220094   2.280   0.317   1.061
 6399SOL     OW20095   3.738   0.883   6.110
 6399SOL    HW120096   3.649   0.851   6.079
 6399SOL    HW220097   3.808   0.818   6.082
 6400SOL     OW20098   1.412   6.428   3.406
 6400SOL    HW120099   1.492   6.381   3.369
 6400SOL    HW220100   1.435   6.524   3.423
 6401SOL     OW20101   3.619   5.641   3.495
 6401SOL    HW120102   3.609   5.631   3.395
 6401SOL    HW220103   3.713   5.668   3.516
 6402SOL     OW20104   1.848   4.450   4.891
 6402SOL    HW120105   1.846   4.354   4.862
 6402SOL    HW220106   1.782   4.465   4.964
 6403SOL     OW20107   4.952   5.712   5.049
 6403SOL    HW120108   4.933   5.775   5.124
 6403SOL    HW220109   5.013   5.755   4.983
 6404SOL     OW20110   4.593   6.792   2.270
 6404SOL    HW120111   4.592   6.878   2.219
 6404SOL    HW220112   4.500   6.755   2.274
 6405SOL     OW20113   5.174   1.880   2.090
 6405SOL    HW120114   5.135   1.964   2.128
 6405SOL    HW220115   5.255   1.853   2.142
 6406SOL     OW20116   0.332   2.989   3.112
 6406SOL    HW120117   0.237   2.967   3.087
 6406SOL    HW220118   0.336   3.020   3.207
 6407SOL     OW20119   1.207   5.965   2.414
 6407SOL    HW120120   1.268   6.042   2.401
 6407SOL    HW220121   1.254   5.880   2.391
 6408SOL     OW20122   6.686   0.251   1.684
 6408SOL    HW120123   6.651   0.180   1.623
 6408SOL    HW220124   6.609   0.292   1.735
 6409SOL     OW20125   5.566   4.994   3.391
 6409SOL    HW120126   5.621   5.050   3.328
 6409SOL    HW220127   5.478   5.039   3.405
 6410SOL     OW20128   2.178   1.350   6.032
 6410SOL    HW120129   2.198   1.446   6.011
 6410SOL    HW220130   2.154   1.302   5.948
 6411SOL     OW20131   0.510   2.500   2.070
 6411SOL    HW120132   0.570   2.492   1.990
 6411SOL    HW220133   0.440   2.429   2.065
 6412SOL     OW20134   3.573   0.816   0.401
 6412SOL    HW120135   3.666   0.831   0.434
 6412SOL    HW220136   3.558   0.869   0.317
 6413SOL     OW20137   4.901   6.528   3.332
 6413SOL    HW120138   4.877   6.618   3.370
 6413SOL    HW220139   4.830   6.462   3.356
 6414SOL     OW20140   1.643   0.304   0.219
 6414SOL    HW120141   1.653   0.313   0.318
 6414SOL    HW220142   1.711   0.240   0.183
 6415SOL     OW20143   0.534   2.470   3.601
 6415SOL    HW120144   0.574   2.553   3.561
 6415SOL    HW220145   0.497   2.412   3.528
 6416SOL     OW20146   2.809   6.795   0.489
 6416SOL    HW120147   2.768   6.823   0.402
 6416SOL    HW220148   2.856   6.707   0.477
 6417SOL     OW20149   3.752   1.945   0.676
 6417SOL    HW120150   3.677   1.882   0.659
 6417SOL    HW220151   3.836   1.907   0.637
 6418SOL     OW20152   4.048   4.993   0.363
 6418SOL    HW120153   4.121   4.925   0.375
 6418SOL    HW220154   3.976   4.953   0.306
 6419SOL     OW20155   1.486   6.504   6.441
 6419SOL    HW120156   1.442   6.500   6.531
 6419SOL    HW220157   1.420   6.536   6.373
 6420SOL     OW20158   2.314   4.169   4.611
 6420SOL    HW120159   2.306   4.227   4.692
 6420SOL    HW220160   2.399   4.190   4.563
 6421SOL     OW20161   4.242   6.908   1.999
 6421SOL    HW120162   4.255   6.960   2.083
 6421SOL    HW220163   4.145   6.912   1.972
 6422SOL     OW20164   5.903   1.786   4.480
 6422SOL    HW120165   5.895   1.882   4.505
 6422SOL    HW220166   5.889   1.776   4.381
 6423SOL     OW20167   2.277   4.549   4.330
 6423SOL    HW120168   2.262   4.491   4.250
 6423SOL    HW220169   2.268   4.494   4.413
 6424SOL     OW20170   6.263   4.466   5.238
 6424SOL    HW120171   6.296   4.533   5.305
 6424SOL    HW220172   6.274   4.374   5.275
 6425SOL     OW20173   6.930   5.643   3.828
 6425SOL    HW120174   7.005   5.631   3.763
 6425SOL    HW220175   6.882   5.556   3.840
 6426SOL     OW20176   4.648   4.263   5.207
 6426SOL    HW120177   4.638   4.250   5.306
 6426SOL    HW220178   4.726   4.210   5.174
 6427SOL     OW20179   3.917   3.091   3.040
 6427SOL    HW120180   3.871   3.002   3.046
 6427SOL    HW220181   3.861   3.160   3.087
 6428SOL     OW20182   5.460   3.194   0.555
 6428SOL    HW120183   5.518   3.171   0.478
 6428SOL    HW220184   5.478   3.288   0.584
 6429SOL     OW20185   2.118   1.309   5.551
 6429SOL    HW120186   2.178   1.349   5.482
 6429SOL    HW220187   2.026   1.347   5.541
 6430SOL     OW20188   6.693   6.903   5.154
 6430SOL    HW120189   6.599   6.905   5.121
 6430SOL    HW220190   6.738   6.819   5.123
 6431SOL     OW20191   3.832   4.736   1.655
 6431SOL    HW120192   3.808   4.731   1.558
 6431SOL    HW220193   3.750   4.725   1.711
 6432SOL     OW20194   4.622   4.557   5.753
 6432SOL    HW120195   4.712   4.581   5.790
 6432SOL    HW220196   4.633   4.521   5.660
 6433SOL     OW20197   3.247   5.054   6.754
 6433SOL    HW120198   3.309   5.073   6.678
 6433SOL    HW220199   3.196   5.137   6.777
 6434SOL     OW20200   4.324   5.273   6.017
 6434SOL    HW120201   4.352   5.221   5.937
 6434SOL    HW220202   4.323   5.213   6.097
 6435SOL     OW20203   4.857   1.836   1.118
 6435SOL    HW120204   4.890   1.751   1.079
 6435SOL    HW220205   4.881   1.840   1.215
 6436SOL     OW20206   6.718   3.829   4.119
 6436SOL    HW120207   6.806   3.794   4.151
 6436SOL    HW220208   6.714   3.928   4.135
 6437SOL     OW20209   0.692   1.934   5.495
 6437SOL    HW120210   0.624   1.885   5.441
 6437SOL    HW220211   0.659   2.026   5.515
 6438SOL     OW20212   0.806   5.131   0.349
 6438SOL    HW120213   0.724   5.174   0.387
 6438SOL    HW220214   0.846   5.191   0.280
 6439SOL     OW20215   5.879   0.172   3.138
 6439SOL    HW120216   5.832   0.253   3.103
 6439SOL    HW220217   5.848   0.154   3.231
 6440SOL     OW20218   2.696   2.126   0.200
 6440SOL    HW120219   2.719   2.138   0.103
 6440SOL    HW220220   2.707   2.030   0.225
 6441SOL     OW20221   0.678   1.915   2.812
 6441SOL    HW120222   0.706   1.947   2.721
 6441SOL    HW220223   0.745   1.946   2.880
 6442SOL     OW20224   2.899   2.683   5.659
 6442SOL    HW120225   2.927   2.612   5.594
 6442SOL    HW220226   2.809   2.718   5.634
 6443SOL     OW20227   5.261   2.752   0.151
 6443SOL    HW120228   5.180   2.801   0.120
 6443SOL    HW220229   5.236   2.657   0.170
 6444SOL     OW20230   6.318   3.143   4.913
 6444SOL    HW120231   6.381   3.144   4.836
 6444SOL    HW220232   6.301   3.236   4.944
 6445SOL     OW20233   3.484   2.934   2.984
 6445SOL    HW120234   3.492   3.020   2.933
 6445SOL    HW220235   3.448   2.953   3.075
 6446SOL     OW20236   2.455   1.026   6.268
 6446SOL    HW120237   2.513   0.947   6.287
 6446SOL    HW220238   2.448   1.082   6.351
 6447SOL     OW20239   6.483   3.150   1.818
 6447SOL    HW120240   6.388   3.176   1.803
 6447SOL    HW220241   6.500   3.138   1.916
 6448SOL     OW20242   3.204   5.457   1.307
 6448SOL    HW120243   3.107   5.437   1.324
 6448SOL    HW220244   3.257   5.436   1.389
 6449SOL     OW20245   2.355   5.658   1.390
 6449SOL    HW120246   2.430   5.600   1.421
 6449SOL    HW220247   2.376   5.693   1.298
 6450SOL     OW20248   0.740   4.058   1.087
 6450SOL    HW120249   0.771   4.114   1.164
 6450SOL    HW220250   0.793   4.082   1.006
 6451SOL     OW20251   4.095   2.318   1.221
 6451SOL    HW120252   4.010   2.264   1.222
 6451SOL    HW220253   4.173   2.257   1.209
 6452SOL     OW20254   4.768   2.163   3.219
 6452SOL    HW120255   4.762   2.251   3.266
 6452SOL    HW220256   4.679   2.117   3.225
 6453SOL     OW20257   2.782   0.964   1.268
 6453SOL    HW120258   2.809   1.039   1.328
 6453SOL    HW220259   2.683   0.954   1.269
 6454SOL     OW20260   5.338   2.383   3.539
 6454SOL    HW120261   5.387   2.422   3.461
 6454SOL    HW220262   5.302   2.457   3.596
 6455SOL     OW20263   6.682   3.646   3.541
 6455SOL    HW120264   6.761   3.689   3.497
 6455SOL    HW220265   6.709   3.612   3.631
 6456SOL     OW20266   5.890   1.354   2.565
 6456SOL    HW120267   5.801   1.349   2.611
 6456SOL    HW220268   5.950   1.416   2.616
 6457SOL     OW20269   3.792   6.960   2.151
 6457SOL    HW120270   3.763   6.865   2.145
 6457SOL    HW220271   3.738   7.016   2.088
 6458SOL     OW20272   0.105   4.973   3.316
 6458SOL    HW120273   0.114   4.994   3.219
 6458SOL    HW220274   0.123   5.056   3.370
 6459SOL     OW20275   6.305   3.795   2.557
 6459SOL    HW120276   6.300   3.767   2.461
 6459SOL    HW220277   6.227   3.755   2.607
 6460SOL     OW20278   0.738   5.603   5.813
 6460SOL    HW120279   0.812   5.535   5.814
 6460SOL    HW220280   0.759   5.673   5.744
 6461SOL     OW20281   1.787   5.705   1.333
 6461SOL    HW120282   1.853   5.668   1.398
 6461SOL    HW220283   1.825   5.788   1.292
 6462SOL     OW20284   1.864   4.005   5.372
 6462SOL    HW120285   1.808   4.060   5.434
 6462SOL    HW220286   1.855   4.041   5.279
 6463SOL     OW20287   4.786   2.103   1.750
 6463SOL    HW120288   4.778   2.014   1.795
 6463SOL    HW220289   4.703   2.156   1.767
 6464SOL     OW20290   0.943   4.583   4.169
 6464SOL    HW120291   0.962   4.568   4.072
 6464SOL    HW220292   0.910   4.498   4.210
 6465SOL     OW20293   4.048   0.940   3.312
 6465SOL    HW120294   4.038   0.988   3.225
 6465SOL    HW220295   3.963   0.948   3.364
 6466SOL     OW20296   0.387   3.157   0.373
 6466SOL    HW120297   0.378   3.254   0.398
 6466SOL    HW220298   0.478   3.125   0.397
 6467SOL     OW20299   2.874   2.553   0.707
 6467SOL    HW120300   2.905   2.624   0.643
 6467SOL    HW220301   2.909   2.572   0.798
 6468SOL     OW20302   2.419   1.574   0.859
 6468SOL    HW120303   2.321   1.555   0.854
 6468SOL    HW220304   2.438   1.658   0.809
 6469SOL     OW20305   3.632   1.271   2.692
 6469SOL    HW120306   3.681   1.242   2.773
 6469SOL    HW220307   3.589   1.192   2.648
 6470SOL     OW20308   6.483   2.082   7.007
 6470SOL    HW120309   6.579   2.076   0.008
 6470SOL    HW220310   6.424   2.080   0.061
 6471SOL     OW20311   1.064   6.318   6.121
 6471SOL    HW120312   1.159   6.287   6.119
 6471SOL    HW220313   1.003   6.239   6.107
 6472SOL     OW20314   6.469   6.320   2.764
 6472SOL    HW120315   6.409   6.384   2.812
 6472SOL    HW220316   6.499   6.249   2.828
 6473SOL     OW20317   2.624   1.331   4.054
 6473SOL    HW120318   2.525   1.316   4.049
 6473SOL    HW220319   2.656   1.313   4.147
 6474SOL     OW20320   3.717   5.508   4.910
 6474SOL    HW120321   3.800   5.477   4.957
 6474SOL    HW220322   3.720   5.477   4.815
 6475SOL     OW20323   6.141   5.204   2.687
 6475SOL    HW120324   6.090   5.126   2.653
 6475SOL    HW220325   6.138   5.205   2.787
 6476SOL     OW20326   3.759   1.872   6.411
 6476SOL    HW120327   3.763   1.970   6.428
 6476SOL    HW220328   3.684   1.832   6.465
 6477SOL     OW20329   6.295   5.891   1.587
 6477SOL    HW120330   6.334   5.881   1.495
 6477SOL    HW220331   6.327   5.976   1.628
 6478SOL     OW20332   3.456   5.518   1.533
 6478SOL    HW120333   3.497   5.428   1.524
 6478SOL    HW220334   3.392   5.518   1.610
 6479SOL     OW20335   3.290   5.892   3.691
 6479SOL    HW120336   3.283   5.962   3.762
 6479SOL    HW220337   3.385   5.883   3.663
 6480SOL     OW20338   3.845   2.077   6.693
 6480SOL    HW120339   3.777   2.124   6.749
 6480SOL    HW220340   3.829   2.099   6.596
 6481SOL     OW20341   3.417   2.656   1.767
 6481SOL    HW120342   3.319   2.639   1.777
 6481SOL    HW220343   3.462   2.571   1.737
 6482SOL     OW20344   5.434   4.166   5.823
 6482SOL    HW120345   5.356   4.155   5.761
 6482SOL    HW220346   5.407   4.224   5.900
 6483SOL     OW20347   0.976   6.428   5.019
 6483SOL    HW120348   1.002   6.360   4.950
 6483SOL    HW220349   1.049   6.436   5.087
 6484SOL     OW20350   2.654   0.965   3.969
 6484SOL    HW120351   2.620   0.904   4.042
 6484SOL    HW220352   2.723   1.026   4.007
 6485SOL     OW20353   2.099   6.234   4.375
 6485SOL    HW120354   2.060   6.316   4.416
 6485SOL    HW220355   2.125   6.253   4.280
 6486SOL     OW20356   1.690   4.792   3.497
 6486SOL    HW120357   1.738   4.879   3.506
 6486SOL    HW220358   1.704   4.755   3.405
 6487SOL     OW20359   6.277   4.777   3.289
 6487SOL    HW120360   6.332   4.695   3.273
 6487SOL    HW220361   6.187   4.750   3.322
 6488SOL     OW20362   4.685   5.565   4.881
 6488SOL    HW120363   4.779   5.542   4.856
 6488SOL    HW220364   4.623   5.500   4.837
 6489SOL     OW20365   4.511   3.114   5.612
 6489SOL    HW120366   4.482   3.093   5.519
 6489SOL    HW220367   4.546   3.208   5.615
 6490SOL     OW20368   1.533   2.371   0.319
 6490SOL    HW120369   1.479   2.359   0.236
 6490SOL    HW220370   1.480   2.422   0.387
 6491SOL     OW20371   3.059   0.136   1.606
 6491SOL    HW120372   2.975   0.191   1.600
 6491SOL    HW220373   3.057   0.064   1.536
 6492SOL     OW20374   3.536   3.568   4.623
 6492SOL    HW120375   3.539   3.471   4.648
 6492SOL    HW220376   3.621   3.592   4.575
 6493SOL     OW20377   0.829   3.949   5.547
 6493SOL    HW120378   0.785   3.933   5.635
 6493SOL    HW220379   0.897   4.022   5.558
 6494SOL     OW20380   6.202   0.698   1.350
 6494SOL    HW120381   6.110   0.732   1.330
 6494SOL    HW220382   6.206   0.600   1.329
 6495SOL     OW20383   6.059   0.254   3.780
 6495SOL    HW120384   6.124   0.261   3.855
 6495SOL    HW220385   5.980   0.312   3.799
 6496SOL     OW20386   3.653   1.787   1.370
 6496SOL    HW120387   3.569   1.734   1.357
 6496SOL    HW220388   3.699   1.799   1.282
 6497SOL     OW20389   0.517   1.460   0.746
 6497SOL    HW120390   0.604   1.411   0.755
 6497SOL    HW220391   0.456   1.409   0.685
 6498SOL     OW20392   0.827   4.369   4.292
 6498SOL    HW120393   0.851   4.392   4.387
 6498SOL    HW220394   0.766   4.290   4.291
 6499SOL     OW20395   5.157   3.737   3.263
 6499SOL    HW120396   5.187   3.643   3.283
 6499SOL    HW220397   5.230   3.786   3.216
 6500SOL     OW20398   1.240   4.329   2.955
 6500SOL    HW120399   1.258   4.230   2.951
 6500SOL    HW220400   1.143   4.345   2.970
 6501SOL     OW20401   6.182   2.091   1.178
 6501SOL    HW120402   6.242   2.025   1.133
 6501SOL    HW220403   6.228   2.179   1.184
 6502SOL     OW20404   6.771   3.549   1.969
 6502SOL    HW120405   6.782   3.649   1.968
 6502SOL    HW220406   6.710   3.521   1.896
 6503SOL     OW20407   6.425   3.185   5.440
 6503SOL    HW120408   6.470   3.162   5.354
 6503SOL    HW220409   6.465   3.133   5.514
 6504SOL     OW20410   4.498   5.779   6.567
 6504SOL    HW120411   4.459   5.831   6.490
 6504SOL    HW220412   4.442   5.793   6.648
 6505SOL     OW20413   0.006   5.884   0.628
 6505SOL    HW120414   6.977   5.933   0.693
 6505SOL    HW220415   0.020   5.790   0.659
 6506SOL     OW20416   6.993   4.236   2.352
 6506SOL    HW120417   0.023   4.236   2.270
 6506SOL    HW220418   7.006   4.150   2.402
 6507SOL     OW20419   3.426   4.587   6.710
 6507SOL    HW120420   3.486   4.621   6.637
 6507SOL    HW220421   3.480   4.568   6.792
 6508SOL     OW20422   0.955   0.186   2.654
 6508SOL    HW120423   1.039   0.132   2.666
 6508SOL    HW220424   0.890   0.162   2.726
 6509SOL     OW20425   3.190   1.757   6.103
 6509SOL    HW120426   3.120   1.753   6.175
 6509SOL    HW220427   3.147   1.737   6.015
 6510SOL     OW20428   3.854   5.742   5.659
 6510SOL    HW120429   3.939   5.792   5.677
 6510SOL    HW220430   3.805   5.728   5.745
 6511SOL     OW20431   3.266   1.052   0.356
 6511SOL    HW120432   3.231   0.959   0.350
 6511SOL    HW220433   3.330   1.068   0.280
 6512SOL     OW20434   3.947   1.738   0.225
 6512SOL    HW120435   3.885   1.772   0.154
 6512SOL    HW220436   4.032   1.790   0.222
 6513SOL     OW20437   2.101   5.028   3.367
 6513SOL    HW120438   2.010   5.019   3.326
 6513SOL    HW220439   2.092   5.077   3.454
 6514SOL     OW20440   5.527   7.011   5.813
 6514SOL    HW120441   5.610   0.036   5.830
 6514SOL    HW220442   5.495   6.970   5.899
 6515SOL     OW20443   2.060   5.266   2.199
 6515SOL    HW120444   2.010   5.191   2.156
 6515SOL    HW220445   2.140   5.230   2.247
 6516SOL     OW20446   6.849   4.206   1.291
 6516SOL    HW120447   6.820   4.251   1.206
 6516SOL    HW220448   6.890   4.274   1.352
 6517SOL     OW20449   6.648   3.035   0.803
 6517SOL    HW120450   6.733   2.983   0.810
 6517SOL    HW220451   6.647   3.106   0.873
 6518SOL     OW20452   1.309   1.740   2.900
 6518SOL    HW120453   1.305   1.688   2.986
 6518SOL    HW220454   1.239   1.811   2.901
 6519SOL     OW20455   1.492   1.009   2.982
 6519SOL    HW120456   1.482   0.992   2.884
 6519SOL    HW220457   1.405   0.992   3.028
 6520SOL     OW20458   0.440   5.145   6.542
 6520SOL    HW120459   0.529   5.173   6.577
 6520SOL    HW220460   0.369   5.164   6.610
 6521SOL     OW20461   0.778   4.007   3.893
 6521SOL    HW120462   0.811   3.933   3.834
 6521SOL    HW220463   0.807   4.095   3.856
 6522SOL     OW20464   2.527   3.282   5.335
 6522SOL    HW120465   2.530   3.187   5.302
 6522SOL    HW220466   2.593   3.293   5.410
 6523SOL     OW20467   5.544   6.834   0.416
 6523SOL    HW120468   5.578   6.926   0.435
 6523SOL    HW220469   5.611   6.784   0.361
 6524SOL     OW20470   2.510   3.024   1.245
 6524SOL    HW120471   2.443   3.089   1.284
 6524SOL    HW220472   2.469   2.977   1.167
 6525SOL     OW20473   1.000   4.643   3.162
 6525SOL    HW120474   1.005   4.602   3.253
 6525SOL    HW220475   1.002   4.570   3.093
 6526SOL     OW20476   0.679   6.425   6.855
 6526SOL    HW120477   0.716   6.387   6.940
 6526SOL    HW220478   0.704   6.522   6.848
 6527SOL     OW20479   0.288   1.983   0.279
 6527SOL    HW120480   0.263   1.982   0.182
 6527SOL    HW220481   0.219   2.033   0.331
 6528SOL     OW20482   4.983   0.431   6.527
 6528SOL    HW120483   4.914   0.396   6.464
 6528SOL    HW220484   5.053   0.361   6.541
 6529SOL     OW20485   6.661   0.975   2.361
 6529SOL    HW120486   6.622   0.952   2.451
 6529SOL    HW220487   6.739   1.037   2.373
 6530SOL     OW20488   1.045   3.247   2.621
 6530SOL    HW120489   1.119   3.216   2.681
 6530SOL    HW220490   1.072   3.332   2.576
 6531SOL     OW20491   3.619   4.122   4.935
 6531SOL    HW120492   3.657   4.056   4.870
 6531SOL    HW220493   3.534   4.159   4.899
 6532SOL     OW20494   1.105   0.760   0.734
 6532SOL    HW120495   1.204   0.748   0.744
 6532SOL    HW220496   1.068   0.802   0.817
 6533SOL     OW20497   4.658   3.552   0.581
 6533SOL    HW120498   4.749   3.513   0.570
 6533SOL    HW220499   4.635   3.556   0.679
 6534SOL     OW20500   6.633   4.254   3.226
 6534SOL    HW120501   6.563   4.184   3.239
 6534SOL    HW220502   6.590   4.341   3.201
 6535SOL     OW20503   5.978   2.858   5.159
 6535SOL    HW120504   6.021   2.943   5.191
 6535SOL    HW220505   5.963   2.797   5.236
 6536SOL     OW20506   0.492   3.976   5.705
 6536SOL    HW120507   0.501   4.055   5.644
 6536SOL    HW220508   0.466   4.008   5.796
 6537SOL     OW20509   6.074   5.456   4.343
 6537SOL    HW120510   6.035   5.537   4.387
 6537SOL    HW220511   6.053   5.375   4.398
 6538SOL     OW20512   2.180   3.271   5.731
 6538SOL    HW120513   2.084   3.256   5.705
 6538SOL    HW220514   2.235   3.283   5.648
 6539SOL     OW20515   5.720   1.011   5.612
 6539SOL    HW120516   5.714   0.955   5.530
 6539SOL    HW220517   5.707   1.107   5.589
 6540SOL     OW20518   6.277   2.768   5.661
 6540SOL    HW120519   6.337   2.710   5.717
 6540SOL    HW220520   6.289   2.863   5.687
 6541SOL     OW20521   6.110   0.685   4.717
 6541SOL    HW120522   6.071   0.690   4.624
 6541SOL    HW220523   6.210   0.682   4.711
 6542SOL     OW20524   1.354   4.165   3.344
 6542SOL    HW120525   1.335   4.168   3.442
 6542SOL    HW220526   1.444   4.123   3.328
 6543SOL     OW20527   4.031   1.768   4.928
 6543SOL    HW120528   3.987   1.854   4.902
 6543SOL    HW220529   4.040   1.709   4.848
 6544SOL     OW20530   1.282   6.239   1.343
 6544SOL    HW120531   1.199   6.294   1.336
 6544SOL    HW220532   1.258   6.142   1.339
 6545SOL     OW20533   4.380   6.912   0.281
 6545SOL    HW120534   4.355   6.827   0.329
 6545SOL    HW220535   4.424   6.889   0.194
 6546SOL     OW20536   4.780   3.127   6.503
 6546SOL    HW120537   4.707   3.131   6.571
 6546SOL    HW220538   4.828   3.040   6.510
 6547SOL     OW20539   6.556   5.506   6.651
 6547SOL    HW120540   6.621   5.520   6.726
 6547SOL    HW220541   6.475   5.563   6.666
 6548SOL     OW20542   0.338   1.672   5.478
 6548SOL    HW120543   0.243   1.641   5.484
 6548SOL    HW220544   0.365   1.717   5.563
 6549SOL     OW20545   4.906   0.485   1.934
 6549SOL    HW120546   5.004   0.505   1.938
 6549SOL    HW220547   4.886   0.401   1.983
 6550SOL     OW20548   6.253   0.051   3.445
 6550SOL    HW120549   6.245   6.981   3.465
 6550SOL    HW220550   6.202   0.073   3.362
 6551SOL     OW20551   2.979   4.263   0.393
 6551SOL    HW120552   2.945   4.356   0.403
 6551SOL    HW220553   2.970   4.214   0.479
 6552SOL     OW20554   2.204   6.274   0.309
 6552SOL    HW120555   2.127   6.335   0.290
 6552SOL    HW220556   2.201   6.245   0.404
 6553SOL     OW20557   0.523   1.566   4.179
 6553SOL    HW120558   0.442   1.560   4.238
 6553SOL    HW220559   0.570   1.653   4.196
 6554SOL     OW20560   2.506   1.061   4.336
 6554SOL    HW120561   2.530   1.040   4.430
 6554SOL    HW220562   2.561   1.139   4.304
 6555SOL     OW20563   6.688   3.705   3.859
 6555SOL    HW120564   6.714   3.653   3.941
 6555SOL    HW220565   6.699   3.802   3.877
 6556SOL     OW20566   4.872   3.051   3.029
 6556SOL    HW120567   4.916   3.026   2.943
 6556SOL    HW220568   4.798   2.986   3.049
 6557SOL     OW20569   2.283   0.648   1.737
 6557SOL    HW120570   2.271   0.735   1.690
 6557SOL    HW220571   2.298   0.664   1.834
 6558SOL     OW20572   5.248   5.328   0.227
 6558SOL    HW120573   5.284   5.402   0.171
 6558SOL    HW220574   5.227   5.362   0.319
 6559SOL     OW20575   0.078   2.280   6.320
 6559SOL    HW120576   0.035   2.196   6.287
 6559SOL    HW220577   0.170   2.259   6.353
 6560SOL     OW20578   5.699   5.203   0.493
 6560SOL    HW120579   5.626   5.250   0.445
 6560SOL    HW220580   5.681   5.105   0.494
 6561SOL     OW20581   3.908   4.195   0.291
 6561SOL    HW120582   3.885   4.177   0.387
 6561SOL    HW220583   3.998   4.158   0.270
 6562SOL     OW20584   5.568   3.276   1.403
 6562SOL    HW120585   5.618   3.309   1.323
 6562SOL    HW220586   5.592   3.181   1.421
 6563SOL     OW20587   5.171   5.665   5.355
 6563SOL    HW120588   5.181   5.723   5.436
 6563SOL    HW220589   5.084   5.616   5.359
 6564SOL     OW20590   6.702   3.603   3.074
 6564SOL    HW120591   6.694   3.698   3.043
 6564SOL    HW220592   6.658   3.593   3.164
 6565SOL     OW20593   5.557   0.599   3.151
 6565SOL    HW120594   5.587   0.568   3.061
 6565SOL    HW220595   5.573   0.528   3.218
 6566SOL     OW20596   4.919   6.125   2.784
 6566SOL    HW120597   4.877   6.035   2.793
 6566SOL    HW220598   4.945   6.158   2.875
 6567SOL     OW20599   4.271   0.714   1.204
 6567SOL    HW120600   4.302   0.761   1.287
 6567SOL    HW220601   4.231   0.781   1.142
 6568SOL     OW20602   4.427   1.369   0.946
 6568SOL    HW120603   4.375   1.438   0.896
 6568SOL    HW220604   4.475   1.412   1.023
 6569SOL     OW20605   6.884   4.279   5.732
 6569SOL    HW120606   6.793   4.256   5.765
 6569SOL    HW220607   6.916   4.363   5.775
 6570SOL     OW20608   4.187   6.572   2.048
 6570SOL    HW120609   4.136   6.626   2.116
 6570SOL    HW220610   4.155   6.596   1.956
 6571SOL     OW20611   3.132   5.992   2.499
 6571SOL    HW120612   3.198   5.960   2.431
 6571SOL    HW220613   3.091   5.914   2.546
 6572SOL     OW20614   1.064   5.535   3.942
 6572SOL    HW120615   1.158   5.553   3.912
 6572SOL    HW220616   1.018   5.622   3.962
 6573SOL     OW20617   1.366   1.485   4.046
 6573SOL    HW120618   1.285   1.426   4.040
 6573SOL    HW220619   1.442   1.434   4.086
 6574SOL     OW20620   1.438   6.191   2.090
 6574SOL    HW120621   1.365   6.234   2.037
 6574SOL    HW220622   1.463   6.104   2.047
 6575SOL     OW20623   6.669   1.185   2.808
 6575SOL    HW120624   6.670   1.209   2.905
 6575SOL    HW220625   6.575   1.167   2.778
 6576SOL     OW20626   4.702   5.922   1.329
 6576SOL    HW120627   4.790   5.923   1.378
 6576SOL    HW220628   4.672   6.017   1.314
 6577SOL     OW20629   2.690   0.763   3.736
 6577SOL    HW120630   2.651   0.811   3.657
 6577SOL    HW220631   2.667   0.812   3.820
 6578SOL     OW20632   1.517   5.033   1.834
 6578SOL    HW120633   1.458   4.957   1.805
 6578SOL    HW220634   1.512   5.107   1.767
 6579SOL     OW20635   6.539   0.895   3.942
 6579SOL    HW120636   6.483   0.894   4.024
 6579SOL    HW220637   6.630   0.861   3.963
 6580SOL     OW20638   1.801   1.443   7.021
 6580SOL    HW120639   1.813   1.512   6.949
 6580SOL    HW220640   1.716   1.393   7.005
 6581SOL     OW20641   0.958   2.407   0.305
 6581SOL    HW120642   1.012   2.490   0.322
 6581SOL    HW220643   0.994   2.332   0.361
 6582SOL     OW20644   6.771   1.563   3.492
 6582SOL    HW120645   6.791   1.642   3.550
 6582SOL    HW220646   6.695   1.584   3.431
 6583SOL     OW20647   4.115   5.907   6.303
 6583SOL    HW120648   4.108   5.967   6.223
 6583SOL    HW220649   4.039   5.842   6.303
 6584SOL     OW20650   3.707   3.132   0.521
 6584SOL    HW120651   3.692   3.114   0.618
 6584SOL    HW220652   3.655   3.066   0.466
 6585SOL     OW20653   6.325   6.529   0.636
 6585SOL    HW120654   6.323   6.444   0.583
 6585SOL    HW220655   6.231   6.558   0.657
 6586SOL     OW20656   6.235   2.117   6.825
 6586SOL    HW120657   6.295   2.058   6.771
 6586SOL    HW220658   6.287   2.196   6.858
 6587SOL     OW20659   1.382   4.986   5.443
 6587SOL    HW120660   1.332   5.056   5.392
 6587SOL    HW220661   1.356   4.895   5.410
 6588SOL     OW20662   6.279   3.551   0.501
 6588SOL    HW120663   6.275   3.626   0.568
 6588SOL    HW220664   6.257   3.465   0.547
 6589SOL     OW20665   0.530   0.651   1.960
 6589SOL    HW120666   0.452   0.689   1.910
 6589SOL    HW220667   0.562   0.568   1.914
 6590SOL     OW20668   1.478   0.106   4.021
 6590SOL    HW120669   1.466   0.131   3.924
 6590SOL    HW220670   1.565   0.060   4.033
 6591SOL     OW20671   5.693   4.334   4.342
 6591SOL    HW120672   5.622   4.273   4.376
 6591SOL    HW220673   5.658   4.388   4.266
 6592SOL     OW20674   5.994   6.906   2.504
 6592SOL    HW120675   6.093   6.897   2.518
 6592SOL    HW220676   5.963   6.838   2.438
 6593SOL     OW20677   2.868   2.059   1.902
 6593SOL    HW120678   2.909   2.139   1.946
 6593SOL    HW220679   2.768   2.066   1.905
 6594SOL     OW20680   4.727   1.299   6.252
 6594SOL    HW120681   4.680   1.218   6.289
 6594SOL    HW220682   4.661   1.357   6.205
 6595SOL     OW20683   1.431   2.675   5.762
 6595SOL    HW120684   1.357   2.733   5.728
 6595SOL    HW220685   1.500   2.662   5.690
 6596SOL     OW20686   6.181   6.478   2.646
 6596SOL    HW120687   6.175   6.501   2.548
 6596SOL    HW220688   6.180   6.562   2.700
 6597SOL     OW20689   1.676   4.832   2.227
 6597SOL    HW120690   1.746   4.783   2.174
 6597SOL    HW220691   1.660   4.922   2.185
 6598SOL     OW20692   2.056   4.894   4.596
 6598SOL    HW120693   2.111   4.887   4.513
 6598SOL    HW220694   1.963   4.863   4.577
 6599SOL     OW20695   6.146   5.293   6.515
 6599SOL    HW120696   6.109   5.226   6.450
 6599SOL    HW220697   6.122   5.385   6.484
 6600SOL     OW20698   4.861   0.025   5.311
 6600SOL    HW120699   4.797   0.075   5.369
 6600SOL    HW220700   4.813   7.018   5.230
 6601SOL     OW20701   1.423   2.014   1.643
 6601SOL    HW120702   1.395   2.033   1.549
 6601SOL    HW220703   1.421   1.915   1.659
 6602SOL     OW20704   1.947   6.634   1.646
 6602SOL    HW120705   1.894   6.681   1.574
 6602SOL    HW220706   1.916   6.540   1.654
 6603SOL     OW20707   0.107   3.859   2.717
 6603SOL    HW120708   0.016   3.863   2.673
 6603SOL    HW220709   0.121   3.768   2.756
 6604SOL     OW20710   2.229   6.085   2.476
 6604SOL    HW120711   2.224   6.067   2.378
 6604SOL    HW220712   2.174   6.166   2.499
 6605SOL     OW20713   0.110   5.703   0.924
 6605SOL    HW120714   0.087   5.607   0.908
 6605SOL    HW220715   0.209   5.712   0.936
 6606SOL     OW20716   1.870   3.804   3.431
 6606SOL    HW120717   1.820   3.838   3.511
 6606SOL    HW220718   1.814   3.819   3.349
 6607SOL     OW20719   6.049   4.190   3.431
 6607SOL    HW120720   5.962   4.232   3.458
 6607SOL    HW220721   6.110   4.187   3.511
 6608SOL     OW20722   1.272   6.072   5.896
 6608SOL    HW120723   1.312   6.096   5.807
 6608SOL    HW220724   1.313   5.988   5.929
 6609SOL     OW20725   4.724   1.988   6.068
 6609SOL    HW120726   4.673   1.918   6.118
 6609SOL    HW220727   4.737   1.959   5.974
 6610SOL     OW20728   2.818   5.179   1.135
 6610SOL    HW120729   2.824   5.195   1.233
 6610SOL    HW220730   2.910   5.165   1.097
 6611SOL     OW20731   4.404   1.543   4.000
 6611SOL    HW120732   4.381   1.548   4.098
 6611SOL    HW220733   4.319   1.542   3.947
 6612SOL     OW20734   6.899   1.230   6.178
 6612SOL    HW120735   6.866   1.174   6.102
 6612SOL    HW220736   6.998   1.221   6.185
 6613SOL     OW20737   4.715   6.805   0.067
 6613SOL    HW120738   4.723   6.712   0.103
 6613SOL    HW220739   4.618   6.827   0.054
 6614SOL     OW20740   4.466   5.113   1.006
 6614SOL    HW120741   4.483   5.203   1.047
 6614SOL    HW220742   4.458   5.123   0.907
 6615SOL     OW20743   3.258   4.369   6.740
 6615SOL    HW120744   3.161   4.388   6.726
 6615SOL    HW220745   3.311   4.452   6.720
 6616SOL     OW20746   4.279   1.110   5.704
 6616SOL    HW120747   4.334   1.035   5.667
 6616SOL    HW220748   4.329   1.196   5.692
 6617SOL     OW20749   3.789   0.006   3.990
 6617SOL    HW120750   3.790   0.019   4.089
 6617SOL    HW220751   3.701   6.994   3.963
 6618SOL     OW20752   6.416   2.075   2.809
 6618SOL    HW120753   6.345   2.057   2.877
 6618SOL    HW220754   6.403   2.015   2.730
 6619SOL     OW20755   4.684   6.273   3.822
 6619SOL    HW120756   4.691   6.287   3.921
 6619SOL    HW220757   4.680   6.362   3.776
 6620SOL     OW20758   0.711   3.484   3.207
 6620SOL    HW120759   0.764   3.401   3.223
 6620SOL    HW220760   0.664   3.477   3.119
 6621SOL     OW20761   3.905   3.421   4.767
 6621SOL    HW120762   3.871   3.441   4.859
 6621SOL    HW220763   3.981   3.483   4.745
 6622SOL     OW20764   0.820   5.340   0.643
 6622SOL    HW120765   0.772   5.301   0.564
 6622SOL    HW220766   0.859   5.428   0.619
 6623SOL     OW20767   3.636   3.929   5.950
 6623SOL    HW120768   3.544   3.893   5.934
 6623SOL    HW220769   3.652   4.008   5.890
 6624SOL     OW20770   1.730   2.155   3.923
 6624SOL    HW120771   1.643   2.111   3.901
 6624SOL    HW220772   1.714   2.232   3.985
 6625SOL     OW20773   6.114   3.359   6.114
 6625SOL    HW120774   6.062   3.320   6.190
 6625SOL    HW220775   6.055   3.419   6.061
 6626SOL     OW20776   2.260   6.466   4.791
 6626SOL    HW120777   2.268   6.546   4.731
 6626SOL    HW220778   2.297   6.386   4.745
 6627SOL     OW20779   1.682   5.861   4.181
 6627SOL    HW120780   1.760   5.907   4.223
 6627SOL    HW220781   1.686   5.763   4.201
 6628SOL     OW20782   4.220   6.106   4.458
 6628SOL    HW120783   4.138   6.074   4.411
 6628SOL    HW220784   4.202   6.193   4.503
 6629SOL     OW20785   5.416   5.477   6.553
 6629SOL    HW120786   5.477   5.520   6.486
 6629SOL    HW220787   5.350   5.544   6.586
 6630SOL     OW20788   2.099   1.220   1.790
 6630SOL    HW120789   2.167   1.173   1.734
 6630SOL    HW220790   2.136   1.238   1.881
 6631SOL     OW20791   2.254   4.547   6.277
 6631SOL    HW120792   2.226   4.577   6.186
 6631SOL    HW220793   2.293   4.456   6.272
 6632SOL     OW20794   1.311   1.286   1.138
 6632SOL    HW120795   1.363   1.205   1.113
 6632SOL    HW220796   1.277   1.277   1.232
 6633SOL     OW20797   3.696   5.683   5.908
 6633SOL    HW120798   3.637   5.747   5.957
 6633SOL    HW220799   3.682   5.591   5.943
 6634SOL     OW20800   4.511   2.016   4.264
 6634SOL    HW120801   4.550   2.062   4.184
 6634SOL    HW220802   4.433   1.960   4.237
 6635SOL     OW20803   5.127   4.862   3.442
 6635SOL    HW120804   5.120   4.781   3.384
 6635SOL    HW220805   5.194   4.925   3.403
 6636SOL     OW20806   3.911   0.284   0.570
 6636SOL    HW120807   3.970   0.275   0.650
 6636SOL    HW220808   3.815   0.282   0.599
 6637SOL     OW20809   1.627   1.090   1.313
 6637SOL    HW120810   1.711   1.091   1.367
 6637SOL    HW220811   1.553   1.052   1.368
 6638SOL     OW20812   3.078   3.197   3.839
 6638SOL    HW120813   3.014   3.124   3.815
 6638SOL    HW220814   3.099   3.251   3.757
 6639SOL     OW20815   4.903   3.282   1.402
 6639SOL    HW120816   4.850   3.235   1.332
 6639SOL    HW220817   4.897   3.231   1.488
 6640SOL     OW20818   0.853   2.738   4.835
 6640SOL    HW120819   0.793   2.771   4.908
 6640SOL    HW220820   0.837   2.792   4.752
 6641SOL     OW20821   4.700   2.254   0.879
 6641SOL    HW120822   4.745   2.319   0.941
 6641SOL    HW220823   4.601   2.260   0.893
 6642SOL     OW20824   1.216   5.765   0.860
 6642SOL    HW120825   1.284   5.697   0.831
 6642SOL    HW220826   1.132   5.719   0.886
 6643SOL     OW20827   4.190   6.399   6.858
 6643SOL    HW120828   4.218   6.323   6.799
 6643SOL    HW220829   4.261   6.469   6.856
 6644SOL     OW20830   2.032   6.627   3.392
 6644SOL    HW120831   1.953   6.675   3.429
 6644SOL    HW220832   2.099   6.693   3.358
 6645SOL     OW20833   5.872   2.802   0.678
 6645SOL    HW120834   5.825   2.731   0.625
 6645SOL    HW220835   5.804   2.862   0.721
 6646SOL     OW20836   4.829   6.951   6.116
 6646SOL    HW120837   4.829   6.974   6.018
 6646SOL    HW220838   4.898   6.881   6.134
 6647SOL     OW20839   4.396   4.934   1.230
 6647SOL    HW120840   4.433   4.990   1.155
 6647SOL    HW220841   4.308   4.973   1.260
 6648SOL     OW20842   2.740   6.116   5.572
 6648SOL    HW120843   2.665   6.144   5.511
 6648SOL    HW220844   2.721   6.025   5.609
 6649SOL     OW20845   5.701   2.918   6.637
 6649SOL    HW120846   5.728   2.963   6.551
 6649SOL    HW220847   5.686   2.988   6.707
 6650SOL     OW20848   2.335   1.824   5.284
 6650SOL    HW120849   2.343   1.893   5.355
 6650SOL    HW220850   2.417   1.825   5.227
 6651SOL     OW20851   6.497   1.763   6.585
 6651SOL    HW120852   6.582   1.776   6.533
 6651SOL    HW220853   6.430   1.716   6.527
 6652SOL     OW20854   0.369   4.428   0.541
 6652SOL    HW120855   0.279   4.423   0.498
 6652SOL    HW220856   0.371   4.370   0.622
 6653SOL     OW20857   5.374   4.466   0.320
 6653SOL    HW120858   5.292   4.511   0.284
 6653SOL    HW220859   5.374   4.370   0.294
 6654SOL     OW20860   0.164   4.607   3.082
 6654SOL    HW120861   0.169   4.707   3.075
 6654SOL    HW220862   0.205   4.578   3.168
 6655SOL     OW20863   6.564   5.202   2.147
 6655SOL    HW120864   6.498   5.277   2.148
 6655SOL    HW220865   6.518   5.118   2.116
 6656SOL     OW20866   4.052   1.662   2.729
 6656SOL    HW120867   3.976   1.665   2.665
 6656SOL    HW220868   4.103   1.748   2.724
 6657SOL     OW20869   5.715   1.915   3.581
 6657SOL    HW120870   5.740   2.011   3.596
 6657SOL    HW220871   5.677   1.904   3.489
 6658SOL     OW20872   6.242   5.810   5.173
 6658SOL    HW120873   6.187   5.873   5.118
 6658SOL    HW220874   6.199   5.720   5.175
 6659SOL     OW20875   1.163   5.092   2.329
 6659SOL    HW120876   1.224   5.168   2.356
 6659SOL    HW220877   1.096   5.126   2.264
 6660SOL     OW20878   6.619   6.254   3.171
 6660SOL    HW120879   6.555   6.213   3.106
 6660SOL    HW220880   6.706   6.274   3.125
 6661SOL     OW20881   3.947   6.283   4.332
 6661SOL    HW120882   3.958   6.373   4.373
 6661SOL    HW220883   3.851   6.255   4.338
 6662SOL     OW20884   3.314   0.012   3.032
 6662SOL    HW120885   3.320   0.112   3.038
 6662SOL    HW220886   3.302   7.012   2.937
 6663SOL     OW20887   0.849   4.297   5.956
 6663SOL    HW120888   0.863   4.240   6.037
 6663SOL    HW220889   0.926   4.287   5.893
 6664SOL     OW20890   2.947   0.609   1.422
 6664SOL    HW120891   2.953   0.664   1.339
 6664SOL    HW220892   2.852   0.587   1.441
 6665SOL     OW20893   1.967   0.587   5.899
 6665SOL    HW120894   2.041   0.596   5.833
 6665SOL    HW220895   1.879   0.597   5.853
 6666SOL     OW20896   4.321   6.536   5.386
 6666SOL    HW120897   4.351   6.507   5.477
 6666SOL    HW220898   4.400   6.559   5.331
 6667SOL     OW20899   0.370   6.140   6.392
 6667SOL    HW120900   0.449   6.185   6.434
 6667SOL    HW220901   0.400   6.086   6.313
 6668SOL     OW20902   0.071   5.932   0.362
 6668SOL    HW120903   0.024   5.851   0.328
 6668SOL    HW220904   0.055   5.941   0.460
 6669SOL     OW20905   1.832   0.888   2.877
 6669SOL    HW120906   1.889   0.823   2.827
 6669SOL    HW220907   1.737   0.880   2.847
 6670SOL     OW20908   4.100   2.778   0.954
 6670SOL    HW120909   4.108   2.726   1.039
 6670SOL    HW220910   4.053   2.722   0.886
 6671SOL     OW20911   4.334   6.037   0.623
 6671SOL    HW120912   4.289   6.109   0.569
 6671SOL    HW220913   4.286   6.024   0.709
 6672SOL     OW20914   1.394   2.617   1.311
 6672SOL    HW120915   1.483   2.633   1.353
 6672SOL    HW220916   1.405   2.600   1.213
 6673SOL     OW20917   5.585   3.771   3.933
 6673SOL    HW120918   5.539   3.712   3.866
 6673SOL    HW220919   5.519   3.801   4.002
 6674SOL     OW20920   0.126   2.693   0.129
 6674SOL    HW120921   0.098   2.651   0.216
 6674SOL    HW220922   0.093   2.788   0.127
 6675SOL     OW20923   5.133   2.144   7.014
 6675SOL    HW120924   5.224   2.162   6.975
 6675SOL    HW220925   5.110   2.216   0.052
 6676SOL     OW20926   1.505   3.704   3.405
 6676SOL    HW120927   1.568   3.768   3.361
 6676SOL    HW220928   1.506   3.617   3.355
 6677SOL     OW20929   0.472   1.784   0.571
 6677SOL    HW120930   0.407   1.723   0.617
 6677SOL    HW220931   0.565   1.750   0.586
 6678SOL     OW20932   1.852   4.629   0.115
 6678SOL    HW120933   1.823   4.581   0.033
 6678SOL    HW220934   1.778   4.687   0.149
 6679SOL     OW20935   1.750   1.237   3.955
 6679SOL    HW120936   1.794   1.152   3.983
 6679SOL    HW220937   1.817   1.296   3.908
 6680SOL     OW20938   6.090   6.829   1.242
 6680SOL    HW120939   6.039   6.842   1.157
 6680SOL    HW220940   6.037   6.772   1.305
 6681SOL     OW20941   3.345   6.005   1.563
 6681SOL    HW120942   3.435   5.970   1.588
 6681SOL    HW220943   3.283   5.929   1.546
 6682SOL     OW20944   3.058   5.409   6.191
 6682SOL    HW120945   3.074   5.495   6.143
 6682SOL    HW220946   3.137   5.349   6.178
 6683SOL     OW20947   6.365   3.925   6.372
 6683SOL    HW120948   6.381   3.937   6.470
 6683SOL    HW220949   6.288   3.862   6.358
 6684SOL     OW20950   2.683   6.397   1.097
 6684SOL    HW120951   2.775   6.430   1.119
 6684SOL    HW220952   2.688   6.329   1.023
 6685SOL     OW20953   4.953   3.131   6.868
 6685SOL    HW120954   4.857   3.114   6.890
 6685SOL    HW220955   4.983   3.066   6.798
 6686SOL     OW20956   5.445   5.386   3.950
 6686SOL    HW120957   5.542   5.391   3.974
 6686SOL    HW220958   5.404   5.307   3.995
 6687SOL     OW20959   6.627   2.025   1.495
 6687SOL    HW120960   6.645   1.951   1.431
 6687SOL    HW220961   6.529   2.030   1.514
 6688SOL     OW20962   3.728   5.619   0.338
 6688SOL    HW120963   3.779   5.590   0.257
 6688SOL    HW220964   3.756   5.711   0.364
 6689SOL     OW20965   2.188   4.611   6.007
 6689SOL    HW120966   2.216   4.705   5.987
 6689SOL    HW220967   2.179   4.561   5.921
 6690SOL     OW20968   1.389   0.093   6.090
 6690SOL    HW120969   1.428   0.026   6.154
 6690SOL    HW220970   1.432   0.080   6.000
 6691SOL     OW20971   2.686   2.397   2.750
 6691SOL    HW120972   2.673   2.496   2.759
 6691SOL    HW220973   2.679   2.371   2.654
 6692SOL     OW20974   4.652   5.287   1.333
 6692SOL    HW120975   4.671   5.239   1.419
 6692SOL    HW220976   4.720   5.259   1.264
 6693SOL     OW20977   4.450   1.884   4.633
 6693SOL    HW120978   4.374   1.857   4.574
 6693SOL    HW220979   4.462   1.817   4.706
 6694SOL     OW20980   3.249   5.000   0.875
 6694SOL    HW120981   3.252   4.944   0.792
 6694SOL    HW220982   3.311   4.961   0.943
 6695SOL     OW20983   2.623   2.128   6.434
 6695SOL    HW120984   2.662   2.079   6.356
 6695SOL    HW220985   2.669   2.216   6.445
 6696SOL     OW20986   3.991   3.980   4.112
 6696SOL    HW120987   3.944   3.902   4.070
 6696SOL    HW220988   4.030   3.952   4.200
 6697SOL     OW20989   4.652   2.562   2.270
 6697SOL    HW120990   4.710   2.608   2.204
 6697SOL    HW220991   4.594   2.495   2.224
 6698SOL     OW20992   3.492   4.149   1.517
 6698SOL    HW120993   3.422   4.081   1.541
 6698SOL    HW220994   3.454   4.241   1.527
 6699SOL     OW20995   1.561   4.684   5.451
 6699SOL    HW120996   1.604   4.745   5.384
 6699SOL    HW220997   1.461   4.693   5.444
 6700SOL     OW20998   5.543   0.189   0.197
 6700SOL    HW120999   5.619   0.188   0.132
 6700SOL    HW221000   5.467   0.135   0.160
 6701SOL     OW21001   6.170   0.459   1.216
 6701SOL    HW121002   6.235   0.385   1.197
 6701SOL    HW221003   6.091   0.449   1.155
 6702SOL     OW21004   2.957   2.567   0.962
 6702SOL    HW121005   2.968   2.659   0.998
 6702SOL    HW221006   3.015   2.504   1.013
 6703SOL     OW21007   0.396   1.487   6.994
 6703SOL    HW121008   0.340   1.409   7.024
 6703SOL    HW221009   0.473   1.499   0.030
 6704SOL     OW21010   3.514   0.985   5.044
 6704SOL    HW121011   3.415   0.985   5.032
 6704SOL    HW221012   3.543   0.902   5.091
 6705SOL     OW21013   6.347   3.726   2.280
 6705SOL    HW121014   6.341   3.819   2.246
 6705SOL    HW221015   6.295   3.665   2.220
 6706SOL     OW21016   0.268   6.974   2.029
 6706SOL    HW121017   0.168   6.980   2.024
 6706SOL    HW221018   0.307   0.038   2.023
 6707SOL     OW21019   6.071   0.437   2.194
 6707SOL    HW121020   6.036   0.362   2.138
 6707SOL    HW221021   6.054   0.417   2.291
 6708SOL     OW21022   0.209   3.988   1.822
 6708SOL    HW121023   0.203   3.965   1.725
 6708SOL    HW221024   0.117   3.998   1.860
 6709SOL     OW21025   1.756   5.240   2.594
 6709SOL    HW121026   1.695   5.237   2.673
 6709SOL    HW221027   1.818   5.161   2.598
 6710SOL     OW21028   4.678   1.313   1.591
 6710SOL    HW121029   4.770   1.342   1.564
 6710SOL    HW221030   4.674   1.304   1.691
 6711SOL     OW21031   3.887   5.862   5.933
 6711SOL    HW121032   3.801   5.814   5.915
 6711SOL    HW221033   3.957   5.796   5.960
 6712SOL     OW21034   6.209   3.609   1.409
 6712SOL    HW121035   6.159   3.524   1.390
 6712SOL    HW221036   6.199   3.671   1.331
 6713SOL     OW21037   1.396   6.314   4.431
 6713SOL    HW121038   1.414   6.296   4.334
 6713SOL    HW221039   1.319   6.257   4.462
 6714SOL     OW21040   5.542   1.122   0.553
 6714SOL    HW121041   5.479   1.184   0.507
 6714SOL    HW221042   5.490   1.054   0.605
 6715SOL     OW21043   1.042   0.958   0.345
 6715SOL    HW121044   0.962   0.998   0.299
 6715SOL    HW221045   1.108   0.926   0.277
 6716SOL     OW21046   6.959   5.464   2.737
 6716SOL    HW121047   6.950   5.379   2.788
 6716SOL    HW221048   6.995   5.445   2.645
 6717SOL     OW21049   4.030   2.620   6.005
 6717SOL    HW121050   4.122   2.626   5.966
 6717SOL    HW221051   3.988   2.710   6.006
 6718SOL     OW21052   3.657   6.976   1.709
 6718SOL    HW121053   3.707   0.034   1.723
 6718SOL    HW221054   3.581   6.992   1.646
 6719SOL     OW21055   1.774   0.945   6.985
 6719SOL    HW121056   1.694   0.998   6.956
 6719SOL    HW221057   1.756   0.848   6.970
 6720SOL     OW21058   1.832   0.594   6.225
 6720SOL    HW121059   1.880   0.573   6.310
 6720SOL    HW221060   1.892   0.576   6.147
 6721SOL     OW21061   0.840   1.594   0.846
 6721SOL    HW121062   0.931   1.553   0.840
 6721SOL    HW221063   0.813   1.629   0.756
 6722SOL     OW21064   6.477   3.311   0.755
 6722SOL    HW121065   6.383   3.330   0.725
 6722SOL    HW221066   6.477   3.290   0.853
 6723SOL     OW21067   1.835   2.187   6.995
 6723SOL    HW121068   1.740   2.158   7.010
 6723SOL    HW221069   1.857   2.261   0.030
 6724SOL     OW21070   2.040   3.615   5.952
 6724SOL    HW121071   2.010   3.629   5.858
 6724SOL    HW221072   2.084   3.699   5.986
 6725SOL     OW21073   5.435   2.585   3.365
 6725SOL    HW121074   5.465   2.628   3.280
 6725SOL    HW221075   5.416   2.656   3.433
 6726SOL     OW21076   0.066   0.941   5.340
 6726SOL    HW121077   0.030   0.857   5.381
 6726SOL    HW221078   7.026   0.978   5.276
 6727SOL     OW21079   1.164   4.797   5.813
 6727SOL    HW121080   1.252   4.844   5.804
 6727SOL    HW221081   1.104   4.823   5.737
 6728SOL     OW21082   3.972   1.730   3.812
 6728SOL    HW121083   4.057   1.784   3.815
 6728SOL    HW221084   3.897   1.788   3.779
 6729SOL     OW21085   5.316   1.375   1.188
 6729SOL    HW121086   5.246   1.375   1.259
 6729SOL    HW221087   5.402   1.342   1.226
 6730SOL     OW21088   0.896   1.364   1.354
 6730SOL    HW121089   0.949   1.449   1.355
 6730SOL    HW221090   0.902   1.320   1.443
 6731SOL     OW21091   3.303   6.306   6.908
 6731SOL    HW121092   3.245   6.387   6.926
 6731SOL    HW221093   3.254   6.243   6.848
 6732SOL     OW21094   5.967   5.257   4.619
 6732SOL    HW121095   6.002   5.171   4.582
 6732SOL    HW221096   5.988   5.262   4.717
 6733SOL     OW21097   3.987   5.150   6.318
 6733SOL    HW121098   4.075   5.151   6.365
 6733SOL    HW221099   3.974   5.237   6.270
 6734SOL     OW21100   5.884   1.276   4.796
 6734SOL    HW121101   5.894   1.336   4.874
 6734SOL    HW221102   5.906   1.182   4.822
 6735SOL     OW21103   5.836   3.123   3.544
 6735SOL    HW121104   5.815   3.032   3.508
 6735SOL    HW221105   5.893   3.114   3.625
 6736SOL     OW21106   3.414   4.040   0.521
 6736SOL    HW121107   3.347   4.000   0.584
 6736SOL    HW221108   3.482   4.091   0.573
 6737SOL     OW21109   0.560   3.489   1.268
 6737SOL    HW121110   0.546   3.582   1.234
 6737SOL    HW221111   0.638   3.488   1.330
 6738SOL     OW21112   1.988   6.078   3.006
 6738SOL    HW121113   2.079   6.106   3.039
 6738SOL    HW221114   1.918   6.137   3.047
 6739SOL     OW21115   6.939   6.578   4.800
 6739SOL    HW121116   6.992   6.658   4.828
 6739SOL    HW221117   6.990   6.526   4.731
 6740SOL     OW21118   0.116   6.723   4.249
 6740SOL    HW121119   0.020   6.695   4.244
 6740SOL    HW221120   0.159   6.711   4.160
 6741SOL     OW21121   4.960   2.089   5.795
 6741SOL    HW121122   4.962   2.179   5.837
 6741SOL    HW221123   5.049   2.069   5.754
 6742SOL     OW21124   5.815   4.447   3.621
 6742SOL    HW121125   5.734   4.400   3.657
 6742SOL    HW221126   5.810   4.545   3.644
 6743SOL     OW21127   4.070   4.102   1.235
 6743SOL    HW121128   4.058   4.069   1.329
 6743SOL    HW221129   4.164   4.132   1.222
 6744SOL     OW21130   0.193   5.538   5.847
 6744SOL    HW121131   0.112   5.549   5.789
 6744SOL    HW221132   0.275   5.552   5.792
 6745SOL     OW21133   6.917   6.540   4.214
 6745SOL    HW121134   6.975   6.489   4.278
 6745SOL    HW221135   6.871   6.476   4.153
 6746SOL     OW21136   1.729   1.117   2.682
 6746SOL    HW121137   1.779   1.178   2.744
 6746SOL    HW221138   1.787   1.039   2.659
 6747SOL     OW21139   1.333   6.449   6.672
 6747SOL    HW121140   1.396   6.522   6.698
 6747SOL    HW221141   1.239   6.480   6.685
 6748SOL     OW21142   2.455   1.707   4.462
 6748SOL    HW121143   2.428   1.719   4.366
 6748SOL    HW221144   2.527   1.771   4.485
 6749SOL     OW21145   3.620   4.680   0.934
 6749SOL    HW121146   3.702   4.738   0.934
 6749SOL    HW221147   3.646   4.585   0.913
 6750SOL     OW21148   3.426   1.776   4.488
 6750SOL    HW121149   3.339   1.752   4.532
 6750SOL    HW221150   3.474   1.842   4.545
 6751SOL     OW21151   4.075   6.408   3.784
 6751SOL    HW121152   4.165   6.425   3.745
 6751SOL    HW221153   4.082   6.402   3.883
 6752SOL     OW21154   1.732   6.095   2.465
 6752SOL    HW121155   1.817   6.062   2.505
 6752SOL    HW221156   1.693   6.167   2.524
 6753SOL     OW21157   3.956   3.139   5.386
 6753SOL    HW121158   3.933   3.159   5.291
 6753SOL    HW221159   3.873   3.147   5.443
 6754SOL     OW21160   6.125   1.252   1.499
 6754SOL    HW121161   6.135   1.342   1.456
 6754SOL    HW221162   6.146   1.181   1.433
 6755SOL     OW21163   2.500   5.257   6.268
 6755SOL    HW121164   2.449   5.216   6.192
 6755SOL    HW221165   2.596   5.226   6.263
 6756SOL     OW21166   2.687   2.370   5.819
 6756SOL    HW121167   2.688   2.271   5.834
 6756SOL    HW221168   2.776   2.408   5.843
 6757SOL     OW21169   3.784   0.931   0.510
 6757SOL    HW121170   3.836   0.925   0.595
 6757SOL    HW221171   3.842   0.966   0.437
 6758SOL     OW21172   6.034   2.545   1.774
 6758SOL    HW121173   6.081   2.617   1.723
 6758SOL    HW221174   5.976   2.586   1.845
 6759SOL     OW21175   0.826   3.242   3.246
 6759SOL    HW121176   0.756   3.170   3.247
 6759SOL    HW221177   0.909   3.209   3.289
 6760SOL     OW21178   5.399   2.887   2.886
 6760SOL    HW121179   5.349   2.956   2.939
 6760SOL    HW221180   5.335   2.817   2.855
 6761SOL     OW21181   5.101   2.045   4.812
 6761SOL    HW121182   5.165   1.969   4.801
 6761SOL    HW221183   5.008   2.014   4.791
 6762SOL     OW21184   6.689   5.451   3.783
 6762SOL    HW121185   6.694   5.483   3.688
 6762SOL    HW221186   6.737   5.364   3.791
 6763SOL     OW21187   4.993   5.143   4.872
 6763SOL    HW121188   5.062   5.082   4.832
 6763SOL    HW221189   5.038   5.226   4.906
 6764SOL     OW21190   1.268   5.606   1.776
 6764SOL    HW121191   1.265   5.566   1.867
 6764SOL    HW221192   1.362   5.602   1.740
 6765SOL     OW21193   6.479   4.590   2.752
 6765SOL    HW121194   6.382   4.575   2.773
 6765SOL    HW221195   6.488   4.674   2.698
 6766SOL     OW21196   4.946   6.873   0.669
 6766SOL    HW121197   4.901   6.867   0.580
 6766SOL    HW221198   4.993   6.787   0.688
 6767SOL     OW21199   3.004   1.408   0.523
 6767SOL    HW121200   3.043   1.496   0.549
 6767SOL    HW221201   3.056   1.334   0.567
 6768SOL     OW21202   2.018   0.727   1.136
 6768SOL    HW121203   1.927   0.689   1.155
 6768SOL    HW221204   2.009   0.821   1.104
 6769SOL     OW21205   4.073   2.617   1.166
 6769SOL    HW121206   3.978   2.605   1.138
 6769SOL    HW221207   4.114   2.527   1.183
 6770SOL     OW21208   6.910   0.299   1.850
 6770SOL    HW121209   6.859   0.258   1.775
 6770SOL    HW221210   6.872   0.267   1.937
 6771SOL     OW21211   4.103   2.243   2.713
 6771SOL    HW121212   4.143   2.270   2.626
 6771SOL    HW221213   4.030   2.176   2.697
 6772SOL     OW21214   3.202   1.709   2.479
 6772SOL    HW121215   3.265   1.737   2.407
 6772SOL    HW221216   3.253   1.687   2.562
 6773SOL     OW21217   6.571   3.906   1.808
 6773SOL    HW121218   6.643   3.865   1.863
 6773SOL    HW221219   6.569   4.005   1.823
 6774SOL     OW21220   0.554   2.766   6.350
 6774SOL    HW121221   0.626   2.834   6.364
 6774SOL    HW221222   0.558   2.698   6.423
 6775SOL     OW21223   2.636   4.375   0.984
 6775SOL    HW121224   2.630   4.443   1.057
 6775SOL    HW221225   2.566   4.305   0.997
 6776SOL     OW21226   5.897   5.039   0.019
 6776SOL    HW121227   5.819   4.988   0.055
 6776SOL    HW221228   5.980   4.985   0.031
 6777SOL     OW21229   4.504   5.014   5.955
 6777SOL    HW121230   4.515   4.937   5.893
 6777SOL    HW221231   4.560   5.091   5.924
 6778SOL     OW21232   0.566   4.360   2.616
 6778SOL    HW121233   0.637   4.290   2.605
 6778SOL    HW221234   0.501   4.331   2.686
 6779SOL     OW21235   0.028   4.393   0.261
 6779SOL    HW121236   0.054   4.387   0.357
 6779SOL    HW221237   0.091   4.455   0.213
 6780SOL     OW21238   0.098   2.333   3.069
 6780SOL    HW121239   0.128   2.401   3.136
 6780SOL    HW221240   0.170   2.264   3.057
 6781SOL     OW21241   5.079   6.510   5.915
 6781SOL    HW121242   5.053   6.600   5.882
 6781SOL    HW221243   5.120   6.458   5.841
 6782SOL     OW21244   6.928   1.237   2.464
 6782SOL    HW121245   6.904   1.211   2.557
 6782SOL    HW221246   0.000   1.232   2.452
 6783SOL     OW21247   0.178   6.301   6.499
 6783SOL    HW121248   0.114   6.251   6.440
 6783SOL    HW221249   0.272   6.284   6.468
 6784SOL     OW21250   3.803   4.423   7.008
 6784SOL    HW121251   3.796   4.414   0.080
 6784SOL    HW221252   3.839   4.337   6.971
 6785SOL     OW21253   6.245   5.629   1.672
 6785SOL    HW121254   6.240   5.715   1.621
 6785SOL    HW221255   6.225   5.552   1.612
 6786SOL     OW21256   1.510   2.311   6.837
 6786SOL    HW121257   1.478   2.259   6.916
 6786SOL    HW221258   1.548   2.398   6.868
 6787SOL     OW21259   1.232   3.801   1.415
 6787SOL    HW121260   1.189   3.870   1.357
 6787SOL    HW221261   1.277   3.733   1.357
 6788SOL     OW21262   2.835   3.930   1.675
 6788SOL    HW121263   2.897   3.885   1.738
 6788SOL    HW221264   2.748   3.880   1.672
 6789SOL     OW21265   0.803   6.671   2.074
 6789SOL    HW121266   0.853   6.597   2.029
 6789SOL    HW221267   0.868   6.733   2.118
 6790SOL     OW21268   2.012   3.049   0.243
 6790SOL    HW121269   1.942   2.982   0.264
 6790SOL    HW221270   2.098   3.023   0.288
 6791SOL     OW21271   3.963   2.919   6.859
 6791SOL    HW121272   3.914   2.962   6.783
 6791SOL    HW221273   4.057   2.899   6.831
 6792SOL     OW21274   6.481   6.128   6.630
 6792SOL    HW121275   6.407   6.177   6.584
 6792SOL    HW221276   6.449   6.100   6.721
 6793SOL     OW21277   1.240   2.234   0.463
 6793SOL    HW121278   1.328   2.215   0.507
 6793SOL    HW221279   1.200   2.316   0.502
 6794SOL     OW21280   4.854   0.922   4.477
 6794SOL    HW121281   4.822   0.888   4.565
 6794SOL    HW221282   4.917   0.999   4.492
 6795SOL     OW21283   2.857   5.918   0.610
 6795SOL    HW121284   2.783   5.852   0.622
 6795SOL    HW221285   2.820   6.010   0.610
 6796SOL     OW21286   5.275   1.258   2.648
 6796SOL    HW121287   5.359   1.268   2.702
 6796SOL    HW221288   5.202   1.220   2.705
 6797SOL     OW21289   5.457   3.604   1.854
 6797SOL    HW121290   5.462   3.697   1.818
 6797SOL    HW221291   5.550   3.567   1.861
 6798SOL     OW21292   5.577   5.663   2.755
 6798SOL    HW121293   5.535   5.723   2.687
 6798SOL    HW221294   5.562   5.567   2.728
 6799SOL     OW21295   4.740   5.712   0.504
 6799SOL    HW121296   4.752   5.810   0.485
 6799SOL    HW221297   4.748   5.660   0.419
 6800SOL     OW21298   1.675   4.506   0.460
 6800SOL    HW121299   1.673   4.428   0.522
 6800SOL    HW221300   1.605   4.572   0.487
 6801SOL     OW21301   1.635   2.494   2.147
 6801SOL    HW121302   1.564   2.564   2.151
 6801SOL    HW221303   1.725   2.538   2.136
 6802SOL     OW21304   2.228   5.923   0.670
 6802SOL    HW121305   2.181   6.012   0.668
 6802SOL    HW221306   2.178   5.858   0.614
 6803SOL     OW21307   5.364   2.171   6.282
 6803SOL    HW121308   5.442   2.155   6.221
 6803SOL    HW221309   5.285   2.200   6.228
 6804SOL     OW21310   1.555   5.447   3.375
 6804SOL    HW121311   1.484   5.389   3.335
 6804SOL    HW221312   1.602   5.496   3.302
 6805SOL     OW21313   5.845   0.071   4.598
 6805SOL    HW121314   5.854   0.004   4.525
 6805SOL    HW221315   5.926   0.130   4.600
 6806SOL     OW21316   4.794   1.341   4.485
 6806SOL    HW121317   4.866   1.328   4.553
 6806SOL    HW221318   4.834   1.335   4.393
 6807SOL     OW21319   2.637   3.064   0.237
 6807SOL    HW121320   2.677   2.982   0.196
 6807SOL    HW221321   2.547   3.042   0.273
 6808SOL     OW21322   0.460   2.556   5.072
 6808SOL    HW121323   0.488   2.547   4.976
 6808SOL    HW221324   0.395   2.632   5.080
 6809SOL     OW21325   1.490   4.691   6.893
 6809SOL    HW121326   1.539   4.769   6.855
 6809SOL    HW221327   1.416   4.665   6.831
 6810SOL     OW21328   0.494   1.112   2.560
 6810SOL    HW121329   0.551   1.044   2.513
 6810SOL    HW221330   0.551   1.167   2.621
 6811SOL     OW21331   6.414   4.429   0.807
 6811SOL    HW121332   6.320   4.396   0.819
 6811SOL    HW221333   6.443   4.478   0.889
 6812SOL     OW21334   3.857   4.040   3.201
 6812SOL    HW121335   3.885   4.000   3.288
 6812SOL    HW221336   3.768   4.083   3.210
 6813SOL     OW21337   4.824   2.061   1.483
 6813SOL    HW121338   4.765   1.988   1.448
 6813SOL    HW221339   4.812   2.069   1.582
 6814SOL     OW21340   2.678   3.434   0.977
 6814SOL    HW121341   2.654   3.379   0.897
 6814SOL    HW221342   2.703   3.526   0.947
 6815SOL     OW21343   3.034   6.941   1.819
 6815SOL    HW121344   2.964   7.003   1.853
 6815SOL    HW221345   3.080   6.983   1.741
 6816SOL     OW21346   6.477   5.226   6.975
 6816SOL    HW121347   6.381   5.226   7.004
 6816SOL    HW221348   6.482   5.235   6.876
 6817SOL     OW21349   6.552   1.637   5.295
 6817SOL    HW121350   6.565   1.629   5.394
 6817SOL    HW221351   6.454   1.630   5.274
 6818SOL     OW21352   3.560   6.462   2.231
 6818SOL    HW121353   3.487   6.410   2.189
 6818SOL    HW221354   3.537   6.482   2.326
 6819SOL     OW21355   3.100   0.568   3.558
 6819SOL    HW121356   3.059   0.621   3.632
 6819SOL    HW221357   3.199   0.576   3.561
 6820SOL     OW21358   0.662   4.542   3.673
 6820SOL    HW121359   0.635   4.447   3.683
 6820SOL    HW221360   0.630   4.595   3.752
 6821SOL     OW21361   2.614   2.368   5.037
 6821SOL    HW121362   2.594   2.436   5.107
 6821SOL    HW221363   2.613   2.412   4.947
 6822SOL     OW21364   5.493   1.436   5.914
 6822SOL    HW121365   5.524   1.530   5.921
 6822SOL    HW221366   5.454   1.419   5.824
 6823SOL     OW21367   3.441   3.282   3.677
 6823SOL    HW121368   3.372   3.352   3.689
 6823SOL    HW221369   3.502   3.306   3.601
 6824SOL     OW21370   0.239   3.848   6.428
 6824SOL    HW121371   0.322   3.834   6.375
 6824SOL    HW221372   0.162   3.865   6.365
 6825SOL     OW21373   5.435   6.904   2.316
 6825SOL    HW121374   5.517   6.871   2.271
 6825SOL    HW221375   5.357   6.896   2.254
 6826SOL     OW21376   2.173   3.200   2.547
 6826SOL    HW121377   2.148   3.122   2.604
 6826SOL    HW221378   2.212   3.167   2.460
 6827SOL     OW21379   4.962   6.038   6.776
 6827SOL    HW121380   5.056   6.003   6.775
 6827SOL    HW221381   4.919   6.020   6.688
 6828SOL     OW21382   1.657   2.278   1.267
 6828SOL    HW121383   1.749   2.316   1.264
 6828SOL    HW221384   1.614   2.301   1.354
 6829SOL     OW21385   5.148   6.574   3.745
 6829SOL    HW121386   5.243   6.581   3.775
 6829SOL    HW221387   5.124   6.654   3.690
 6830SOL     OW21388   5.349   1.607   3.164
 6830SOL    HW121389   5.406   1.526   3.149
 6830SOL    HW221390   5.406   1.681   3.201
 6831SOL     OW21391   0.677   0.931   6.034
 6831SOL    HW121392   0.583   0.903   6.058
 6831SOL    HW221393   0.675   0.992   5.955
 6832SOL     OW21394   2.900   4.888   1.873
 6832SOL    HW121395   2.822   4.853   1.925
 6832SOL    HW221396   2.867   4.952   1.804
 6833SOL     OW21397   3.568   5.003   6.330
 6833SOL    HW121398   3.645   4.991   6.393
 6833SOL    HW221399   3.521   4.916   6.317
 6834SOL     OW21400   4.450   6.769   1.877
 6834SOL    HW121401   4.454   6.683   1.928
 6834SOL    HW221402   4.377   6.826   1.916
 6835SOL     OW21403   4.285   0.157   4.479
 6835SOL    HW121404   4.329   0.169   4.390
 6835SOL    HW221405   4.345   0.192   4.551
 6836SOL     OW21406   2.901   6.654   0.757
 6836SOL    HW121407   2.930   6.750   0.758
 6836SOL    HW221408   2.962   6.601   0.698
 6837SOL     OW21409   1.861   3.594   1.902
 6837SOL    HW121410   1.809   3.679   1.893
 6837SOL    HW221411   1.913   3.579   1.818
 6838SOL     OW21412   2.685   1.185   0.383
 6838SOL    HW121413   2.608   1.138   0.427
 6838SOL    HW221414   2.682   1.169   0.285
 6839SOL     OW21415   4.496   0.871   1.053
 6839SOL    HW121416   4.550   0.917   1.123
 6839SOL    HW221417   4.551   0.857   0.971
 6840SOL     OW21418   2.993   1.189   6.172
 6840SOL    HW121419   2.907   1.178   6.122
 6840SOL    HW221420   2.987   1.270   6.231
 6841SOL     OW21421   6.500   3.137   6.276
 6841SOL    HW121422   6.498   3.050   6.227
 6841SOL    HW221423   6.550   3.126   6.361
 6842SOL     OW21424   2.163   5.427   1.290
 6842SOL    HW121425   2.137   5.349   1.348
 6842SOL    HW221426   2.234   5.480   1.335
 6843SOL     OW21427   5.270   6.750   6.578
 6843SOL    HW121428   5.297   6.787   6.489
 6843SOL    HW221429   5.350   6.710   6.623
 6844SOL     OW21430   4.937   0.721   3.767
 6844SOL    HW121431   4.895   0.789   3.707
 6844SOL    HW221432   4.871   0.691   3.836
 6845SOL     OW21433   4.998   2.476   2.983
 6845SOL    HW121434   5.016   2.574   2.987
 6845SOL    HW221435   4.917   2.460   2.927
 6846SOL     OW21436   2.822   4.081   0.227
 6846SOL    HW121437   2.875   3.997   0.217
 6846SOL    HW221438   2.881   4.154   0.261
 6847SOL     OW21439   5.881   3.776   4.346
 6847SOL    HW121440   5.934   3.782   4.430
 6847SOL    HW221441   5.854   3.681   4.329
 6848SOL     OW21442   4.963   4.352   3.628
 6848SOL    HW121443   4.971   4.423   3.698
 6848SOL    HW221444   5.027   4.369   3.554
 6849SOL     OW21445   4.143   3.705   6.093
 6849SOL    HW121446   4.116   3.650   6.015
 6849SOL    HW221447   4.092   3.676   6.174
 6850SOL     OW21448   4.347   2.258   3.385
 6850SOL    HW121449   4.276   2.219   3.326
 6850SOL    HW221450   4.417   2.189   3.404
 6851SOL     OW21451   1.801   3.027   3.018
 6851SOL    HW121452   1.789   3.124   3.038
 6851SOL    HW221453   1.711   2.985   3.004
 6852SOL     OW21454   2.610   5.415   0.502
 6852SOL    HW121455   2.638   5.455   0.589
 6852SOL    HW221456   2.688   5.412   0.440
 6853SOL     OW21457   5.204   3.387   6.502
 6853SOL    HW121458   5.194   3.432   6.413
 6853SOL    HW221459   5.144   3.307   6.505
 6854SOL     OW21460   5.189   6.546   6.207
 6854SOL    HW121461   5.287   6.548   6.227
 6854SOL    HW221462   5.174   6.561   6.109
 6855SOL     OW21463   3.877   5.090   3.403
 6855SOL    HW121464   3.871   5.097   3.502
 6855SOL    HW221465   3.805   5.145   3.361
 6856SOL     OW21466   0.992   2.346   6.247
 6856SOL    HW121467   0.948   2.286   6.313
 6856SOL    HW221468   0.931   2.421   6.224
 6857SOL     OW21469   0.862   3.473   6.386
 6857SOL    HW121470   0.932   3.494   6.453
 6857SOL    HW221471   0.904   3.460   6.296
 6858SOL     OW21472   3.243   4.218   1.767
 6858SOL    HW121473   3.144   4.235   1.760
 6858SOL    HW221474   3.293   4.290   1.719
 6859SOL     OW21475   1.197   1.238   2.379
 6859SOL    HW121476   1.212   1.192   2.291
 6859SOL    HW221477   1.224   1.334   2.372
 6860SOL     OW21478   7.000   6.164   2.014
 6860SOL    HW121479   6.903   6.177   1.993
 6860SOL    HW221480   0.025   6.243   1.981
 6861SOL     OW21481   5.178   2.975   5.179
 6861SOL    HW121482   5.118   3.023   5.115
 6861SOL    HW221483   5.124   2.934   5.252
 6862SOL     OW21484   0.210   4.618   5.913
 6862SOL    HW121485   0.264   4.549   5.866
 6862SOL    HW221486   0.210   4.600   6.011
 6863SOL     OW21487   0.035   6.513   5.227
 6863SOL    HW121488   0.011   6.472   5.139
 6863SOL    HW221489   0.050   6.441   5.294
 6864SOL     OW21490   1.794   3.748   5.507
 6864SOL    HW121491   1.835   3.831   5.468
 6864SOL    HW221492   1.791   3.756   5.606
 6865SOL     OW21493   1.657   0.043   4.642
 6865SOL    HW121494   1.608   0.071   4.724
 6865SOL    HW221495   1.625   0.097   4.564
 6866SOL     OW21496   0.038   4.638   1.676
 6866SOL    HW121497   7.012   4.685   1.746
 6866SOL    HW221498   0.025   4.539   1.685
 6867SOL     OW21499   2.167   3.309   0.552
 6867SOL    HW121500   2.236   3.242   0.526
 6867SOL    HW221501   2.076   3.268   0.547
 6868SOL     OW21502   1.874   5.080   4.812
 6868SOL    HW121503   1.882   5.139   4.732
 6868SOL    HW221504   1.965   5.051   4.842
 6869SOL     OW21505   3.544   0.106   5.603
 6869SOL    HW121506   3.588   0.194   5.585
 6869SOL    HW221507   3.445   0.115   5.596
 6870SOL     OW21508   0.424   2.777   0.406
 6870SOL    HW121509   0.353   2.846   0.411
 6870SOL    HW221510   0.483   2.795   0.327
 6871SOL     OW21511   6.763   3.686   2.411
 6871SOL    HW121512   6.665   3.664   2.419
 6871SOL    HW221513   6.815   3.628   2.474
 6872SOL     OW21514   1.581   2.780   1.672
 6872SOL    HW121515   1.565   2.851   1.604
 6872SOL    HW221516   1.496   2.760   1.721
 6873SOL     OW21517   1.114   3.982   4.592
 6873SOL    HW121518   1.207   3.945   4.592
 6873SOL    HW221519   1.116   4.077   4.624
 6874SOL     OW21520   5.696   5.894   2.581
 6874SOL    HW121521   5.600   5.900   2.608
 6874SOL    HW221522   5.719   5.800   2.559
 6875SOL     OW21523   1.086   2.965   1.274
 6875SOL    HW121524   1.155   3.020   1.227
 6875SOL    HW221525   1.036   2.911   1.207
 6876SOL     OW21526   4.370   5.737   3.569
 6876SOL    HW121527   4.435   5.756   3.642
 6876SOL    HW221528   4.419   5.734   3.481
 6877SOL     OW21529   2.223   4.032   2.173
 6877SOL    HW121530   2.257   4.068   2.085
 6877SOL    HW221531   2.243   4.098   2.245
 6878SOL     OW21532   2.215   1.067   3.936
 6878SOL    HW121533   2.181   1.113   3.854
 6878SOL    HW221534   2.151   0.995   3.963
 6879SOL     OW21535   2.210   2.443   0.862
 6879SOL    HW121536   2.182   2.379   0.934
 6879SOL    HW221537   2.141   2.444   0.789
 6880SOL     OW21538   1.767   5.564   6.487
 6880SOL    HW121539   1.806   5.656   6.496
 6880SOL    HW221540   1.700   5.563   6.413
 6881SOL     OW21541   1.383   3.546   0.108
 6881SOL    HW121542   1.425   3.636   0.118
 6881SOL    HW221543   1.374   3.503   0.198
 6882SOL     OW21544   2.957   6.564   0.437
 6882SOL    HW121545   2.929   6.469   0.426
 6882SOL    HW221546   3.046   6.578   0.393
 6883SOL     OW21547   4.772   0.267   6.419
 6883SOL    HW121548   4.685   0.313   6.433
 6883SOL    HW221549   4.793   0.263   6.322
 6884SOL     OW21550   2.138   3.549   2.898
 6884SOL    HW121551   2.065   3.484   2.880
 6884SOL    HW221552   2.224   3.515   2.861
 6885SOL     OW21553   5.169   5.581   3.636
 6885SOL    HW121554   5.079   5.594   3.677
 6885SOL    HW221555   5.164   5.601   3.538
 6886SOL     OW21556   4.882   1.312   5.812
 6886SOL    HW121557   4.878   1.379   5.738
 6886SOL    HW221558   4.957   1.248   5.795
 6887SOL     OW21559   5.234   6.246   6.448
 6887SOL    HW121560   5.207   6.331   6.493
 6887SOL    HW221561   5.156   6.206   6.401
 6888SOL     OW21562   5.620   4.757   6.736
 6888SOL    HW121563   5.622   4.778   6.834
 6888SOL    HW221564   5.707   4.781   6.695
 6889SOL     OW21565   0.993   2.693   6.300
 6889SOL    HW121566   0.964   2.772   6.354
 6889SOL    HW221567   1.091   2.678   6.313
 6890SOL     OW21568   3.626   5.158   2.642
 6890SOL    HW121569   3.528   5.142   2.631
 6890SOL    HW221570   3.661   5.207   2.562
 6891SOL     OW21571   2.092   2.676   0.957
 6891SOL    HW121572   2.140   2.717   1.035
 6891SOL    HW221573   2.145   2.598   0.923
 6892SOL     OW21574   3.677   1.060   3.769
 6892SOL    HW121575   3.636   1.004   3.698
 6892SOL    HW221576   3.637   1.152   3.767
 6893SOL     OW21577   6.268   2.705   0.031
 6893SOL    HW121578   6.365   2.681   0.020
 6893SOL    HW221579   6.253   2.796   7.019
 6894SOL     OW21580   5.670   4.758   1.150
 6894SOL    HW121581   5.590   4.781   1.095
 6894SOL    HW221582   5.753   4.788   1.102
 6895SOL     OW21583   1.456   6.111   1.678
 6895SOL    HW121584   1.550   6.145   1.680
 6895SOL    HW221585   1.392   6.187   1.691
 6896SOL     OW21586   4.131   2.066   4.580
 6896SOL    HW121587   4.157   2.103   4.669
 6896SOL    HW221588   4.158   2.130   4.508
 6897SOL     OW21589   5.111   3.974   5.037
 6897SOL    HW121590   5.184   3.909   5.017
 6897SOL    HW221591   5.024   3.938   5.004
 6898SOL     OW21592   2.843   1.670   1.631
 6898SOL    HW121593   2.856   1.737   1.558
 6898SOL    HW221594   2.831   1.717   1.718
 6899SOL     OW21595   6.086   5.593   2.683
 6899SOL    HW121596   6.063   5.604   2.779
 6899SOL    HW221597   6.162   5.529   2.674
 6900SOL     OW21598   6.336   4.599   5.998
 6900SOL    HW121599   6.270   4.526   5.982
 6900SOL    HW221600   6.322   4.637   6.089
 6901SOL     OW21601   4.794   5.166   6.659
 6901SOL    HW121602   4.697   5.192   6.661
 6901SOL    HW221603   4.802   5.068   6.673
 6902SOL     OW21604   0.318   5.797   5.874
 6902SOL    HW121605   0.295   5.815   5.779
 6902SOL    HW221606   0.378   5.717   5.879
 6903SOL     OW21607   2.711   4.935   4.784
 6903SOL    HW121608   2.796   4.940   4.835
 6903SOL    HW221609   2.683   4.839   4.774
 6904SOL     OW21610   7.020   6.010   4.313
 6904SOL    HW121611   7.001   6.105   4.339
 6904SOL    HW221612   6.950   5.950   4.350
 6905SOL     OW21613   5.396   5.639   6.147
 6905SOL    HW121614   5.399   5.617   6.050
 6905SOL    HW221615   5.384   5.738   6.159
 6906SOL     OW21616   3.870   0.993   3.521
 6906SOL    HW121617   3.837   1.081   3.486
 6906SOL    HW221618   3.953   1.008   3.575
 6907SOL     OW21619   6.215   1.743   1.120
 6907SOL    HW121620   6.135   1.684   1.128
 6907SOL    HW221621   6.286   1.695   1.069
 6908SOL     OW21622   2.575   4.441   6.697
 6908SOL    HW121623   2.479   4.448   6.668
 6908SOL    HW221624   2.597   4.345   6.715
 6909SOL     OW21625   5.630   5.157   1.398
 6909SOL    HW121626   5.553   5.119   1.450
 6909SOL    HW221627   5.594   5.216   1.325
 6910SOL     OW21628   1.377   2.451   3.430
 6910SOL    HW121629   1.325   2.384   3.378
 6910SOL    HW221630   1.453   2.485   3.374
 6911SOL     OW21631   3.104   0.104   5.776
 6911SOL    HW121632   3.172   0.035   5.803
 6911SOL    HW221633   3.083   0.163   5.854
 6912SOL     OW21634   2.203   3.612   6.529
 6912SOL    HW121635   2.202   3.705   6.565
 6912SOL    HW221636   2.290   3.594   6.484
 6913SOL     OW21637   4.484   6.000   5.687
 6913SOL    HW121638   4.417   6.070   5.663
 6913SOL    HW221639   4.448   5.909   5.664
 6914SOL     OW21640   6.282   3.362   2.145
 6914SOL    HW121641   6.287   3.453   2.104
 6914SOL    HW221642   6.367   3.312   2.125
 6915SOL     OW21643   1.357   3.449   2.327
 6915SOL    HW121644   1.297   3.521   2.292
 6915SOL    HW221645   1.354   3.370   2.265
 6916SOL     OW21646   4.389   6.376   6.363
 6916SOL    HW121647   4.332   6.452   6.331
 6916SOL    HW221648   4.461   6.358   6.297
 6917SOL     OW21649   5.644   5.525   1.588
 6917SOL    HW121650   5.723   5.585   1.600
 6917SOL    HW221651   5.672   5.430   1.607
 6918SOL     OW21652   1.304   3.151   1.934
 6918SOL    HW121653   1.247   3.070   1.927
 6918SOL    HW221654   1.327   3.183   1.842
 6919SOL     OW21655   6.450   6.513   3.053
 6919SOL    HW121656   6.505   6.430   3.061
 6919SOL    HW221657   6.381   6.515   3.124
 6920SOL     OW21658   4.574   0.552   5.209
 6920SOL    HW121659   4.637   0.609   5.262
 6920SOL    HW221660   4.610   0.460   5.202
 6921SOL     OW21661   3.183   0.255   4.638
 6921SOL    HW121662   3.221   0.247   4.729
 6921SOL    HW221663   3.248   0.302   4.578
 6922SOL     OW21664   1.236   6.233   5.427
 6922SOL    HW121665   1.322   6.189   5.451
 6922SOL    HW221666   1.193   6.183   5.352
 6923SOL     OW21667   6.418   7.027   1.909
 6923SOL    HW121668   6.369   6.980   1.836
 6923SOL    HW221669   6.359   0.008   1.990
 6924SOL     OW21670   3.523   6.796   0.528
 6924SOL    HW121671   3.599   6.856   0.502
 6924SOL    HW221672   3.478   6.763   0.445
 6925SOL     OW21673   5.766   6.328   6.555
 6925SOL    HW121674   5.862   6.347   6.537
 6925SOL    HW221675   5.758   6.250   6.617
 6926SOL     OW21676   2.992   1.789   0.867
 6926SOL    HW121677   2.952   1.845   0.940
 6926SOL    HW221678   3.090   1.780   0.883
 6927SOL     OW21679   4.189   0.958   0.376
 6927SOL    HW121680   4.250   1.029   0.410
 6927SOL    HW221681   4.095   0.991   0.378
 6928SOL     OW21682   4.382   4.875   0.608
 6928SOL    HW121683   4.440   4.948   0.572
 6928SOL    HW221684   4.408   4.855   0.702
 6929SOL     OW21685   5.477   5.503   1.379
 6929SOL    HW121686   5.551   5.531   1.440
 6929SOL    HW221687   5.396   5.559   1.397
 6930SOL     OW21688   0.231   0.895   0.440
 6930SOL    HW121689   0.217   0.940   0.529
 6930SOL    HW221690   0.276   0.807   0.454
 6931SOL     OW21691   2.558   2.581   1.200
 6931SOL    HW121692   2.617   2.554   1.124
 6931SOL    HW221693   2.530   2.677   1.188
 6932SOL     OW21694   4.360   5.699   0.384
 6932SOL    HW121695   4.424   5.645   0.329
 6932SOL    HW221696   4.393   5.793   0.391
 6933SOL     OW21697   3.029   5.695   6.354
 6933SOL    HW121698   3.064   5.712   6.446
 6933SOL    HW221699   3.075   5.756   6.289
 6934SOL     OW21700   4.839   4.280   6.258
 6934SOL    HW121701   4.837   4.204   6.192
 6934SOL    HW221702   4.746   4.316   6.269
 6935SOL     OW21703   5.364   5.510   1.672
 6935SOL    HW121704   5.457   5.532   1.641
 6935SOL    HW221705   5.323   5.444   1.610
 6936SOL     OW21706   0.836   1.727   4.631
 6936SOL    HW121707   0.745   1.709   4.592
 6936SOL    HW221708   0.906   1.700   4.566
 6937SOL     OW21709   5.311   5.663   0.390
 6937SOL    HW121710   5.219   5.702   0.392
 6937SOL    HW221711   5.317   5.588   0.455
 6938SOL     OW21712   0.436   0.294   5.009
 6938SOL    HW121713   0.533   0.316   5.018
 6938SOL    HW221714   0.423   0.239   4.926
 6939SOL     OW21715   6.565   4.582   3.028
 6939SOL    HW121716   6.563   4.578   2.928
 6939SOL    HW221717   6.660   4.589   3.059
 6940SOL     OW21718   4.355   6.874   0.640
 6940SOL    HW121719   4.294   6.878   0.720
 6940SOL    HW221720   4.394   6.964   0.623
 6941SOL     OW21721   3.269   3.416   2.754
 6941SOL    HW121722   3.323   3.345   2.798
 6941SOL    HW221723   3.300   3.429   2.660
 6942SOL     OW21724   6.439   6.414   2.057
 6942SOL    HW121725   6.475   6.504   2.031
 6942SOL    HW221726   6.438   6.406   2.156
 6943SOL     OW21727   4.050   4.763   6.392
 6943SOL    HW121728   4.031   4.800   6.301
 6943SOL    HW221729   3.971   4.778   6.452
 6944SOL     OW21730   1.090   3.893   5.715
 6944SOL    HW121731   0.995   3.887   5.742
 6944SOL    HW221732   1.144   3.934   5.788
 6945SOL     OW21733   5.399   2.989   0.883
 6945SOL    HW121734   5.336   2.969   0.807
 6945SOL    HW221735   5.398   3.087   0.902
 6946SOL     OW21736   4.428   5.962   2.635
 6946SOL    HW121737   4.519   5.974   2.597
 6946SOL    HW221738   4.408   5.864   2.645
 6947SOL     OW21739   5.316   5.397   5.588
 6947SOL    HW121740   5.299   5.310   5.634
 6947SOL    HW221741   5.256   5.467   5.628
 6948SOL     OW21742   0.819   5.896   0.183
 6948SOL    HW121743   0.781   5.806   0.205
 6948SOL    HW221744   0.761   5.940   0.114
 6949SOL     OW21745   2.827   2.303   3.602
 6949SOL    HW121746   2.745   2.288   3.657
 6949SOL    HW221747   2.805   2.365   3.526
 6950SOL     OW21748   0.760   6.620   4.977
 6950SOL    HW121749   0.822   6.543   4.996
 6950SOL    HW221750   0.705   6.638   5.059
 6951SOL     OW21751   6.858   5.173   6.625
 6951SOL    HW121752   6.856   5.097   6.691
 6951SOL    HW221753   6.778   5.166   6.565
 6952SOL     OW21754   3.497   5.003   2.944
 6952SOL    HW121755   3.469   5.096   2.920
 6952SOL    HW221756   3.418   4.949   2.971
 6953SOL     OW21757   5.356   0.627   1.027
 6953SOL    HW121758   5.406   0.548   1.063
 6953SOL    HW221759   5.405   0.664   0.948
 6954SOL     OW21760   6.674   3.909   0.477
 6954SOL    HW121761   6.674   4.004   0.444
 6954SOL    HW221762   6.768   3.879   0.491
 6955SOL     OW21763   5.223   6.520   2.427
 6955SOL    HW121764   5.182   6.439   2.470
 6955SOL    HW221765   5.179   6.602   2.463
 6956SOL     OW21766   5.275   5.565   2.328
 6956SOL    HW121767   5.247   5.591   2.236
 6956SOL    HW221768   5.255   5.468   2.343
 6957SOL     OW21769   5.370   5.258   6.368
 6957SOL    HW121770   5.273   5.234   6.369
 6957SOL    HW221771   5.389   5.322   6.442
 6958SOL     OW21772   3.647   2.910   3.312
 6958SOL    HW121773   3.620   3.006   3.313
 6958SOL    HW221774   3.702   2.891   3.230
 6959SOL     OW21775   0.968   4.419   3.010
 6959SOL    HW121776   0.959   4.336   3.065
 6959SOL    HW221777   0.895   4.423   2.943
 6960SOL     OW21778   2.490   4.596   0.295
 6960SOL    HW121779   2.539   4.547   0.367
 6960SOL    HW221780   2.533   4.685   0.281
 6961SOL     OW21781   4.460   2.036   5.276
 6961SOL    HW121782   4.376   2.085   5.253
 6961SOL    HW221783   4.475   1.961   5.211
 6962SOL     OW21784   3.140   6.947   6.088
 6962SOL    HW121785   3.046   6.982   6.091
 6962SOL    HW221786   3.175   6.938   6.181
 6963SOL     OW21787   5.391   6.465   0.880
 6963SOL    HW121788   5.307   6.411   0.882
 6963SOL    HW221789   5.458   6.420   0.822
 6964SOL     OW21790   2.067   0.209   6.256
 6964SOL    HW121791   1.993   0.142   6.258
 6964SOL    HW221792   2.068   0.256   6.168
 6965SOL     OW21793   0.751   2.058   0.071
 6965SOL    HW121794   0.723   1.981   0.013
 6965SOL    HW221795   0.699   2.054   0.157
 6966SOL     OW21796   0.841   1.304   1.627
 6966SOL    HW121797   0.762   1.270   1.678
 6966SOL    HW221798   0.915   1.326   1.691
 6967SOL     OW21799   4.385   1.886   6.052
 6967SOL    HW121800   4.471   1.835   6.047
 6967SOL    HW221801   4.397   1.977   6.013
 6968SOL     OW21802   3.757   6.717   2.711
 6968SOL    HW121803   3.770   6.761   2.622
 6968SOL    HW221804   3.671   6.748   2.752
 6969SOL     OW21805   2.367   1.625   1.782
 6969SOL    HW121806   2.416   1.711   1.765
 6969SOL    HW221807   2.407   1.553   1.726
 6970SOL     OW21808   3.961   4.359   5.905
 6970SOL    HW121809   3.912   4.439   5.869
 6970SOL    HW221810   4.005   4.311   5.829
 6971SOL     OW21811   6.767   4.395   0.368
 6971SOL    HW121812   6.728   4.472   0.418
 6971SOL    HW221813   6.862   4.417   0.342
 6972SOL     OW21814   5.240   3.720   2.521
 6972SOL    HW121815   5.162   3.738   2.581
 6972SOL    HW221816   5.248   3.622   2.503
 6973SOL     OW21817   1.193   2.665   2.879
 6973SOL    HW121818   1.283   2.662   2.921
 6973SOL    HW221819   1.160   2.572   2.863
 6974SOL     OW21820   3.567   3.730   2.714
 6974SOL    HW121821   3.602   3.824   2.707
 6974SOL    HW221822   3.496   3.726   2.785
 6975SOL     OW21823   3.355   5.909   4.969
 6975SOL    HW121824   3.389   6.003   4.978
 6975SOL    HW221825   3.292   5.904   4.891
 6976SOL     OW21826   4.857   4.417   5.884
 6976SOL    HW121827   4.769   4.373   5.865
 6976SOL    HW221828   4.902   4.369   5.959
 6977SOL     OW21829   4.283   4.654   1.582
 6977SOL    HW121830   4.347   4.585   1.618
 6977SOL    HW221831   4.191   4.616   1.582
 6978SOL     OW21832   5.250   3.439   1.769
 6978SOL    HW121833   5.298   3.412   1.686
 6978SOL    HW221834   5.307   3.501   1.823
 6979SOL     OW21835   0.901   3.918   1.397
 6979SOL    HW121836   0.977   3.945   1.337
 6979SOL    HW221837   0.848   3.847   1.352
 6980SOL     OW21838   1.143   6.712   3.257
 6980SOL    HW121839   1.102   6.774   3.323
 6980SOL    HW221840   1.233   6.746   3.230
 6981SOL     OW21841   3.390   3.384   6.693
 6981SOL    HW121842   3.357   3.364   6.785
 6981SOL    HW221843   3.408   3.482   6.685
 6982SOL     OW21844   1.015   1.076   3.930
 6982SOL    HW121845   1.004   1.131   4.013
 6982SOL    HW221846   0.962   0.992   3.938
 6983SOL     OW21847   5.015   0.813   4.032
 6983SOL    HW121848   4.994   0.715   4.031
 6983SOL    HW221849   5.008   0.849   3.939
 6984SOL     OW21850   0.655   2.819   3.133
 6984SOL    HW121851   0.721   2.747   3.116
 6984SOL    HW221852   0.609   2.844   3.047
 6985SOL     OW21853   6.159   3.530   6.971
 6985SOL    HW121854   6.228   3.594   7.006
 6985SOL    HW221855   6.069   3.573   6.974
 6986SOL     OW21856   3.797   5.224   5.224
 6986SOL    HW121857   3.796   5.136   5.177
 6986SOL    HW221858   3.854   5.288   5.174
 6987SOL     OW21859   0.496   1.784   6.550
 6987SOL    HW121860   0.545   1.717   6.494
 6987SOL    HW221861   0.406   1.748   6.575
 6988SOL     OW21862   3.127   1.299   5.959
 6988SOL    HW121863   3.153   1.361   6.033
 6988SOL    HW221864   3.039   1.256   5.981
 6989SOL     OW21865   0.279   4.982   2.308
 6989SOL    HW121866   0.202   5.032   2.348
 6989SOL    HW221867   0.365   5.023   2.338
 6990SOL     OW21868   3.331   2.907   1.663
 6990SOL    HW121869   3.270   2.880   1.737
 6990SOL    HW221870   3.353   2.826   1.607
 6991SOL     OW21871   5.630   3.796   2.553
 6991SOL    HW121872   5.538   3.831   2.531
 6991SOL    HW221873   5.622   3.710   2.602
 6992SOL     OW21874   1.155   0.491   6.780
 6992SOL    HW121875   1.081   0.483   6.847
 6992SOL    HW221876   1.240   0.513   6.827
 6993SOL     OW21877   5.416   1.000   1.434
 6993SOL    HW121878   5.402   0.962   1.525
 6993SOL    HW221879   5.504   0.969   1.398
 6994SOL     OW21880   2.254   6.875   4.180
 6994SOL    HW121881   2.170   6.837   4.142
 6994SOL    HW221882   2.241   6.893   4.278
 6995SOL     OW21883   0.488   3.465   0.667
 6995SOL    HW121884   0.508   3.492   0.761
 6995SOL    HW221885   0.402   3.415   0.665
 6996SOL     OW21886   1.446   1.593   0.062
 6996SOL    HW121887   1.509   1.633   7.022
 6996SOL    HW221888   1.493   1.587   0.151
 6997SOL     OW21889   6.535   5.003   5.128
 6997SOL    HW121890   6.583   5.024   5.213
 6997SOL    HW221891   6.589   5.034   5.050
 6998SOL     OW21892   0.217   1.240   1.011
 6998SOL    HW121893   0.135   1.209   0.962
 6998SOL    HW221894   0.193   1.317   1.070
 6999SOL     OW21895   1.238   3.055   0.141
 6999SOL    HW121896   1.213   3.061   0.238
 6999SOL    HW221897   1.329   3.095   0.128
 7000SOL     OW21898   6.758   0.368   2.874
 7000SOL    HW121899   6.696   0.369   2.796
 7000SOL    HW221900   6.705   0.353   2.958
 7001SOL     OW21901   1.187   1.684   4.537
 7001SOL    HW121902   1.168   1.763   4.479
 7001SOL    HW221903   1.181   1.711   4.633
 7002SOL     OW21904   0.252   5.906   3.212
 7002SOL    HW121905   0.342   5.919   3.252
 7002SOL    HW221906   0.247   5.952   3.124
 7003SOL     OW21907   6.085   4.112   1.157
 7003SOL    HW121908   6.066   4.202   1.198
 7003SOL    HW221909   6.034   4.042   1.206
 7004SOL     OW21910   1.676   5.690   0.445
 7004SOL    HW121911   1.698   5.679   0.348
 7004SOL    HW221912   1.643   5.603   0.482
 7005SOL     OW21913   1.562   0.060   6.886
 7005SOL    HW121914   1.527   0.106   6.804
 7005SOL    HW221915   1.487   0.014   6.934
 7006SOL     OW21916   0.239   0.022   4.106
 7006SOL    HW121917   0.244   6.970   4.046
 7006SOL    HW221918   0.323   0.076   4.096
 7007SOL     OW21919   3.954   0.588   5.655
 7007SOL    HW121920   3.868   0.610   5.609
 7007SOL    HW221921   4.024   0.653   5.627
 7008SOL     OW21922   6.526   4.228   3.540
 7008SOL    HW121923   6.591   4.173   3.489
 7008SOL    HW221924   6.524   4.321   3.502
 7009SOL     OW21925   4.435   5.921   1.949
 7009SOL    HW121926   4.508   5.978   1.911
 7009SOL    HW221927   4.369   5.979   1.997
 7010SOL     OW21928   5.060   3.903   2.072
 7010SOL    HW121929   5.125   3.865   2.138
 7010SOL    HW221930   5.109   3.958   2.004
 7011SOL     OW21931   3.756   6.435   0.035
 7011SOL    HW121932   3.799   6.507   0.090
 7011SOL    HW221933   3.769   6.346   0.080
 7012SOL     OW21934   0.439   2.072   0.670
 7012SOL    HW121935   0.442   1.986   0.619
 7012SOL    HW221936   0.500   2.139   0.627
 7013SOL     OW21937   2.820   1.765   6.799
 7013SOL    HW121938   2.731   1.776   6.754
 7013SOL    HW221939   2.819   1.681   6.854
 7014SOL     OW21940   6.573   3.499   1.777
 7014SOL    HW121941   6.553   3.535   1.686
 7014SOL    HW221942   6.633   3.419   1.769
 7015SOL     OW21943   4.830   5.230   1.120
 7015SOL    HW121944   4.925   5.227   1.091
 7015SOL    HW221945   4.780   5.298   1.066
 7016SOL     OW21946   3.186   4.897   0.629
 7016SOL    HW121947   3.132   4.965   0.580
 7016SOL    HW221948   3.126   4.828   0.668
 7017SOL     OW21949   4.619   5.282   4.093
 7017SOL    HW121950   4.558   5.297   4.171
 7017SOL    HW221951   4.672   5.198   4.107
 7018SOL     OW21952   4.807   2.935   4.247
 7018SOL    HW121953   4.820   3.027   4.284
 7018SOL    HW221954   4.869   2.872   4.293
 7019SOL     OW21955   5.188   4.739   1.783
 7019SOL    HW121956   5.152   4.744   1.689
 7019SOL    HW221957   5.191   4.643   1.811
 7020SOL     OW21958   0.811   3.221   6.929
 7020SOL    HW121959   0.830   3.193   7.024
 7020SOL    HW221960   0.723   3.182   6.900
 7021SOL     OW21961   1.018   2.264   4.885
 7021SOL    HW121962   0.988   2.350   4.926
 7021SOL    HW221963   1.052   2.282   4.792
 7022SOL     OW21964   4.026   1.034   1.109
 7022SOL    HW121965   4.015   1.103   1.180
 7022SOL    HW221966   4.000   0.945   1.144
 7023SOL     OW21967   0.641   2.066   1.656
 7023SOL    HW121968   0.683   2.157   1.662
 7023SOL    HW221969   0.712   1.996   1.664
 7024SOL     OW21970   3.687   3.738   3.764
 7024SOL    HW121971   3.760   3.705   3.703
 7024SOL    HW221972   3.654   3.662   3.820
 7025SOL     OW21973   3.221   0.169   0.307
 7025SOL    HW121974   3.214   0.244   0.241
 7025SOL    HW221975   3.216   0.082   0.258
 7026SOL     OW21976   3.324   2.086   1.373
 7026SOL    HW121977   3.267   2.050   1.299
 7026SOL    HW221978   3.395   2.145   1.334
 7027SOL     OW21979   2.082   5.760   1.422
 7027SOL    HW121980   2.177   5.736   1.403
 7027SOL    HW221981   2.074   5.859   1.432
 7028SOL     OW21982   3.286   0.434   3.709
 7028SOL    HW121983   3.199   0.445   3.758
 7028SOL    HW221984   3.361   0.462   3.768
 7029SOL     OW21985   3.217   3.134   5.105
 7029SOL    HW121986   3.257   3.215   5.149
 7029SOL    HW221987   3.141   3.101   5.160
 7030SOL     OW21988   6.847   1.587   4.638
 7030SOL    HW121989   6.847   1.530   4.556
 7030SOL    HW221990   6.754   1.591   4.676
 7031SOL     OW21991   4.516   6.664   0.734
 7031SOL    HW121992   4.583   6.721   0.783
 7031SOL    HW221993   4.446   6.723   0.694
 7032SOL     OW21994   3.847   6.931   4.564
 7032SOL    HW121995   3.931   6.969   4.602
 7032SOL    HW221996   3.769   6.986   4.594
 7033SOL     OW21997   1.407   2.434   5.488
 7033SOL    HW121998   1.422   2.335   5.495
 7033SOL    HW221999   1.454   2.480   5.563
 7034SOL     OW22000   6.218   1.537   2.945
 7034SOL    HW122001   6.244   1.444   2.972
 7034SOL    HW222002   6.300   1.590   2.923
 7035SOL     OW22003   2.169   0.581   0.976
 7035SOL    HW122004   2.251   0.633   0.953
 7035SOL    HW222005   2.113   0.633   1.039
 7036SOL     OW22006   0.001   1.404   2.134
 7036SOL    HW122007   0.027   1.455   2.216
 7036SOL    HW222008   0.077   1.344   2.107
 7037SOL     OW22009   0.533   0.593   6.068
 7037SOL    HW122010   0.477   0.660   6.019
 7037SOL    HW222011   0.582   0.536   6.002
 7038SOL     OW22012   1.617   2.959   6.479
 7038SOL    HW122013   1.618   3.048   6.434
 7038SOL    HW222014   1.524   2.922   6.478
 7039SOL     OW22015   0.198   6.021   2.979
 7039SOL    HW122016   0.196   6.117   2.948
 7039SOL    HW222017   0.215   5.961   2.901
 7040SOL     OW22018   4.486   2.029   5.545
 7040SOL    HW122019   4.484   2.035   5.446
 7040SOL    HW222020   4.393   2.021   5.580
 7041SOL     OW22021   1.441   0.550   4.099
 7041SOL    HW122022   1.414   0.574   4.193
 7041SOL    HW222023   1.500   0.621   4.062
 7042SOL     OW22024   4.451   6.514   5.043
 7042SOL    HW122025   4.491   6.556   5.124
 7042SOL    HW222026   4.492   6.425   5.027
 7043SOL     OW22027   2.227   4.756   3.070
 7043SOL    HW122028   2.181   4.808   2.998
 7043SOL    HW222029   2.326   4.758   3.053
 7044SOL     OW22030   5.553   6.225   3.970
 7044SOL    HW122031   5.601   6.289   4.030
 7044SOL    HW222032   5.461   6.258   3.952
 7045SOL     OW22033   6.316   5.446   2.696
 7045SOL    HW122034   6.406   5.449   2.740
 7045SOL    HW222035   6.282   5.352   2.698
 7046SOL     OW22036   2.872   2.136   4.220
 7046SOL    HW122037   2.935   2.170   4.290
 7046SOL    HW222038   2.859   2.037   4.232
 7047SOL     OW22039   0.560   6.939   0.307
 7047SOL    HW122040   0.572   0.010   0.296
 7047SOL    HW222041   0.466   6.915   0.285
 7048SOL     OW22042   6.902   5.575   4.819
 7048SOL    HW122043   6.823   5.569   4.880
 7048SOL    HW222044   6.968   5.503   4.842
 7049SOL     OW22045   4.147   1.120   2.284
 7049SOL    HW122046   4.080   1.049   2.261
 7049SOL    HW222047   4.187   1.157   2.201
 7050SOL     OW22048   4.120   4.154   0.833
 7050SOL    HW122049   4.031   4.116   0.809
 7050SOL    HW222050   4.187   4.080   0.841
 7051SOL     OW22051   0.330   6.918   1.115
 7051SOL    HW122052   0.404   6.885   1.173
 7051SOL    HW222053   0.362   6.927   1.020
 7052SOL     OW22054   5.606   0.075   2.656
 7052SOL    HW122055   5.567   0.128   2.581
 7052SOL    HW222056   5.674   0.131   2.705
 7053SOL     OW22057   1.471   2.633   3.658
 7053SOL    HW122058   1.562   2.665   3.634
 7053SOL    HW222059   1.427   2.593   3.578
 7054SOL     OW22060   6.416   0.138   0.445
 7054SOL    HW122061   6.503   0.124   0.493
 7054SOL    HW222062   6.388   0.233   0.455
 7055SOL     OW22063   2.284   0.883   6.639
 7055SOL    HW122064   2.194   0.888   6.681
 7055SOL    HW222065   2.275   0.852   6.544
 7056SOL     OW22066   0.289   5.529   1.438
 7056SOL    HW122067   0.200   5.495   1.467
 7056SOL    HW222068   0.309   5.495   1.346
 7057SOL     OW22069   3.201   4.985   4.959
 7057SOL    HW122070   3.219   5.082   4.973
 7057SOL    HW222071   3.277   4.943   4.909
 7058SOL     OW22072   5.223   2.695   5.925
 7058SOL    HW122073   5.249   2.606   5.887
 7058SOL    HW222074   5.258   2.768   5.866
 7059SOL     OW22075   1.760   0.780   4.703
 7059SOL    HW122076   1.858   0.783   4.681
 7059SOL    HW222077   1.733   0.864   4.748
 7060SOL     OW22078   3.532   0.505   2.093
 7060SOL    HW122079   3.530   0.496   2.193
 7060SOL    HW222080   3.534   0.602   2.068
 7061SOL     OW22081   0.712   2.254   3.158
 7061SOL    HW122082   0.746   2.321   3.224
 7061SOL    HW222083   0.656   2.186   3.205
 7062SOL     OW22084   4.298   1.784   3.406
 7062SOL    HW122085   4.368   1.725   3.367
 7062SOL    HW222086   4.216   1.782   3.348
 7063SOL     OW22087   0.636   1.203   1.784
 7063SOL    HW122088   0.646   1.268   1.859
 7063SOL    HW222089   0.609   1.114   1.821
 7064SOL     OW22090   4.903   2.020   5.306
 7064SOL    HW122091   4.871   1.930   5.335
 7064SOL    HW222092   4.948   2.012   5.217
 7065SOL     OW22093   3.669   4.351   5.621
 7065SOL    HW122094   3.703   4.308   5.537
 7065SOL    HW222095   3.572   4.372   5.610
 7066SOL     OW22096   4.052   0.676   0.185
 7066SOL    HW122097   4.018   0.746   0.122
 7066SOL    HW222098   4.008   0.687   0.274
 7067SOL     OW22099   2.269   3.069   7.023
 7067SOL    HW122100   2.243   3.052   6.927
 7067SOL    HW222101   2.189   3.062   0.053
 7068SOL     OW22102   4.938   4.225   4.234
 7068SOL    HW122103   4.850   4.273   4.231
 7068SOL    HW222104   5.012   4.288   4.213
 7069SOL     OW22105   5.929   0.194   6.644
 7069SOL    HW122106   5.863   0.123   6.620
 7069SOL    HW222107   5.880   0.280   6.661
 7070SOL     OW22108   0.038   6.346   5.448
 7070SOL    HW122109   7.027   6.409   5.515
 7070SOL    HW222110   0.103   6.285   5.493
 7071SOL     OW22111   5.296   6.098   6.684
 7071SOL    HW122112   5.387   6.064   6.704
 7071SOL    HW222113   5.291   6.124   6.587
 7072SOL     OW22114   0.337   3.786   6.867
 7072SOL    HW122115   0.333   3.852   6.792
 7072SOL    HW222116   0.249   3.783   6.914
 7073SOL     OW22117   5.486   1.343   3.156
 7073SOL    HW122118   5.401   1.298   3.182
 7073SOL    HW222119   5.545   1.276   3.109
 7074SOL     OW22120   5.929   4.066   2.852
 7074SOL    HW122121   5.885   3.980   2.828
 7074SOL    HW222122   5.908   4.135   2.783
 7075SOL     OW22123   3.171   5.286   4.099
 7075SOL    HW122124   3.139   5.192   4.089
 7075SOL    HW222125   3.126   5.344   4.031
 7076SOL     OW22126   5.611   3.267   2.816
 7076SOL    HW122127   5.657   3.326   2.749
 7076SOL    HW222128   5.513   3.284   2.813
 7077SOL     OW22129   2.839   5.161   1.410
 7077SOL    HW122130   2.924   5.144   1.460
 7077SOL    HW222131   2.768   5.099   1.443
 7078SOL     OW22132   5.135   0.184   0.551
 7078SOL    HW122133   5.078   0.264   0.536
 7078SOL    HW222134   5.153   0.139   0.464
 7079SOL     OW22135   1.267   6.978   4.384
 7079SOL    HW122136   1.362   6.946   4.390
 7079SOL    HW222137   1.262   0.025   4.318
 7080SOL     OW22138   3.737   1.748   5.259
 7080SOL    HW122139   3.780   1.797   5.334
 7080SOL    HW222140   3.755   1.795   5.173
 7081SOL     OW22141   1.933   1.162   6.866
 7081SOL    HW122142   1.887   1.074   6.876
 7081SOL    HW222143   1.894   1.228   6.931
 7082SOL     OW22144   6.741   4.452   2.677
 7082SOL    HW122145   6.723   4.444   2.579
 7082SOL    HW222146   6.658   4.486   2.722
 7083SOL     OW22147   6.907   3.516   2.569
 7083SOL    HW122148   6.847   3.443   2.603
 7083SOL    HW222149   6.981   3.476   2.515
 7084SOL     OW22150   0.972   5.735   0.015
 7084SOL    HW122151   1.006   5.660   0.073
 7084SOL    HW222152   0.896   5.780   0.060
 7085SOL     OW22153   0.580   3.118   2.600
 7085SOL    HW122154   0.522   3.144   2.678
 7085SOL    HW222155   0.652   3.185   2.589
 7086SOL     OW22156   5.734   1.014   4.680
 7086SOL    HW122157   5.751   0.980   4.773
 7086SOL    HW222158   5.637   1.007   4.659
 7087SOL     OW22159   5.641   3.355   3.423
 7087SOL    HW122160   5.693   3.293   3.481
 7087SOL    HW222161   5.545   3.327   3.423
 7088SOL     OW22162   5.927   1.674   4.967
 7088SOL    HW122163   6.016   1.697   5.006
 7088SOL    HW222164   5.938   1.648   4.871
 7089SOL     OW22165   3.250   5.518   1.754
 7089SOL    HW122166   3.180   5.493   1.688
 7089SOL    HW222167   3.223   5.484   1.845
 7090SOL     OW22168   3.896   2.117   1.220
 7090SOL    HW122169   3.861   2.100   1.312
 7090SOL    HW222170   3.956   2.041   1.192
 7091SOL     OW22171   0.169   6.893   6.523
 7091SOL    HW122172   0.191   6.803   6.561
 7091SOL    HW222173   0.126   6.949   6.593
 7092SOL     OW22174   4.369   2.292   6.794
 7092SOL    HW122175   4.322   2.211   6.829
 7092SOL    HW222176   4.400   2.275   6.701
 7093SOL     OW22177   3.261   4.208   0.881
 7093SOL    HW122178   3.235   4.246   0.792
 7093SOL    HW222179   3.211   4.123   0.896
 7094SOL     OW22180   2.571   6.963   5.448
 7094SOL    HW122181   2.613   6.921   5.368
 7094SOL    HW222182   2.642   6.987   5.514
 7095SOL     OW22183   2.840   4.376   5.528
 7095SOL    HW122184   2.892   4.461   5.516
 7095SOL    HW222185   2.749   4.397   5.565
 7096SOL     OW22186   0.005   0.850   1.050
 7096SOL    HW122187   0.025   0.919   0.981
 7096SOL    HW222188   0.090   0.813   1.087
 7097SOL     OW22189   4.906   0.946   1.713
 7097SOL    HW122190   4.945   0.856   1.735
 7097SOL    HW222191   4.962   0.991   1.645
 7098SOL     OW22192   0.772   6.881   4.361
 7098SOL    HW122193   0.792   6.788   4.330
 7098SOL    HW222194   0.685   6.882   4.409
 7099SOL     OW22195   2.686   2.291   3.915
 7099SOL    HW122196   2.688   2.361   3.843
 7099SOL    HW222197   2.693   2.336   4.005
 7100SOL     OW22198   6.487   3.904   0.973
 7100SOL    HW122199   6.428   3.833   1.012
 7100SOL    HW222200   6.441   3.993   0.980
 7101SOL     OW22201   2.221   6.276   5.283
 7101SOL    HW122202   2.238   6.216   5.205
 7101SOL    HW222203   2.161   6.229   5.348
 7102SOL     OW22204   5.947   0.776   1.274
 7102SOL    HW122205   5.882   0.768   1.349
 7102SOL    HW222206   5.898   0.780   1.187
 7103SOL     OW22207   4.723   4.202   2.961
 7103SOL    HW122208   4.765   4.113   2.940
 7103SOL    HW222209   4.658   4.226   2.889
 7104SOL     OW22210   4.922   3.514   3.476
 7104SOL    HW122211   4.925   3.614   3.472
 7104SOL    HW222212   4.880   3.485   3.562
 7105SOL     OW22213   2.891   3.594   4.187
 7105SOL    HW122214   2.874   3.572   4.283
 7105SOL    HW222215   2.888   3.510   4.132
 7106SOL     OW22216   2.784   3.355   1.229
 7106SOL    HW122217   2.867   3.300   1.218
 7106SOL    HW222218   2.734   3.355   1.142
 7107SOL     OW22219   4.276   0.660   6.714
 7107SOL    HW122220   4.246   0.565   6.720
 7107SOL    HW222221   4.225   0.715   6.780
 7108SOL     OW22222   3.318   0.339   2.690
 7108SOL    HW122223   3.415   0.344   2.713
 7108SOL    HW222224   3.299   0.399   2.612
 7109SOL     OW22225   2.067   0.061   5.656
 7109SOL    HW122226   2.025   6.998   5.667
 7109SOL    HW222227   2.142   0.055   5.590
 7110SOL     OW22228   3.493   6.143   4.628
 7110SOL    HW122229   3.549   6.064   4.604
 7110SOL    HW222230   3.413   6.147   4.569
 7111SOL     OW22231   0.049   0.680   4.258
 7111SOL    HW122232   0.090   0.632   4.180
 7111SOL    HW222233   0.009   0.766   4.226
 7112SOL     OW22234   1.661   5.000   4.419
 7112SOL    HW122235   1.663   4.930   4.491
 7112SOL    HW222236   1.681   5.089   4.459
 7113SOL     OW22237   3.160   5.078   5.490
 7113SOL    HW122238   3.125   5.159   5.443
 7113SOL    HW222239   3.156   4.999   5.429
 7114SOL     OW22240   5.005   5.025   0.343
 7114SOL    HW122241   4.917   4.977   0.346
 7114SOL    HW222242   5.075   4.965   0.304
 7115SOL     OW22243   6.502   4.361   0.270
 7115SOL    HW122244   6.486   4.412   0.355
 7115SOL    HW222245   6.600   4.344   0.261
 7116SOL     OW22246   6.816   3.520   4.411
 7116SOL    HW122247   6.752   3.478   4.347
 7116SOL    HW222248   6.765   3.569   4.481
 7117SOL     OW22249   6.111   0.045   3.218
 7117SOL    HW122250   6.135   6.995   3.159
 7117SOL    HW222251   6.019   0.077   3.196
 7118SOL     OW22252   4.201   4.684   5.281
 7118SOL    HW122253   4.230   4.608   5.224
 7118SOL    HW222254   4.156   4.753   5.224
 7119SOL     OW22255   4.105   6.799   4.503
 7119SOL    HW122256   4.012   6.822   4.477
 7119SOL    HW222257   4.104   6.731   4.577
 7120SOL     OW22258   4.933   0.859   0.780
 7120SOL    HW122259   4.843   0.899   0.765
 7120SOL    HW222260   4.973   0.897   0.863
 7121SOL     OW22261   1.301   6.397   2.934
 7121SOL    HW122262   1.283   6.452   2.852
 7121SOL    HW222263   1.229   6.329   2.945
 7122SOL     OW22264   2.325   0.711   5.646
 7122SOL    HW122265   2.261   0.639   5.671
 7122SOL    HW222266   2.394   0.675   5.584
 7123SOL     OW22267   5.233   5.246   5.951
 7123SOL    HW122268   5.143   5.213   5.977
 7123SOL    HW222269   5.261   5.203   5.865
 7124SOL     OW22270   1.155   2.265   1.559
 7124SOL    HW122271   1.207   2.280   1.643
 7124SOL    HW222272   1.087   2.337   1.548
 7125SOL     OW22273   1.401   6.776   0.980
 7125SOL    HW122274   1.493   6.812   0.966
 7125SOL    HW222275   1.348   6.839   1.037
 7126SOL     OW22276   4.043   5.854   1.504
 7126SOL    HW122277   4.002   5.772   1.545
 7126SOL    HW222278   4.051   5.841   1.405
 7127SOL     OW22279   2.832   6.418   5.533
 7127SOL    HW122280   2.826   6.506   5.487
 7127SOL    HW222281   2.853   6.346   5.466
 7128SOL     OW22282   3.924   4.122   6.647
 7128SOL    HW122283   4.009   4.163   6.612
 7128SOL    HW222284   3.887   4.059   6.578
 7129SOL     OW22285   0.280   0.179   0.427
 7129SOL    HW122286   0.345   0.210   0.497
 7129SOL    HW222287   0.217   0.113   0.468
 7130SOL     OW22288   3.370   6.580   4.442
 7130SOL    HW122289   3.356   6.671   4.401
 7130SOL    HW222290   3.334   6.510   4.381
 7131SOL     OW22291   4.371   0.686   2.574
 7131SOL    HW122292   4.349   0.629   2.654
 7131SOL    HW222293   4.300   0.675   2.505
 7132SOL     OW22294   5.442   4.193   0.271
 7132SOL    HW122295   5.372   4.128   0.241
 7132SOL    HW222296   5.508   4.145   0.329
 7133SOL     OW22297   3.501   5.621   3.231
 7133SOL    HW122298   3.458   5.688   3.172
 7133SOL    HW222299   3.432   5.574   3.285
 7134SOL     OW22300   5.735   5.072   1.146
 7134SOL    HW122301   5.682   5.000   1.102
 7134SOL    HW222302   5.750   5.050   1.242
 7135SOL     OW22303   1.953   3.002   1.517
 7135SOL    HW122304   1.937   2.932   1.447
 7135SOL    HW222305   1.927   2.965   1.607
 7136SOL     OW22306   2.152   1.508   2.005
 7136SOL    HW122307   2.167   1.473   2.098
 7136SOL    HW222308   2.240   1.513   1.957
 7137SOL     OW22309   2.623   1.956   1.483
 7137SOL    HW122310   2.641   2.054   1.490
 7137SOL    HW222311   2.709   1.907   1.473
 7138SOL     OW22312   1.344   2.658   0.852
 7138SOL    HW122313   1.411   2.636   0.923
 7138SOL    HW222314   1.390   2.698   0.773
 7139SOL     OW22315   6.146   5.859   1.318
 7139SOL    HW122316   6.243   5.873   1.300
 7139SOL    HW222317   6.119   5.768   1.287
 7140SOL     OW22318   6.572   3.121   0.553
 7140SOL    HW122319   6.546   3.217   0.545
 7140SOL    HW222320   6.599   3.101   0.648
 7141SOL     OW22321   3.824   0.208   1.203
 7141SOL    HW122322   3.804   0.132   1.141
 7141SOL    HW222323   3.813   0.295   1.154
 7142SOL     OW22324   2.747   0.379   5.022
 7142SOL    HW122325   2.679   0.345   5.087
 7142SOL    HW222326   2.710   0.459   4.975
 7143SOL     OW22327   2.680   4.496   6.982
 7143SOL    HW122328   2.634   4.468   6.897
 7143SOL    HW222329   2.686   4.418   0.016
 7144SOL     OW22330   6.533   0.380   5.395
 7144SOL    HW122331   6.517   0.315   5.321
 7144SOL    HW222332   6.548   0.331   5.480
 7145SOL     OW22333   4.989   2.405   6.475
 7145SOL    HW122334   5.089   2.409   6.477
 7145SOL    HW222335   4.952   2.438   6.562
 7146SOL     OW22336   1.647   1.662   5.131
 7146SOL    HW122337   1.581   1.725   5.172
 7146SOL    HW222338   1.715   1.635   5.199
 7147SOL     OW22339   5.968   5.657   1.647
 7147SOL    HW122340   5.886   5.651   1.705
 7147SOL    HW222341   6.048   5.630   1.700
 7148SOL     OW22342   6.863   6.468   0.674
 7148SOL    HW122343   6.812   6.388   0.705
 7148SOL    HW222344   6.819   6.551   0.707
 7149SOL     OW22345   6.278   4.911   4.650
 7149SOL    HW122346   6.283   4.842   4.578
 7149SOL    HW222347   6.210   4.980   4.626
 7150SOL     OW22348   3.643   3.470   6.877
 7150SOL    HW122349   3.673   3.443   6.969
 7150SOL    HW222350   3.722   3.503   6.825
 7151SOL     OW22351   3.657   0.950   1.154
 7151SOL    HW122352   3.748   0.918   1.130
 7151SOL    HW222353   3.663   1.045   1.187
 7152SOL     OW22354   6.547   1.396   6.576
 7152SOL    HW122355   6.581   1.440   6.659
 7152SOL    HW222356   6.623   1.361   6.523
 7153SOL     OW22357   4.007   6.018   1.106
 7153SOL    HW122358   3.946   6.066   1.042
 7153SOL    HW222359   4.082   6.078   1.132
 7154SOL     OW22360   4.168   1.631   1.587
 7154SOL    HW122361   4.177   1.680   1.674
 7154SOL    HW222362   4.111   1.550   1.601
 7155SOL     OW22363   2.855   1.182   2.365
 7155SOL    HW122364   2.823   1.207   2.457
 7155SOL    HW222365   2.955   1.189   2.362
 7156SOL     OW22366   6.051   4.234   6.884
 7156SOL    HW122367   5.967   4.260   6.931
 7156SOL    HW222368   6.041   4.141   6.848
 7157SOL     OW22369   6.085   4.860   6.534
 7157SOL    HW122370   6.129   4.777   6.500
 7157SOL    HW222371   6.126   4.887   6.620
 7158SOL     OW22372   4.990   6.680   3.952
 7158SOL    HW122373   5.006   6.620   3.873
 7158SOL    HW222374   5.010   6.774   3.926
 7159SOL     OW22375   0.838   5.903   3.299
 7159SOL    HW122376   0.848   5.971   3.226
 7159SOL    HW222377   0.838   5.811   3.260
 7160SOL     OW22378   6.375   6.833   3.196
 7160SOL    HW122379   6.461   6.797   3.232
 7160SOL    HW222380   6.379   6.834   3.096
 7161SOL     OW22381   4.052   3.221   3.504
 7161SOL    HW122382   3.993   3.141   3.515
 7161SOL    HW222383   4.016   3.297   3.558
 7162SOL     OW22384   0.386   5.548   2.079
 7162SOL    HW122385   0.346   5.457   2.070
 7162SOL    HW222386   0.332   5.613   2.026
 7163SOL     OW22387   0.898   1.384   2.157
 7163SOL    HW122388   0.967   1.440   2.204
 7163SOL    HW222389   0.813   1.385   2.210
 7164SOL     OW22390   2.034   1.234   6.581
 7164SOL    HW122391   2.007   1.196   6.670
 7164SOL    HW222392   2.081   1.164   6.528
 7165SOL     OW22393   5.837   1.214   0.433
 7165SOL    HW122394   5.797   1.306   0.437
 7165SOL    HW222395   5.789   1.159   0.364
 7166SOL     OW22396   6.123   6.256   5.789
 7166SOL    HW122397   6.221   6.241   5.802
 7166SOL    HW222398   6.073   6.223   5.869
 7167SOL     OW22399   5.694   2.076   4.960
 7167SOL    HW122400   5.699   2.034   5.051
 7167SOL    HW222401   5.697   2.175   4.969
 7168SOL     OW22402   2.699   0.935   2.068
 7168SOL    HW122403   2.676   0.979   1.981
 7168SOL    HW222404   2.773   0.869   2.053
 7169SOL     OW22405   1.377   4.131   6.380
 7169SOL    HW122406   1.375   4.071   6.300
 7169SOL    HW222407   1.372   4.075   6.463
 7170SOL     OW22408   4.024   1.411   1.411
 7170SOL    HW122409   3.951   1.383   1.348
 7170SOL    HW222410   4.081   1.480   1.367
 7171SOL     OW22411   6.898   4.509   0.688
 7171SOL    HW122412   6.825   4.446   0.716
 7171SOL    HW222413   6.858   4.597   0.664
 7172SOL     OW22414   1.246   1.236   3.852
 7172SOL    HW122415   1.190   1.153   3.853
 7172SOL    HW222416   1.199   1.306   3.797
 7173SOL     OW22417   5.002   5.732   6.035
 7173SOL    HW122418   5.075   5.792   6.067
 7173SOL    HW222419   5.018   5.639   6.068
 7174SOL     OW22420   6.089   4.658   1.596
 7174SOL    HW122421   6.011   4.702   1.640
 7174SOL    HW222422   6.107   4.570   1.641
 7175SOL     OW22423   5.533   3.641   6.294
 7175SOL    HW122424   5.518   3.706   6.367
 7175SOL    HW222425   5.448   3.593   6.273
 7176SOL     OW22426   0.606   0.651   5.701
 7176SOL    HW122427   0.697   0.685   5.677
 7176SOL    HW222428   0.614   0.556   5.732
 7177SOL     OW22429   1.636   5.040   3.762
 7177SOL    HW122430   1.645   4.942   3.746
 7177SOL    HW222431   1.630   5.088   3.675
 7178SOL     OW22432   1.594   0.936   5.551
 7178SOL    HW122433   1.629   1.029   5.559
 7178SOL    HW222434   1.639   0.890   5.474
 7179SOL     OW22435   3.262   5.854   6.329
 7179SOL    HW122436   3.310   5.851   6.241
 7179SOL    HW222437   3.323   5.891   6.399
 7180SOL     OW22438   1.341   4.245   0.962
 7180SOL    HW122439   1.431   4.287   0.953
 7180SOL    HW222440   1.273   4.316   0.983
 7181SOL     OW22441   2.612   1.427   6.149
 7181SOL    HW122442   2.569   1.388   6.230
 7181SOL    HW222443   2.575   1.519   6.133
 7182SOL     OW22444   1.561   2.239   4.427
 7182SOL    HW122445   1.471   2.255   4.469
 7182SOL    HW222446   1.633   2.267   4.490
 7183SOL     OW22447   0.370   6.308   2.109
 7183SOL    HW122448   0.332   6.375   2.045
 7183SOL    HW222449   0.400   6.354   2.192
 7184SOL     OW22450   6.340   0.219   3.629
 7184SOL    HW122451   6.261   0.252   3.681
 7184SOL    HW222452   6.309   0.173   3.546
 7185SOL     OW22453   4.579   0.842   4.300
 7185SOL    HW122454   4.582   0.921   4.362
 7185SOL    HW222455   4.629   0.765   4.341
 7186SOL     OW22456   0.542   7.001   6.697
 7186SOL    HW122457   0.504   0.052   6.650
 7186SOL    HW222458   0.479   6.970   6.768
 7187SOL     OW22459   3.233   2.951   4.141
 7187SOL    HW122460   3.191   2.908   4.221
 7187SOL    HW222461   3.246   3.049   4.158
 7188SOL     OW22462   3.793   4.479   6.712
 7188SOL    HW122463   3.891   4.477   6.694
 7188SOL    HW222464   3.777   4.451   6.807
 7189SOL     OW22465   6.417   2.952   5.900
 7189SOL    HW122466   6.335   3.000   5.931
 7189SOL    HW222467   6.451   2.893   5.973
 7190SOL     OW22468   5.779   5.765   1.092
 7190SOL    HW122469   5.814   5.674   1.074
 7190SOL    HW222470   5.710   5.789   1.023
 7191SOL     OW22471   0.339   4.584   3.709
 7191SOL    HW122472   0.357   4.678   3.681
 7191SOL    HW222473   0.343   4.523   3.629
 7192SOL     OW22474   1.690   4.818   6.704
 7192SOL    HW122475   1.641   4.798   6.619
 7192SOL    HW222476   1.779   4.773   6.702
 7193SOL     OW22477   2.425   2.578   2.738
 7193SOL    HW122478   2.397   2.482   2.735
 7193SOL    HW222479   2.446   2.610   2.646
 7194SOL     OW22480   2.898   2.511   5.898
 7194SOL    HW122481   2.912   2.570   5.818
 7194SOL    HW222482   2.983   2.504   5.950
 7195SOL     OW22483   6.988   3.694   5.950
 7195SOL    HW122484   6.950   3.761   5.887
 7195SOL    HW222485   0.010   3.624   5.898
 7196SOL     OW22486   3.241   3.599   2.224
 7196SOL    HW122487   3.219   3.668   2.155
 7196SOL    HW222488   3.242   3.642   2.315
 7197SOL     OW22489   2.373   3.804   5.900
 7197SOL    HW122490   2.415   3.723   5.941
 7197SOL    HW222491   2.358   3.787   5.802
 7198SOL     OW22492   0.085   0.734   1.644
 7198SOL    HW122493   0.047   0.817   1.685
 7198SOL    HW222494   0.021   0.658   1.654
 7199SOL     OW22495   0.904   1.065   2.293
 7199SOL    HW122496   0.999   1.037   2.301
 7199SOL    HW222497   0.898   1.165   2.304
 7200SOL     OW22498   1.073   2.598   0.833
 7200SOL    HW122499   1.029   2.579   0.921
 7200SOL    HW222500   1.171   2.613   0.847
 7201SOL     OW22501   5.689   5.387   4.090
 7201SOL    HW122502   5.744   5.315   4.048
 7201SOL    HW222503   5.730   5.476   4.070
 7202SOL     OW22504   5.075   0.319   5.679
 7202SOL    HW122505   5.155   0.344   5.734
 7202SOL    HW222506   5.081   0.363   5.589
 7203SOL     OW22507   0.435   1.550   1.991
 7203SOL    HW122508   0.400   1.599   2.071
 7203SOL    HW222509   0.472   1.616   1.925
 7204SOL     OW22510   6.916   6.815   1.067
 7204SOL    HW122511   6.871   6.900   1.038
 7204SOL    HW222512   6.849   6.756   1.112
 7205SOL     OW22513   2.434   2.165   5.029
 7205SOL    HW122514   2.384   2.177   4.944
 7205SOL    HW222515   2.500   2.239   5.041
 7206SOL     OW22516   1.902   2.911   1.128
 7206SOL    HW122517   1.829   2.852   1.091
 7206SOL    HW222518   1.861   2.988   1.176
 7207SOL     OW22519   1.758   1.498   4.453
 7207SOL    HW122520   1.798   1.583   4.487
 7207SOL    HW222521   1.698   1.519   4.376
 7208SOL     OW22522   2.961   0.311   4.207
 7208SOL    HW122523   2.938   0.299   4.304
 7208SOL    HW222524   2.877   0.322   4.154
 7209SOL     OW22525   2.677   1.972   2.517
 7209SOL    HW122526   2.666   2.017   2.429
 7209SOL    HW222527   2.644   2.032   2.590
 7210SOL     OW22528   2.763   1.177   3.118
 7210SOL    HW122529   2.802   1.118   3.047
 7210SOL    HW222530   2.786   1.141   3.208
 7211SOL     OW22531   3.312   5.516   4.758
 7211SOL    HW122532   3.315   5.417   4.753
 7211SOL    HW222533   3.256   5.545   4.835
 7212SOL     OW22534   6.102   4.460   6.191
 7212SOL    HW122535   6.183   4.401   6.201
 7212SOL    HW222536   6.066   4.451   6.098
 7213SOL     OW22537   4.214   1.406   0.578
 7213SOL    HW122538   4.267   1.339   0.526
 7213SOL    HW222539   4.197   1.371   0.670
 7214SOL     OW22540   0.152   1.401   6.716
 7214SOL    HW122541   0.249   1.418   6.702
 7214SOL    HW222542   0.104   1.410   6.629
 7215SOL     OW22543   6.786   2.517   2.429
 7215SOL    HW122544   6.841   2.462   2.366
 7215SOL    HW222545   6.738   2.457   2.493
 7216SOL     OW22546   3.146   6.247   3.128
 7216SOL    HW122547   3.198   6.162   3.132
 7216SOL    HW222548   3.175   6.308   3.202
 7217SOL     OW22549   1.336   4.443   3.313
 7217SOL    HW122550   1.365   4.349   3.291
 7217SOL    HW222551   1.414   4.494   3.348
 7218SOL     OW22552   6.117   3.957   4.165
 7218SOL    HW122553   6.078   3.984   4.253
 7218SOL    HW222554   6.084   4.018   4.093
 7219SOL     OW22555   3.792   6.056   2.069
 7219SOL    HW122556   3.799   6.154   2.089
 7219SOL    HW222557   3.779   6.006   2.155
 7220SOL     OW22558   6.238   5.038   4.263
 7220SOL    HW122559   6.304   5.095   4.312
 7220SOL    HW222560   6.157   5.024   4.319
 7221SOL     OW22561   3.592   5.815   4.919
 7221SOL    HW122562   3.500   5.849   4.933
 7221SOL    HW222563   3.622   5.765   5.001
 7222SOL     OW22564   6.822   0.040   4.229
 7222SOL    HW122565   6.910   0.086   4.240
 7222SOL    HW222566   6.833   6.990   4.167
 7223SOL     OW22567   0.788   2.361   0.996
 7223SOL    HW122568   0.691   2.371   0.975
 7223SOL    HW222569   0.837   2.331   0.914
 7224SOL     OW22570   3.922   2.112   3.404
 7224SOL    HW122571   3.853   2.164   3.354
 7224SOL    HW222572   3.893   2.017   3.413
 7225SOL     OW22573   1.712   0.144   0.886
 7225SOL    HW122574   1.766   0.093   0.819
 7225SOL    HW222575   1.706   0.240   0.858
 7226SOL     OW22576   6.119   6.402   0.310
 7226SOL    HW122577   6.185   6.344   0.263
 7226SOL    HW222578   6.026   6.380   0.280
 7227SOL     OW22579   2.584   1.051   1.852
 7227SOL    HW122580   2.635   1.137   1.860
 7227SOL    HW222581   2.487   1.069   1.869
 7228SOL     OW22582   0.766   3.393   2.286
 7228SOL    HW122583   0.811   3.367   2.201
 7228SOL    HW222584   0.784   3.489   2.305
 7229SOL     OW22585   6.876   0.372   5.167
 7229SOL    HW122586   6.970   0.390   5.194
 7229SOL    HW222587   6.841   0.449   5.114
 7230SOL     OW22588   1.947   5.061   4.284
 7230SOL    HW122589   1.870   5.007   4.317
 7230SOL    HW222590   2.028   5.002   4.276
 7231SOL     OW22591   4.602   1.796   6.273
 7231SOL    HW122592   4.639   1.820   6.363
 7231SOL    HW222593   4.520   1.739   6.285
 7232SOL     OW22594   5.958   6.808   3.114
 7232SOL    HW122595   5.911   6.882   3.065
 7232SOL    HW222596   5.934   6.813   3.211
 7233SOL     OW22597   6.702   1.392   5.214
 7233SOL    HW122598   6.789   1.438   5.197
 7233SOL    HW222599   6.632   1.461   5.232
 7234SOL     OW22600   5.340   3.904   2.742
 7234SOL    HW122601   5.377   3.861   2.825
 7234SOL    HW222602   5.320   3.834   2.674
 7235SOL     OW22603   0.056   6.077   1.455
 7235SOL    HW122604   0.008   6.144   1.398
 7235SOL    HW222605   7.022   6.046   1.528
 7236SOL     OW22606   2.614   2.456   3.199
 7236SOL    HW122607   2.606   2.364   3.237
 7236SOL    HW222608   2.681   2.455   3.124
 7237SOL     OW22609   4.938   0.412   0.105
 7237SOL    HW122610   4.990   0.422   0.021
 7237SOL    HW222611   4.984   0.461   0.179
 7238SOL     OW22612   4.567   3.534   0.100
 7238SOL    HW122613   4.621   3.451   0.115
 7238SOL    HW222614   4.535   3.570   0.187
 7239SOL     OW22615   0.806   3.654   2.449
 7239SOL    HW122616   0.833   3.686   2.539
 7239SOL    HW222617   0.848   3.711   2.379
 7240SOL     OW22618   6.572   1.816   6.076
 7240SOL    HW122619   6.633   1.893   6.056
 7240SOL    HW222620   6.494   1.849   6.130
 7241SOL     OW22621   2.695   1.623   2.086
 7241SOL    HW122622   2.774   1.562   2.092
 7241SOL    HW222623   2.616   1.579   2.129
 7242SOL     OW22624   6.741   5.120   4.402
 7242SOL    HW122625   6.788   5.073   4.476
 7242SOL    HW222626   6.718   5.213   4.431
 7243SOL     OW22627   6.308   4.210   6.165
 7243SOL    HW122628   6.251   4.164   6.234
 7243SOL    HW222629   6.397   4.165   6.161
 7244SOL     OW22630   0.269   6.694   6.676
 7244SOL    HW122631   0.352   6.734   6.715
 7244SOL    HW222632   0.246   6.610   6.726
 7245SOL     OW22633   1.872   2.489   6.761
 7245SOL    HW122634   1.790   2.512   6.813
 7245SOL    HW222635   1.851   2.494   6.663
 7246SOL     OW22636   3.096   0.227   3.634
 7246SOL    HW122637   3.178   0.282   3.649
 7246SOL    HW222638   3.036   0.236   3.713
 7247SOL     OW22639   2.531   2.512   5.254
 7247SOL    HW122640   2.453   2.451   5.266
 7247SOL    HW222641   2.508   2.603   5.288
 7248SOL     OW22642   3.492   0.883   4.418
 7248SOL    HW122643   3.397   0.883   4.447
 7248SOL    HW222644   3.505   0.816   4.344
 7249SOL     OW22645   3.866   5.260   1.835
 7249SOL    HW122646   3.857   5.227   1.929
 7249SOL    HW222647   3.864   5.181   1.773
 7250SOL     OW22648   5.114   5.903   5.568
 7250SOL    HW122649   5.153   5.908   5.660
 7250SOL    HW222650   5.014   5.893   5.575
 7251SOL     OW22651   0.466   6.108   5.309
 7251SOL    HW122652   0.505   6.154   5.389
 7251SOL    HW222653   0.392   6.048   5.339
 7252SOL     OW22654   3.081   3.957   2.444
 7252SOL    HW122655   3.160   4.018   2.438
 7252SOL    HW222656   3.035   3.971   2.532
 7253SOL     OW22657   1.168   5.773   5.490
 7253SOL    HW122658   1.160   5.749   5.394
 7253SOL    HW222659   1.265   5.771   5.517
 7254SOL     OW22660   5.342   4.283   3.995
 7254SOL    HW122661   5.364   4.249   4.087
 7254SOL    HW222662   5.400   4.237   3.928
 7255SOL     OW22663   4.891   2.854   6.554
 7255SOL    HW122664   4.959   2.856   6.481
 7255SOL    HW222665   4.826   2.780   6.537
 7256SOL     OW22666   3.540   6.657   6.199
 7256SOL    HW122667   3.550   6.596   6.120
 7256SOL    HW222668   3.618   6.645   6.261
 7257SOL     OW22669   0.589   1.474   4.783
 7257SOL    HW122670   0.633   1.437   4.866
 7257SOL    HW222671   0.594   1.406   4.710
 7258SOL     OW22672   6.145   1.960   2.782
 7258SOL    HW122673   6.204   1.893   2.826
 7258SOL    HW222674   6.054   1.955   2.821
 7259SOL     OW22675   0.981   3.613   3.357
 7259SOL    HW122676   0.980   3.712   3.344
 7259SOL    HW222677   0.914   3.587   3.427
 7260SOL     OW22678   5.242   2.827   0.426
 7260SOL    HW122679   5.227   2.830   0.327
 7260SOL    HW222680   5.262   2.734   0.454
 7261SOL     OW22681   0.197   3.763   0.292
 7261SOL    HW122682   0.272   3.779   0.356
 7261SOL    HW222683   0.233   3.720   0.209
 7262SOL     OW22684   5.823   2.018   5.738
 7262SOL    HW122685   5.801   2.114   5.756
 7262SOL    HW222686   5.754   1.980   5.676
 7263SOL     OW22687   0.389   5.748   0.382
 7263SOL    HW122688   0.488   5.757   0.379
 7263SOL    HW222689   0.348   5.808   0.313
 7264SOL     OW22690   5.767   1.104   0.167
 7264SOL    HW122691   5.721   1.018   0.148
 7264SOL    HW222692   5.745   1.171   0.096
 7265SOL     OW22693   4.614   5.767   5.245
 7265SOL    HW122694   4.615   5.787   5.147
 7265SOL    HW222695   4.632   5.851   5.296
 7266SOL     OW22696   6.798   0.829   3.963
 7266SOL    HW122697   6.823   0.845   3.868
 7266SOL    HW222698   6.877   0.845   4.022
 7267SOL     OW22699   6.740   5.455   5.219
 7267SOL    HW122700   6.830   5.430   5.182
 7267SOL    HW222701   6.699   5.526   5.162
 7268SOL     OW22702   6.322   6.163   4.560
 7268SOL    HW122703   6.285   6.120   4.642
 7268SOL    HW222704   6.408   6.118   4.535
 7269SOL     OW22705   2.088   5.087   5.778
 7269SOL    HW122706   2.011   5.150   5.778
 7269SOL    HW222707   2.163   5.125   5.832
 7270SOL     OW22708   0.658   1.420   4.021
 7270SOL    HW122709   0.675   1.331   4.063
 7270SOL    HW222710   0.607   1.478   4.084
 7271SOL     OW22711   0.187   4.978   4.202
 7271SOL    HW122712   0.123   4.983   4.125
 7271SOL    HW222713   0.204   4.883   4.226
 7272SOL     OW22714   6.326   5.788   2.306
 7272SOL    HW122715   6.386   5.759   2.231
 7272SOL    HW222716   6.357   5.747   2.392
 7273SOL     OW22717   6.176   3.284   5.873
 7273SOL    HW122718   6.264   3.324   5.845
 7273SOL    HW222719   6.154   3.316   5.966
 7274SOL     OW22720   0.176   4.574   0.136
 7274SOL    HW122721   0.192   4.545   0.042
 7274SOL    HW222722   0.180   4.674   0.141
 7275SOL     OW22723   6.674   0.295   3.505
 7275SOL    HW122724   6.757   0.280   3.453
 7275SOL    HW222725   6.595   0.263   3.453
 7276SOL     OW22726   5.064   6.835   3.649
 7276SOL    HW122727   5.039   6.838   3.552
 7276SOL    HW222728   5.011   6.903   3.700
 7277SOL     OW22729   4.298   0.803   5.825
 7277SOL    HW122730   4.294   0.714   5.869
 7277SOL    HW222731   4.250   0.800   5.737
 7278SOL     OW22732   2.950   3.797   2.255
 7278SOL    HW122733   2.976   3.874   2.312
 7278SOL    HW222734   2.953   3.713   2.308
 7279SOL     OW22735   3.873   5.980   0.272
 7279SOL    HW122736   3.854   5.917   0.197
 7279SOL    HW222737   3.970   6.007   0.269
 7280SOL     OW22738   4.355   6.687   4.849
 7280SOL    HW122739   4.283   6.749   4.879
 7280SOL    HW222740   4.401   6.649   4.930
 7281SOL     OW22741   3.921   2.294   6.280
 7281SOL    HW122742   3.996   2.331   6.225
 7281SOL    HW222743   3.959   2.232   6.349
 7282SOL     OW22744   5.805   5.568   1.853
 7282SOL    HW122745   5.767   5.476   1.843
 7282SOL    HW222746   5.850   5.576   1.942
 7283SOL     OW22747   2.666   0.767   2.661
 7283SOL    HW122748   2.675   0.677   2.618
 7283SOL    HW222749   2.684   0.838   2.594
 7284SOL     OW22750   6.853   3.842   5.537
 7284SOL    HW122751   6.899   3.879   5.618
 7284SOL    HW222752   6.919   3.834   5.462
 7285SOL     OW22753   4.614   5.134   2.047
 7285SOL    HW122754   4.651   5.043   2.063
 7285SOL    HW222755   4.687   5.196   2.020
 7286SOL     OW22756   2.430   2.608   0.906
 7286SOL    HW122757   2.349   2.556   0.878
 7286SOL    HW222758   2.510   2.548   0.907
 7287SOL     OW22759   6.361   1.152   6.298
 7287SOL    HW122760   6.261   1.151   6.300
 7287SOL    HW222761   6.396   1.145   6.392
 7288SOL     OW22762   4.093   0.585   6.328
 7288SOL    HW122763   4.003   0.583   6.371
 7288SOL    HW222764   4.099   0.512   6.260
 7289SOL     OW22765   5.604   1.476   3.383
 7289SOL    HW122766   5.697   1.509   3.397
 7289SOL    HW222767   5.590   1.454   3.287
 7290SOL     OW22768   2.751   5.185   5.716
 7290SOL    HW122769   2.716   5.224   5.630
 7290SOL    HW222770   2.741   5.086   5.714
 7291SOL     OW22771   1.888   0.076   1.702
 7291SOL    HW122772   1.949   7.025   1.708
 7291SOL    HW222773   1.943   0.160   1.705
 7292SOL     OW22774   3.145   6.672   3.602
 7292SOL    HW122775   3.055   6.633   3.625
 7292SOL    HW222776   3.165   6.748   3.664
 7293SOL     OW22777   2.004   1.523   4.906
 7293SOL    HW122778   2.065   1.498   4.830
 7293SOL    HW222779   2.053   1.510   4.992
 7294SOL     OW22780   2.828   5.322   7.027
 7294SOL    HW122781   2.788   5.244   0.046
 7294SOL    HW222782   2.791   5.328   6.934
 7295SOL     OW22783   0.962   1.860   0.845
 7295SOL    HW122784   1.001   1.877   0.936
 7295SOL    HW222785   0.923   1.768   0.843
 7296SOL     OW22786   2.804   4.812   1.290
 7296SOL    HW122787   2.826   4.740   1.357
 7296SOL    HW222788   2.887   4.859   1.263
 7297SOL     OW22789   3.909   6.177   0.527
 7297SOL    HW122790   3.826   6.186   0.473
 7297SOL    HW222791   3.892   6.116   0.605
 7298SOL     OW22792   5.370   4.146   4.242
 7298SOL    HW122793   5.286   4.094   4.258
 7298SOL    HW222794   5.402   4.186   4.327
 7299SOL     OW22795   6.799   2.237   0.363
 7299SOL    HW122796   6.742   2.308   0.321
 7299SOL    HW222797   6.848   2.276   0.441
 7300SOL     OW22798   5.376   5.780   0.820
 7300SOL    HW122799   5.289   5.827   0.803
 7300SOL    HW222800   5.357   5.685   0.844
 7301SOL     OW22801   6.853   0.379   5.655
 7301SOL    HW122802   6.913   0.315   5.701
 7301SOL    HW222803   6.878   0.386   5.558
 7302SOL     OW22804   0.279   1.164   0.390
 7302SOL    HW122805   0.256   1.067   0.393
 7302SOL    HW222806   0.205   1.215   0.346
 7303SOL     OW22807   4.175   0.404   6.700
 7303SOL    HW122808   4.216   0.349   6.773
 7303SOL    HW222809   4.143   0.344   6.627
 7304SOL     OW22810   4.191   3.851   6.646
 7304SOL    HW122811   4.212   3.880   6.553
 7304SOL    HW222812   4.275   3.849   6.700
 7305SOL     OW22813   5.175   2.187   0.505
 7305SOL    HW122814   5.151   2.263   0.565
 7305SOL    HW222815   5.172   2.101   0.556
 7306SOL     OW22816   5.057   3.685   1.775
 7306SOL    HW122817   5.103   3.643   1.697
 7306SOL    HW222818   5.017   3.614   1.833
 7307SOL     OW22819   2.617   6.371   1.749
 7307SOL    HW122820   2.550   6.329   1.687
 7307SOL    HW222821   2.678   6.300   1.785
 7308SOL     OW22822   6.795   3.450   4.814
 7308SOL    HW122823   6.821   3.535   4.859
 7308SOL    HW222824   6.829   3.372   4.867
 7309SOL     OW22825   4.776   6.103   0.738
 7309SOL    HW122826   4.704   6.033   0.742
 7309SOL    HW222827   4.756   6.166   0.663
 7310SOL     OW22828   2.078   5.146   0.889
 7310SOL    HW122829   2.131   5.099   0.959
 7310SOL    HW222830   2.055   5.238   0.920
 7311SOL     OW22831   2.814   1.787   1.868
 7311SOL    HW122832   2.860   1.868   1.906
 7311SOL    HW222833   2.758   1.744   1.938
 7312SOL     OW22834   6.947   2.221   5.486
 7312SOL    HW122835   6.882   2.247   5.415
 7312SOL    HW222836   7.020   2.289   5.492
 7313SOL     OW22837   4.575   2.630   6.004
 7313SOL    HW122838   4.584   2.593   6.096
 7313SOL    HW222839   4.478   2.632   5.978
 7314SOL     OW22840   6.342   3.438   4.953
 7314SOL    HW122841   6.276   3.452   5.027
 7314SOL    HW222842   6.301   3.467   4.866
 7315SOL     OW22843   5.869   6.936   3.865
 7315SOL    HW122844   5.890   6.992   3.785
 7315SOL    HW222845   5.777   6.896   3.854
 7316SOL     OW22846   3.615   3.047   5.164
 7316SOL    HW122847   3.606   3.145   5.147
 7316SOL    HW222848   3.712   3.024   5.179
 7317SOL     OW22849   4.561   0.403   2.143
 7317SOL    HW122850   4.556   0.461   2.225
 7317SOL    HW222851   4.584   0.460   2.064
 7318SOL     OW22852   1.007   1.593   1.433
 7318SOL    HW122853   1.088   1.630   1.388
 7318SOL    HW222854   1.011   1.610   1.531
 7319SOL     OW22855   6.670   4.472   6.908
 7319SOL    HW122856   6.605   4.452   6.981
 7319SOL    HW222857   6.761   4.489   6.947
 7320SOL     OW22858   6.689   3.429   2.231
 7320SOL    HW122859   6.710   3.457   2.138
 7320SOL    HW222860   6.756   3.469   2.294
 7321SOL     OW22861   2.374   1.012   4.758
 7321SOL    HW122862   2.318   1.091   4.785
 7321SOL    HW222863   2.432   0.985   4.834
 7322SOL     OW22864   1.426   3.491   2.783
 7322SOL    HW122865   1.444   3.454   2.692
 7322SOL    HW222866   1.397   3.418   2.844
 7323SOL     OW22867   1.534   1.704   3.129
 7323SOL    HW122868   1.601   1.667   3.193
 7323SOL    HW222869   1.442   1.675   3.156
 7324SOL     OW22870   5.467   0.119   3.031
 7324SOL    HW122871   5.477   0.071   3.118
 7324SOL    HW222872   5.377   0.163   3.027
 7325SOL     OW22873   4.116   6.951   6.119
 7325SOL    HW122874   4.120   6.906   6.208
 7325SOL    HW222875   4.205   6.944   6.074
 7326SOL     OW22876   2.596   5.945   5.310
 7326SOL    HW122877   2.557   5.860   5.274
 7326SOL    HW222878   2.684   5.962   5.266
 7327SOL     OW22879   0.496   2.934   5.560
 7327SOL    HW122880   0.435   3.011   5.541
 7327SOL    HW222881   0.575   2.966   5.612
 7328SOL     OW22882   3.413   0.520   0.182
 7328SOL    HW122883   3.358   0.443   0.151
 7328SOL    HW222884   3.365   0.606   0.161
 7329SOL     OW22885   4.394   3.647   1.030
 7329SOL    HW122886   4.397   3.635   1.129
 7329SOL    HW222887   4.438   3.734   1.006
 7330SOL     OW22888   3.175   1.846   0.257
 7330SOL    HW122889   3.091   1.809   0.217
 7330SOL    HW222890   3.219   1.776   0.313
 7331SOL     OW22891   5.110   1.088   2.042
 7331SOL    HW122892   5.041   1.131   2.101
 7331SOL    HW222893   5.198   1.133   2.055
 7332SOL     OW22894   2.631   6.142   0.217
 7332SOL    HW122895   2.626   6.213   0.147
 7332SOL    HW222896   2.538   6.113   0.241
 7333SOL     OW22897   0.495   4.100   3.838
 7333SOL    HW122898   0.536   4.180   3.793
 7333SOL    HW222899   0.567   4.042   3.876
 7334SOL     OW22900   4.097   5.914   5.706
 7334SOL    HW122901   4.139   5.913   5.797
 7334SOL    HW222902   4.168   5.931   5.637
 7335SOL     OW22903   1.549   2.842   2.620
 7335SOL    HW122904   1.524   2.749   2.646
 7335SOL    HW222905   1.632   2.869   2.670
 7336SOL     OW22906   1.354   6.481   3.776
 7336SOL    HW122907   1.402   6.434   3.850
 7336SOL    HW222908   1.256   6.457   3.780
 7337SOL     OW22909   1.119   2.916   2.203
 7337SOL    HW122910   1.135   2.929   2.105
 7337SOL    HW222911   1.024   2.892   2.218
 7338SOL     OW22912   6.534   2.591   1.563
 7338SOL    HW122913   6.470   2.517   1.585
 7338SOL    HW222914   6.616   2.553   1.520
 7339SOL     OW22915   6.375   6.402   4.117
 7339SOL    HW122916   6.296   6.450   4.079
 7339SOL    HW222917   6.459   6.443   4.081
 7340SOL     OW22918   2.246   0.584   0.355
 7340SOL    HW122919   2.214   0.551   0.266
 7340SOL    HW222920   2.221   0.519   0.426
 7341SOL     OW22921   6.527   1.870   0.263
 7341SOL    HW122922   6.471   1.952   0.276
 7341SOL    HW222923   6.470   1.789   0.272
 7342SOL     OW22924   6.746   0.042   2.319
 7342SOL    HW122925   6.789   6.991   2.364
 7342SOL    HW222926   6.748   0.029   2.220
 7343SOL     OW22927   4.652   2.593   0.183
 7343SOL    HW122928   4.617   2.499   0.189
 7343SOL    HW222929   4.678   2.625   0.273
 7344SOL     OW22930   1.414   6.734   5.955
 7344SOL    HW122931   1.452   6.775   6.038
 7344SOL    HW222932   1.374   6.805   5.899
 7345SOL     OW22933   3.696   3.410   5.403
 7345SOL    HW122934   3.704   3.326   5.457
 7345SOL    HW222935   3.627   3.470   5.444
 7346SOL     OW22936   3.302   6.097   2.698
 7346SOL    HW122937   3.235   6.056   2.637
 7346SOL    HW222938   3.297   6.197   2.692
 7347SOL     OW22939   6.987   2.256   0.060
 7347SOL    HW122940   0.017   2.255   0.141
 7347SOL    HW222941   7.011   2.178   0.001
 7348SOL     OW22942   1.839   4.169   3.666
 7348SOL    HW122943   1.870   4.173   3.762
 7348SOL    HW222944   1.797   4.080   3.649
 7349SOL     OW22945   3.896   0.512   1.116
 7349SOL    HW122946   3.860   0.546   1.029
 7349SOL    HW222947   3.980   0.460   1.099
 7350SOL     OW22948   2.460   0.548   5.441
 7350SOL    HW122949   2.525   0.607   5.489
 7350SOL    HW222950   2.471   0.559   5.343
 7351SOL     OW22951   4.806   4.864   3.681
 7351SOL    HW122952   4.713   4.859   3.718
 7351SOL    HW222953   4.844   4.955   3.695
 7352SOL     OW22954   0.586   2.021   3.238
 7352SOL    HW122955   0.605   1.928   3.207
 7352SOL    HW222956   0.525   2.018   3.318
 7353SOL     OW22957   5.779   0.405   6.706
 7353SOL    HW122958   5.787   0.457   6.791
 7353SOL    HW222959   5.775   0.469   6.629
 7354SOL     OW22960   1.343   1.013   3.343
 7354SOL    HW122961   1.336   1.013   3.243
 7354SOL    HW222962   1.345   0.919   3.376
 7355SOL     OW22963   6.941   1.965   6.514
 7355SOL    HW122964   6.900   2.001   6.598
 7355SOL    HW222965   6.997   1.885   6.536
 7356SOL     OW22966   3.819   3.738   5.888
 7356SOL    HW122967   3.855   3.747   5.795
 7356SOL    HW222968   3.762   3.817   5.909
 7357SOL     OW22969   4.927   5.958   1.473
 7357SOL    HW122970   4.913   5.899   1.552
 7357SOL    HW222971   4.936   6.053   1.503
 7358SOL     OW22972   6.413   2.572   2.288
 7358SOL    HW122973   6.455   2.647   2.340
 7358SOL    HW222974   6.481   2.535   2.224
 7359SOL     OW22975   4.360   1.072   6.276
 7359SOL    HW122976   4.307   1.116   6.348
 7359SOL    HW222977   4.367   1.134   6.198
 7360SOL     OW22978   2.565   3.372   5.753
 7360SOL    HW122979   2.628   3.306   5.711
 7360SOL    HW222980   2.555   3.451   5.693
 7361SOL     OW22981   5.101   0.142   2.342
 7361SOL    HW122982   5.170   0.091   2.392
 7361SOL    HW222983   5.029   0.080   2.311
 7362SOL     OW22984   4.529   5.456   5.683
 7362SOL    HW122985   4.574   5.394   5.747
 7362SOL    HW222986   4.475   5.523   5.735
 7363SOL     OW22987   4.229   1.192   1.523
 7363SOL    HW122988   4.157   1.224   1.461
 7363SOL    HW222989   4.245   1.094   1.509
 7364SOL     OW22990   4.590   6.951   1.724
 7364SOL    HW122991   4.598   0.010   1.773
 7364SOL    HW222992   4.513   6.899   1.761
 7365SOL     OW22993   6.220   4.802   2.876
 7365SOL    HW122994   6.226   4.702   2.878
 7365SOL    HW222995   6.253   4.835   2.788
 7366SOL     OW22996   2.467   0.844   4.151
 7366SOL    HW122997   2.407   0.766   4.138
 7366SOL    HW222998   2.426   0.908   4.216
 7367SOL     OW22999   4.634   1.887   6.773
 7367SOL    HW123000   4.696   1.809   6.762
 7367SOL    HW223001   4.544   1.864   6.736
 7368SOL     OW23002   3.902   3.372   2.743
 7368SOL    HW123003   3.990   3.329   2.726
 7368SOL    HW223004   3.837   3.343   2.672
 7369SOL     OW23005   4.248   2.666   0.703
 7369SOL    HW123006   4.244   2.764   0.681
 7369SOL    HW223007   4.155   2.631   0.715
 7370SOL     OW23008   2.738   1.736   5.217
 7370SOL    HW123009   2.707   1.651   5.259
 7370SOL    HW223010   2.838   1.743   5.225
 7371SOL     OW23011   3.863   6.922   3.603
 7371SOL    HW123012   3.806   6.871   3.667
 7371SOL    HW223013   3.851   6.884   3.511
 7372SOL     OW23014   3.624   0.342   4.773
 7372SOL    HW123015   3.620   0.410   4.700
 7372SOL    HW223016   3.574   0.377   4.853
 7373SOL     OW23017   4.621   2.213   4.981
 7373SOL    HW123018   4.636   2.206   5.080
 7373SOL    HW223019   4.579   2.301   4.960
 7374SOL     OW23020   1.121   1.725   4.805
 7374SOL    HW123021   1.159   1.809   4.841
 7374SOL    HW223022   1.026   1.716   4.833
 7375SOL     OW23023   2.174   3.072   2.284
 7375SOL    HW123024   2.141   3.029   2.200
 7375SOL    HW223025   2.167   3.172   2.275
 7376SOL     OW23026   0.630   3.561   0.882
 7376SOL    HW123027   0.688   3.617   0.823
 7376SOL    HW223028   0.667   3.469   0.889
 7377SOL     OW23029   3.056   5.071   0.478
 7377SOL    HW123030   3.134   5.114   0.433
 7377SOL    HW223031   2.991   5.142   0.506
 7378SOL     OW23032   1.911   6.347   4.014
 7378SOL    HW123033   1.991   6.377   4.065
 7378SOL    HW223034   1.865   6.427   3.974
 7379SOL     OW23035   3.922   0.691   1.493
 7379SOL    HW123036   3.879   0.758   1.554
 7379SOL    HW223037   3.868   0.607   1.492
 7380SOL     OW23038   6.136   4.355   3.202
 7380SOL    HW123039   6.125   4.309   3.291
 7380SOL    HW223040   6.058   4.415   3.186
 7381SOL     OW23041   4.396   1.326   0.247
 7381SOL    HW123042   4.342   1.295   0.325
 7381SOL    HW223043   4.478   1.374   0.279
 7382SOL     OW23044   0.290   1.481   6.078
 7382SOL    HW123045   0.245   1.510   5.994
 7382SOL    HW223046   0.236   1.408   6.121
 7383SOL     OW23047   1.660   6.703   1.669
 7383SOL    HW123048   1.690   6.699   1.574
 7383SOL    HW223049   1.655   6.798   1.698
 7384SOL     OW23050   0.675   6.817   0.984
 7384SOL    HW123051   0.772   6.798   1.001
 7384SOL    HW223052   0.624   6.810   1.070
 7385SOL     OW23053   3.810   5.257   2.879
 7385SOL    HW123054   3.739   5.235   2.812
 7385SOL    HW223055   3.899   5.231   2.843
 7386SOL     OW23056   6.223   3.322   0.662
 7386SOL    HW123057   6.127   3.342   0.681
 7386SOL    HW223058   6.236   3.223   0.655
 7387SOL     OW23059   6.493   4.753   5.541
 7387SOL    HW123060   6.445   4.762   5.454
 7387SOL    HW223061   6.551   4.833   5.556
 7388SOL     OW23062   1.531   6.408   2.220
 7388SOL    HW123063   1.510   6.314   2.193
 7388SOL    HW223064   1.564   6.459   2.140
 7389SOL     OW23065   6.849   3.302   0.564
 7389SOL    HW123066   6.793   3.219   0.569
 7389SOL    HW223067   6.895   3.316   0.652
 7390SOL     OW23068   2.188   1.567   3.191
 7390SOL    HW123069   2.104   1.565   3.137
 7390SOL    HW223070   2.229   1.658   3.185
 7391SOL     OW23071   3.954   3.032   2.527
 7391SOL    HW123072   4.049   3.063   2.521
 7391SOL    HW223073   3.932   3.010   2.622
 7392SOL     OW23074   3.989   5.688   6.570
 7392SOL    HW123075   3.962   5.752   6.642
 7392SOL    HW223076   3.936   5.604   6.579
 7393SOL     OW23077   6.392   4.810   4.195
 7393SOL    HW123078   6.472   4.828   4.138
 7393SOL    HW223079   6.333   4.890   4.198
 7394SOL     OW23080   1.934   2.670   6.063
 7394SOL    HW123081   1.954   2.645   5.968
 7394SOL    HW223082   1.921   2.769   6.068
 7395SOL     OW23083   2.451   4.201   1.033
 7395SOL    HW123084   2.413   4.112   1.006
 7395SOL    HW223085   2.397   4.238   1.109
 7396SOL     OW23086   3.036   5.477   1.601
 7396SOL    HW123087   3.003   5.508   1.512
 7396SOL    HW223088   3.050   5.378   1.599
 7397SOL     OW23089   5.532   3.786   4.377
 7397SOL    HW123090   5.543   3.849   4.454
 7397SOL    HW223091   5.558   3.833   4.293
 7398SOL     OW23092   2.123   4.273   3.344
 7398SOL    HW123093   2.058   4.198   3.357
 7398SOL    HW223094   2.073   4.356   3.320
 7399SOL     OW23095   5.687   2.346   4.878
 7399SOL    HW123096   5.644   2.426   4.919
 7399SOL    HW223097   5.725   2.371   4.789
 7400SOL     OW23098   5.508   2.424   5.364
 7400SOL    HW123099   5.497   2.498   5.430
 7400SOL    HW223100   5.541   2.461   5.277
 7401SOL     OW23101   1.622   3.261   3.555
 7401SOL    HW123102   1.548   3.289   3.493
 7401SOL    HW223103   1.698   3.224   3.502
 7402SOL     OW23104   2.879   5.605   4.998
 7402SOL    HW123105   2.832   5.535   4.945
 7402SOL    HW223106   2.823   5.688   5.001
 7403SOL     OW23107   1.330   2.799   3.997
 7403SOL    HW123108   1.269   2.721   4.013
 7403SOL    HW223109   1.424   2.766   3.988
 7404SOL     OW23110   2.907   3.800   1.425
 7404SOL    HW123111   2.889   3.871   1.493
 7404SOL    HW223112   2.986   3.745   1.455
 7405SOL     OW23113   2.985   5.888   5.383
 7405SOL    HW123114   2.918   5.822   5.348
 7405SOL    HW223115   3.000   5.960   5.315
 7406SOL     OW23116   0.784   0.909   4.930
 7406SOL    HW123117   0.756   0.871   5.018
 7406SOL    HW223118   0.733   0.993   4.912
 7407SOL     OW23119   0.643   5.691   0.236
 7407SOL    HW123120   0.569   5.711   0.171
 7407SOL    HW223121   0.678   5.599   0.219
 7408SOL     OW23122   3.430   4.303   5.278
 7408SOL    HW123123   3.367   4.326   5.205
 7408SOL    HW223124   3.464   4.210   5.265
 7409SOL     OW23125   6.156   4.170   0.770
 7409SOL    HW123126   6.215   4.182   0.850
 7409SOL    HW223127   6.208   4.126   0.696
 7410SOL     OW23128   7.017   0.217   0.875
 7410SOL    HW123129   0.059   0.181   0.937
 7410SOL    HW223130   6.983   0.305   0.910
 7411SOL     OW23131   0.606   1.607   5.842
 7411SOL    HW123132   0.680   1.565   5.789
 7411SOL    HW223133   0.586   1.698   5.804
 7412SOL     OW23134   3.792   0.028   0.129
 7412SOL    HW123135   3.765   0.112   0.081
 7412SOL    HW223136   3.830   0.053   0.218
 7413SOL     OW23137   3.880   5.734   3.575
 7413SOL    HW123138   3.926   5.737   3.664
 7413SOL    HW223139   3.943   5.698   3.506
 7414SOL     OW23140   2.508   2.051   4.586
 7414SOL    HW123141   2.549   1.960   4.592
 7414SOL    HW223142   2.411   2.042   4.563
 7415SOL     OW23143   3.735   6.749   6.544
 7415SOL    HW123144   3.643   6.726   6.575
 7415SOL    HW223145   3.740   6.847   6.526
 7416SOL     OW23146   0.723   1.980   2.570
 7416SOL    HW123147   0.665   1.981   2.488
 7416SOL    HW223148   0.762   2.071   2.584
 7417SOL     OW23149   0.883   2.202   3.735
 7417SOL    HW123150   0.916   2.230   3.645
 7417SOL    HW223151   0.851   2.107   3.731
 7418SOL     OW23152   1.397   3.700   6.563
 7418SOL    HW123153   1.390   3.623   6.626
 7418SOL    HW223154   1.493   3.713   6.536
 7419SOL     OW23155   6.612   4.295   3.796
 7419SOL    HW123156   6.571   4.226   3.857
 7419SOL    HW223157   6.564   4.294   3.708
 7420SOL     OW23158   0.010   6.708   1.913
 7420SOL    HW123159   6.943   6.738   1.917
 7420SOL    HW223160   0.058   6.738   1.996
 7421SOL     OW23161   4.732   3.497   1.753
 7421SOL    HW123162   4.729   3.573   1.688
 7421SOL    HW223163   4.652   3.439   1.739
 7422SOL     OW23164   5.993   2.763   1.943
 7422SOL    HW123165   5.907   2.796   1.906
 7422SOL    HW223166   6.061   2.837   1.941
 7423SOL     OW23167   5.954   2.208   5.409
 7423SOL    HW123168   6.005   2.159   5.338
 7423SOL    HW223169   5.984   2.177   5.499
 7424SOL     OW23170   6.922   0.830   5.016
 7424SOL    HW123171   6.887   0.875   4.933
 7424SOL    HW223172   7.007   0.782   4.994
 7425SOL     OW23173   5.556   0.097   0.683
 7425SOL    HW123174   5.587   0.072   0.591
 7425SOL    HW223175   5.635   0.115   0.741
 7426SOL     OW23176   3.935   2.877   5.713
 7426SOL    HW123177   3.992   2.945   5.668
 7426SOL    HW223178   3.914   2.803   5.649
 7427SOL     OW23179   3.530   1.266   3.624
 7427SOL    HW123180   3.502   1.184   3.576
 7427SOL    HW223181   3.451   1.326   3.637
 7428SOL     OW23182   4.304   6.708   5.697
 7428SOL    HW123183   4.238   6.715   5.772
 7428SOL    HW223184   4.327   6.612   5.683
 7429SOL     OW23185   1.381   6.874   2.630
 7429SOL    HW123186   1.407   6.836   2.719
 7429SOL    HW223187   1.447   6.845   2.561
 7430SOL     OW23188   6.797   5.008   2.741
 7430SOL    HW123189   6.743   4.952   2.803
 7430SOL    HW223190   6.833   5.088   2.789
 7431SOL     OW23191   2.119   2.342   4.847
 7431SOL    HW123192   2.198   2.292   4.811
 7431SOL    HW223193   2.086   2.406   4.777
 7432SOL     OW23194   1.886   6.977   3.590
 7432SOL    HW123195   1.984   6.988   3.606
 7432SOL    HW223196   1.836   6.987   3.676
 7433SOL     OW23197   2.910   6.782   6.514
 7433SOL    HW123198   2.829   6.835   6.488
 7433SOL    HW223199   2.949   6.739   6.432
 7434SOL     OW23200   4.189   6.324   5.779
 7434SOL    HW123201   4.249   6.308   5.857
 7434SOL    HW223202   4.108   6.266   5.787
 7435SOL     OW23203   4.460   6.342   2.936
 7435SOL    HW123204   4.489   6.426   2.890
 7435SOL    HW223205   4.533   6.309   2.996
 7436SOL     OW23206   4.924   3.612   6.448
 7436SOL    HW123207   4.919   3.536   6.512
 7436SOL    HW223208   4.940   3.697   6.498
 7437SOL     OW23209   4.103   6.262   1.220
 7437SOL    HW123210   4.037   6.216   1.279
 7437SOL    HW223211   4.184   6.286   1.274
 7438SOL     OW23212   2.478   0.998   0.428
 7438SOL    HW123213   2.416   1.000   0.507
 7438SOL    HW223214   2.461   0.915   0.374
 7439SOL     OW23215   1.585   4.722   6.231
 7439SOL    HW123216   1.649   4.670   6.175
 7439SOL    HW223217   1.507   4.750   6.174
 7440SOL     OW23218   4.814   2.956   3.789
 7440SOL    HW123219   4.793   3.029   3.725
 7440SOL    HW223220   4.875   2.890   3.746
 7441SOL     OW23221   6.169   5.886   1.881
 7441SOL    HW123222   6.177   5.874   1.782
 7441SOL    HW223223   6.127   5.975   1.900
 7442SOL     OW23224   5.325   0.297   5.914
 7442SOL    HW123225   5.388   0.324   5.987
 7442SOL    HW223226   5.361   0.329   5.826
 7443SOL     OW23227   0.114   6.515   2.280
 7443SOL    HW123228   0.050   6.591   2.272
 7443SOL    HW223229   0.127   6.473   2.190
 7444SOL     OW23230   1.132   0.015   5.978
 7444SOL    HW123231   1.197   0.083   6.011
 7444SOL    HW223232   1.047   0.022   6.030
 7445SOL     OW23233   4.588   5.966   2.342
 7445SOL    HW123234   4.520   6.033   2.310
 7445SOL    HW223235   4.670   6.014   2.371
 7446SOL     OW23236   5.259   3.286   0.090
 7446SOL    HW123237   5.294   3.373   0.054
 7446SOL    HW223238   5.227   3.229   0.015
 7447SOL     OW23239   0.332   4.549   0.861
 7447SOL    HW123240   0.331   4.456   0.825
 7447SOL    HW223241   0.238   4.585   0.863
 7448SOL     OW23242   4.719   5.443   6.009
 7448SOL    HW123243   4.738   5.518   5.946
 7448SOL    HW223244   4.716   5.357   5.959
 7449SOL     OW23245   0.396   4.314   6.802
 7449SOL    HW123246   0.334   4.366   6.861
 7449SOL    HW223247   0.478   4.369   6.785
 7450SOL     OW23248   5.547   1.651   5.475
 7450SOL    HW123249   5.517   1.566   5.518
 7450SOL    HW223250   5.521   1.652   5.379
 7451SOL     OW23251   5.844   5.219   2.467
 7451SOL    HW123252   5.789   5.229   2.549
 7451SOL    HW223253   5.784   5.199   2.389
 7452SOL     OW23254   4.849   6.356   5.133
 7452SOL    HW123255   4.854   6.438   5.191
 7452SOL    HW223256   4.753   6.335   5.113
 7453SOL     OW23257   4.097   5.430   6.409
 7453SOL    HW123258   4.049   5.479   6.482
 7453SOL    HW223259   4.163   5.366   6.450
 7454SOL     OW23260   3.467   2.384   0.508
 7454SOL    HW123261   3.438   2.316   0.439
 7454SOL    HW223262   3.469   2.340   0.598
 7455SOL     OW23263   6.091   2.672   2.656
 7455SOL    HW123264   6.052   2.752   2.701
 7455SOL    HW223265   6.044   2.590   2.688
 7456SOL     OW23266   2.947   1.923   5.607
 7456SOL    HW123267   2.987   2.000   5.657
 7456SOL    HW223268   2.865   1.892   5.654
 7457SOL     OW23269   2.806   0.115   3.216
 7457SOL    HW123270   2.896   0.075   3.233
 7457SOL    HW223271   2.807   0.166   3.130
 7458SOL     OW23272   0.735   6.455   5.397
 7458SOL    HW123273   0.774   6.404   5.320
 7458SOL    HW223274   0.808   6.498   5.449
 7459SOL     OW23275   6.142   1.101   2.822
 7459SOL    HW123276   6.124   1.029   2.889
 7459SOL    HW223277   6.060   1.156   2.810
 7460SOL     OW23278   0.941   6.982   0.793
 7460SOL    HW123279   0.869   0.015   0.757
 7460SOL    HW223280   0.915   6.887   0.777
 7461SOL     OW23281   0.838   5.775   6.092
 7461SOL    HW123282   0.896   5.855   6.111
 7461SOL    HW223283   0.859   5.741   6.000
 7462SOL     OW23284   1.105   5.429   1.373
 7462SOL    HW123285   1.117   5.523   1.407
 7462SOL    HW223286   1.060   5.374   1.443
 7463SOL     OW23287   4.408   4.624   6.975
 7463SOL    HW123288   4.321   4.629   6.927
 7463SOL    HW223289   4.476   4.581   6.917
 7464SOL     OW23290   6.435   5.555   5.271
 7464SOL    HW123291   6.356   5.547   5.210
 7464SOL    HW223292   6.484   5.468   5.275
 7465SOL     OW23293   2.480   5.187   0.242
 7465SOL    HW123294   2.567   5.184   0.292
 7465SOL    HW223295   2.436   5.275   0.256
 7466SOL     OW23296   0.421   6.426   4.415
 7466SOL    HW123297   0.510   6.464   4.439
 7466SOL    HW223298   0.352   6.498   4.417
 7467SOL     OW23299   0.259   3.213   6.079
 7467SOL    HW123300   0.347   3.188   6.118
 7467SOL    HW223301   0.187   3.199   6.147
 7468SOL     OW23302   5.719   3.241   5.673
 7468SOL    HW123303   5.787   3.292   5.621
 7468SOL    HW223304   5.757   3.153   5.701
 7469SOL     OW23305   6.568   2.458   0.520
 7469SOL    HW123306   6.487   2.510   0.547
 7469SOL    HW223307   6.649   2.515   0.531
 7470SOL     OW23308   5.696   3.564   4.073
 7470SOL    HW123309   5.646   3.634   4.023
 7470SOL    HW223310   5.749   3.508   4.008
 7471SOL     OW23311   5.751   5.512   6.561
 7471SOL    HW123312   5.719   5.466   6.644
 7471SOL    HW223313   5.721   5.461   6.481
 7472SOL     OW23314   6.298   6.249   5.236
 7472SOL    HW123315   6.210   6.293   5.215
 7472SOL    HW223316   6.281   6.165   5.288
 7473SOL     OW23317   4.308   6.803   3.824
 7473SOL    HW123318   4.217   6.777   3.791
 7473SOL    HW223319   4.319   6.902   3.815
 7474SOL     OW23320   6.184   1.949   5.906
 7474SOL    HW123321   6.249   2.019   5.874
 7474SOL    HW223322   6.218   1.908   5.990
 7475SOL     OW23323   4.742   2.253   1.268
 7475SOL    HW123324   4.673   2.201   1.219
 7475SOL    HW223325   4.786   2.195   1.336
 7476SOL     OW23326   2.267   1.302   3.207
 7476SOL    HW123327   2.335   1.289   3.135
 7476SOL    HW223328   2.235   1.396   3.206
 7477SOL     OW23329   0.969   4.208   5.540
 7477SOL    HW123330   0.939   4.296   5.578
 7477SOL    HW223331   1.024   4.223   5.459
 7478SOL     OW23332   6.895   1.931   5.052
 7478SOL    HW123333   6.968   1.986   5.013
 7478SOL    HW223334   6.864   1.864   4.985
 7479SOL     OW23335   6.526   3.247   6.608
 7479SOL    HW123336   6.517   3.238   6.707
 7479SOL    HW223337   6.532   3.156   6.567
 7480SOL     OW23338   3.648   4.850   2.276
 7480SOL    HW123339   3.605   4.763   2.252
 7480SOL    HW223340   3.582   4.909   2.321
 7481SOL     OW23341   6.648   4.066   6.674
 7481SOL    HW123342   6.704   3.994   6.714
 7481SOL    HW223343   6.696   4.153   6.680
 7482SOL     OW23344   4.057   2.177   2.310
 7482SOL    HW123345   3.979   2.223   2.267
 7482SOL    HW223346   4.073   2.090   2.264
 7483SOL     OW23347   4.456   2.627   5.477
 7483SOL    HW123348   4.413   2.604   5.564
 7483SOL    HW223349   4.423   2.565   5.405
 7484SOL     OW23350   2.797   6.579   4.486
 7484SOL    HW123351   2.807   6.644   4.561
 7484SOL    HW223352   2.878   6.519   4.484
 7485SOL     OW23353   2.495   0.239   4.062
 7485SOL    HW123354   2.469   0.318   4.118
 7485SOL    HW223355   2.587   0.252   4.026
 7486SOL     OW23356   1.589   6.687   0.463
 7486SOL    HW123357   1.686   6.664   0.465
 7486SOL    HW223358   1.543   6.649   0.543
 7487SOL     OW23359   4.114   6.606   3.488
 7487SOL    HW123360   4.042   6.606   3.557
 7487SOL    HW223361   4.112   6.520   3.437
 7488SOL     OW23362   0.933   5.829   3.930
 7488SOL    HW123363   0.897   5.876   4.011
 7488SOL    HW223364   0.857   5.787   3.881
 7489SOL     OW23365   6.011   3.979   6.767
 7489SOL    HW123366   6.094   3.958   6.818
 7489SOL    HW223367   5.987   3.902   6.708
 7490SOL     OW23368   1.167   2.260   2.754
 7490SOL    HW123369   1.208   2.274   2.664
 7490SOL    HW223370   1.091   2.196   2.747
 7491SOL     OW23371   4.337   3.152   0.227
 7491SOL    HW123372   4.341   3.125   0.323
 7491SOL    HW223373   4.286   3.238   0.218
 7492SOL     OW23374   1.475   0.395   4.607
 7492SOL    HW123375   1.507   0.488   4.626
 7492SOL    HW223376   1.410   0.367   4.678
 7493SOL     OW23377   5.939   3.756   5.311
 7493SOL    HW123378   5.893   3.786   5.395
 7493SOL    HW223379   5.919   3.660   5.294
 7494SOL     OW23380   5.635   1.381   2.676
 7494SOL    HW123381   5.577   1.376   2.758
 7494SOL    HW223382   5.624   1.297   2.623
 7495SOL     OW23383   2.155   3.591   4.606
 7495SOL    HW123384   2.133   3.643   4.689
 7495SOL    HW223385   2.194   3.503   4.632
 7496SOL     OW23386   5.793   3.840   2.801
 7496SOL    HW123387   5.720   3.851   2.734
 7496SOL    HW223388   5.821   3.744   2.804
 7497SOL     OW23389   0.770   6.594   0.503
 7497SOL    HW123390   0.676   6.589   0.538
 7497SOL    HW223391   0.774   6.654   0.424
 7498SOL     OW23392   3.135   0.422   3.129
 7498SOL    HW123393   3.083   0.349   3.173
 7498SOL    HW223394   3.219   0.438   3.181
 7499SOL     OW23395   3.551   2.016   3.780
 7499SOL    HW123396   3.513   2.087   3.839
 7499SOL    HW223397   3.481   1.948   3.759
 7500SOL     OW23398   4.347   6.800   3.486
 7500SOL    HW123399   4.272   6.735   3.497
 7500SOL    HW223400   4.311   6.893   3.494
 7501SOL     OW23401   5.846   2.404   4.639
 7501SOL    HW123402   5.815   2.315   4.608
 7501SOL    HW223403   5.830   2.472   4.568
 7502SOL     OW23404   3.707   0.081   4.399
 7502SOL    HW123405   3.806   0.065   4.392
 7502SOL    HW223406   3.679   0.147   4.329
 7503SOL     OW23407   2.088   6.337   1.497
 7503SOL    HW123408   2.143   6.273   1.443
 7503SOL    HW223409   2.149   6.403   1.543
 7504SOL     OW23410   6.741   6.860   3.554
 7504SOL    HW123411   6.822   6.879   3.610
 7504SOL    HW223412   6.677   6.937   3.560
 7505SOL     OW23413   0.508   0.137   4.765
 7505SOL    HW123414   0.494   0.191   4.682
 7505SOL    HW223415   0.573   0.064   4.746
 7506SOL     OW23416   2.995   1.595   3.288
 7506SOL    HW123417   2.905   1.614   3.327
 7506SOL    HW223418   3.055   1.558   3.358
 7507SOL     OW23419   6.365   3.708   4.538
 7507SOL    HW123420   6.309   3.710   4.456
 7507SOL    HW223421   6.450   3.659   4.519
 7508SOL     OW23422   1.966   6.039   6.956
 7508SOL    HW123423   1.985   5.941   6.951
 7508SOL    HW223424   1.910   6.059   0.009
 7509SOL     OW23425   4.936   3.690   0.363
 7509SOL    HW123426   5.018   3.721   0.412
 7509SOL    HW223427   4.855   3.730   0.407
 7510SOL     OW23428   3.355   4.182   3.772
 7510SOL    HW123429   3.359   4.266   3.825
 7510SOL    HW223430   3.429   4.121   3.800
 7511SOL     OW23431   3.406   5.785   3.031
 7511SOL    HW123432   3.453   5.813   2.948
 7511SOL    HW223433   3.328   5.845   3.048
 7512SOL     OW23434   3.383   6.385   6.174
 7512SOL    HW123435   3.337   6.463   6.217
 7512SOL    HW223436   3.420   6.413   6.085
 7513SOL     OW23437   1.635   2.029   3.501
 7513SOL    HW123438   1.720   1.983   3.527
 7513SOL    HW223439   1.638   2.124   3.533
 7514SOL     OW23440   2.238   4.102   2.961
 7514SOL    HW123441   2.229   4.059   3.051
 7514SOL    HW223442   2.156   4.084   2.907
 7515SOL     OW23443   6.798   3.894   4.669
 7515SOL    HW123444   6.738   3.892   4.749
 7515SOL    HW223445   6.892   3.906   4.698
 7516SOL     OW23446   1.092   5.334   5.398
 7516SOL    HW123447   1.018   5.276   5.433
 7516SOL    HW223448   1.123   5.395   5.471
 7517SOL     OW23449   0.462   2.364   6.831
 7517SOL    HW123450   0.401   2.289   6.858
 7517SOL    HW223451   0.488   2.416   6.912
 7518SOL     OW23452   4.677   2.785   3.993
 7518SOL    HW123453   4.688   2.821   4.086
 7518SOL    HW223454   4.726   2.843   3.928
 7519SOL     OW23455   3.608   6.819   4.946
 7519SOL    HW123456   3.566   6.847   4.859
 7519SOL    HW223457   3.685   6.879   4.966
 7520SOL     OW23458   2.088   1.993   1.983
 7520SOL    HW123459   1.999   2.037   1.974
 7520SOL    HW223460   2.100   1.927   1.908
 7521SOL     OW23461   4.669   1.395   4.734
 7521SOL    HW123462   4.718   1.334   4.796
 7521SOL    HW223463   4.695   1.375   4.640
 7522SOL     OW23464   1.547   6.409   2.877
 7522SOL    HW123465   1.594   6.484   2.924
 7522SOL    HW223466   1.449   6.413   2.899
 7523SOL     OW23467   5.618   1.578   6.234
 7523SOL    HW123468   5.652   1.519   6.161
 7523SOL    HW223469   5.695   1.606   6.292
 7524SOL     OW23470   0.236   2.481   4.734
 7524SOL    HW123471   0.212   2.423   4.656
 7524SOL    HW223472   0.198   2.441   4.818
 7525SOL     OW23473   4.552   6.060   6.148
 7525SOL    HW123474   4.474   6.009   6.185
 7525SOL    HW223475   4.585   6.017   6.065
 7526SOL     OW23476   2.067   3.520   1.739
 7526SOL    HW123477   2.126   3.526   1.658
 7526SOL    HW223478   2.123   3.512   1.821
 7527SOL     OW23479   4.088   5.525   3.660
 7527SOL    HW123480   4.159   5.474   3.709
 7527SOL    HW223481   4.003   5.472   3.662
 7528SOL     OW23482   6.437   2.818   6.145
 7528SOL    HW123483   6.343   2.814   6.112
 7528SOL    HW223484   6.437   2.805   6.245
 7529SOL     OW23485   6.014   2.351   3.792
 7529SOL    HW123486   5.932   2.342   3.849
 7529SOL    HW223487   5.990   2.393   3.705
 7530SOL     OW23488   6.894   1.872   2.109
 7530SOL    HW123489   6.850   1.937   2.046
 7530SOL    HW223490   6.836   1.858   2.189
 7531SOL     OW23491   4.512   2.061   3.648
 7531SOL    HW123492   4.421   2.050   3.686
 7531SOL    HW223493   4.511   2.039   3.551
 7532SOL     OW23494   4.279   5.598   6.873
 7532SOL    HW123495   4.371   5.562   6.883
 7532SOL    HW223496   4.215   5.523   6.855
 7533SOL     OW23497   4.517   3.344   1.709
 7533SOL    HW123498   4.541   3.255   1.747
 7533SOL    HW223499   4.418   3.355   1.706
 7534SOL     OW23500   4.857   0.310   3.968
 7534SOL    HW123501   4.929   0.271   3.911
 7534SOL    HW223502   4.770   0.264   3.949
 7535SOL     OW23503   0.762   5.607   4.202
 7535SOL    HW123504   0.690   5.606   4.272
 7535SOL    HW223505   0.771   5.699   4.165
 7536SOL     OW23506   5.041   5.827   3.953
 7536SOL    HW123507   5.004   5.821   4.046
 7536SOL    HW223508   5.087   5.741   3.929
 7537SOL     OW23509   2.775   5.986   2.689
 7537SOL    HW123510   2.807   6.067   2.641
 7537SOL    HW223511   2.814   5.983   2.781
 7538SOL     OW23512   0.685   3.765   1.346
 7538SOL    HW123513   0.605   3.820   1.368
 7538SOL    HW223514   0.693   3.757   1.246
 7539SOL     OW23515   0.330   5.748   3.667
 7539SOL    HW123516   0.349   5.827   3.726
 7539SOL    HW223517   0.413   5.693   3.657
 7540SOL     OW23518   5.660   5.221   4.296
 7540SOL    HW123519   5.679   5.139   4.241
 7540SOL    HW223520   5.664   5.302   4.237
 7541SOL     OW23521   0.776   3.780   6.778
 7541SOL    HW123522   0.713   3.792   6.701
 7541SOL    HW223523   0.777   3.684   6.805
 7542SOL     OW23524   6.037   5.579   6.477
 7542SOL    HW123525   6.048   5.595   6.379
 7542SOL    HW223526   5.940   5.563   6.497
 7543SOL     OW23527   2.518   0.809   5.243
 7543SOL    HW123528   2.423   0.827   5.267
 7543SOL    HW223529   2.577   0.832   5.321
 7544SOL     OW23530   6.945   3.025   3.548
 7544SOL    HW123531   6.986   3.076   3.623
 7544SOL    HW223532   7.008   3.022   3.471
 7545SOL     OW23533   0.677   5.361   6.923
 7545SOL    HW123534   0.727   5.300   6.985
 7545SOL    HW223535   0.643   5.308   6.846
 7546SOL     OW23536   3.050   3.012   1.705
 7546SOL    HW123537   3.113   3.085   1.677
 7546SOL    HW223538   3.092   2.956   1.776
 7547SOL     OW23539   4.631   0.118   1.902
 7547SOL    HW123540   4.690   0.193   1.933
 7547SOL    HW223541   4.542   0.125   1.947
 7548SOL     OW23542   4.722   2.442   6.212
 7548SOL    HW123543   4.773   2.507   6.156
 7548SOL    HW223544   4.759   2.350   6.199
 7549SOL     OW23545   4.372   2.432   5.327
 7549SOL    HW123546   4.303   2.441   5.255
 7549SOL    HW223547   4.397   2.336   5.336
 7550SOL     OW23548   1.553   4.010   4.102
 7550SOL    HW123549   1.524   4.052   4.188
 7550SOL    HW223550   1.565   3.911   4.116
 7551SOL     OW23551   5.920   1.794   5.316
 7551SOL    HW123552   5.881   1.705   5.342
 7551SOL    HW223553   5.983   1.781   5.239
 7552SOL     OW23554   2.458   5.778   5.105
 7552SOL    HW123555   2.469   5.683   5.078
 7552SOL    HW223556   2.473   5.838   5.026
 7553SOL     OW23557   5.489   6.166   6.294
 7553SOL    HW123558   5.484   6.237   6.224
 7553SOL    HW223559   5.401   6.161   6.342
 7554SOL     OW23560   4.960   1.168   0.758
 7554SOL    HW123561   5.015   1.201   0.682
 7554SOL    HW223562   4.899   1.096   0.726
 7555SOL     OW23563   3.714   5.408   5.977
 7555SOL    HW123564   3.634   5.355   6.007
 7555SOL    HW223565   3.749   5.369   5.891
 7556SOL     OW23566   0.380   0.278   0.679
 7556SOL    HW123567   0.285   0.308   0.691
 7556SOL    HW223568   0.416   0.248   0.767
 7557SOL     OW23569   4.712   0.190   0.590
 7557SOL    HW123570   4.693   0.287   0.578
 7557SOL    HW223571   4.761   0.175   0.676
 7558SOL     OW23572   1.738   2.287   4.179
 7558SOL    HW123573   1.673   2.235   4.235
 7558SOL    HW223574   1.757   2.375   4.223
 7559SOL     OW23575   4.150   2.195   4.844
 7559SOL    HW123576   4.240   2.158   4.869
 7559SOL    HW223577   4.130   2.275   4.900
 7560SOL     OW23578   6.875   0.474   6.154
 7560SOL    HW123579   6.840   0.432   6.070
 7560SOL    HW223580   6.799   0.493   6.216
 7561SOL     OW23581   5.666   2.202   5.379
 7561SOL    HW123582   5.761   2.223   5.404
 7561SOL    HW223583   5.613   2.287   5.378
 7562SOL     OW23584   1.393   4.959   4.212
 7562SOL    HW123585   1.322   4.987   4.148
 7562SOL    HW223586   1.473   5.017   4.201
 7563SOL     OW23587   3.581   6.185   2.375
 7563SOL    HW123588   3.671   6.225   2.359
 7563SOL    HW223589   3.515   6.258   2.398
 7564SOL     OW23590   4.561   1.297   4.198
 7564SOL    HW123591   4.611   1.222   4.156
 7564SOL    HW223592   4.573   1.381   4.144
 7565SOL     OW23593   5.619   3.390   6.635
 7565SOL    HW123594   5.717   3.373   6.626
 7565SOL    HW223595   5.603   3.489   6.636
 7566SOL     OW23596   4.481   4.322   1.484
 7566SOL    HW123597   4.545   4.253   1.452
 7566SOL    HW223598   4.496   4.408   1.434
 7567SOL     OW23599   0.718   0.566   5.000
 7567SOL    HW123600   0.722   0.469   5.021
 7567SOL    HW223601   0.750   0.582   4.906
 7568SOL     OW23602   5.809   5.514   1.019
 7568SOL    HW123603   5.815   5.443   0.948
 7568SOL    HW223604   5.795   5.470   1.107
 7569SOL     OW23605   4.149   3.757   0.098
 7569SOL    HW123606   4.244   3.780   0.076
 7569SOL    HW223607   4.087   3.819   0.050
 7570SOL     OW23608   6.457   2.873   3.459
 7570SOL    HW123609   6.417   2.936   3.392
 7570SOL    HW223610   6.546   2.907   3.488
 7571SOL     OW23611   5.052   3.051   2.777
 7571SOL    HW123612   5.104   2.975   2.736
 7571SOL    HW223613   5.013   3.107   2.704
 7572SOL     OW23614   5.117   6.136   2.387
 7572SOL    HW123615   5.045   6.104   2.326
 7572SOL    HW223616   5.087   6.218   2.435
 7573SOL     OW23617   5.643   6.768   5.939
 7573SOL    HW123618   5.547   6.765   5.911
 7573SOL    HW223619   5.679   6.674   5.942
 7574SOL     OW23620   6.971   1.443   4.188
 7574SOL    HW123621   0.012   1.486   4.128
 7574SOL    HW223622   6.934   1.362   4.143
 7575SOL     OW23623   6.790   6.179   1.406
 7575SOL    HW123624   6.806   6.177   1.307
 7575SOL    HW223625   6.719   6.247   1.426
 7576SOL     OW23626   5.284   3.000   0.637
 7576SOL    HW123627   5.354   3.063   0.604
 7576SOL    HW223628   5.251   2.945   0.560
 7577SOL     OW23629   0.812   0.128   0.059
 7577SOL    HW123630   0.778   0.162   6.999
 7577SOL    HW223631   0.751   0.159   0.132
 7578SOL     OW23632   6.771   5.513   3.520
 7578SOL    HW123633   6.865   5.518   3.488
 7578SOL    HW223634   6.717   5.585   3.477
 7579SOL     OW23635   6.620   1.278   0.480
 7579SOL    HW123636   6.708   1.239   0.452
 7579SOL    HW223637   6.562   1.292   0.399
 7580SOL     OW23638   2.349   4.881   3.777
 7580SOL    HW123639   2.425   4.935   3.740
 7580SOL    HW223640   2.370   4.857   3.872
 7581SOL     OW23641   0.180   1.062   1.962
 7581SOL    HW123642   0.216   1.002   2.034
 7581SOL    HW223643   0.224   1.151   1.968
 7582SOL     OW23644   3.512   2.088   4.332
 7582SOL    HW123645   3.607   2.098   4.362
 7582SOL    HW223646   3.453   2.079   4.413
 7583SOL     OW23647   4.928   3.442   3.770
 7583SOL    HW123648   4.943   3.538   3.747
 7583SOL    HW223649   4.932   3.431   3.870
 7584SOL     OW23650   0.624   0.933   3.229
 7584SOL    HW123651   0.705   0.878   3.208
 7584SOL    HW223652   0.566   0.939   3.147
 7585SOL     OW23653   0.692   2.176   6.775
 7585SOL    HW123654   0.760   2.229   6.826
 7585SOL    HW223655   0.602   2.218   6.786
 7586SOL     OW23656   1.243   1.214   2.695
 7586SOL    HW123657   1.292   1.130   2.721
 7586SOL    HW223658   1.274   1.244   2.605
 7587SOL     OW23659   3.160   1.191   0.570
 7587SOL    HW123660   3.186   1.152   0.482
 7587SOL    HW223661   3.223   1.158   0.641
 7588SOL     OW23662   1.618   2.764   4.705
 7588SOL    HW123663   1.549   2.824   4.665
 7588SOL    HW223664   1.659   2.807   4.785
 7589SOL     OW23665   6.877   0.955   3.099
 7589SOL    HW123666   6.916   1.045   3.081
 7589SOL    HW223667   6.947   0.884   3.085
 7590SOL     OW23668   0.019   1.545   0.114
 7590SOL    HW123669   6.978   1.600   0.163
 7590SOL    HW223670   0.043   1.465   0.169
 7591SOL     OW23671   4.141   3.011   5.982
 7591SOL    HW123672   4.101   3.088   5.934
 7591SOL    HW223673   4.071   2.940   5.994
 7592SOL     OW23674   6.947   6.178   4.845
 7592SOL    HW123675   6.852   6.207   4.850
 7592SOL    HW223676   6.951   6.079   4.833
 7593SOL     OW23677   0.161   1.501   5.778
 7593SOL    HW123678   0.220   1.421   5.768
 7593SOL    HW223679   0.139   1.538   5.688
 7594SOL     OW23680   0.478   4.126   1.026
 7594SOL    HW123681   0.437   4.066   0.957
 7594SOL    HW223682   0.576   4.105   1.032
 7595SOL     OW23683   6.300   2.325   5.991
 7595SOL    HW123684   6.293   2.394   6.062
 7595SOL    HW223685   6.393   2.325   5.953
 7596SOL     OW23686   2.506   0.953   4.978
 7596SOL    HW123687   2.524   0.931   5.074
 7596SOL    HW223688   2.567   0.899   4.919
 7597SOL     OW23689   1.823   4.681   2.063
 7597SOL    HW123690   1.848   4.697   1.967
 7597SOL    HW223691   1.854   4.590   2.090
 7598SOL     OW23692   5.715   0.922   3.325
 7598SOL    HW123693   5.675   0.856   3.388
 7598SOL    HW223694   5.677   1.013   3.343
 7599SOL     OW23695   3.659   2.926   1.077
 7599SOL    HW123696   3.598   2.962   1.148
 7599SOL    HW223697   3.752   2.919   1.114
 7600SOL     OW23698   0.958   1.489   4.166
 7600SOL    HW123699   0.900   1.495   4.247
 7600SOL    HW223700   0.996   1.579   4.145
 7601SOL     OW23701   3.899   5.951   1.832
 7601SOL    HW123702   3.901   5.998   1.921
 7601SOL    HW223703   3.821   5.983   1.779
 7602SOL     OW23704   0.425   1.644   0.926
 7602SOL    HW123705   0.504   1.703   0.942
 7602SOL    HW223706   0.450   1.571   0.862
 7603SOL     OW23707   2.230   0.237   5.815
 7603SOL    HW123708   2.194   0.172   5.748
 7603SOL    HW223709   2.315   0.277   5.780
 7604SOL     OW23710   0.941   2.497   5.011
 7604SOL    HW123711   0.923   2.585   4.966
 7604SOL    HW223712   0.927   2.507   5.110
 7605SOL     OW23713   2.716   7.012   6.897
 7605SOL    HW123714   2.763   0.045   6.833
 7605SOL    HW223715   2.749   0.001   6.990
 7606SOL     OW23716   6.372   1.645   3.703
 7606SOL    HW123717   6.302   1.711   3.731
 7606SOL    HW223718   6.449   1.694   3.663
 7607SOL     OW23719   2.913   5.797   6.100
 7607SOL    HW123720   2.927   5.867   6.170
 7607SOL    HW223721   2.834   5.740   6.125
 7608SOL     OW23722   5.991   2.918   6.078
 7608SOL    HW123723   6.013   2.958   5.989
 7608SOL    HW223724   5.912   2.966   6.117
 7609SOL     OW23725   0.471   2.223   4.757
 7609SOL    HW123726   0.485   2.189   4.664
 7609SOL    HW223727   0.559   2.252   4.795
 7610SOL     OW23728   3.386   4.416   5.581
 7610SOL    HW123729   3.347   4.507   5.597
 7610SOL    HW223730   3.422   4.411   5.488
 7611SOL     OW23731   4.595   3.381   1.433
 7611SOL    HW123732   4.599   3.384   1.533
 7611SOL    HW223733   4.650   3.304   1.400
 7612SOL     OW23734   2.902   1.437   3.068
 7612SOL    HW123735   2.920   1.494   3.149
 7612SOL    HW223736   2.844   1.360   3.094
 7613SOL     OW23737   1.090   1.555   2.262
 7613SOL    HW123738   1.185   1.540   2.287
 7613SOL    HW223739   1.084   1.630   2.195
 7614SOL     OW23740   5.228   3.285   0.378
 7614SOL    HW123741   5.207   3.294   0.280
 7614SOL    HW223742   5.310   3.339   0.399
 7615SOL     OW23743   5.279   3.151   4.505
 7615SOL    HW123744   5.232   3.071   4.468
 7615SOL    HW223745   5.351   3.180   4.442
 7616SOL     OW23746   6.560   0.046   3.585
 7616SOL    HW123747   6.464   0.075   3.586
 7616SOL    HW223748   6.618   0.127   3.576
 7617SOL     OW23749   5.340   5.277   3.218
 7617SOL    HW123750   5.258   5.329   3.194
 7617SOL    HW223751   5.372   5.305   3.308
 7618SOL     OW23752   2.996   2.751   0.569
 7618SOL    HW123753   3.074   2.734   0.508
 7618SOL    HW223754   3.016   2.830   0.627
 7619SOL     OW23755   0.502   2.030   4.184
 7619SOL    HW123756   0.527   2.092   4.110
 7619SOL    HW223757   0.542   2.063   4.270
 7620SOL     OW23758   4.037   4.082   1.499
 7620SOL    HW123759   4.060   4.000   1.551
 7620SOL    HW223760   4.102   4.155   1.522
 7621SOL     OW23761   0.562   5.560   0.859
 7621SOL    HW123762   0.534   5.521   0.772
 7621SOL    HW223763   0.634   5.628   0.844
 7622SOL     OW23764   3.622   4.585   0.588
 7622SOL    HW123765   3.683   4.649   0.542
 7622SOL    HW223766   3.617   4.500   0.534
 7623SOL     OW23767   4.837   4.962   1.139
 7623SOL    HW123768   4.808   5.057   1.127
 7623SOL    HW223769   4.792   4.924   1.220
 7624SOL     OW23770   0.534   2.690   2.273
 7624SOL    HW123771   0.489   2.616   2.222
 7624SOL    HW223772   0.615   2.720   2.223
 7625SOL     OW23773   5.192   1.891   0.365
 7625SOL    HW123774   5.271   1.950   0.352
 7625SOL    HW223775   5.144   1.916   0.449
 7626SOL     OW23776   5.224   0.282   5.193
 7626SOL    HW123777   5.248   0.321   5.104
 7626SOL    HW223778   5.273   0.195   5.205
 7627SOL     OW23779   3.298   1.927   6.771
 7627SOL    HW123780   3.258   2.005   6.819
 7627SOL    HW223781   3.339   1.864   6.837
 7628SOL     OW23782   3.433   3.413   1.021
 7628SOL    HW123783   3.376   3.332   1.025
 7628SOL    HW223784   3.511   3.403   1.083
 7629SOL     OW23785   5.995   3.304   4.322
 7629SOL    HW123786   6.084   3.347   4.305
 7629SOL    HW223787   5.926   3.374   4.340
 7630SOL     OW23788   1.637   0.180   5.278
 7630SOL    HW123789   1.582   0.108   5.320
 7630SOL    HW223790   1.718   0.141   5.235
 7631SOL     OW23791   2.187   0.167   5.094
 7631SOL    HW123792   2.123   0.146   5.168
 7631SOL    HW223793   2.270   0.113   5.106
 7632SOL     OW23794   4.744   5.691   0.956
 7632SOL    HW123795   4.813   5.624   0.928
 7632SOL    HW223796   4.778   5.783   0.935
 7633SOL     OW23797   6.104   1.334   0.931
 7633SOL    HW123798   6.006   1.333   0.950
 7633SOL    HW223799   6.124   1.275   0.854
 7634SOL     OW23800   0.920   1.809   0.382
 7634SOL    HW123801   0.950   1.889   0.433
 7634SOL    HW223802   0.925   1.828   0.284
 7635SOL     OW23803   2.746   5.157   6.237
 7635SOL    HW123804   2.759   5.059   6.254
 7635SOL    HW223805   2.778   5.180   6.146
 7636SOL     OW23806   0.614   3.623   4.987
 7636SOL    HW123807   0.635   3.564   4.909
 7636SOL    HW223808   0.674   3.600   5.064
 7637SOL     OW23809   0.434   6.325   4.160
 7637SOL    HW123810   0.524   6.295   4.129
 7637SOL    HW223811   0.442   6.370   4.249
 7638SOL     OW23812   0.939   5.266   1.539
 7638SOL    HW123813   0.843   5.269   1.511
 7638SOL    HW223814   0.960   5.176   1.578
 7639SOL     OW23815   1.359   1.040   0.131
 7639SOL    HW123816   1.304   0.959   0.147
 7639SOL    HW223817   1.409   1.064   0.215
 7640SOL     OW23818   3.284   1.131   6.378
 7640SOL    HW123819   3.296   1.032   6.384
 7640SOL    HW223820   3.187   1.153   6.367
 7641SOL     OW23821   0.024   4.085   2.882
 7641SOL    HW123822   0.058   4.020   2.814
 7641SOL    HW223823   6.952   4.085   2.883
 7642SOL     OW23824   6.360   1.096   3.605
 7642SOL    HW123825   6.328   1.056   3.691
 7642SOL    HW223826   6.319   1.187   3.594
 7643SOL     OW23827   5.236   2.623   3.170
 7643SOL    HW123828   5.141   2.648   3.188
 7643SOL    HW223829   5.271   2.567   3.245
 7644SOL     OW23830   4.873   3.854   1.391
 7644SOL    HW123831   4.798   3.798   1.426
 7644SOL    HW223832   4.955   3.837   1.445
 7645SOL     OW23833   2.707   3.503   6.224
 7645SOL    HW123834   2.785   3.474   6.168
 7645SOL    HW223835   2.737   3.567   6.294
 7646SOL     OW23836   0.463   2.346   3.365
 7646SOL    HW123837   0.462   2.254   3.327
 7646SOL    HW223838   0.448   2.413   3.292
 7647SOL     OW23839   6.953   3.081   5.232
 7647SOL    HW123840   6.864   3.110   5.265
 7647SOL    HW223841   7.019   3.081   5.307
 7648SOL     OW23842   2.264   1.897   2.709
 7648SOL    HW123843   2.315   1.837   2.771
 7648SOL    HW223844   2.167   1.873   2.711
 7649SOL     OW23845   5.924   0.841   5.415
 7649SOL    HW123846   5.828   0.838   5.440
 7649SOL    HW223847   5.955   0.751   5.386
 7650SOL     OW23848   4.121   1.564   1.063
 7650SOL    HW123849   4.189   1.586   0.993
 7650SOL    HW223850   4.163   1.562   1.153
 7651SOL     OW23851   2.368   5.088   5.220
 7651SOL    HW123852   2.349   4.990   5.221
 7651SOL    HW223853   2.300   5.134   5.163
 7652SOL     OW23854   5.862   1.747   4.204
 7652SOL    HW123855   5.879   1.662   4.155
 7652SOL    HW223856   5.793   1.801   4.156
 7653SOL     OW23857   0.426   2.071   6.860
 7653SOL    HW123858   0.525   2.075   6.846
 7653SOL    HW223859   0.405   2.012   6.938
 7654SOL     OW23860   5.893   2.999   5.677
 7654SOL    HW123861   5.946   2.923   5.639
 7654SOL    HW223862   5.796   2.975   5.680
 7655SOL     OW23863   3.405   0.506   3.204
 7655SOL    HW123864   3.354   0.581   3.161
 7655SOL    HW223865   3.463   0.543   3.277
 7656SOL     OW23866   6.474   3.035   6.952
 7656SOL    HW123867   6.442   3.126   6.926
 7656SOL    HW223868   6.398   2.971   6.952
 7657SOL     OW23869   1.348   3.831   4.541
 7657SOL    HW123870   1.351   3.904   4.473
 7657SOL    HW223871   1.325   3.745   4.495
 7658SOL     OW23872   2.788   0.958   0.791
 7658SOL    HW123873   2.733   0.994   0.866
 7658SOL    HW223874   2.728   0.935   0.714
 7659SOL     OW23875   4.390   3.775   5.339
 7659SOL    HW123876   4.473   3.827   5.320
 7659SOL    HW223877   4.374   3.773   5.438
 7660SOL     OW23878   7.007   4.854   4.573
 7660SOL    HW123879   6.929   4.792   4.580
 7660SOL    HW223880   0.059   4.804   4.540
 7661SOL     OW23881   4.857   2.663   5.757
 7661SOL    HW123882   4.809   2.585   5.797
 7661SOL    HW223883   4.796   2.743   5.757
 7662SOL     OW23884   0.989   2.106   2.419
 7662SOL    HW123885   1.020   2.040   2.487
 7662SOL    HW223886   0.910   2.068   2.370
 7663SOL     OW23887   6.384   5.256   5.420
 7663SOL    HW123888   6.300   5.258   5.366
 7663SOL    HW223889   6.378   5.323   5.494
 7664SOL     OW23890   3.500   1.797   2.764
 7664SOL    HW123891   3.494   1.802   2.864
 7664SOL    HW223892   3.443   1.722   2.731
 7665SOL     OW23893   4.054   1.643   4.673
 7665SOL    HW123894   4.107   1.683   4.598
 7665SOL    HW223895   4.074   1.546   4.680
 7666SOL     OW23896   5.810   5.622   4.035
 7666SOL    HW123897   5.749   5.665   3.968
 7666SOL    HW223898   5.821   5.683   4.113
 7667SOL     OW23899   5.340   6.243   2.050
 7667SOL    HW123900   5.291   6.304   2.112
 7667SOL    HW223901   5.360   6.157   2.097
 7668SOL     OW23902   2.121   5.251   1.523
 7668SOL    HW123903   2.080   5.162   1.540
 7668SOL    HW223904   2.077   5.319   1.582
 7669SOL     OW23905   2.686   6.588   5.751
 7669SOL    HW123906   2.721   6.497   5.729
 7669SOL    HW223907   2.742   6.657   5.705
 7670SOL     OW23908   0.565   6.552   0.153
 7670SOL    HW123909   0.601   6.622   0.214
 7670SOL    HW223910   0.619   6.468   0.164
 7671SOL     OW23911   4.633   0.753   1.409
 7671SOL    HW123912   4.567   0.781   1.478
 7671SOL    HW223913   4.681   0.670   1.440
 7672SOL     OW23914   5.447   5.061   2.941
 7672SOL    HW123915   5.488   5.005   3.013
 7672SOL    HW223916   5.357   5.093   2.972
 7673SOL     OW23917   0.441   5.423   3.953
 7673SOL    HW123918   0.449   5.464   3.862
 7673SOL    HW223919   0.528   5.378   3.977
 7674SOL     OW23920   4.386   6.727   4.464
 7674SOL    HW123921   4.292   6.757   4.478
 7674SOL    HW223922   4.444   6.764   4.536
 7675SOL     OW23923   3.511   0.031   2.584
 7675SOL    HW123924   3.573   0.094   2.538
 7675SOL    HW223925   3.528   0.032   2.683
 7676SOL     OW23926   2.849   3.016   5.653
 7676SOL    HW123927   2.794   2.936   5.628
 7676SOL    HW223928   2.805   3.064   5.728
 7677SOL     OW23929   5.921   4.761   1.784
 7677SOL    HW123930   5.916   4.693   1.858
 7677SOL    HW223931   5.831   4.804   1.774
 7678SOL     OW23932   1.330   1.177   5.496
 7678SOL    HW123933   1.244   1.226   5.483
 7678SOL    HW223934   1.315   1.079   5.485
 7679SOL     OW23935   1.591   5.522   5.413
 7679SOL    HW123936   1.591   5.503   5.315
 7679SOL    HW223937   1.684   5.520   5.448
 7680SOL     OW23938   1.733   0.839   5.346
 7680SOL    HW123939   1.663   0.878   5.286
 7680SOL    HW223940   1.823   0.849   5.303
 7681SOL     OW23941   2.620   3.238   6.288
 7681SOL    HW123942   2.695   3.202   6.232
 7681SOL    HW223943   2.628   3.338   6.293
 7682SOL     OW23944   3.283   1.597   2.720
 7682SOL    HW123945   3.186   1.602   2.741
 7682SOL    HW223946   3.327   1.530   2.780
 7683SOL     OW23947   0.858   1.165   4.669
 7683SOL    HW123948   0.950   1.204   4.658
 7683SOL    HW223949   0.862   1.067   4.651
 7684SOL     OW23950   3.752   2.118   1.455
 7684SOL    HW123951   3.661   2.086   1.481
 7684SOL    HW223952   3.798   2.156   1.535
 7685SOL     OW23953   2.939   0.954   0.137
 7685SOL    HW123954   2.899   1.040   0.104
 7685SOL    HW223955   2.965   0.965   0.233
 7686SOL     OW23956   5.577   0.852   4.212
 7686SOL    HW123957   5.543   0.917   4.280
 7686SOL    HW223958   5.674   0.868   4.195
 7687SOL     OW23959   5.510   5.116   5.002
 7687SOL    HW123960   5.559   5.069   5.075
 7687SOL    HW223961   5.560   5.107   4.916
 7688SOL     OW23962   0.803   4.877   6.560
 7688SOL    HW123963   0.862   4.957   6.556
 7688SOL    HW223964   0.838   4.806   6.498
 7689SOL     OW23965   4.788   0.404   1.714
 7689SOL    HW123966   4.834   0.417   1.802
 7689SOL    HW223967   4.788   0.306   1.691
 7690SOL     OW23968   6.526   5.723   0.951
 7690SOL    HW123969   6.610   5.733   0.898
 7690SOL    HW223970   6.542   5.751   1.046
 7691SOL     OW23971   4.502   4.868   3.168
 7691SOL    HW123972   4.490   4.770   3.152
 7691SOL    HW223973   4.419   4.917   3.144
 7692SOL     OW23974   1.782   6.608   2.251
 7692SOL    HW123975   1.784   6.600   2.151
 7692SOL    HW223976   1.698   6.654   2.279
 7693SOL     OW23977   2.775   1.758   1.248
 7693SOL    HW123978   2.776   1.695   1.171
 7693SOL    HW223979   2.717   1.722   1.320
 7694SOL     OW23980   6.107   2.220   4.818
 7694SOL    HW123981   6.027   2.161   4.824
 7694SOL    HW223982   6.102   2.292   4.888
 7695SOL     OW23983   6.114   0.450   2.512
 7695SOL    HW123984   6.065   0.536   2.497
 7695SOL    HW223985   6.189   0.465   2.577
 7696SOL     OW23986   0.314   2.788   6.555
 7696SOL    HW123987   0.336   2.883   6.532
 7696SOL    HW223988   0.396   2.741   6.586
 7697SOL     OW23989   4.162   0.185   2.705
 7697SOL    HW123990   4.260   0.201   2.714
 7697SOL    HW223991   4.133   0.115   2.771
 7698SOL     OW23992   6.167   1.656   6.921
 7698SOL    HW123993   6.209   1.566   6.915
 7698SOL    HW223994   6.068   1.647   6.910
 7699SOL     OW23995   3.414   5.212   5.453
 7699SOL    HW123996   3.485   5.204   5.524
 7699SOL    HW223997   3.326   5.181   5.490
 7700SOL     OW23998   5.187   5.034   2.484
 7700SOL    HW123999   5.171   4.991   2.395
 7700SOL    HW224000   5.135   4.986   2.555
 7701SOL     OW24001   0.040   2.582   6.158
 7701SOL    HW124002   0.102   2.651   6.196
 7701SOL    HW224003   0.006   2.612   6.069
 7702SOL     OW24004   4.971   0.080   4.734
 7702SOL    HW124005   4.910   0.007   4.765
 7702SOL    HW224006   4.987   0.071   4.636
 7703SOL     OW24007   6.517   6.358   4.749
 7703SOL    HW124008   6.557   6.449   4.756
 7703SOL    HW224009   6.459   6.353   4.668
 7704SOL     OW24010   6.599   1.424   4.376
 7704SOL    HW124011   6.600   1.407   4.278
 7704SOL    HW224012   6.529   1.493   4.397
 7705SOL     OW24013   2.361   5.351   0.407
 7705SOL    HW124014   2.310   5.436   0.393
 7705SOL    HW224015   2.454   5.373   0.438
 7706SOL     OW24016   3.538   3.147   2.377
 7706SOL    HW124017   3.520   3.191   2.288
 7706SOL    HW224018   3.541   3.048   2.365
 7707SOL     OW24019   6.729   5.638   6.904
 7707SOL    HW124020   6.801   5.570   6.894
 7707SOL    HW224021   6.642   5.593   6.926
 7708SOL     OW24022   2.270   6.746   4.748
 7708SOL    HW124023   2.254   6.826   4.807
 7708SOL    HW224024   2.367   6.722   4.751
 7709SOL     OW24025   0.462   4.757   1.343
 7709SOL    HW124026   0.549   4.793   1.377
 7709SOL    HW224027   0.404   4.733   1.420
 7710SOL     OW24028   1.221   3.732   0.825
 7710SOL    HW124029   1.254   3.691   0.911
 7710SOL    HW224030   1.299   3.751   0.765
 7711SOL     OW24031   0.014   5.022   5.290
 7711SOL    HW124032   0.086   4.954   5.301
 7711SOL    HW224033   6.968   5.004   5.355
 7712SOL     OW24034   6.574   4.647   5.886
 7712SOL    HW124035   6.574   4.650   5.786
 7712SOL    HW224036   6.480   4.650   5.920
 7713SOL     OW24037   2.097   4.980   0.445
 7713SOL    HW124038   2.045   4.972   0.530
 7713SOL    HW224039   2.074   4.904   0.385
 7714SOL     OW24040   6.613   0.707   4.578
 7714SOL    HW124041   6.648   0.759   4.501
 7714SOL    HW224042   6.634   0.610   4.566
 7715SOL     OW24043   2.588   2.761   5.888
 7715SOL    HW124044   2.635   2.704   5.955
 7715SOL    HW224045   2.498   2.787   5.923
 7716SOL     OW24046   1.156   5.502   5.599
 7716SOL    HW124047   1.119   5.595   5.594
 7716SOL    HW224048   1.254   5.507   5.620
 7717SOL     OW24049   1.812   1.857   0.047
 7717SOL    HW124050   1.814   1.931   0.114
 7717SOL    HW224051   1.718   1.838   0.020
 7718SOL     OW24052   1.318   4.285   2.583
 7718SOL    HW124053   1.235   4.288   2.639
 7718SOL    HW224054   1.339   4.377   2.549
 7719SOL     OW24055   1.482   3.764   5.068
 7719SOL    HW124056   1.576   3.741   5.039
 7719SOL    HW224057   1.421   3.759   4.988
 7720SOL     OW24058   5.801   1.680   6.815
 7720SOL    HW124059   5.829   1.613   6.747
 7720SOL    HW224060   5.864   1.758   6.813
 7721SOL     OW24061   0.554   0.760   2.619
 7721SOL    HW124062   0.608   0.838   2.587
 7721SOL    HW224063   0.457   0.785   2.617
 7722SOL     OW24064   2.251   5.769   3.643
 7722SOL    HW124065   2.232   5.755   3.545
 7722SOL    HW224066   2.165   5.770   3.693
 7723SOL     OW24067   5.093   4.340   0.456
 7723SOL    HW124068   5.163   4.270   0.473
 7723SOL    HW224069   5.017   4.327   0.520
 7724SOL     OW24070   2.264   4.190   1.908
 7724SOL    HW124071   2.198   4.119   1.883
 7724SOL    HW224072   2.218   4.279   1.911
 7725SOL     OW24073   5.458   3.024   3.559
 7725SOL    HW124074   5.362   3.055   3.559
 7725SOL    HW224075   5.514   3.091   3.608
 7726SOL     OW24076   0.203   2.810   6.257
 7726SOL    HW124077   0.283   2.782   6.204
 7726SOL    HW224078   0.210   2.773   6.350
 7727SOL     OW24079   5.254   2.545   2.498
 7727SOL    HW124080   5.213   2.579   2.413
 7727SOL    HW224081   5.345   2.507   2.477
 7728SOL     OW24082   2.113   3.308   4.725
 7728SOL    HW124083   2.166   3.223   4.731
 7728SOL    HW224084   2.083   3.335   4.817
 7729SOL     OW24085   6.315   1.936   3.780
 7729SOL    HW124086   6.220   1.951   3.808
 7729SOL    HW224087   6.327   1.970   3.686
 7730SOL     OW24088   6.495   3.918   5.177
 7730SOL    HW124089   6.398   3.930   5.157
 7730SOL    HW224090   6.520   3.974   5.257
 7731SOL     OW24091   5.899   0.043   0.180
 7731SOL    HW124092   5.872   0.106   0.108
 7731SOL    HW224093   5.918   6.981   0.141
 7732SOL     OW24094   4.301   0.155   6.319
 7732SOL    HW124095   4.340   0.182   6.232
 7732SOL    HW224096   4.319   0.058   6.335
 7733SOL     OW24097   6.638   5.912   2.421
 7733SOL    HW124098   6.662   5.815   2.424
 7733SOL    HW224099   6.643   5.945   2.327
 7734SOL     OW24100   3.304   3.887   5.303
 7734SOL    HW124101   3.243   3.965   5.288
 7734SOL    HW224102   3.396   3.911   5.270
 7735SOL     OW24103   6.866   6.179   0.697
 7735SOL    HW124104   6.962   6.207   0.701
 7735SOL    HW224105   6.843   6.156   0.603
 7736SOL     OW24106   3.114   3.380   0.705
 7736SOL    HW124107   3.075   3.472   0.713
 7736SOL    HW224108   3.136   3.361   0.610
 7737SOL     OW24109   4.038   4.550   1.578
 7737SOL    HW124110   3.978   4.619   1.620
 7737SOL    HW224111   4.024   4.462   1.623
 7738SOL     OW24112   2.677   6.565   6.862
 7738SOL    HW124113   2.724   6.634   6.808
 7738SOL    HW224114   2.740   6.489   6.881
 7739SOL     OW24115   1.369   2.213   0.720
 7739SOL    HW124116   1.399   2.118   0.717
 7739SOL    HW224117   1.291   2.221   0.783
 7740SOL     OW24118   1.617   0.871   4.448
 7740SOL    HW124119   1.629   0.784   4.401
 7740SOL    HW224120   1.535   0.868   4.504
 7741SOL     OW24121   1.673   4.013   6.213
 7741SOL    HW124122   1.589   3.960   6.213
 7741SOL    HW224123   1.737   3.976   6.145
 7742SOL     OW24124   3.919   1.463   4.198
 7742SOL    HW124125   3.830   1.438   4.160
 7742SOL    HW224126   3.951   1.548   4.155
 7743SOL     OW24127   4.843   1.516   5.629
 7743SOL    HW124128   4.927   1.564   5.606
 7743SOL    HW224129   4.765   1.560   5.584
 7744SOL     OW24130   0.167   6.387   4.112
 7744SOL    HW124131   0.179   6.484   4.092
 7744SOL    HW224132   0.254   6.339   4.103
 7745SOL     OW24133   1.883   6.736   0.519
 7745SOL    HW124134   1.847   6.820   0.478
 7745SOL    HW224135   1.978   6.723   0.490
 7746SOL     OW24136   1.135   6.127   1.119
 7746SOL    HW124137   1.098   6.163   1.034
 7746SOL    HW224138   1.061   6.113   1.185
 7747SOL     OW24139   0.940   6.258   0.910
 7747SOL    HW124140   0.952   6.178   0.851
 7747SOL    HW224141   0.974   6.339   0.862
 7748SOL     OW24142   4.258   2.824   5.412
 7748SOL    HW124143   4.340   2.768   5.414
 7748SOL    HW224144   4.187   2.778   5.358
 7749SOL     OW24145   3.598   3.471   4.257
 7749SOL    HW124146   3.685   3.425   4.275
 7749SOL    HW224147   3.524   3.420   4.300
 7750SOL     OW24148   5.586   4.803   5.350
 7750SOL    HW124149   5.590   4.708   5.320
 7750SOL    HW224150   5.492   4.827   5.376
 7751SOL     OW24151   6.900   1.061   5.144
 7751SOL    HW124152   6.820   1.105   5.104
 7751SOL    HW224153   6.906   0.967   5.110
 7752SOL     OW24154   5.766   5.600   5.466
 7752SOL    HW124155   5.692   5.622   5.530
 7752SOL    HW224156   5.755   5.653   5.382
 7753SOL     OW24157   1.988   0.492   4.369
 7753SOL    HW124158   2.008   0.411   4.425
 7753SOL    HW224159   1.893   0.518   4.382
 7754SOL     OW24160   5.980   0.412   0.967
 7754SOL    HW124161   5.934   0.327   0.940
 7754SOL    HW224162   6.055   0.430   0.904
 7755SOL     OW24163   0.260   5.910   5.364
 7755SOL    HW124164   0.188   5.843   5.343
 7755SOL    HW224165   0.272   5.915   5.463
 7756SOL     OW24166   3.333   5.053   2.139
 7756SOL    HW124167   3.321   5.126   2.071
 7756SOL    HW224168   3.293   4.968   2.104
 7757SOL     OW24169   4.387   6.441   5.622
 7757SOL    HW124170   4.481   6.415   5.644
 7757SOL    HW224171   4.325   6.396   5.686
 7758SOL     OW24172   2.444   2.162   5.995
 7758SOL    HW124173   2.537   2.147   5.962
 7758SOL    HW224174   2.425   2.260   5.997
 7759SOL     OW24175   2.148   0.654   4.223
 7759SOL    HW124176   2.089   0.587   4.267
 7759SOL    HW224177   2.183   0.719   4.291
 7760SOL     OW24178   5.162   2.847   2.104
 7760SOL    HW124179   5.125   2.893   2.023
 7760SOL    HW224180   5.135   2.898   2.186
 7761SOL     OW24181   3.096   6.978   6.890
 7761SOL    HW124182   3.008   7.016   6.918
 7761SOL    HW224183   3.103   6.978   6.790
 7762SOL     OW24184   4.152   1.949   0.223
 7762SOL    HW124185   4.208   1.932   0.142
 7762SOL    HW224186   4.194   2.019   0.280
 7763SOL     OW24187   2.018   2.160   0.734
 7763SOL    HW124188   1.961   2.204   0.803
 7763SOL    HW224189   1.992   2.192   0.643
 7764SOL     OW24190   3.673   2.835   2.069
 7764SOL    HW124191   3.731   2.900   2.118
 7764SOL    HW224192   3.677   2.746   2.114
 7765SOL     OW24193   6.667   2.775   2.912
 7765SOL    HW124194   6.746   2.714   2.900
 7765SOL    HW224195   6.595   2.726   2.961
 7766SOL     OW24196   6.001   1.887   6.795
 7766SOL    HW124197   5.999   1.958   6.865
 7766SOL    HW224198   6.094   1.880   6.757
 7767SOL     OW24199   4.365   5.994   4.058
 7767SOL    HW124200   4.384   5.985   4.156
 7767SOL    HW224201   4.351   6.091   4.036
 7768SOL     OW24202   3.895   4.870   2.071
 7768SOL    HW124203   3.809   4.843   2.114
 7768SOL    HW224204   3.892   4.968   2.051
 7769SOL     OW24205   5.347   2.570   0.878
 7769SOL    HW124206   5.297   2.521   0.806
 7769SOL    HW224207   5.415   2.510   0.919
 7770SOL     OW24208   3.041   5.189   1.587
 7770SOL    HW124209   2.961   5.166   1.642
 7770SOL    HW224210   3.102   5.110   1.581
 7771SOL     OW24211   3.013   2.109   5.799
 7771SOL    HW124212   2.983   2.181   5.737
 7771SOL    HW224213   3.101   2.134   5.839
 7772SOL     OW24214   4.713   0.718   3.940
 7772SOL    HW124215   4.638   0.755   3.995
 7772SOL    HW224216   4.690   0.625   3.911
 7773SOL     OW24217   4.341   3.745   5.600
 7773SOL    HW124218   4.376   3.800   5.676
 7773SOL    HW224219   4.280   3.675   5.635
 7774SOL     OW24220   5.223   1.689   5.937
 7774SOL    HW124221   5.250   1.776   5.897
 7774SOL    HW224222   5.259   1.682   6.030
 7775SOL     OW24223   3.368   6.852   2.106
 7775SOL    HW124224   3.428   6.835   2.027
 7775SOL    HW224225   3.424   6.877   2.185
 7776SOL     OW24226   3.422   3.500   6.296
 7776SOL    HW124227   3.404   3.407   6.327
 7776SOL    HW224228   3.355   3.563   6.337
 7777SOL     OW24229   2.584   0.993   6.960
 7777SOL    HW124230   2.647   0.987   6.882
 7777SOL    HW224231   2.562   0.900   6.991
 7778SOL     OW24232   5.543   0.258   6.802
 7778SOL    HW124233   5.615   0.301   6.748
 7778SOL    HW224234   5.584   0.212   6.881
 7779SOL     OW24235   3.675   2.489   0.346
 7779SOL    HW124236   3.644   2.583   0.333
 7779SOL    HW224237   3.616   2.443   0.411
 7780SOL     OW24238   1.738   6.169   4.645
 7780SOL    HW124239   1.765   6.216   4.729
 7780SOL    HW224240   1.727   6.237   4.572
 7781SOL     OW24241   1.290   3.772   5.271
 7781SOL    HW124242   1.337   3.794   5.356
 7781SOL    HW224243   1.353   3.785   5.194
 7782SOL     OW24244   2.573   4.376   6.403
 7782SOL    HW124245   2.591   4.475   6.405
 7782SOL    HW224246   2.643   4.329   6.456
 7783SOL     OW24247   2.433   6.112   6.945
 7783SOL    HW124248   2.528   6.080   6.948
 7783SOL    HW224249   2.415   6.154   6.856
 7784SOL     OW24250   0.892   2.941   6.834
 7784SOL    HW124251   0.818   2.934   6.766
 7784SOL    HW224252   0.876   3.020   6.893
 7785SOL     OW24253   2.551   6.265   4.437
 7785SOL    HW124254   2.524   6.273   4.533
 7785SOL    HW224255   2.489   6.321   4.381
 7786SOL     OW24256   3.129   4.790   5.187
 7786SOL    HW124257   3.138   4.843   5.103
 7786SOL    HW224258   3.065   4.715   5.173
 7787SOL     OW24259   2.455   2.805   5.316
 7787SOL    HW124260   2.367   2.779   5.355
 7787SOL    HW224261   2.442   2.877   5.248
 7788SOL     OW24262   0.746   1.612   1.584
 7788SOL    HW124263   0.747   1.512   1.584
 7788SOL    HW224264   0.830   1.647   1.542
 7789SOL     OW24265   2.898   0.725   1.184
 7789SOL    HW124266   2.867   0.812   1.222
 7789SOL    HW224267   2.820   0.677   1.144
 7790SOL     OW24268   5.963   3.179   2.952
 7790SOL    HW124269   6.051   3.165   2.905
 7790SOL    HW224270   5.914   3.091   2.957
 7791SOL     OW24271   2.434   4.946   4.485
 7791SOL    HW124272   2.504   4.882   4.454
 7791SOL    HW224273   2.392   4.912   4.569
 7792SOL     OW24274   2.581   5.913   6.189
 7792SOL    HW124275   2.487   5.888   6.209
 7792SOL    HW224276   2.642   5.871   6.257
 7793SOL     OW24277   1.059   0.982   5.982
 7793SOL    HW124278   0.971   0.939   6.000
 7793SOL    HW224279   1.125   0.953   6.052
 7794SOL     OW24280   5.257   5.543   4.566
 7794SOL    HW124281   5.250   5.515   4.470
 7794SOL    HW224282   5.230   5.466   4.624
 7795SOL     OW24283   2.113   3.984   5.851
 7795SOL    HW124284   2.176   4.051   5.811
 7795SOL    HW224285   2.165   3.915   5.901
 7796SOL     OW24286   3.615   4.135   3.341
 7796SOL    HW124287   3.526   4.150   3.384
 7796SOL    HW224288   3.684   4.121   3.412
 7797SOL     OW24289   0.129   6.499   3.006
 7797SOL    HW124290   0.153   6.523   3.100
 7797SOL    HW224291   0.060   6.563   2.972
 7798SOL     OW24292   3.237   5.727   0.845
 7798SOL    HW124293   3.304   5.788   0.886
 7798SOL    HW224294   3.175   5.779   0.787
 7799SOL     OW24295   0.101   5.425   0.875
 7799SOL    HW124296   0.063   5.358   0.811
 7799SOL    HW224297   0.187   5.390   0.912
 7800SOL     OW24298   0.380   5.033   1.803
 7800SOL    HW124299   0.374   5.030   1.703
 7800SOL    HW224300   0.399   4.941   1.837
 7801SOL     OW24301   2.206   1.693   6.991
 7801SOL    HW124302   2.117   1.662   7.023
 7801SOL    HW224303   2.204   1.791   6.974
 7802SOL     OW24304   5.276   2.453   1.763
 7802SOL    HW124305   5.291   2.552   1.757
 7802SOL    HW224306   5.359   2.408   1.794
 7803SOL     OW24307   4.162   4.226   6.039
 7803SOL    HW124308   4.111   4.291   5.984
 7803SOL    HW224309   4.105   4.146   6.059
 7804SOL     OW24310   5.171   1.822   5.335
 7804SOL    HW124311   5.257   1.775   5.354
 7804SOL    HW224312   5.151   1.816   5.237
 7805SOL     OW24313   5.510   2.418   1.921
 7805SOL    HW124314   5.544   2.356   1.991
 7805SOL    HW224315   5.466   2.497   1.964
 7806SOL     OW24316   5.584   2.747   6.076
 7806SOL    HW124317   5.652   2.678   6.051
 7806SOL    HW224318   5.510   2.703   6.128
 7807SOL     OW24319   7.014   3.881   6.324
 7807SOL    HW124320   6.926   3.834   6.326
 7807SOL    HW224321   7.008   3.964   6.269
 7808SOL     OW24322   0.717   1.131   4.415
 7808SOL    HW124323   0.752   1.145   4.508
 7808SOL    HW224324   0.761   1.051   4.375
 7809SOL     OW24325   2.181   5.388   4.690
 7809SOL    HW124326   2.096   5.343   4.666
 7809SOL    HW224327   2.254   5.356   4.630
 7810SOL     OW24328   2.907   0.867   5.187
 7810SOL    HW124329   2.959   0.857   5.272
 7810SOL    HW224330   2.828   0.926   5.203
 7811SOL     OW24331   5.352   4.619   3.147
 7811SOL    HW124332   5.259   4.618   3.184
 7811SOL    HW224333   5.416   4.587   3.218
 7812SOL     OW24334   2.265   1.415   4.288
 7812SOL    HW124335   2.303   1.504   4.262
 7812SOL    HW224336   2.165   1.423   4.294
 7813SOL     OW24337   6.085   2.582   6.866
 7813SOL    HW124338   6.125   2.498   6.830
 7813SOL    HW224339   6.144   2.620   6.937
 7814SOL     OW24340   6.682   2.984   3.551
 7814SOL    HW124341   6.653   2.979   3.647
 7814SOL    HW224342   6.782   2.990   3.547
 7815SOL     OW24343   6.496   1.500   5.920
 7815SOL    HW124344   6.428   1.472   5.988
 7815SOL    HW224345   6.526   1.594   5.938
 7816SOL     OW24346   0.262   3.561   5.922
 7816SOL    HW124347   0.305   3.622   5.856
 7816SOL    HW224348   0.309   3.567   6.010
 7817SOL     OW24349   5.500   4.195   4.483
 7817SOL    HW124350   5.540   4.125   4.541
 7817SOL    HW224351   5.444   4.256   4.538
 7818SOL     OW24352   6.165   6.420   1.814
 7818SOL    HW124353   6.110   6.390   1.892
 7818SOL    HW224354   6.164   6.349   1.744
 7819SOL     OW24355   6.652   2.713   1.214
 7819SOL    HW124356   6.562   2.676   1.236
 7819SOL    HW224357   6.723   2.647   1.241
 7820SOL     OW24358   1.570   1.781   6.579
 7820SOL    HW124359   1.593   1.810   6.486
 7820SOL    HW224360   1.614   1.841   6.645
 7821SOL     OW24361   3.633   5.374   1.222
 7821SOL    HW124362   3.543   5.331   1.225
 7821SOL    HW224363   3.628   5.459   1.170
 7822SOL     OW24364   1.090   5.734   5.234
 7822SOL    HW124365   1.071   5.792   5.154
 7822SOL    HW224366   1.006   5.685   5.259
 7823SOL     OW24367   2.132   4.157   5.197
 7823SOL    HW124368   2.188   4.122   5.122
 7823SOL    HW224369   2.189   4.172   5.278
 7824SOL     OW24370   0.756   2.642   5.662
 7824SOL    HW124371   0.691   2.656   5.736
 7824SOL    HW224372   0.708   2.640   5.574
 7825SOL     OW24373   2.581   1.724   6.671
 7825SOL    HW124374   2.541   1.816   6.676
 7825SOL    HW224375   2.511   1.657   6.696
 7826SOL     OW24376   6.758   2.533   6.795
 7826SOL    HW124377   6.807   2.538   6.882
 7826SOL    HW224378   6.778   2.445   6.751
 7827SOL     OW24379   6.983   6.012   3.123
 7827SOL    HW124380   0.040   5.984   3.076
 7827SOL    HW224381   7.005   6.076   3.196
 7828SOL     OW24382   6.947   3.837   6.599
 7828SOL    HW124383   7.007   3.759   6.617
 7828SOL    HW224384   6.968   3.875   6.509
 7829SOL     OW24385   3.153   2.669   1.500
 7829SOL    HW124386   3.214   2.711   1.433
 7829SOL    HW224387   3.116   2.584   1.462
 7830SOL     OW24388   2.791   4.756   4.260
 7830SOL    HW124389   2.802   4.848   4.224
 7830SOL    HW224390   2.748   4.698   4.192
 7831SOL     OW24391   2.026   2.300   1.077
 7831SOL    HW124392   1.977   2.287   1.164
 7831SOL    HW224393   1.960   2.304   1.002
 7832SOL     OW24394   5.498   0.744   5.059
 7832SOL    HW124395   5.443   0.697   4.990
 7832SOL    HW224396   5.491   0.843   5.046
 7833SOL     OW24397   2.061   0.585   3.964
 7833SOL    HW124398   2.141   0.543   3.922
 7833SOL    HW224399   2.078   0.597   4.062
 7834SOL     OW24400   6.308   2.848   4.575
 7834SOL    HW124401   6.296   2.943   4.548
 7834SOL    HW224402   6.335   2.843   4.671
 7835SOL     OW24403   4.505   1.804   5.033
 7835SOL    HW124404   4.592   1.823   4.988
 7835SOL    HW224405   4.454   1.736   4.980
 7836SOL     OW24406   3.770   4.260   5.119
 7836SOL    HW124407   3.722   4.189   5.068
 7836SOL    HW224408   3.764   4.346   5.069
 7837SOL     OW24409   6.066   6.321   6.544
 7837SOL    HW124410   6.045   6.276   6.630
 7837SOL    HW224411   6.153   6.370   6.552
 7838SOL     OW24412   5.279   5.555   0.984
 7838SOL    HW124413   5.206   5.598   1.037
 7838SOL    HW224414   5.345   5.513   1.045
 7839SOL     OW24415   6.054   4.087   4.618
 7839SOL    HW124416   5.971   4.141   4.627
 7839SOL    HW224417   6.031   3.990   4.614
 7840SOL     OW24418   2.138   3.539   3.193
 7840SOL    HW124419   2.141   3.445   3.225
 7840SOL    HW224420   2.163   3.542   3.096
 7841SOL     OW24421   5.237   2.433   5.869
 7841SOL    HW124422   5.242   2.438   5.969
 7841SOL    HW224423   5.150   2.392   5.843
 7842SOL     OW24424   1.968   1.326   2.506
 7842SOL    HW124425   1.884   1.296   2.461
 7842SOL    HW224426   1.969   1.426   2.510
 7843SOL     OW24427   0.228   6.558   3.276
 7843SOL    HW124428   0.310   6.522   3.232
 7843SOL    HW224429   0.198   6.495   3.348
 7844SOL     OW24430   3.996   0.898   2.481
 7844SOL    HW124431   3.921   0.964   2.484
 7844SOL    HW224432   4.008   0.858   2.572
 7845SOL     OW24433   6.023   1.893   1.353
 7845SOL    HW124434   6.019   1.989   1.383
 7845SOL    HW224435   6.037   1.890   1.254
 7846SOL     OW24436   0.740   2.513   0.192
 7846SOL    HW124437   0.828   2.489   0.233
 7846SOL    HW224438   0.670   2.516   0.264
 7847SOL     OW24439   5.292   2.569   4.231
 7847SOL    HW124440   5.314   2.504   4.158
 7847SOL    HW224441   5.209   2.539   4.278
 7848SOL     OW24442   2.587   4.841   0.930
 7848SOL    HW124443   2.603   4.897   1.012
 7848SOL    HW224444   2.496   4.860   0.895
 7849SOL     OW24445   4.563   3.902   6.174
 7849SOL    HW124446   4.511   3.982   6.144
 7849SOL    HW224447   4.593   3.915   6.269
 7850SOL     OW24448   6.579   1.626   3.301
 7850SOL    HW124449   6.635   1.634   3.219
 7850SOL    HW224450   6.507   1.558   3.285
 7851SOL     OW24451   0.888   4.312   1.996
 7851SOL    HW124452   0.889   4.214   2.015
 7851SOL    HW224453   0.964   4.335   1.935
 7852SOL     OW24454   2.011   2.276   0.474
 7852SOL    HW124455   1.917   2.270   0.442
 7852SOL    HW224456   2.074   2.259   0.397
 7853SOL     OW24457   4.073   2.922   1.596
 7853SOL    HW124458   4.011   2.876   1.659
 7853SOL    HW224459   4.165   2.885   1.606
 7854SOL     OW24460   5.104   1.932   5.575
 7854SOL    HW124461   5.121   1.928   5.477
 7854SOL    HW224462   5.008   1.908   5.593
 7855SOL     OW24463   5.262   7.024   4.436
 7855SOL    HW124464   5.301   6.938   4.404
 7855SOL    HW224465   5.330   0.069   4.426
 7856SOL     OW24466   1.826   5.533   4.924
 7856SOL    HW124467   1.875   5.533   4.837
 7856SOL    HW224468   1.841   5.620   4.971
 7857SOL     OW24469   5.249   3.985   0.277
 7857SOL    HW124470   5.252   3.901   0.331
 7857SOL    HW224471   5.154   4.008   0.257
 7858SOL     OW24472   0.690   5.197   6.005
 7858SOL    HW124473   0.671   5.104   6.037
 7858SOL    HW224474   0.756   5.194   5.930
 7859SOL     OW24475   5.126   2.577   6.747
 7859SOL    HW124476   5.058   2.509   6.773
 7859SOL    HW224477   5.090   2.669   6.765
 7860SOL     OW24478   2.841   0.825   4.481
 7860SOL    HW124479   2.747   0.808   4.451
 7860SOL    HW224480   2.867   0.918   4.454
 7861SOL     OW24481   2.513   6.615   1.037
 7861SOL    HW124482   2.567   6.695   1.011
 7861SOL    HW224483   2.575   6.539   1.057
 7862SOL     OW24484   2.662   6.790   0.866
 7862SOL    HW124485   2.747   6.738   0.857
 7862SOL    HW224486   2.684   6.887   0.877
 7863SOL     OW24487   6.858   3.945   3.820
 7863SOL    HW124488   6.838   3.867   3.761
 7863SOL    HW224489   6.937   3.924   3.878
 7864SOL     OW24490   2.511   6.478   5.465
 7864SOL    HW124491   2.610   6.466   5.477
 7864SOL    HW224492   2.466   6.389   5.468
 7865SOL     OW24493   6.386   6.097   4.044
 7865SOL    HW124494   6.459   6.058   3.988
 7865SOL    HW224495   6.347   6.177   3.998
 7866SOL     OW24496   1.067   0.568   6.081
 7866SOL    HW124497   1.166   0.567   6.086
 7866SOL    HW224498   1.036   0.500   6.014
 7867SOL     OW24499   5.562   0.177   3.674
 7867SOL    HW124500   5.642   0.149   3.728
 7867SOL    HW224501   5.494   0.103   3.675
 7868SOL     OW24502   3.525   6.443   1.116
 7868SOL    HW124503   3.527   6.391   1.202
 7868SOL    HW224504   3.582   6.525   1.126
 7869SOL     OW24505   5.140   4.034   6.090
 7869SOL    HW124506   5.060   3.973   6.084
 7869SOL    HW224507   5.220   3.986   6.054
 7870SOL     OW24508   4.920   5.916   5.250
 7870SOL    HW124509   4.958   5.876   5.333
 7870SOL    HW224510   4.842   5.975   5.274
 7871SOL     OW24511   5.400   1.727   1.821
 7871SOL    HW124512   5.355   1.637   1.816
 7871SOL    HW224513   5.336   1.797   1.791
 7872SOL     OW24514   1.881   6.236   2.725
 7872SOL    HW124515   1.804   6.292   2.695
 7872SOL    HW224516   1.858   6.190   2.810
 7873SOL     OW24517   6.808   1.238   0.277
 7873SOL    HW124518   6.843   1.198   0.192
 7873SOL    HW224519   6.773   1.330   0.258
 7874SOL     OW24520   5.660   2.535   1.205
 7874SOL    HW124521   5.596   2.518   1.130
 7874SOL    HW224522   5.641   2.471   1.280
 7875SOL     OW24523   4.445   4.120   6.483
 7875SOL    HW124524   4.523   4.058   6.485
 7875SOL    HW224525   4.361   4.067   6.475
 7876SOL     OW24526   0.435   0.443   2.437
 7876SOL    HW124527   0.532   0.463   2.421
 7876SOL    HW224528   0.427   0.362   2.496
 7877SOL     OW24529   6.763   1.554   3.086
 7877SOL    HW124530   6.751   1.455   3.097
 7877SOL    HW224531   6.723   1.583   2.999
 7878SOL     OW24532   4.682   4.766   3.448
 7878SOL    HW124533   4.710   4.803   3.537
 7878SOL    HW224534   4.703   4.832   3.376
 7879SOL     OW24535   2.533   4.563   3.346
 7879SOL    HW124536   2.470   4.618   3.402
 7879SOL    HW224537   2.490   4.475   3.326
 7880SOL     OW24538   1.342   4.065   1.786
 7880SOL    HW124539   1.362   4.122   1.707
 7880SOL    HW224540   1.264   4.006   1.765
 7881SOL     OW24541   5.028   4.030   3.774
 7881SOL    HW124542   5.029   4.124   3.807
 7881SOL    HW224543   5.000   3.969   3.848
 7882SOL     OW24544   2.032   3.243   1.599
 7882SOL    HW124545   2.002   3.158   1.557
 7882SOL    HW224546   2.044   3.313   1.528
 7883SOL     OW24547   0.803   1.123   5.222
 7883SOL    HW124548   0.875   1.110   5.291
 7883SOL    HW224549   0.842   1.171   5.143
 7884SOL     OW24550   0.302   3.105   4.766
 7884SOL    HW124551   0.238   3.176   4.795
 7884SOL    HW224552   0.277   3.073   4.674
 7885SOL     OW24553   5.990   5.738   0.110
 7885SOL    HW124554   5.909   5.719   0.055
 7885SOL    HW224555   6.020   5.655   0.155
 7886SOL     OW24556   4.576   5.505   0.208
 7886SOL    HW124557   4.524   5.570   0.152
 7886SOL    HW224558   4.669   5.539   0.222
 7887SOL     OW24559   4.590   1.982   0.388
 7887SOL    HW124560   4.496   2.018   0.388
 7887SOL    HW224561   4.653   2.053   0.420
 7888SOL     OW24562   4.507   0.861   4.042
 7888SOL    HW124563   4.411   0.843   4.024
 7888SOL    HW224564   4.525   0.852   4.141
 7889SOL     OW24565   0.147   6.343   2.468
 7889SOL    HW124566   0.120   6.416   2.405
 7889SOL    HW224567   0.193   6.270   2.418
 7890SOL     OW24568   1.808   3.790   2.433
 7890SOL    HW124569   1.843   3.782   2.526
 7890SOL    HW224570   1.803   3.700   2.391
 7891SOL     OW24571   2.469   4.527   2.404
 7891SOL    HW124572   2.477   4.513   2.503
 7891SOL    HW224573   2.550   4.575   2.371
 7892SOL     OW24574   2.113   2.279   5.974
 7892SOL    HW124575   2.157   2.264   6.063
 7892SOL    HW224576   2.154   2.218   5.906
 7893SOL     OW24577   6.167   6.508   0.928
 7893SOL    HW124578   6.234   6.473   0.994
 7893SOL    HW224579   6.096   6.558   0.976
 7894SOL     OW24580   2.677   6.607   1.910
 7894SOL    HW124581   2.773   6.612   1.938
 7894SOL    HW224582   2.651   6.512   1.896
 7895SOL     OW24583   6.687   1.137   4.795
 7895SOL    HW124584   6.778   1.177   4.796
 7895SOL    HW224585   6.636   1.171   4.716
 7896SOL     OW24586   4.915   3.866   5.993
 7896SOL    HW124587   4.900   3.767   6.002
 7896SOL    HW224588   4.936   3.888   5.898
 7897SOL     OW24589   2.556   3.053   6.491
 7897SOL    HW124590   2.604   3.112   6.427
 7897SOL    HW224591   2.498   2.988   6.441
 7898SOL     OW24592   4.003   2.239   3.655
 7898SOL    HW124593   3.964   2.331   3.649
 7898SOL    HW224594   4.005   2.198   3.564
 7899SOL     OW24595   5.518   2.130   2.652
 7899SOL    HW124596   5.440   2.158   2.708
 7899SOL    HW224597   5.536   2.200   2.583
 7900SOL     OW24598   1.951   6.027   1.360
 7900SOL    HW124599   2.025   6.048   1.424
 7900SOL    HW224600   1.891   6.106   1.351
 7901SOL     OW24601   6.828   6.483   6.635
 7901SOL    HW124602   6.763   6.532   6.577
 7901SOL    HW224603   6.886   6.425   6.579
 7902SOL     OW24604   4.487   4.041   0.330
 7902SOL    HW124605   4.523   3.975   0.264
 7902SOL    HW224606   4.548   4.121   0.333
 7903SOL     OW24607   6.259   1.743   0.176
 7903SOL    HW124608   6.184   1.802   0.209
 7903SOL    HW224609   6.235   1.708   0.086
 7904SOL     OW24610   6.827   1.234   2.223
 7904SOL    HW124611   6.856   1.250   2.318
 7904SOL    HW224612   6.885   1.288   2.161
 7905SOL     OW24613   3.924   0.785   1.219
 7905SOL    HW124614   3.917   0.690   1.187
 7905SOL    HW224615   3.918   0.788   1.318
 7906SOL     OW24616   5.518   6.078   0.073
 7906SOL    HW124617   5.423   6.085   0.105
 7906SOL    HW224618   5.519   6.040   7.008
 7907SOL     OW24619   7.021   3.006   3.015
 7907SOL    HW124620   0.017   2.985   2.920
 7907SOL    HW224621   6.923   2.992   3.029
 7908SOL     OW24622   6.567   2.153   3.814
 7908SOL    HW124623   6.507   2.193   3.744
 7908SOL    HW224624   6.567   2.053   3.805
 7909SOL     OW24625   4.597   4.455   4.656
 7909SOL    HW124626   4.581   4.366   4.698
 7909SOL    HW224627   4.569   4.527   4.719
 7910SOL     OW24628   5.140   3.416   5.571
 7910SOL    HW124629   5.109   3.342   5.630
 7910SOL    HW224630   5.150   3.384   5.477
 7911SOL     OW24631   6.437   4.497   0.036
 7911SOL    HW124632   6.456   4.421   0.098
 7911SOL    HW224633   6.368   4.469   6.997
 7912SOL     OW24634   6.006   4.777   6.224
 7912SOL    HW124635   6.100   4.741   6.220
 7912SOL    HW224636   5.946   4.708   6.264
 7913SOL     OW24637   6.863   5.513   6.520
 7913SOL    HW124638   6.884   5.471   6.609
 7913SOL    HW224639   6.947   5.519   6.466
 7914SOL     OW24640   6.160   3.789   1.240
 7914SOL    HW124641   6.122   3.741   1.161
 7914SOL    HW224642   6.142   3.887   1.231
 7915SOL     OW24643   3.822   1.853   3.399
 7915SOL    HW124644   3.868   1.781   3.452
 7915SOL    HW224645   3.741   1.815   3.354
 7916SOL     OW24646   5.565   3.766   5.610
 7916SOL    HW124647   5.596   3.858   5.587
 7916SOL    HW224648   5.507   3.731   5.536
 7917SOL     OW24649   3.477   3.853   4.372
 7917SOL    HW124650   3.437   3.792   4.303
 7917SOL    HW224651   3.465   3.948   4.342
 7918SOL     OW24652   5.692   1.635   2.601
 7918SOL    HW124653   5.680   1.535   2.597
 7918SOL    HW224654   5.622   1.673   2.663
 7919SOL     OW24655   5.318   5.136   1.912
 7919SOL    HW124656   5.253   5.120   1.836
 7919SOL    HW224657   5.409   5.107   1.884
 7920SOL     OW24658   0.658   5.046   1.141
 7920SOL    HW124659   0.567   5.013   1.118
 7920SOL    HW224660   0.703   4.979   1.200
 7921SOL     OW24661   2.157   0.043   1.385
 7921SOL    HW124662   2.105   7.003   1.332
 7921SOL    HW224663   2.133   0.035   1.482
 7922SOL     OW24664   1.134   5.588   6.437
 7922SOL    HW124665   1.211   5.616   6.495
 7922SOL    HW224666   1.070   5.664   6.428
 7923SOL     OW24667   1.214   1.357   3.595
 7923SOL    HW124668   1.215   1.457   3.599
 7923SOL    HW224669   1.124   1.323   3.622
 7924SOL     OW24670   2.811   7.005   4.064
 7924SOL    HW124671   2.828   7.011   4.162
 7924SOL    HW224672   2.876   6.940   4.023
 7925SOL     OW24673   6.158   1.519   5.862
 7925SOL    HW124674   6.179   1.606   5.816
 7925SOL    HW224675   6.228   1.451   5.838
 7926SOL     OW24676   4.191   0.502   2.138
 7926SOL    HW124677   4.265   0.544   2.086
 7926SOL    HW224678   4.156   0.423   2.088
 7927SOL     OW24679   4.566   5.127   4.627
 7927SOL    HW124680   4.600   5.040   4.592
 7927SOL    HW224681   4.570   5.127   4.727
 7928SOL     OW24682   1.633   5.384   1.930
 7928SOL    HW124683   1.699   5.313   1.953
 7928SOL    HW224684   1.603   5.430   2.013
 7929SOL     OW24685   3.897   3.476   4.287
 7929SOL    HW124686   3.867   3.419   4.212
 7929SOL    HW224687   3.991   3.506   4.271
 7930SOL     OW24688   4.901   5.612   3.693
 7930SOL    HW124689   4.890   5.523   3.738
 7930SOL    HW224690   4.815   5.639   3.651
 7931SOL     OW24691   2.661   1.920   0.509
 7931SOL    HW124692   2.747   1.888   0.549
 7931SOL    HW224693   2.648   2.017   0.532
 7932SOL     OW24694   2.208   0.366   0.525
 7932SOL    HW124695   2.169   0.305   0.593
 7932SOL    HW224696   2.256   0.312   0.455
 7933SOL     OW24697   1.161   0.783   6.689
 7933SOL    HW124698   1.119   0.694   6.706
 7933SOL    HW224699   1.097   0.841   6.639
 7934SOL     OW24700   2.508   3.665   6.494
 7934SOL    HW124701   2.515   3.584   6.552
 7934SOL    HW224702   2.594   3.716   6.498
 7935SOL     OW24703   4.441   6.522   2.025
 7935SOL    HW124704   4.341   6.529   2.021
 7935SOL    HW224705   4.468   6.488   2.115
 7936SOL     OW24706   4.155   5.563   3.088
 7936SOL    HW124707   4.136   5.639   3.149
 7936SOL    HW224708   4.118   5.479   3.126
 7937SOL     OW24709   6.385   6.396   5.833
 7937SOL    HW124710   6.444   6.317   5.825
 7937SOL    HW224711   6.437   6.479   5.813
 7938SOL     OW24712   4.485   5.392   4.767
 7938SOL    HW124713   4.424   5.375   4.845
 7938SOL    HW224714   4.439   5.365   4.682
 7939SOL     OW24715   1.421   0.902   5.764
 7939SOL    HW124716   1.446   0.955   5.845
 7939SOL    HW224717   1.491   0.913   5.694
 7940SOL     OW24718   2.122   5.626   1.088
 7940SOL    HW124719   2.052   5.646   1.020
 7940SOL    HW224720   2.092   5.552   1.148
 7941SOL     OW24721   0.256   0.811   0.870
 7941SOL    HW124722   0.324   0.867   0.822
 7941SOL    HW224723   0.180   0.790   0.808
 7942SOL     OW24724   0.421   0.199   1.748
 7942SOL    HW124725   0.390   0.107   1.723
 7942SOL    HW224726   0.416   0.259   1.668
 7943SOL     OW24727   5.220   1.629   1.126
 7943SOL    HW124728   5.221   1.666   1.219
 7943SOL    HW224729   5.265   1.539   1.126
 7944SOL     OW24730   0.703   4.459   1.246
 7944SOL    HW124731   0.759   4.530   1.290
 7944SOL    HW224732   0.607   4.484   1.252
 7945SOL     OW24733   5.742   6.601   2.746
 7945SOL    HW124734   5.727   6.547   2.663
 7945SOL    HW224735   5.782   6.689   2.722
 7946SOL     OW24736   1.771   2.244   5.968
 7946SOL    HW124737   1.779   2.344   5.964
 7946SOL    HW224738   1.689   2.220   6.020
 7947SOL     OW24739   3.979   3.229   6.529
 7947SOL    HW124740   4.078   3.218   6.534
 7947SOL    HW224741   3.955   3.285   6.450
 7948SOL     OW24742   0.142   6.713   0.571
 7948SOL    HW124743   0.078   6.685   0.643
 7948SOL    HW224744   0.205   6.639   0.551
 7949SOL     OW24745   5.208   4.798   3.709
 7949SOL    HW124746   5.140   4.757   3.649
 7949SOL    HW224747   5.219   4.895   3.687
 7950SOL     OW24748   3.853   5.155   4.197
 7950SOL    HW124749   3.778   5.213   4.168
 7950SOL    HW224750   3.921   5.148   4.124
 7951SOL     OW24751   3.569   3.754   0.892
 7951SOL    HW124752   3.628   3.704   0.955
 7951SOL    HW224753   3.478   3.710   0.891
 7952SOL     OW24754   5.968   3.216   0.998
 7952SOL    HW124755   5.944   3.158   0.921
 7952SOL    HW224756   6.024   3.165   1.063
 7953SOL     OW24757   2.157   2.551   3.153
 7953SOL    HW124758   2.126   2.543   3.058
 7953SOL    HW224759   2.255   2.531   3.159
 7954SOL     OW24760   4.180   4.979   4.913
 7954SOL    HW124761   4.227   4.983   4.825
 7954SOL    HW224762   4.193   5.066   4.961
 7955SOL     OW24763   0.889   6.258   6.442
 7955SOL    HW124764   0.881   6.267   6.343
 7955SOL    HW224765   0.943   6.335   6.478
 7956SOL     OW24766   6.014   6.442   4.313
 7956SOL    HW124767   5.937   6.423   4.252
 7956SOL    HW224768   5.982   6.498   4.390
 7957SOL     OW24769   1.232   1.724   1.313
 7957SOL    HW124770   1.154   1.753   1.259
 7957SOL    HW224771   1.314   1.772   1.281
 7958SOL     OW24772   2.755   4.690   3.017
 7958SOL    HW124773   2.674   4.632   3.014
 7958SOL    HW224774   2.795   4.697   2.926
 7959SOL     OW24775   6.237   4.792   0.639
 7959SOL    HW124776   6.200   4.873   0.685
 7959SOL    HW224777   6.167   4.721   0.635
 7960SOL     OW24778   2.614   1.635   1.448
 7960SOL    HW124779   2.661   1.632   1.536
 7960SOL    HW224780   2.620   1.545   1.404
 7961SOL     OW24781   1.761   5.697   6.198
 7961SOL    HW124782   1.735   5.779   6.249
 7961SOL    HW224783   1.861   5.688   6.198
 7962SOL     OW24784   1.198   1.117   2.133
 7962SOL    HW124785   1.208   1.020   2.154
 7962SOL    HW224786   1.106   1.135   2.098
 7963SOL     OW24787   0.634   0.941   5.598
 7963SOL    HW124788   0.730   0.966   5.586
 7963SOL    HW224789   0.619   0.848   5.564
 7964SOL     OW24790   5.974   5.367   3.797
 7964SOL    HW124791   6.033   5.340   3.873
 7964SOL    HW224792   5.944   5.285   3.748
 7965SOL     OW24793   5.155   2.504   0.214
 7965SOL    HW124794   5.231   2.459   0.166
 7965SOL    HW224795   5.076   2.508   0.153
 7966SOL     OW24796   6.823   4.715   4.000
 7966SOL    HW124797   6.783   4.641   3.946
 7966SOL    HW224798   6.879   4.676   4.073
 7967SOL     OW24799   3.012   6.696   2.486
 7967SOL    HW124800   3.092   6.692   2.426
 7967SOL    HW224801   2.943   6.630   2.455
 7968SOL     OW24802   2.024   2.170   2.947
 7968SOL    HW124803   2.115   2.181   2.986
 7968SOL    HW224804   1.967   2.248   2.971
 7969SOL     OW24805   3.202   1.517   3.441
 7969SOL    HW124806   3.242   1.598   3.485
 7969SOL    HW224807   3.266   1.481   3.374
 7970SOL     OW24808   0.376   4.425   2.983
 7970SOL    HW124809   0.372   4.414   2.883
 7970SOL    HW224810   0.291   4.468   3.015
 7971SOL     OW24811   3.330   0.520   1.234
 7971SOL    HW124812   3.253   0.549   1.176
 7971SOL    HW224813   3.399   0.593   1.235
 7972SOL     OW24814   0.260   4.618   1.487
 7972SOL    HW124815   0.342   4.583   1.532
 7972SOL    HW224816   0.182   4.614   1.549
 7973SOL     OW24817   4.883   3.194   3.617
 7973SOL    HW124818   4.866   3.290   3.638
 7973SOL    HW224819   4.977   3.183   3.586
 7974SOL     OW24820   5.183   0.627   4.250
 7974SOL    HW124821   5.118   0.612   4.175
 7974SOL    HW224822   5.269   0.660   4.212
 7975SOL     OW24823   3.237   1.419   4.262
 7975SOL    HW124824   3.234   1.515   4.233
 7975SOL    HW224825   3.325   1.379   4.235
 7976SOL     OW24826   0.760   5.758   5.594
 7976SOL    HW124827   0.762   5.731   5.498
 7976SOL    HW224828   0.755   5.858   5.600
 7977SOL     OW24829   5.478   6.234   1.589
 7977SOL    HW124830   5.565   6.251   1.544
 7977SOL    HW224831   5.403   6.262   1.528
 7978SOL     OW24832   4.637   3.720   5.974
 7978SOL    HW124833   4.725   3.674   5.983
 7978SOL    HW224834   4.610   3.757   6.062
 7979SOL     OW24835   3.206   0.215   4.167
 7979SOL    HW124836   3.115   0.253   4.183
 7979SOL    HW224837   3.221   0.138   4.228
 7980SOL     OW24838   3.378   6.283   0.356
 7980SOL    HW124839   3.408   6.263   0.263
 7980SOL    HW224840   3.324   6.206   0.391
 7981SOL     OW24841   1.074   5.067   2.575
 7981SOL    HW124842   1.019   4.986   2.597
 7981SOL    HW224843   1.090   5.070   2.476
 7982SOL     OW24844   6.543   2.187   0.605
 7982SOL    HW124845   6.546   2.284   0.583
 7982SOL    HW224846   6.601   2.136   0.541
 7983SOL     OW24847   5.275   2.108   2.481
 7983SOL    HW124848   5.367   2.092   2.515
 7983SOL    HW224849   5.244   2.199   2.508
 7984SOL     OW24850   0.509   2.063   2.130
 7984SOL    HW124851   0.488   2.029   2.038
 7984SOL    HW224852   0.466   2.152   2.143
 7985SOL     OW24853   0.660   1.245   2.717
 7985SOL    HW124854   0.735   1.214   2.658
 7985SOL    HW224855   0.695   1.312   2.783
 7986SOL     OW24856   4.228   1.082   6.694
 7986SOL    HW124857   4.230   1.182   6.702
 7986SOL    HW224858   4.161   1.055   6.625
 7987SOL     OW24859   0.604   2.875   5.321
 7987SOL    HW124860   0.555   2.935   5.259
 7987SOL    HW224861   0.570   2.889   5.414
 7988SOL     OW24862   2.681   1.825   4.625
 7988SOL    HW124863   2.694   1.807   4.722
 7988SOL    HW224864   2.763   1.800   4.575
 7989SOL     OW24865   3.178   2.409   5.761
 7989SOL    HW124866   3.210   2.345   5.832
 7989SOL    HW224867   3.219   2.385   5.674
 7990SOL     OW24868   1.454   2.519   4.824
 7990SOL    HW124869   1.356   2.524   4.839
 7990SOL    HW224870   1.484   2.598   4.770
 7991SOL     OW24871   0.392   2.684   6.136
 7991SOL    HW124872   0.368   2.590   6.162
 7991SOL    HW224873   0.441   2.727   6.212
 7992SOL     OW24874   2.173   0.174   0.764
 7992SOL    HW124875   2.109   0.097   0.757
 7992SOL    HW224876   2.178   0.206   0.858
 7993SOL     OW24877   2.068   6.304   6.961
 7993SOL    HW124878   2.030   6.214   6.942
 7993SOL    HW224879   2.107   6.342   6.877
 7994SOL     OW24880   5.064   1.398   3.826
 7994SOL    HW124881   4.973   1.438   3.818
 7994SOL    HW224882   5.088   1.351   3.741
 7995SOL     OW24883   2.847   5.384   4.055
 7995SOL    HW124884   2.822   5.474   4.090
 7995SOL    HW224885   2.796   5.313   4.104
 7996SOL     OW24886   3.747   0.023   5.005
 7996SOL    HW124887   3.740   0.114   4.964
 7996SOL    HW224888   3.833   0.014   5.053
 7997SOL     OW24889   5.884   2.681   1.056
 7997SOL    HW124890   5.853   2.776   1.046
 7997SOL    HW224891   5.825   2.633   1.120
 7998SOL     OW24892   5.716   4.863   0.161
 7998SOL    HW124893   5.641   4.797   0.154
 7998SOL    HW224894   5.791   4.822   0.213
 7999SOL     OW24895   1.497   6.997   5.428
 7999SOL    HW124896   1.517   6.904   5.458
 7999SOL    HW224897   1.411   7.027   5.468
 8000SOL     OW24898   6.322   6.956   5.598
 8000SOL    HW124899   6.273   6.974   5.683
 8000SOL    HW224900   6.312   0.006   5.536
 8001SOL     OW24901   2.069   6.904   1.630
 8001SOL    HW124902   2.012   6.824   1.616
 8001SOL    HW224903   2.164   6.876   1.644
 8002SOL     OW24904   5.894   2.727   4.894
 8002SOL    HW124905   5.933   2.783   4.967
 8002SOL    HW224906   5.967   2.673   4.851
 8003SOL     OW24907   3.289   4.983   3.197
 8003SOL    HW124908   3.355   4.963   3.269
 8003SOL    HW224909   3.245   4.898   3.167
 8004SOL     OW24910   2.084   3.793   3.030
 8004SOL    HW124911   2.162   3.838   3.073
 8004SOL    HW224912   2.115   3.714   2.977
 8005SOL     OW24913   3.088   1.049   1.554
 8005SOL    HW124914   3.155   1.113   1.591
 8005SOL    HW224915   3.131   0.960   1.540
 8006SOL     OW24916   3.005   5.917   0.341
 8006SOL    HW124917   2.949   5.978   0.285
 8006SOL    HW224918   2.959   5.898   0.428
 8007SOL     OW24919   0.296   0.288   4.421
 8007SOL    HW124920   0.311   0.387   4.418
 8007SOL    HW224921   0.377   0.241   4.387
 8008SOL     OW24922   6.046   6.653   0.385
 8008SOL    HW124923   6.120   6.719   0.384
 8008SOL    HW224924   6.076   6.567   0.343
 8009SOL     OW24925   6.862   6.899   3.997
 8009SOL    HW124926   6.886   6.812   3.953
 8009SOL    HW224927   6.928   6.969   3.971
 8010SOL     OW24928   2.062   2.483   0.642
 8010SOL    HW124929   2.149   2.520   0.609
 8010SOL    HW224930   2.032   2.410   0.581
 8011SOL     OW24931   3.062   2.446   1.200
 8011SOL    HW124932   3.024   2.530   1.238
 8011SOL    HW224933   2.990   2.376   1.195
 8012SOL     OW24934   2.472   6.253   1.547
 8012SOL    HW124935   2.471   6.160   1.510
 8012SOL    HW224936   2.428   6.315   1.482
 8013SOL     OW24937   5.745   4.808   4.577
 8013SOL    HW124938   5.651   4.830   4.601
 8013SOL    HW224939   5.775   4.867   4.502
 8014SOL     OW24940   2.203   6.894   6.909
 8014SOL    HW124941   2.159   6.920   6.996
 8014SOL    HW224942   2.302   6.894   6.921
 8015SOL     OW24943   2.450   2.730   0.391
 8015SOL    HW124944   2.517   2.665   0.354
 8015SOL    HW224945   2.474   2.751   0.485
 8016SOL     OW24946   4.447   6.534   6.797
 8016SOL    HW124947   4.465   6.446   6.752
 8016SOL    HW224948   4.486   6.608   6.742
 8017SOL     OW24949   6.257   4.153   4.817
 8017SOL    HW124950   6.320   4.076   4.807
 8017SOL    HW224951   6.194   4.155   4.740
 8018SOL     OW24952   4.870   1.735   5.302
 8018SOL    HW124953   4.969   1.718   5.300
 8018SOL    HW224954   4.831   1.692   5.383
 8019SOL     OW24955   1.820   5.771   0.689
 8019SOL    HW124956   1.779   5.860   0.705
 8019SOL    HW224957   1.783   5.732   0.605
 8020SOL     OW24958   4.912   5.304   6.975
 8020SOL    HW124959   4.949   5.310   0.040
 8020SOL    HW224960   4.888   5.210   6.955
 8021SOL     OW24961   0.601   0.607   0.747
 8021SOL    HW124962   0.565   0.590   0.655
 8021SOL    HW224963   0.697   0.582   0.750
 8022SOL     OW24964   4.349   6.391   3.334
 8022SOL    HW124965   4.253   6.407   3.313
 8022SOL    HW224966   4.364   6.294   3.350
 8023SOL     OW24967   5.860   5.455   2.780
 8023SOL    HW124968   5.888   5.504   2.698
 8023SOL    HW224969   5.856   5.518   2.857
 8024SOL     OW24970   4.890   5.139   5.368
 8024SOL    HW124971   4.864   5.161   5.274
 8024SOL    HW224972   4.842   5.200   5.431
 8025SOL     OW24973   3.922   5.735   6.306
 8025SOL    HW124974   3.955   5.726   6.400
 8025SOL    HW224975   3.897   5.646   6.270
 8026SOL     OW24976   1.564   3.446   6.939
 8026SOL    HW124977   1.645   3.473   6.991
 8026SOL    HW224978   1.483   3.456   6.998
 8027SOL     OW24979   4.791   1.769   5.030
 8027SOL    HW124980   4.832   1.683   5.000
 8027SOL    HW224981   4.808   1.782   5.127
 8028SOL     OW24982   4.846   4.904   6.690
 8028SOL    HW124983   4.799   4.878   6.605
 8028SOL    HW224984   4.945   4.901   6.675
 8029SOL     OW24985   4.093   4.363   0.569
 8029SOL    HW124986   4.173   4.303   0.575
 8029SOL    HW224987   4.010   4.309   0.580
 8030SOL     OW24988   5.611   3.997   6.229
 8030SOL    HW124989   5.614   3.974   6.132
 8030SOL    HW224990   5.579   4.091   6.240
 8031SOL     OW24991   3.761   5.399   1.554
 8031SOL    HW124992   3.714   5.333   1.494
 8031SOL    HW224993   3.766   5.362   1.647
 8032SOL     OW24994   5.298   4.111   5.578
 8032SOL    HW124995   5.241   4.186   5.545
 8032SOL    HW224996   5.355   4.077   5.504
 8033SOL     OW24997   5.987   2.224   0.308
 8033SOL    HW124998   5.963   2.261   0.398
 8033SOL    HW224999   5.990   2.299   0.242
 8034SOL     OW25000   5.246   6.901   4.709
 8034SOL    HW125001   5.286   6.810   4.720
 8034SOL    HW225002   5.257   6.932   4.614
 8035SOL     OW25003   5.476   6.665   6.730
 8035SOL    HW125004   5.517   6.755   6.741
 8035SOL    HW225005   5.490   6.611   6.813
 8036SOL     OW25006   1.979   4.099   1.757
 8036SOL    HW125007   1.896   4.129   1.804
 8036SOL    HW225008   1.982   4.139   1.665
 8037SOL     OW25009   1.603   2.872   1.252
 8037SOL    HW125010   1.509   2.838   1.247
 8037SOL    HW225011   1.620   2.909   1.344
 8038SOL     OW25012   0.526   2.152   3.646
 8038SOL    HW125013   0.578   2.210   3.583
 8038SOL    HW225014   0.446   2.202   3.678
 8039SOL     OW25015   2.306   6.870   3.428
 8039SOL    HW125016   2.280   6.806   3.355
 8039SOL    HW225017   2.361   6.944   3.389
 8040SOL     OW25018   0.397   5.679   1.021
 8040SOL    HW125019   0.446   5.633   0.947
 8040SOL    HW225020   0.463   5.727   1.079
 8041SOL     OW25021   4.355   1.180   0.477
 8041SOL    HW125022   4.329   1.146   0.567
 8041SOL    HW225023   4.446   1.145   0.453
 8042SOL     OW25024   3.281   2.868   2.402
 8042SOL    HW125025   3.354   2.826   2.456
 8042SOL    HW225026   3.305   2.864   2.305
 8043SOL     OW25027   2.828   0.267   1.594
 8043SOL    HW125028   2.770   0.202   1.545
 8043SOL    HW225029   2.799   0.360   1.574
 8044SOL     OW25030   2.843   3.824   1.158
 8044SOL    HW125031   2.853   3.818   1.257
 8044SOL    HW225032   2.933   3.836   1.116
 8045SOL     OW25033   5.480   2.705   3.105
 8045SOL    HW125034   5.385   2.676   3.112
 8045SOL    HW225035   5.485   2.794   3.061
 8046SOL     OW25036   6.144   4.719   5.717
 8046SOL    HW125037   6.104   4.739   5.628
 8046SOL    HW225038   6.154   4.805   5.769
 8047SOL     OW25039   3.890   5.853   4.350
 8047SOL    HW125040   3.846   5.764   4.361
 8047SOL    HW225041   3.952   5.849   4.271
 8048SOL     OW25042   6.361   6.982   5.302
 8048SOL    HW125043   6.304   0.019   5.353
 8048SOL    HW225044   6.305   6.939   5.231
 8049SOL     OW25045   1.209   6.596   1.056
 8049SOL    HW125046   1.266   6.513   1.050
 8049SOL    HW225047   1.268   6.675   1.071
 8050SOL     OW25048   2.020   3.436   1.105
 8050SOL    HW125049   2.046   3.343   1.132
 8050SOL    HW225050   2.098   3.481   1.062
 8051SOL     OW25051   4.704   1.039   3.317
 8051SOL    HW125052   4.745   1.074   3.232
 8051SOL    HW225053   4.774   1.035   3.388
 8052SOL     OW25054   2.979   1.583   2.852
 8052SOL    HW125055   2.935   1.540   2.931
 8052SOL    HW225056   2.931   1.558   2.769
 8053SOL     OW25057   3.905   3.935   2.937
 8053SOL    HW125058   3.940   3.845   2.965
 8053SOL    HW225059   3.856   3.977   3.013
 8054SOL     OW25060   4.879   6.573   4.287
 8054SOL    HW125061   4.951   6.558   4.355
 8054SOL    HW225062   4.877   6.670   4.263
 8055SOL     OW25063   1.591   6.969   5.919
 8055SOL    HW125064   1.642   0.027   5.907
 8055SOL    HW225065   1.653   6.898   5.952
 8056SOL     OW25066   4.224   1.816   2.984
 8056SOL    HW125067   4.280   1.734   2.998
 8056SOL    HW225068   4.202   1.857   3.072
 8057SOL     OW25069   3.215   6.807   3.371
 8057SOL    HW125070   3.203   6.765   3.461
 8057SOL    HW225071   3.281   6.882   3.378
 8058SOL     OW25072   3.143   0.956   2.105
 8058SOL    HW125073   3.053   0.950   2.061
 8058SOL    HW225074   3.177   1.050   2.099
 8059SOL     OW25075   3.141   1.912   4.396
 8059SOL    HW125076   3.160   1.955   4.308
 8059SOL    HW225077   3.213   1.935   4.461
 8060SOL     OW25078   6.790   0.881   4.786
 8060SOL    HW125079   6.755   0.975   4.795
 8060SOL    HW225080   6.713   0.817   4.780
 8061SOL     OW25081   6.631   5.560   3.170
 8061SOL    HW125082   6.722   5.594   3.146
 8061SOL    HW225083   6.591   5.618   3.242
 8062SOL     OW25084   1.255   4.409   3.745
 8062SOL    HW125085   1.307   4.440   3.824
 8062SOL    HW225086   1.309   4.342   3.694
 8063SOL     OW25087   3.042   2.948   6.626
 8063SOL    HW125088   3.132   2.905   6.630
 8063SOL    HW225089   3.006   2.942   6.533
 8064SOL     OW25090   6.944   3.519   0.353
 8064SOL    HW125091   6.858   3.486   0.391
 8064SOL    HW225092   7.021   3.469   0.393
 8065SOL     OW25093   4.998   0.098   4.442
 8065SOL    HW125094   5.083   0.044   4.437
 8065SOL    HW225095   4.991   0.156   4.361
 8066SOL     OW25096   1.621   1.116   1.799
 8066SOL    HW125097   1.656   1.182   1.732
 8066SOL    HW225098   1.548   1.159   1.853
 8067SOL     OW25099   5.029   2.604   1.553
 8067SOL    HW125100   5.081   2.519   1.548
 8067SOL    HW225101   4.935   2.584   1.578
 8068SOL     OW25102   1.040   4.249   5.021
 8068SOL    HW125103   1.134   4.254   4.986
 8068SOL    HW225104   1.023   4.158   5.058
 8069SOL     OW25105   1.314   6.338   1.728
 8069SOL    HW125106   1.369   6.401   1.673
 8069SOL    HW225107   1.219   6.339   1.695
 8070SOL     OW25108   3.996   6.495   1.425
 8070SOL    HW125109   4.037   6.419   1.374
 8070SOL    HW225110   3.958   6.461   1.511
 8071SOL     OW25111   3.673   0.310   6.112
 8071SOL    HW125112   3.720   0.223   6.098
 8071SOL    HW225113   3.597   0.317   6.048
 8072SOL     OW25114   5.098   1.464   0.737
 8072SOL    HW125115   5.169   1.523   0.776
 8072SOL    HW225116   5.139   1.401   0.672
 8073SOL     OW25117   4.087   6.560   5.864
 8073SOL    HW125118   4.138   6.478   5.838
 8073SOL    HW225119   4.043   6.545   5.953
 8074SOL     OW25120   3.349   3.543   0.370
 8074SOL    HW125121   3.278   3.608   0.398
 8074SOL    HW225122   3.437   3.590   0.361
 8075SOL     OW25123   6.827   1.465   2.793
 8075SOL    HW125124   6.749   1.404   2.813
 8075SOL    HW225125   6.912   1.413   2.801
 8076SOL     OW25126   5.606   2.656   5.496
 8076SOL    HW125127   5.520   2.708   5.494
 8076SOL    HW225128   5.681   2.714   5.464
 8077SOL     OW25129   1.065   0.120   0.999
 8077SOL    HW125130   0.985   0.179   0.992
 8077SOL    HW225131   1.067   0.057   0.921
 8078SOL     OW25132   6.311   2.337   1.218
 8078SOL    HW125133   6.351   2.414   1.168
 8078SOL    HW225134   6.221   2.364   1.253
 8079SOL     OW25135   6.755   2.038   2.463
 8079SOL    HW125136   6.844   2.038   2.509
 8079SOL    HW225137   6.743   1.952   2.414
 8080SOL     OW25138   3.302   4.504   0.366
 8080SOL    HW125139   3.265   4.438   0.300
 8080SOL    HW225140   3.384   4.465   0.409
 8081SOL     OW25141   5.966   0.533   5.078
 8081SOL    HW125142   5.887   0.488   5.120
 8081SOL    HW225143   6.028   0.567   5.149
 8082SOL     OW25144   6.882   2.724   3.578
 8082SOL    HW125145   6.901   2.683   3.489
 8082SOL    HW225146   6.897   2.823   3.573
 8083SOL     OW25147   4.506   2.480   3.358
 8083SOL    HW125148   4.536   2.515   3.447
 8083SOL    HW225149   4.437   2.409   3.371
 8084SOL     OW25150   6.749   6.705   1.530
 8084SOL    HW125151   6.848   6.706   1.544
 8084SOL    HW225152   6.702   6.705   1.619
 8085SOL     OW25153   5.977   0.681   0.916
 8085SOL    HW125154   5.930   0.737   0.984
 8085SOL    HW225155   5.974   0.585   0.944
 8086SOL     OW25156   3.860   1.014   4.929
 8086SOL    HW125157   3.784   0.950   4.939
 8086SOL    HW225158   3.825   1.108   4.930
 8087SOL     OW25159   2.701   2.219   1.486
 8087SOL    HW125160   2.610   2.262   1.484
 8087SOL    HW225161   2.753   2.256   1.563
 8088SOL     OW25162   4.614   1.188   2.504
 8088SOL    HW125163   4.558   1.260   2.543
 8088SOL    HW225164   4.557   1.128   2.447
 8089SOL     OW25165   5.953   2.865   0.252
 8089SOL    HW125166   5.885   2.793   0.243
 8089SOL    HW225167   5.973   2.882   0.348
 8090SOL     OW25168   5.107   1.644   5.614
 8090SOL    HW125169   5.144   1.736   5.600
 8090SOL    HW225170   5.124   1.616   5.709
 8091SOL     OW25171   2.658   4.917   5.720
 8091SOL    HW125172   2.689   4.919   5.815
 8091SOL    HW225173   2.709   4.847   5.670
 8092SOL     OW25174   1.448   1.621   4.871
 8092SOL    HW125175   1.405   1.538   4.837
 8092SOL    HW225176   1.429   1.697   4.808
 8093SOL     OW25177   5.509   5.501   1.096
 8093SOL    HW125178   5.589   5.489   1.038
 8093SOL    HW225179   5.537   5.525   1.189
 8094SOL     OW25180   1.201   4.044   5.906
 8094SOL    HW125181   1.160   4.125   5.865
 8094SOL    HW225182   1.276   4.071   5.966
 8095SOL     OW25183   5.442   3.332   4.368
 8095SOL    HW125184   5.494   3.406   4.410
 8095SOL    HW225185   5.428   3.351   4.271
 8096SOL     OW25186   3.705   6.326   1.844
 8096SOL    HW125187   3.610   6.324   1.873
 8096SOL    HW225188   3.727   6.242   1.795
 8097SOL     OW25189   4.984   1.111   3.914
 8097SOL    HW125190   5.057   1.178   3.929
 8097SOL    HW225191   4.981   1.048   3.992
 8098SOL     OW25192   3.173   6.669   3.947
 8098SOL    HW125193   3.182   6.719   3.861
 8098SOL    HW225194   3.222   6.717   4.020
 8099SOL     OW25195   4.377   7.003   5.317
 8099SOL    HW125196   4.384   0.042   5.390
 8099SOL    HW225197   4.306   6.936   5.339
 8100SOL     OW25198   0.332   6.367   0.587
 8100SOL    HW125199   0.307   6.316   0.504
 8100SOL    HW225200   0.407   6.319   0.634
 8101SOL     OW25201   1.639   6.439   3.624
 8101SOL    HW125202   1.609   6.528   3.592
 8101SOL    HW225203   1.560   6.387   3.658
 8102SOL     OW25204   6.414   5.991   5.914
 8102SOL    HW125205   6.470   5.908   5.924
 8102SOL    HW225206   6.328   5.968   5.869
 8103SOL     OW25207   3.320   1.406   2.521
 8103SOL    HW125208   3.275   1.489   2.552
 8103SOL    HW225209   3.419   1.414   2.538
 8104SOL     OW25210   2.652   6.892   6.509
 8104SOL    HW125211   2.645   6.908   6.410
 8104SOL    HW225212   2.643   6.979   6.558
 8105SOL     OW25213   2.377   2.091   3.648
 8105SOL    HW125214   2.371   2.004   3.696
 8105SOL    HW225215   2.345   2.164   3.709
 8106SOL     OW25216   1.050   4.182   3.959
 8106SOL    HW125217   1.120   4.120   3.922
 8106SOL    HW225218   1.080   4.218   4.047
 8107SOL     OW25219   1.991   6.450   5.906
 8107SOL    HW125220   1.910   6.415   5.861
 8107SOL    HW225221   2.043   6.507   5.843
 8108SOL     OW25222   0.962   3.054   4.169
 8108SOL    HW125223   1.017   3.136   4.152
 8108SOL    HW225224   0.973   3.025   4.264
 8109SOL     OW25225   1.503   4.805   4.877
 8109SOL    HW125226   1.435   4.873   4.903
 8109SOL    HW225227   1.465   4.744   4.808
 8110SOL     OW25228   2.488   5.957   0.394
 8110SOL    HW125229   2.440   5.967   0.307
 8110SOL    HW225230   2.436   5.896   0.454
 8111SOL     OW25231   2.825   5.080   4.589
 8111SOL    HW125232   2.886   5.135   4.646
 8111SOL    HW225233   2.764   5.026   4.646
 8112SOL     OW25234   2.171   0.866   4.898
 8112SOL    HW125235   2.156   0.921   4.980
 8112SOL    HW225236   2.252   0.899   4.849
 8113SOL     OW25237   3.895   2.845   5.984
 8113SOL    HW125238   3.809   2.880   6.020
 8113SOL    HW225239   3.893   2.848   5.884
 8114SOL     OW25240   2.083   2.939   2.056
 8114SOL    HW125241   2.105   2.842   2.055
 8114SOL    HW225242   2.124   2.984   1.977
 8115SOL     OW25243   3.358   1.748   1.177
 8115SOL    HW125244   3.377   1.651   1.163
 8115SOL    HW225245   3.293   1.759   1.253
 8116SOL     OW25246   5.700   0.463   5.212
 8116SOL    HW125247   5.692   0.442   5.310
 8116SOL    HW225248   5.656   0.551   5.193
 8117SOL     OW25249   1.509   1.872   5.295
 8117SOL    HW125250   1.517   1.970   5.313
 8117SOL    HW225251   1.464   1.858   5.207
 8118SOL     OW25252   0.485   3.568   5.346
 8118SOL    HW125253   0.584   3.565   5.336
 8118SOL    HW225254   0.442   3.523   5.268
 8119SOL     OW25255   0.698   6.299   2.930
 8119SOL    HW125256   0.728   6.250   2.849
 8119SOL    HW225257   0.598   6.309   2.928
 8120SOL     OW25258   4.373   4.026   1.417
 8120SOL    HW125259   4.285   3.983   1.399
 8120SOL    HW225260   4.394   4.020   1.514
 8121SOL     OW25261   6.284   0.611   2.729
 8121SOL    HW125262   6.224   0.682   2.768
 8121SOL    HW225263   6.308   0.637   2.635
 8122SOL     OW25264   6.609   6.471   2.353
 8122SOL    HW125265   6.533   6.407   2.369
 8122SOL    HW225266   6.652   6.493   2.441
 8123SOL     OW25267   1.646   6.425   0.017
 8123SOL    HW125268   1.705   6.396   0.093
 8123SOL    HW225269   1.632   6.524   0.022
 8124SOL     OW25270   1.183   6.234   1.953
 8124SOL    HW125271   1.201   6.268   1.861
 8124SOL    HW225272   1.151   6.309   2.010
 8125SOL     OW25273   5.875   5.189   2.855
 8125SOL    HW125274   5.864   5.287   2.840
 8125SOL    HW225275   5.958   5.172   2.908
 8126SOL     OW25276   5.596   4.760   2.678
 8126SOL    HW125277   5.522   4.822   2.704
 8126SOL    HW225278   5.568   4.665   2.695
 8127SOL     OW25279   2.026   4.908   0.072
 8127SOL    HW125280   1.996   4.862   0.155
 8127SOL    HW225281   2.023   4.844   7.023
 8128SOL     OW25282   3.863   2.493   5.325
 8128SOL    HW125283   3.929   2.419   5.339
 8128SOL    HW225284   3.910   2.581   5.334
 8129SOL     OW25285   5.316   0.426   6.335
 8129SOL    HW125286   5.260   0.422   6.253
 8129SOL    HW225287   5.308   0.516   6.377
 8130SOL     OW25288   1.597   5.944   6.965
 8130SOL    HW125289   1.505   5.937   7.004
 8130SOL    HW225290   1.662   5.893   7.022
 8131SOL     OW25291   2.903   1.003   0.432
 8131SOL    HW125292   2.821   0.948   0.447
 8131SOL    HW225293   2.881   1.100   0.443
 8132SOL     OW25294   6.272   5.273   3.927
 8132SOL    HW125295   6.187   5.307   3.968
 8132SOL    HW225296   6.333   5.242   4.000
 8133SOL     OW25297   2.211   5.458   2.528
 8133SOL    HW125298   2.206   5.418   2.437
 8133SOL    HW225299   2.262   5.544   2.525
 8134SOL     OW25300   2.409   2.744   3.658
 8134SOL    HW125301   2.453   2.681   3.594
 8134SOL    HW225302   2.376   2.694   3.738
 8135SOL     OW25303   4.106   5.528   1.965
 8135SOL    HW125304   4.138   5.622   1.961
 8135SOL    HW225305   4.113   5.494   2.059
 8136SOL     OW25306   4.252   5.732   2.394
 8136SOL    HW125307   4.170   5.717   2.450
 8136SOL    HW225308   4.331   5.746   2.454
 8137SOL     OW25309   2.247   4.348   4.814
 8137SOL    HW125310   2.223   4.445   4.822
 8137SOL    HW225311   2.271   4.312   4.905
 8138SOL     OW25312   4.739   0.963   2.690
 8138SOL    HW125313   4.699   1.029   2.627
 8138SOL    HW225314   4.799   1.010   2.755
 8139SOL     OW25315   1.404   1.961   3.352
 8139SOL    HW125316   1.497   1.982   3.385
 8139SOL    HW225317   1.386   2.011   3.268
 8140SOL     OW25318   4.703   0.997   0.714
 8140SOL    HW125319   4.678   1.084   0.755
 8140SOL    HW225320   4.630   0.931   0.728
 8141SOL     OW25321   5.064   1.127   5.292
 8141SOL    HW125322   4.988   1.184   5.262
 8141SOL    HW225323   5.132   1.121   5.218
 8142SOL     OW25324   1.999   5.577   0.441
 8142SOL    HW125325   2.031   5.486   0.468
 8142SOL    HW225326   1.908   5.593   0.480
 8143SOL     OW25327   5.730   4.465   0.695
 8143SOL    HW125328   5.668   4.480   0.772
 8143SOL    HW225329   5.679   4.423   0.620
 8144SOL     OW25330   6.820   4.777   6.259
 8144SOL    HW125331   6.855   4.691   6.296
 8144SOL    HW225332   6.732   4.799   6.302
 8145SOL     OW25333   4.954   5.782   6.938
 8145SOL    HW125334   4.907   5.870   6.939
 8145SOL    HW225335   5.041   5.792   6.890
 8146SOL     OW25336   6.076   0.207   4.633
 8146SOL    HW125337   6.070   0.303   4.603
 8146SOL    HW225338   6.084   0.204   4.732
 8147SOL     OW25339   1.649   0.768   5.996
 8147SOL    HW125340   1.576   0.829   6.028
 8147SOL    HW225341   1.704   0.738   6.073
 8148SOL     OW25342   3.817   4.897   0.205
 8148SOL    HW125343   3.849   4.960   0.134
 8148SOL    HW225344   3.765   4.823   0.164
 8149SOL     OW25345   1.016   5.949   4.700
 8149SOL    HW125346   0.933   5.926   4.650
 8149SOL    HW225347   1.067   5.865   4.721
 8150SOL     OW25348   0.904   3.033   0.603
 8150SOL    HW125349   0.923   3.097   0.529
 8150SOL    HW225350   0.841   2.962   0.572
 8151SOL     OW25351   6.625   4.925   3.423
 8151SOL    HW125352   6.627   4.840   3.476
 8151SOL    HW225353   6.573   4.994   3.473
 8152SOL     OW25354   4.468   1.706   3.190
 8152SOL    HW125355   4.523   1.650   3.251
 8152SOL    HW225356   4.518   1.789   3.165
 8153SOL     OW25357   0.258   2.252   3.653
 8153SOL    HW125358   0.207   2.312   3.715
 8153SOL    HW225359   0.217   2.161   3.653
 8154SOL     OW25360   1.917   1.340   3.704
 8154SOL    HW125361   1.933   1.418   3.765
 8154SOL    HW225362   2.000   1.286   3.696
 8155SOL     OW25363   1.539   5.213   2.408
 8155SOL    HW125364   1.629   5.208   2.450
 8155SOL    HW225365   1.485   5.134   2.436
 8156SOL     OW25366   6.418   5.392   1.417
 8156SOL    HW125367   6.346   5.353   1.475
 8156SOL    HW225368   6.499   5.412   1.472
 8157SOL     OW25369   6.701   2.630   5.773
 8157SOL    HW125370   6.749   2.561   5.827
 8157SOL    HW225371   6.729   2.722   5.803
 8158SOL     OW25372   5.337   4.959   6.396
 8158SOL    HW125373   5.423   5.009   6.401
 8158SOL    HW225374   5.265   5.013   6.440
 8159SOL     OW25375   3.056   6.036   5.184
 8159SOL    HW125376   3.038   6.025   5.086
 8159SOL    HW225377   3.145   5.997   5.205
 8160SOL     OW25378   4.817   1.294   3.479
 8160SOL    HW125379   4.885   1.367   3.479
 8160SOL    HW225380   4.820   1.246   3.567
 8161SOL     OW25381   5.806   2.939   1.086
 8161SOL    HW125382   5.896   2.935   1.131
 8161SOL    HW225383   5.735   2.950   1.155
 8162SOL     OW25384   0.144   4.687   6.445
 8162SOL    HW125385   0.154   4.591   6.469
 8162SOL    HW225386   0.170   4.744   6.524
 8163SOL     OW25387   4.741   4.591   5.126
 8163SOL    HW125388   4.809   4.573   5.197
 8163SOL    HW225389   4.786   4.629   5.046
 8164SOL     OW25390   5.353   1.010   0.201
 8164SOL    HW125391   5.311   0.984   0.288
 8164SOL    HW225392   5.442   0.965   0.193
 8165SOL     OW25393   6.880   1.663   6.690
 8165SOL    HW125394   6.808   1.717   6.646
 8165SOL    HW225395   6.843   1.575   6.719
 8166SOL     OW25396   1.696   2.132   4.904
 8166SOL    HW125397   1.714   2.039   4.935
 8166SOL    HW225398   1.684   2.192   4.983
 8167SOL     OW25399   0.307   2.649   4.261
 8167SOL    HW125400   0.225   2.604   4.225
 8167SOL    HW225401   0.388   2.596   4.237
 8168SOL     OW25402   2.593   0.701   1.767
 8168SOL    HW125403   2.677   0.739   1.805
 8168SOL    HW225404   2.601   0.696   1.667
 8169SOL     OW25405   5.120   2.949   1.115
 8169SOL    HW125406   5.134   3.045   1.139
 8169SOL    HW225407   5.061   2.906   1.183
 8170SOL     OW25408   6.264   4.961   2.309
 8170SOL    HW125409   6.246   5.054   2.341
 8170SOL    HW225410   6.178   4.912   2.298
 8171SOL     OW25411   1.837   1.122   0.646
 8171SOL    HW125412   1.741   1.120   0.616
 8171SOL    HW225413   1.845   1.184   0.725
 8172SOL     OW25414   0.836   2.996   1.764
 8172SOL    HW125415   0.876   3.008   1.855
 8172SOL    HW225416   0.858   3.075   1.707
 8173SOL     OW25417   5.417   0.973   1.727
 8173SOL    HW125418   5.441   1.061   1.767
 8173SOL    HW225419   5.319   0.969   1.712
 8174SOL     OW25420   2.867   5.310   2.421
 8174SOL    HW125421   2.789   5.306   2.359
 8174SOL    HW225422   2.920   5.225   2.416
 8175SOL     OW25423   0.593   1.740   4.888
 8175SOL    HW125424   0.598   1.658   4.832
 8175SOL    HW225425   0.566   1.818   4.831
 8176SOL     OW25426   1.803   4.481   0.768
 8176SOL    HW125427   1.804   4.520   0.676
 8176SOL    HW225428   1.857   4.397   0.769
 8177SOL     OW25429   3.992   1.126   2.718
 8177SOL    HW125430   3.912   1.137   2.659
 8177SOL    HW225431   4.045   1.212   2.719
 8178SOL     OW25432   2.092   6.366   1.058
 8178SOL    HW125433   2.177   6.413   1.035
 8178SOL    HW225434   2.017   6.432   1.059
 8179SOL     OW25435   5.348   1.082   3.379
 8179SOL    HW125436   5.260   1.096   3.423
 8179SOL    HW225437   5.348   0.995   3.331
 8180SOL     OW25438   4.778   6.563   0.163
 8180SOL    HW125439   4.782   6.469   0.128
 8180SOL    HW225440   4.865   6.586   0.206
 8181SOL     OW25441   0.633   0.917   0.665
 8181SOL    HW125442   0.593   0.836   0.708
 8181SOL    HW225443   0.703   0.955   0.725
 8182SOL     OW25444   2.864   3.643   4.790
 8182SOL    HW125445   2.766   3.647   4.770
 8182SOL    HW225446   2.884   3.699   4.871
 8183SOL     OW25447   6.756   0.237   4.968
 8183SOL    HW125448   6.814   0.271   5.042
 8183SOL    HW225449   6.758   0.137   4.967
 8184SOL     OW25450   0.841   6.029   6.548
 8184SOL    HW125451   0.798   6.053   6.635
 8184SOL    HW225452   0.864   6.112   6.497
 8185SOL     OW25453   0.883   6.913   6.968
 8185SOL    HW125454   0.904   6.995   7.020
 8185SOL    HW225455   0.933   6.835   7.007
 8186SOL     OW25456   1.354   5.304   6.838
 8186SOL    HW125457   1.405   5.358   6.771
 8186SOL    HW225458   1.416   5.241   6.884
 8187SOL     OW25459   0.971   0.741   6.272
 8187SOL    HW125460   1.020   0.676   6.214
 8187SOL    HW225461   0.872   0.728   6.261
 8188SOL     OW25462   2.545   1.819   3.767
 8188SOL    HW125463   2.577   1.831   3.673
 8188SOL    HW225464   2.574   1.898   3.822
 8189SOL     OW25465   4.912   4.536   3.866
 8189SOL    HW125466   4.932   4.564   3.772
 8189SOL    HW225467   4.993   4.549   3.923
 8190SOL     OW25468   6.347   3.540   3.412
 8190SOL    HW125469   6.286   3.538   3.333
 8190SOL    HW225470   6.437   3.505   3.386
 8191SOL     OW25471   4.038   5.101   1.662
 8191SOL    HW125472   4.121   5.049   1.678
 8191SOL    HW225473   3.983   5.056   1.592
 8192SOL     OW25474   1.185   5.017   3.994
 8192SOL    HW125475   1.240   4.947   3.948
 8192SOL    HW225476   1.203   5.106   3.953
 8193SOL     OW25477   0.511   3.872   5.084
 8193SOL    HW125478   0.542   3.789   5.038
 8193SOL    HW225479   0.544   3.872   5.179
 8194SOL     OW25480   4.690   6.590   1.918
 8194SOL    HW125481   4.681   6.543   1.830
 8194SOL    HW225482   4.599   6.609   1.955
 8195SOL     OW25483   5.494   6.804   3.421
 8195SOL    HW125484   5.513   6.843   3.331
 8195SOL    HW225485   5.540   6.715   3.429
 8196SOL     OW25486   4.482   6.881   7.020
 8196SOL    HW125487   4.543   6.960   7.021
 8196SOL    HW225488   4.431   6.879   6.933
 8197SOL     OW25489   4.767   1.853   1.861
 8197SOL    HW125490   4.809   1.841   1.952
 8197SOL    HW225491   4.670   1.873   1.872
 8198SOL     OW25492   2.046   0.317   2.337
 8198SOL    HW125493   1.978   0.246   2.323
 8198SOL    HW225494   2.138   0.279   2.323
 8199SOL     OW25495   5.299   2.878   5.728
 8199SOL    HW125496   5.378   2.817   5.718
 8199SOL    HW225497   5.296   2.941   5.650
 8200SOL     OW25498   4.233   3.214   1.469
 8200SOL    HW125499   4.314   3.156   1.463
 8200SOL    HW225500   4.226   3.253   1.561
 8201SOL     OW25501   6.849   6.879   5.435
 8201SOL    HW125502   6.890   6.865   5.526
 8201SOL    HW225503   6.759   6.921   5.446
 8202SOL     OW25504   0.680   6.075   2.304
 8202SOL    HW125505   0.636   6.164   2.314
 8202SOL    HW225506   0.619   6.004   2.340
 8203SOL     OW25507   1.322   3.074   1.147
 8203SOL    HW125508   1.286   3.006   1.083
 8203SOL    HW225509   1.404   3.115   1.109
 8204SOL     OW25510   3.962   3.154   1.549
 8204SOL    HW125511   4.031   3.082   1.556
 8204SOL    HW225512   3.984   3.226   1.616
 8205SOL     OW25513   1.286   3.391   0.763
 8205SOL    HW125514   1.284   3.299   0.724
 8205SOL    HW225515   1.338   3.390   0.848
 8206SOL     OW25516   4.076   1.340   6.599
 8206SOL    HW125517   4.126   1.362   6.683
 8206SOL    HW225518   4.006   1.410   6.582
 8207SOL     OW25519   3.881   3.150   4.713
 8207SOL    HW125520   3.889   3.247   4.739
 8207SOL    HW225521   3.925   3.136   4.625
 8208SOL     OW25522   1.889   0.980   0.248
 8208SOL    HW125523   1.869   0.961   0.152
 8208SOL    HW225524   1.936   1.067   0.256
 8209SOL     OW25525   6.514   0.713   5.475
 8209SOL    HW125526   6.447   0.639   5.474
 8209SOL    HW225527   6.597   0.683   5.426
 8210SOL     OW25528   2.021   3.067   0.551
 8210SOL    HW125529   2.032   2.970   0.573
 8210SOL    HW225530   1.923   3.088   0.540
 8211SOL     OW25531   2.875   4.317   0.845
 8211SOL    HW125532   2.917   4.247   0.903
 8211SOL    HW225533   2.785   4.341   0.881
 8212SOL     OW25534   1.705   2.365   3.326
 8212SOL    HW125535   1.710   2.339   3.422
 8212SOL    HW225536   1.708   2.282   3.269
 8213SOL     OW25537   0.507   4.585   1.611
 8213SOL    HW125538   0.531   4.682   1.614
 8213SOL    HW225539   0.563   4.534   1.677
 8214SOL     OW25540   5.481   4.245   2.785
 8214SOL    HW125541   5.524   4.158   2.808
 8214SOL    HW225542   5.390   4.227   2.746
 8215SOL     OW25543   3.554   5.004   5.043
 8215SOL    HW125544   3.504   4.949   4.976
 8215SOL    HW225545   3.536   5.101   5.026
 8216SOL     OW25546   4.662   4.513   3.991
 8216SOL    HW125547   4.750   4.503   3.944
 8216SOL    HW225548   4.665   4.466   4.079
 8217SOL     OW25549   2.114   6.207   0.671
 8217SOL    HW125550   2.174   6.287   0.667
 8217SOL    HW225551   2.072   6.200   0.761
 8218SOL     OW25552   0.564   1.498   0.218
 8218SOL    HW125553   0.602   1.435   0.285
 8218SOL    HW225554   0.523   1.577   0.265
 8219SOL     OW25555   5.694   1.879   6.147
 8219SOL    HW125556   5.755   1.874   6.068
 8219SOL    HW225557   5.727   1.816   6.218
 8220SOL     OW25558   3.659   3.618   2.498
 8220SOL    HW125559   3.602   3.629   2.579
 8220SOL    HW225560   3.741   3.674   2.507
 8221SOL     OW25561   5.702   5.923   3.628
 8221SOL    HW125562   5.724   5.945   3.723
 8221SOL    HW225563   5.612   5.961   3.605
 8222SOL     OW25564   5.959   1.276   1.733
 8222SOL    HW125565   5.973   1.371   1.763
 8222SOL    HW225566   6.022   1.255   1.658
 8223SOL     OW25567   0.825   4.395   6.242
 8223SOL    HW125568   0.810   4.412   6.339
 8223SOL    HW225569   0.747   4.428   6.190
 8224SOL     OW25570   0.858   3.041   2.875
 8224SOL    HW125571   0.780   3.068   2.931
 8224SOL    HW225572   0.911   3.122   2.850
 8225SOL     OW25573   5.009   1.584   6.479
 8225SOL    HW125574   5.066   1.601   6.559
 8225SOL    HW225575   4.923   1.542   6.507
 8226SOL     OW25576   5.133   0.314   1.089
 8226SOL    HW125577   5.098   0.342   1.000
 8226SOL    HW225578   5.099   0.377   1.159
 8227SOL     OW25579   6.358   3.086   3.332
 8227SOL    HW125580   6.406   3.169   3.359
 8227SOL    HW225581   6.308   3.104   3.247
 8228SOL     OW25582   6.913   2.518   4.995
 8228SOL    HW125583   6.908   2.471   4.907
 8228SOL    HW225584   6.822   2.522   5.036
 8229SOL     OW25585   3.294   5.445   6.911
 8229SOL    HW125586   3.224   5.375   6.928
 8229SOL    HW225587   3.356   5.450   6.989
 8230SOL     OW25588   5.005   0.183   4.990
 8230SOL    HW125589   5.037   0.277   4.998
 8230SOL    HW225590   4.997   0.157   4.894
 8231SOL     OW25591   5.535   5.190   0.855
 8231SOL    HW125592   5.500   5.133   0.780
 8231SOL    HW225593   5.492   5.163   0.941
 8232SOL     OW25594   4.025   1.479   0.022
 8232SOL    HW125595   4.053   1.383   0.034
 8232SOL    HW225596   3.930   1.489   0.051
 8233SOL     OW25597   1.104   5.448   6.002
 8233SOL    HW125598   1.087   5.546   5.993
 8233SOL    HW225599   1.055   5.413   6.082
 8234SOL     OW25600   3.146   2.237   6.692
 8234SOL    HW125601   3.111   2.152   6.653
 8234SOL    HW225602   3.070   2.291   6.727
 8235SOL     OW25603   3.943   3.680   1.216
 8235SOL    HW125604   3.873   3.638   1.158
 8235SOL    HW225605   3.899   3.743   1.281
 8236SOL     OW25606   6.712   2.798   0.293
 8236SOL    HW125607   6.717   2.716   0.349
 8236SOL    HW225608   6.616   2.820   0.275
 8237SOL     OW25609   3.964   5.605   5.349
 8237SOL    HW125610   4.010   5.551   5.421
 8237SOL    HW225611   3.871   5.626   5.378
 8238SOL     OW25612   2.387   3.575   6.827
 8238SOL    HW125613   2.312   3.535   6.881
 8238SOL    HW225614   2.413   3.510   6.755
 8239SOL     OW25615   6.904   1.746   5.491
 8239SOL    HW125616   6.945   1.824   5.540
 8239SOL    HW225617   6.860   1.779   5.408
 8240SOL     OW25618   3.268   4.109   2.560
 8240SOL    HW125619   3.196   4.161   2.608
 8240SOL    HW225620   3.345   4.093   2.622
 8241SOL     OW25621   3.280   6.963   0.126
 8241SOL    HW125622   3.250   6.868   0.120
 8241SOL    HW225623   3.375   6.966   0.157
 8242SOL     OW25624   0.669   4.334   5.627
 8242SOL    HW125625   0.654   4.292   5.538
 8242SOL    HW225626   0.685   4.263   5.696
 8243SOL     OW25627   0.439   3.007   5.937
 8243SOL    HW125628   0.530   2.972   5.916
 8243SOL    HW225629   0.432   3.027   6.034
 8244SOL     OW25630   1.060   6.488   3.747
 8244SOL    HW125631   1.057   6.460   3.651
 8244SOL    HW225632   1.076   6.587   3.752
 8245SOL     OW25633   4.683   1.972   0.922
 8245SOL    HW125634   4.708   2.058   0.878
 8245SOL    HW225635   4.757   1.945   0.985
 8246SOL     OW25636   5.947   3.864   6.179
 8246SOL    HW125637   5.914   3.916   6.257
 8246SOL    HW225638   5.871   3.813   6.138
 8247SOL     OW25639   0.687   0.276   1.506
 8247SOL    HW125640   0.685   0.322   1.417
 8247SOL    HW225641   0.778   0.284   1.545
 8248SOL     OW25642   5.758   4.293   3.405
 8248SOL    HW125643   5.766   4.382   3.450
 8248SOL    HW225644   5.750   4.306   3.306
 8249SOL     OW25645   1.839   4.352   4.448
 8249SOL    HW125646   1.823   4.256   4.471
 8249SOL    HW225647   1.928   4.380   4.483
 8250SOL     OW25648   3.502   4.061   3.097
 8250SOL    HW125649   3.447   4.109   3.030
 8250SOL    HW225650   3.529   4.124   3.170
 8251SOL     OW25651   5.539   1.861   4.810
 8251SOL    HW125652   5.510   1.954   4.788
 8251SOL    HW225653   5.586   1.861   4.898
 8252SOL     OW25654   2.652   3.031   5.850
 8252SOL    HW125655   2.646   2.933   5.867
 8252SOL    HW225656   2.560   3.070   5.849
 8253SOL     OW25657   3.132   2.798   5.231
 8253SOL    HW125658   3.205   2.760   5.288
 8253SOL    HW225659   3.136   2.758   5.140
 8254SOL     OW25660   4.252   4.706   4.341
 8254SOL    HW125661   4.325   4.728   4.406
 8254SOL    HW225662   4.281   4.629   4.284
 8255SOL     OW25663   4.500   5.592   3.896
 8255SOL    HW125664   4.496   5.687   3.867
 8255SOL    HW225665   4.549   5.584   3.983
 8256SOL     OW25666   5.174   1.203   4.146
 8256SOL    HW125667   5.140   1.113   4.175
 8256SOL    HW225668   5.163   1.268   4.220
 8257SOL     OW25669   5.567   4.511   3.321
 8257SOL    HW125670   5.594   4.579   3.389
 8257SOL    HW225671   5.636   4.507   3.249
 8258SOL     OW25672   4.775   1.282   0.426
 8258SOL    HW125673   4.785   1.308   0.522
 8258SOL    HW225674   4.719   1.199   0.420
 8259SOL     OW25675   3.322   1.744   3.599
 8259SOL    HW125676   3.268   1.766   3.680
 8259SOL    HW225677   3.344   1.828   3.550
 8260SOL     OW25678   2.898   6.701   2.098
 8260SOL    HW125679   2.843   6.775   2.059
 8260SOL    HW225680   2.992   6.710   2.067
 8261SOL     OW25681   5.524   1.073   1.161
 8261SOL    HW125682   5.615   1.071   1.120
 8261SOL    HW225683   5.520   1.144   1.231
 8262SOL     OW25684   0.996   2.486   1.583
 8262SOL    HW125685   0.928   2.485   1.510
 8262SOL    HW225686   1.027   2.580   1.597
 8263SOL     OW25687   6.858   1.380   1.514
 8263SOL    HW125688   6.808   1.465   1.502
 8263SOL    HW225689   6.859   1.329   1.428
 8264SOL     OW25690   1.376   5.732   2.424
 8264SOL    HW125691   1.466   5.768   2.450
 8264SOL    HW225692   1.376   5.633   2.436
 8265SOL     OW25693   1.424   0.633   1.582
 8265SOL    HW125694   1.346   0.596   1.531
 8265SOL    HW225695   1.483   0.684   1.519
 8266SOL     OW25696   2.430   6.734   2.914
 8266SOL    HW125697   2.354   6.785   2.873
 8266SOL    HW225698   2.506   6.797   2.930
 8267SOL     OW25699   1.734   3.519   1.117
 8267SOL    HW125700   1.708   3.614   1.135
 8267SOL    HW225701   1.822   3.500   1.160
 8268SOL     OW25702   2.471   6.975   6.281
 8268SOL    HW125703   2.525   6.901   6.241
 8268SOL    HW225704   2.412   7.014   6.211
 8269SOL     OW25705   5.595   1.749   1.078
 8269SOL    HW125706   5.625   1.796   1.160
 8269SOL    HW225707   5.499   1.772   1.060
 8270SOL     OW25708   3.343   6.486   4.084
 8270SOL    HW125709   3.265   6.454   4.137
 8270SOL    HW225710   3.359   6.583   4.104
 8271SOL     OW25711   6.779   1.865   2.774
 8271SOL    HW125712   6.811   1.954   2.744
 8271SOL    HW225713   6.803   1.851   2.870
 8272SOL     OW25714   4.877   0.283   2.078
 8272SOL    HW125715   4.881   0.311   2.173
 8272SOL    HW225716   4.908   0.188   2.070
 8273SOL     OW25717   1.920   0.199   1.228
 8273SOL    HW125718   1.960   0.137   1.296
 8273SOL    HW225719   1.874   0.146   1.157
 8274SOL     OW25720   4.261   5.198   3.398
 8274SOL    HW125721   4.295   5.283   3.438
 8274SOL    HW225722   4.275   5.199   3.299
 8275SOL     OW25723   4.843   2.210   6.161
 8275SOL    HW125724   4.818   2.118   6.131
 8275SOL    HW225725   4.941   2.223   6.152
 8276SOL     OW25726   1.246   2.188   4.295
 8276SOL    HW125727   1.184   2.152   4.365
 8276SOL    HW225728   1.314   2.119   4.272
 8277SOL     OW25729   6.595   0.224   6.415
 8277SOL    HW125730   6.566   0.257   6.504
 8277SOL    HW225731   6.550   0.137   6.395
 8278SOL     OW25732   2.745   1.859   0.258
 8278SOL    HW125733   2.812   1.787   0.272
 8278SOL    HW225734   2.709   1.889   0.346
 8279SOL     OW25735   0.702   6.336   4.096
 8279SOL    HW125736   0.719   6.255   4.152
 8279SOL    HW225737   0.761   6.334   4.015
 8280SOL     OW25738   3.174   2.592   6.525
 8280SOL    HW125739   3.247   2.525   6.540
 8280SOL    HW225740   3.211   2.684   6.541
 8281SOL     OW25741   0.737   5.539   1.617
 8281SOL    HW125742   0.789   5.607   1.668
 8281SOL    HW225743   0.784   5.451   1.621
 8282SOL     OW25744   5.120   2.881   6.108
 8282SOL    HW125745   5.134   2.804   6.045
 8282SOL    HW225746   5.180   2.957   6.082
 8283SOL     OW25747   1.117   4.535   5.852
 8283SOL    HW125748   1.080   4.530   5.945
 8283SOL    HW225749   1.151   4.627   5.835
 8284SOL     OW25750   0.474   4.294   1.979
 8284SOL    HW125751   0.552   4.350   1.954
 8284SOL    HW225752   0.479   4.206   1.931
 8285SOL     OW25753   4.053   3.645   5.055
 8285SOL    HW125754   4.038   3.555   5.097
 8285SOL    HW225755   4.090   3.707   5.123
 8286SOL     OW25756   6.421   2.494   5.554
 8286SOL    HW125757   6.504   2.535   5.515
 8286SOL    HW225758   6.400   2.538   5.641
 8287SOL     OW25759   1.134   5.503   4.349
 8287SOL    HW125760   1.205   5.467   4.288
 8287SOL    HW225761   1.066   5.432   4.368
 8288SOL     OW25762   2.719   2.304   2.989
 8288SOL    HW125763   2.802   2.248   2.983
 8288SOL    HW225764   2.711   2.360   2.907
 8289SOL     OW25765   0.999   0.463   0.411
 8289SOL    HW125766   1.049   0.399   0.470
 8289SOL    HW225767   1.038   0.554   0.420
 8290SOL     OW25768   6.398   1.669   0.574
 8290SOL    HW125769   6.374   1.766   0.567
 8290SOL    HW225770   6.465   1.657   0.647
 8291SOL     OW25771   4.129   0.221   6.507
 8291SOL    HW125772   4.176   0.224   6.419
 8291SOL    HW225773   4.033   0.197   6.492
 8292SOL     OW25774   2.617   6.580   0.650
 8292SOL    HW125775   2.546   6.637   0.692
 8292SOL    HW225776   2.703   6.630   0.648
 8293SOL     OW25777   4.425   6.630   5.985
 8293SOL    HW125778   4.498   6.635   5.917
 8293SOL    HW225779   4.386   6.537   5.985
 8294SOL     OW25780   6.278   2.413   6.718
 8294SOL    HW125781   6.351   2.373   6.773
 8294SOL    HW225782   6.304   2.412   6.622
 8295SOL     OW25783   5.690   4.890   1.705
 8295SOL    HW125784   5.618   4.821   1.707
 8295SOL    HW225785   5.651   4.979   1.728
 8296SOL     OW25786   1.285   6.157   6.585
 8296SOL    HW125787   1.278   6.242   6.637
 8296SOL    HW225788   1.256   6.081   6.642
 8297SOL     OW25789   6.330   2.229   3.188
 8297SOL    HW125790   6.302   2.194   3.099
 8297SOL    HW225791   6.427   2.251   3.187
 8298SOL     OW25792   4.922   1.424   1.577
 8298SOL    HW125793   4.877   1.494   1.632
 8298SOL    HW225794   5.014   1.409   1.612
 8299SOL     OW25795   0.282   2.951   2.003
 8299SOL    HW125796   0.276   2.997   1.915
 8299SOL    HW225797   0.378   2.934   2.025
 8300SOL     OW25798   0.993   4.483   4.886
 8300SOL    HW125799   1.008   4.410   4.953
 8300SOL    HW225800   0.911   4.535   4.912
 8301SOL     OW25801   4.387   2.405   1.189
 8301SOL    HW125802   4.443   2.324   1.198
 8301SOL    HW225803   4.395   2.441   1.096
 8302SOL     OW25804   6.068   6.664   6.531
 8302SOL    HW125805   6.134   6.629   6.598
 8302SOL    HW225806   6.102   6.748   6.490
 8303SOL     OW25807   0.529   0.149   4.387
 8303SOL    HW125808   0.604   0.211   4.406
 8303SOL    HW225809   0.546   0.060   4.429
 8304SOL     OW25810   0.584   3.936   6.545
 8304SOL    HW125811   0.548   3.847   6.521
 8304SOL    HW225812   0.514   3.989   6.594
 8305SOL     OW25813   2.953   5.318   3.755
 8305SOL    HW125814   3.039   5.269   3.765
 8305SOL    HW225815   2.908   5.324   3.844
 8306SOL     OW25816   0.820   2.396   5.577
 8306SOL    HW125817   0.790   2.490   5.590
 8306SOL    HW225818   0.899   2.378   5.635
 8307SOL     OW25819   3.534   5.157   0.985
 8307SOL    HW125820   3.626   5.190   1.007
 8307SOL    HW225821   3.466   5.223   1.019
 8308SOL     OW25822   4.125   6.683   1.798
 8308SOL    HW125823   4.068   6.736   1.861
 8308SOL    HW225824   4.132   6.732   1.711
 8309SOL     OW25825   6.078   5.995   2.866
 8309SOL    HW125826   6.144   6.015   2.793
 8309SOL    HW225827   5.986   6.000   2.829
 8310SOL     OW25828   0.825   4.444   0.799
 8310SOL    HW125829   0.857   4.487   0.883
 8310SOL    HW225830   0.736   4.481   0.774
 8311SOL     OW25831   6.909   0.931   6.467
 8311SOL    HW125832   6.934   0.848   6.417
 8311SOL    HW225833   6.974   0.946   6.541
 8312SOL     OW25834   4.779   6.547   1.504
 8312SOL    HW125835   4.724   6.487   1.562
 8312SOL    HW225836   4.872   6.554   1.540
 8313SOL     OW25837   3.918   1.659   3.001
 8313SOL    HW125838   3.863   1.576   2.992
 8313SOL    HW225839   3.966   1.676   2.915
 8314SOL     OW25840   5.808   6.727   1.381
 8314SOL    HW125841   5.803   6.656   1.311
 8314SOL    HW225842   5.844   6.688   1.465
 8315SOL     OW25843   4.785   3.035   0.797
 8315SOL    HW125844   4.818   3.028   0.703
 8315SOL    HW225845   4.687   3.014   0.800
 8316SOL     OW25846   0.937   4.179   0.932
 8316SOL    HW125847   0.985   4.227   1.006
 8316SOL    HW225848   0.875   4.243   0.887
 8317SOL     OW25849   1.812   3.711   2.892
 8317SOL    HW125850   1.826   3.685   2.797
 8317SOL    HW225851   1.874   3.786   2.917
 8318SOL     OW25852   4.332   1.582   4.927
 8318SOL    HW125853   4.371   1.509   4.983
 8318SOL    HW225854   4.237   1.597   4.954
 8319SOL     OW25855   3.400   1.258   5.502
 8319SOL    HW125856   3.424   1.353   5.481
 8319SOL    HW225857   3.336   1.223   5.433
 8320SOL     OW25858   3.184   4.760   1.353
 8320SOL    HW125859   3.126   4.809   1.287
 8320SOL    HW225860   3.166   4.662   1.345
 8321SOL     OW25861   0.251   1.252   0.075
 8321SOL    HW125862   0.169   1.199   0.052
 8321SOL    HW225863   0.274   1.238   0.172
 8322SOL     OW25864   0.050   0.142   6.918
 8322SOL    HW125865   0.009   0.054   6.942
 8322SOL    HW225866   0.069   0.145   6.820
 8323SOL     OW25867   1.039   0.617   2.423
 8323SOL    HW125868   0.973   0.670   2.369
 8323SOL    HW225869   1.031   0.642   2.519
 8324SOL     OW25870   6.340   0.572   2.198
 8324SOL    HW125871   6.297   0.654   2.161
 8324SOL    HW225872   6.276   0.524   2.257
 8325SOL     OW25873   4.016   3.080   4.107
 8325SOL    HW125874   4.099   3.073   4.051
 8325SOL    HW225875   3.951   3.142   4.063
 8326SOL     OW25876   4.546   3.396   5.538
 8326SOL    HW125877   4.548   3.454   5.620
 8326SOL    HW225878   4.508   3.447   5.461
 8327SOL     OW25879   5.424   2.214   5.843
 8327SOL    HW125880   5.449   2.179   5.933
 8327SOL    HW225881   5.358   2.288   5.853
 8328SOL     OW25882   2.338   3.936   6.212
 8328SOL    HW125883   2.413   3.871   6.222
 8328SOL    HW225884   2.367   4.013   6.155
 8329SOL     OW25885   0.430   3.011   5.173
 8329SOL    HW125886   0.470   3.067   5.100
 8329SOL    HW225887   0.368   2.943   5.132
 8330SOL     OW25888   1.709   6.386   0.955
 8330SOL    HW125889   1.765   6.465   0.980
 8330SOL    HW225890   1.704   6.378   0.856
 8331SOL     OW25891   3.488   0.129   1.322
 8331SOL    HW125892   3.398   0.167   1.343
 8331SOL    HW225893   3.556   0.202   1.324
 8332SOL     OW25894   4.729   4.961   1.707
 8332SOL    HW125895   4.654   4.895   1.709
 8332SOL    HW225896   4.782   4.954   1.791
 8333SOL     OW25897   0.667   5.877   6.927
 8333SOL    HW125898   0.633   5.958   6.879
 8333SOL    HW225899   0.590   5.815   6.944
 8334SOL     OW25900   5.759   1.492   3.818
 8334SOL    HW125901   5.683   1.433   3.843
 8334SOL    HW225902   5.725   1.583   3.794
 8335SOL     OW25903   6.146   5.902   5.821
 8335SOL    HW125904   6.142   5.879   5.723
 8335SOL    HW225905   6.067   5.958   5.845
 8336SOL     OW25906   0.103   1.694   2.568
 8336SOL    HW125907   0.005   1.700   2.550
 8336SOL    HW225908   0.120   1.706   2.665
 8337SOL     OW25909   0.666   6.376   3.347
 8337SOL    HW125910   0.725   6.296   3.334
 8337SOL    HW225911   0.571   6.350   3.335
 8338SOL     OW25912   1.945   4.919   1.471
 8338SOL    HW125913   1.896   5.006   1.466
 8338SOL    HW225914   1.880   4.843   1.467
 8339SOL     OW25915   6.185   0.976   2.549
 8339SOL    HW125916   6.135   1.022   2.475
 8339SOL    HW225917   6.205   1.041   2.621
 8340SOL     OW25918   4.831   3.772   0.855
 8340SOL    HW125919   4.830   3.785   0.954
 8340SOL    HW225920   4.761   3.706   0.829
 8341SOL     OW25921   1.917   0.084   0.417
 8341SOL    HW125922   1.901   0.071   0.515
 8341SOL    HW225923   1.842   0.042   0.365
 8342SOL     OW25924   3.748   0.641   0.940
 8342SOL    HW125925   3.651   0.655   0.958
 8342SOL    HW225926   3.761   0.606   0.847
 8343SOL     OW25927   1.742   5.529   5.976
 8343SOL    HW125928   1.693   5.593   6.035
 8343SOL    HW225929   1.728   5.436   6.009
 8344SOL     OW25930   4.099   6.078   6.106
 8344SOL    HW125931   4.015   6.089   6.052
 8344SOL    HW225932   4.110   6.157   6.167
 8345SOL     OW25933   5.781   1.770   3.183
 8345SOL    HW125934   5.780   1.763   3.083
 8345SOL    HW225935   5.848   1.840   3.210
 8346SOL     OW25936   2.462   4.880   0.521
 8346SOL    HW125937   2.420   4.855   0.608
 8346SOL    HW225938   2.524   4.807   0.492
 8347SOL     OW25939   2.612   6.381   5.211
 8347SOL    HW125940   2.535   6.414   5.266
 8347SOL    HW225941   2.678   6.336   5.270
 8348SOL     OW25942   1.168   0.710   1.037
 8348SOL    HW125943   1.181   0.611   1.046
 8348SOL    HW225944   1.238   0.757   1.092
 8349SOL     OW25945   5.621   3.747   0.885
 8349SOL    HW125946   5.594   3.843   0.878
 8349SOL    HW225947   5.626   3.708   0.793
 8350SOL     OW25948   6.209   1.002   4.766
 8350SOL    HW125949   6.122   1.027   4.724
 8350SOL    HW225950   6.274   0.976   4.695
 8351SOL     OW25951   3.508   5.947   4.239
 8351SOL    HW125952   3.550   6.026   4.195
 8351SOL    HW225953   3.436   5.911   4.181
 8352SOL     OW25954   6.659   0.022   2.063
 8352SOL    HW125955   6.564   0.024   2.033
 8352SOL    HW225956   6.705   6.970   2.024
 8353SOL     OW25957   5.938   3.432   2.339
 8353SOL    HW125958   5.921   3.454   2.243
 8353SOL    HW225959   6.012   3.365   2.345
 8354SOL     OW25960   3.015   1.577   6.685
 8354SOL    HW125961   2.998   1.489   6.730
 8354SOL    HW225962   2.939   1.639   6.704
 8355SOL     OW25963   2.960   0.499   0.138
 8355SOL    HW125964   2.935   0.594   0.120
 8355SOL    HW225965   2.945   0.479   0.235
 8356SOL     OW25966   1.098   6.362   0.263
 8356SOL    HW125967   1.087   6.383   0.360
 8356SOL    HW225968   1.173   6.416   0.226
 8357SOL     OW25969   3.380   5.225   4.692
 8357SOL    HW125970   3.386   5.187   4.600
 8357SOL    HW225971   3.472   5.238   4.729
 8358SOL     OW25972   1.726   2.343   5.616
 8358SOL    HW125973   1.678   2.263   5.652
 8358SOL    HW225974   1.728   2.415   5.686
 8359SOL     OW25975   4.066   5.577   4.506
 8359SOL    HW125976   3.995   5.530   4.454
 8359SOL    HW225977   4.083   5.667   4.464
 8360SOL     OW25978   4.158   6.981   2.840
 8360SOL    HW125979   4.247   6.941   2.861
 8360SOL    HW225980   4.086   6.913   2.853
 8361SOL     OW25981   1.845   1.594   2.457
 8361SOL    HW125982   1.872   1.643   2.539
 8361SOL    HW225983   1.875   1.645   2.376
 8362SOL     OW25984   2.521   2.804   0.679
 8362SOL    HW125985   2.431   2.772   0.710
 8362SOL    HW225986   2.581   2.725   0.665
 8363SOL     OW25987   1.158   2.864   0.583
 8363SOL    HW125988   1.090   2.792   0.599
 8363SOL    HW225989   1.118   2.953   0.604
 8364SOL     OW25990   6.278   3.432   2.919
 8364SOL    HW125991   6.271   3.333   2.917
 8364SOL    HW225992   6.273   3.467   2.825
 8365SOL     OW25993   1.791   3.560   0.676
 8365SOL    HW125994   1.807   3.487   0.742
 8365SOL    HW225995   1.873   3.574   0.620
 8366SOL     OW25996   4.739   6.131   2.563
 8366SOL    HW125997   4.814   6.091   2.616
 8366SOL    HW225998   4.774   6.206   2.506
 8367SOL     OW25999   4.502   6.194   3.564
 8367SOL    HW126000   4.555   6.176   3.648
 8367SOL    HW226001   4.551   6.156   3.486
 8368SOL     OW26002   2.754   5.562   6.119
 8368SOL    HW126003   2.713   5.519   6.200
 8368SOL    HW226004   2.791   5.491   6.059
 8369SOL     OW26005   2.135   0.677   0.103
 8369SOL    HW126006   2.038   0.687   0.122
 8369SOL    HW226007   2.184   0.759   0.134
 8370SOL     OW26008   1.937   2.124   6.204
 8370SOL    HW126009   1.972   2.214   6.229
 8370SOL    HW226010   1.849   2.133   6.157
 8371SOL     OW26011   1.354   3.161   0.654
 8371SOL    HW126012   1.432   3.180   0.713
 8371SOL    HW226013   1.383   3.106   0.576
 8372SOL     OW26014   0.468   0.259   2.641
 8372SOL    HW126015   0.471   0.166   2.604
 8372SOL    HW226016   0.392   0.266   2.706
 8373SOL     OW26017   0.974   6.594   5.519
 8373SOL    HW126018   0.954   6.658   5.593
 8373SOL    HW226019   0.998   6.505   5.557
 8374SOL     OW26020   6.421   0.922   6.907
 8374SOL    HW126021   6.452   0.827   6.915
 8374SOL    HW226022   6.500   0.982   6.901
 8375SOL     OW26023   3.362   5.677   5.768
 8375SOL    HW126024   3.416   5.594   5.756
 8375SOL    HW226025   3.285   5.677   5.704
 8376SOL     OW26026   2.746   0.375   4.048
 8376SOL    HW126027   2.734   0.387   3.949
 8376SOL    HW226028   2.755   0.465   4.091
 8377SOL     OW26029   5.922   5.986   1.112
 8377SOL    HW126030   5.887   6.036   1.033
 8377SOL    HW226031   5.898   5.889   1.103
 8378SOL     OW26032   5.282   3.077   3.097
 8378SOL    HW126033   5.255   3.156   3.042
 8378SOL    HW226034   5.200   3.031   3.133
 8379SOL     OW26035   6.263   3.981   2.224
 8379SOL    HW126036   6.182   4.021   2.267
 8379SOL    HW226037   6.344   4.035   2.248
 8380SOL     OW26038   6.001   1.141   2.429
 8380SOL    HW126039   5.923   1.093   2.389
 8380SOL    HW226040   5.968   1.214   2.489
 8381SOL     OW26041   1.130   5.356   4.771
 8381SOL    HW126042   1.226   5.369   4.748
 8381SOL    HW226043   1.098   5.432   4.827
 8382SOL     OW26044   1.562   1.956   2.596
 8382SOL    HW126045   1.565   2.001   2.685
 8382SOL    HW226046   1.545   1.858   2.609
 8383SOL     OW26047   2.905   2.351   6.772
 8383SOL    HW126048   2.916   2.415   6.848
 8383SOL    HW226049   2.852   2.393   6.699
 8384SOL     OW26050   6.806   6.175   0.962
 8384SOL    HW126051   6.811   6.274   0.979
 8384SOL    HW226052   6.857   6.153   0.878
 8385SOL     OW26053   4.860   2.041   2.161
 8385SOL    HW126054   4.942   2.065   2.212
 8385SOL    HW226055   4.797   1.991   2.220
 8386SOL     OW26056   0.868   4.125   2.866
 8386SOL    HW126057   0.769   4.138   2.875
 8386SOL    HW226058   0.897   4.049   2.923
 8387SOL     OW26059   1.720   1.286   1.121
 8387SOL    HW126060   1.769   1.363   1.160
 8387SOL    HW226061   1.659   1.246   1.189
 8388SOL     OW26062   2.956   6.044   1.714
 8388SOL    HW126063   2.988   6.058   1.807
 8388SOL    HW226064   2.856   6.043   1.712
 8389SOL     OW26065   5.391   2.639   2.038
 8389SOL    HW126066   5.378   2.679   1.947
 8389SOL    HW226067   5.340   2.693   2.105
 8390SOL     OW26068   4.093   2.038   5.718
 8390SOL    HW126069   4.165   1.971   5.703
 8390SOL    HW226070   4.004   1.992   5.717
 8391SOL     OW26071   6.317   0.004   0.247
 8391SOL    HW126072   6.241   0.054   0.204
 8391SOL    HW226073   6.363   0.064   0.312
 8392SOL     OW26074   5.882   3.520   4.589
 8392SOL    HW126075   5.862   3.463   4.669
 8392SOL    HW226076   5.830   3.485   4.510
 8393SOL     OW26077   4.996   0.034   1.961
 8393SOL    HW126078   4.965   6.971   1.933
 8393SOL    HW226079   5.042   0.078   1.884
 8394SOL     OW26080   6.056   3.991   2.590
 8394SOL    HW126081   6.050   4.091   2.593
 8394SOL    HW226082   6.112   3.958   2.666
 8395SOL     OW26083   2.112   0.597   5.346
 8395SOL    HW126084   2.121   0.498   5.349
 8395SOL    HW226085   2.044   0.622   5.276
 8396SOL     OW26086   4.584   5.798   4.974
 8396SOL    HW126087   4.629   5.724   4.924
 8396SOL    HW226088   4.487   5.800   4.951
 8397SOL     OW26089   6.701   1.436   3.854
 8397SOL    HW126090   6.726   1.414   3.759
 8397SOL    HW226091   6.776   1.485   3.897
 8398SOL     OW26092   5.382   1.955   5.735
 8398SOL    HW126093   5.412   2.049   5.753
 8398SOL    HW226094   5.326   1.952   5.653
 8399SOL     OW26095   0.185   5.764   6.953
 8399SOL    HW126096   0.171   5.827   6.877
 8399SOL    HW226097   0.097   5.730   6.985
 8400SOL     OW26098   1.728   1.962   4.155
 8400SOL    HW126099   1.779   1.882   4.124
 8400SOL    HW226100   1.789   2.042   4.157
 8401SOL     OW26101   2.376   0.333   5.619
 8401SOL    HW126102   2.341   0.286   5.538
 8401SOL    HW226103   2.429   0.413   5.591
 8402SOL     OW26104   4.555   0.926   5.794
 8402SOL    HW126105   4.562   1.009   5.850
 8402SOL    HW226106   4.469   0.880   5.813
 8403SOL     OW26107   6.239   4.337   4.120
 8403SOL    HW126108   6.158   4.347   4.179
 8403SOL    HW226109   6.286   4.252   4.144
 8404SOL     OW26110   2.280   2.026   6.429
 8404SOL    HW126111   2.329   1.996   6.511
 8404SOL    HW226112   2.186   1.993   6.432
 8405SOL     OW26113   3.783   1.515   5.387
 8405SOL    HW126114   3.820   1.554   5.472
 8405SOL    HW226115   3.795   1.580   5.313
 8406SOL     OW26116   4.798   0.917   6.111
 8406SOL    HW126117   4.802   0.833   6.164
 8406SOL    HW226118   4.727   0.908   6.040
 8407SOL     OW26119   3.433   6.340   3.455
 8407SOL    HW126120   3.478   6.271   3.512
 8407SOL    HW226121   3.421   6.424   3.507
 8408SOL     OW26122   5.171   7.012   0.738
 8408SOL    HW126123   5.170   0.072   0.691
 8408SOL    HW226124   5.087   6.962   0.719
 8409SOL     OW26125   4.523   2.536   1.898
 8409SOL    HW126126   4.503   2.485   1.981
 8409SOL    HW226127   4.604   2.593   1.912
 8410SOL     OW26128   6.926   1.783   1.783
 8410SOL    HW126129   6.984   1.763   1.703
 8410SOL    HW226130   6.942   1.714   1.854
 8411SOL     OW26131   0.558   6.259   0.764
 8411SOL    HW126132   0.655   6.235   0.776
 8411SOL    HW226133   0.524   6.303   0.847
 8412SOL     OW26134   2.977   3.617   0.756
 8412SOL    HW126135   2.917   3.611   0.836
 8412SOL    HW226136   2.940   3.683   0.691
 8413SOL     OW26137   4.087   5.431   5.518
 8413SOL    HW126138   4.175   5.422   5.471
 8413SOL    HW226139   4.043   5.341   5.524
 8414SOL     OW26140   1.612   0.884   2.453
 8414SOL    HW126141   1.592   0.971   2.409
 8414SOL    HW226142   1.533   0.824   2.447
 8415SOL     OW26143   2.615   0.333   4.413
 8415SOL    HW126144   2.647   0.406   4.352
 8415SOL    HW226145   2.639   0.355   4.507
 8416SOL     OW26146   6.449   1.610   4.534
 8416SOL    HW126147   6.353   1.639   4.544
 8416SOL    HW226148   6.488   1.595   4.625
 8417SOL     OW26149   1.030   3.200   5.100
 8417SOL    HW126150   0.959   3.144   5.057
 8417SOL    HW226151   1.106   3.214   5.035
 8418SOL     OW26152   0.764   5.539   2.278
 8418SOL    HW126153   0.811   5.619   2.316
 8418SOL    HW226154   0.808   5.512   2.193
 8419SOL     OW26155   5.126   0.535   3.284
 8419SOL    HW126156   5.158   0.519   3.191
 8419SOL    HW226157   5.157   0.460   3.343
 8420SOL     OW26158   3.264   6.660   2.377
 8420SOL    HW126159   3.324   6.593   2.421
 8420SOL    HW226160   3.318   6.735   2.342
 8421SOL     OW26161   3.848   6.319   5.668
 8421SOL    HW126162   3.752   6.291   5.674
 8421SOL    HW226163   3.854   6.414   5.641
 8422SOL     OW26164   4.607   2.630   2.530
 8422SOL    HW126165   4.641   2.600   2.441
 8422SOL    HW226166   4.533   2.570   2.560
 8423SOL     OW26167   5.353   4.316   6.065
 8423SOL    HW126168   5.254   4.302   6.065
 8423SOL    HW226169   5.373   4.414   6.053
 8424SOL     OW26170   1.981   0.329   3.377
 8424SOL    HW126171   2.059   0.357   3.320
 8424SOL    HW226172   2.016   0.284   3.460
 8425SOL     OW26173   3.074   3.360   3.602
 8425SOL    HW126174   3.007   3.431   3.578
 8425SOL    HW226175   3.165   3.402   3.607
 8426SOL     OW26176   3.890   2.971   2.245
 8426SOL    HW126177   3.921   2.962   2.340
 8426SOL    HW226178   3.931   3.051   2.203
 8427SOL     OW26179   3.058   3.130   3.432
 8427SOL    HW126180   3.054   3.213   3.488
 8427SOL    HW226181   3.117   3.063   3.476
 8428SOL     OW26182   6.907   0.572   0.740
 8428SOL    HW126183   6.938   0.552   0.833
 8428SOL    HW226184   6.951   0.655   0.707
 8429SOL     OW26185   2.029   5.628   6.173
 8429SOL    HW126186   2.030   5.633   6.273
 8429SOL    HW226187   2.034   5.533   6.144
 8430SOL     OW26188   4.480   6.052   4.306
 8430SOL    HW126189   4.564   6.093   4.341
 8430SOL    HW226190   4.401   6.089   4.356
 8431SOL     OW26191   2.426   2.878   6.325
 8431SOL    HW126192   2.486   2.799   6.318
 8431SOL    HW226193   2.379   2.892   6.238
 8432SOL     OW26194   6.919   5.807   6.054
 8432SOL    HW126195   6.896   5.846   6.144
 8432SOL    HW226196   7.017   5.786   6.051
 8433SOL     OW26197   4.530   2.119   1.153
 8433SOL    HW126198   4.434   2.136   1.130
 8433SOL    HW226199   4.568   2.052   1.089
 8434SOL     OW26200   2.110   5.762   5.002
 8434SOL    HW126201   2.171   5.814   5.062
 8434SOL    HW226202   2.016   5.766   5.037
 8435SOL     OW26203   5.103   0.698   2.524
 8435SOL    HW126204   5.112   0.725   2.429
 8435SOL    HW226205   5.009   0.714   2.555
 8436SOL     OW26206   2.360   6.658   3.600
 8436SOL    HW126207   2.355   6.692   3.693
 8436SOL    HW226208   2.377   6.734   3.537
 8437SOL     OW26209   2.183   2.877   2.466
 8437SOL    HW126210   2.187   2.915   2.558
 8437SOL    HW226211   2.187   2.951   2.399
 8438SOL     OW26212   1.767   4.282   3.416
 8438SOL    HW126213   1.793   4.250   3.507
 8438SOL    HW226214   1.739   4.203   3.360
 8439SOL     OW26215   5.861   5.386   3.312
 8439SOL    HW126216   5.851   5.479   3.278
 8439SOL    HW226217   5.957   5.367   3.332
 8440SOL     OW26218   2.130   1.594   3.465
 8440SOL    HW126219   2.094   1.561   3.378
 8440SOL    HW226220   2.216   1.548   3.486
 8441SOL     OW26221   5.383   6.468   5.565
 8441SOL    HW126222   5.481   6.455   5.578
 8441SOL    HW226223   5.353   6.415   5.486
 8442SOL     OW26224   3.867   0.686   4.823
 8442SOL    HW126225   3.851   0.761   4.759
 8442SOL    HW226226   3.965   0.665   4.825
 8443SOL     OW26227   1.435   4.819   3.511
 8443SOL    HW126228   1.533   4.803   3.522
 8443SOL    HW226229   1.384   4.755   3.569
 8444SOL     OW26230   4.161   5.758   3.329
 8444SOL    HW126231   4.178   5.736   3.425
 8444SOL    HW226232   4.074   5.718   3.300
 8445SOL     OW26233   3.464   0.039   6.552
 8445SOL    HW126234   3.446   7.002   6.626
 8445SOL    HW226235   3.559   0.030   6.522
 8446SOL     OW26236   0.306   6.165   5.596
 8446SOL    HW126237   0.373   6.213   5.539
 8446SOL    HW226238   0.323   6.183   5.692
 8447SOL     OW26239   4.104   1.341   2.431
 8447SOL    HW126240   4.180   1.406   2.430
 8447SOL    HW226241   4.133   1.255   2.388
 8448SOL     OW26242   4.629   6.558   3.122
 8448SOL    HW126243   4.675   6.469   3.131
 8448SOL    HW226244   4.576   6.576   3.205
 8449SOL     OW26245   1.828   2.699   3.407
 8449SOL    HW126246   1.920   2.724   3.374
 8449SOL    HW226247   1.820   2.600   3.411
 8450SOL     OW26248   6.520   0.672   6.957
 8450SOL    HW126249   6.573   0.702   0.008
 8450SOL    HW226250   6.439   0.622   6.987
 8451SOL     OW26251   4.178   1.932   1.352
 8451SOL    HW126252   4.260   1.877   1.340
 8451SOL    HW226253   4.165   1.952   1.449
 8452SOL     OW26254   5.264   1.848   4.837
 8452SOL    HW126255   5.362   1.831   4.840
 8452SOL    HW226256   5.223   1.829   4.926
 8453SOL     OW26257   0.943   5.977   6.848
 8453SOL    HW126258   0.944   5.943   6.754
 8453SOL    HW226259   0.893   5.913   6.907
 8454SOL     OW26260   0.635   4.450   6.797
 8454SOL    HW126261   0.662   4.354   6.811
 8454SOL    HW226262   0.717   4.506   6.786
 8455SOL     OW26263   1.006   0.695   2.677
 8455SOL    HW126264   0.940   0.737   2.739
 8455SOL    HW226265   1.093   0.682   2.726
 8456SOL     OW26266   5.141   0.961   3.124
 8456SOL    HW126267   5.173   1.047   3.084
 8456SOL    HW226268   5.219   0.911   3.162
 8457SOL     OW26269   5.794   6.596   4.766
 8457SOL    HW126270   5.728   6.551   4.826
 8457SOL    HW226271   5.885   6.590   4.806
 8458SOL     OW26272   0.075   0.451   6.709
 8458SOL    HW126273   0.044   0.532   6.759
 8458SOL    HW226274   0.013   0.375   6.725
 8459SOL     OW26275   1.565   5.778   3.417
 8459SOL    HW126276   1.523   5.687   3.420
 8459SOL    HW226277   1.586   5.801   3.322
 8460SOL     OW26278   3.167   4.127   4.970
 8460SOL    HW126279   3.118   4.081   4.896
 8460SOL    HW226280   3.201   4.215   4.937
 8461SOL     OW26281   0.005   2.697   4.786
 8461SOL    HW126282   0.067   2.628   4.750
 8461SOL    HW226283   7.001   2.669   4.877
 8462SOL     OW26284   2.472   1.877   1.697
 8462SOL    HW126285   2.494   1.928   1.779
 8462SOL    HW226286   2.530   1.908   1.622
 8463SOL     OW26287   5.987   0.664   2.397
 8463SOL    HW126288   5.924   0.598   2.357
 8463SOL    HW226289   5.986   0.748   2.344
 8464SOL     OW26290   5.862   3.066   4.330
 8464SOL    HW126291   5.801   3.085   4.407
 8464SOL    HW226292   5.884   3.151   4.283
 8465SOL     OW26293   1.698   1.866   0.717
 8465SOL    HW126294   1.779   1.868   0.659
 8465SOL    HW226295   1.705   1.937   0.787
 8466SOL     OW26296   0.793   5.619   3.211
 8466SOL    HW126297   0.776   5.521   3.198
 8466SOL    HW226298   0.882   5.643   3.173
 8467SOL     OW26299   2.897   5.618   0.987
 8467SOL    HW126300   2.895   5.579   1.079
 8467SOL    HW226301   2.974   5.581   0.936
 8468SOL     OW26302   4.715   2.140   6.850
 8468SOL    HW126303   4.811   2.120   6.829
 8468SOL    HW226304   4.660   2.059   6.833
 8469SOL     OW26305   3.293   2.820   6.621
 8469SOL    HW126306   3.314   2.820   6.718
 8469SOL    HW226307   3.369   2.860   6.570
 8470SOL     OW26308   2.841   3.113   6.958
 8470SOL    HW126309   2.751   3.148   6.985
 8470SOL    HW226310   2.833   3.016   6.935
 8471SOL     OW26311   3.281   0.976   3.880
 8471SOL    HW126312   3.187   0.949   3.858
 8471SOL    HW226313   3.298   0.961   3.977
 8472SOL     OW26314   0.936   0.037   4.236
 8472SOL    HW126315   0.864   7.003   4.267
 8472SOL    HW226316   0.987   7.023   4.162
 8473SOL     OW26317   6.523   5.236   6.641
 8473SOL    HW126318   6.573   5.204   6.560
 8473SOL    HW226319   6.528   5.336   6.644
 8474SOL     OW26320   3.259   3.451   1.570
 8474SOL    HW126321   3.303   3.365   1.594
 8474SOL    HW226322   3.214   3.441   1.481
 8475SOL     OW26323   6.066   1.757   2.377
 8475SOL    HW126324   6.067   1.857   2.377
 8475SOL    HW226325   6.140   1.722   2.435
 8476SOL     OW26326   4.551   0.962   2.016
 8476SOL    HW126327   4.627   0.982   1.954
 8476SOL    HW226328   4.508   1.048   2.044
 8477SOL     OW26329   2.832   0.354   1.131
 8477SOL    HW126330   2.769   0.292   1.177
 8477SOL    HW226331   2.896   0.302   1.075
 8478SOL     OW26332   1.068   0.871   5.726
 8478SOL    HW126333   1.083   0.915   5.814
 8478SOL    HW226334   1.126   0.789   5.719
 8479SOL     OW26335   6.170   1.150   0.730
 8479SOL    HW126336   6.157   1.056   0.760
 8479SOL    HW226337   6.162   1.155   0.630
 8480SOL     OW26338   3.472   0.734   1.642
 8480SOL    HW126339   3.467   0.714   1.544
 8480SOL    HW226340   3.471   0.649   1.693
 8481SOL     OW26341   3.571   1.478   4.368
 8481SOL    HW126342   3.514   1.551   4.329
 8481SOL    HW226343   3.653   1.519   4.408
 8482SOL     OW26344   1.248   0.108   1.881
 8482SOL    HW126345   1.263   0.100   1.980
 8482SOL    HW226346   1.205   0.196   1.861
 8483SOL     OW26347   3.589   5.888   1.183
 8483SOL    HW126348   3.527   5.853   1.253
 8483SOL    HW226349   3.536   5.918   1.104
 8484SOL     OW26350   0.633   5.022   4.634
 8484SOL    HW126351   0.655   4.940   4.686
 8484SOL    HW226352   0.544   5.012   4.591
 8485SOL     OW26353   2.230   4.129   6.963
 8485SOL    HW126354   2.195   4.072   6.889
 8485SOL    HW226355   2.194   4.222   6.954
 8486SOL     OW26356   5.733   0.767   2.009
 8486SOL    HW126357   5.793   0.688   1.996
 8486SOL    HW226358   5.645   0.750   1.964
 8487SOL     OW26359   5.394   0.387   1.373
 8487SOL    HW126360   5.306   0.351   1.403
 8487SOL    HW226361   5.398   0.485   1.390
 8488SOL     OW26362   4.883   3.821   3.985
 8488SOL    HW126363   4.838   3.881   4.052
 8488SOL    HW226364   4.908   3.735   4.030
 8489SOL     OW26365   5.184   4.768   1.492
 8489SOL    HW126366   5.218   4.711   1.417
 8489SOL    HW226367   5.147   4.853   1.455
 8490SOL     OW26368   4.368   5.126   3.140
 8490SOL    HW126369   4.281   5.099   3.098
 8490SOL    HW226370   4.439   5.128   3.070
 8491SOL     OW26371   2.070   0.643   2.028
 8491SOL    HW126372   2.032   0.552   2.008
 8491SOL    HW226373   2.087   0.651   2.126
 8492SOL     OW26374   6.340   2.585   5.251
 8492SOL    HW126375   6.437   2.563   5.239
 8492SOL    HW226376   6.307   2.544   5.336
 8493SOL     OW26377   4.371   1.756   6.727
 8493SOL    HW126378   4.373   1.724   6.822
 8493SOL    HW226379   4.342   1.681   6.668
 8494SOL     OW26380   2.977   5.589   7.003
 8494SOL    HW126381   2.980   5.687   7.023
 8494SOL    HW226382   3.017   5.538   0.052
 8495SOL     OW26383   6.872   2.448   0.809
 8495SOL    HW126384   6.810   2.390   0.862
 8495SOL    HW226385   6.827   2.535   0.788
 8496SOL     OW26386   0.131   2.369   3.450
 8496SOL    HW126387   0.052   2.309   3.440
 8496SOL    HW226388   0.197   2.328   3.513
 8497SOL     OW26389   6.340   5.021   3.463
 8497SOL    HW126390   6.385   5.093   3.410
 8497SOL    HW226391   6.355   4.933   3.417
 8498SOL     OW26392   0.027   0.729   1.335
 8498SOL    HW126393   0.084   0.724   1.418
 8498SOL    HW226394   0.082   0.702   1.256
 8499SOL     OW26395   3.195   4.247   6.318
 8499SOL    HW126396   3.137   4.260   6.399
 8499SOL    HW226397   3.291   4.257   6.344
 8500SOL     OW26398   2.652   6.774   6.230
 8500SOL    HW126399   2.743   6.736   6.215
 8500SOL    HW226400   2.586   6.726   6.173
 8501SOL     OW26401   1.943   3.222   6.936
 8501SOL    HW126402   1.991   3.146   6.891
 8501SOL    HW226403   1.846   3.219   6.912
 8502SOL     OW26404   6.549   6.664   2.011
 8502SOL    HW126405   6.490   6.718   2.070
 8502SOL    HW226406   6.643   6.667   2.046
 8503SOL     OW26407   2.708   4.726   3.285
 8503SOL    HW126408   2.638   4.659   3.309
 8503SOL    HW226409   2.721   4.727   3.186
 8504SOL     OW26410   1.198   5.444   3.574
 8504SOL    HW126411   1.145   5.410   3.496
 8504SOL    HW226412   1.251   5.370   3.614
 8505SOL     OW26413   4.955   3.705   3.729
 8505SOL    HW126414   4.949   3.757   3.643
 8505SOL    HW226415   4.913   3.757   3.803
 8506SOL     OW26416   1.427   6.807   0.192
 8506SOL    HW126417   1.365   6.877   0.228
 8506SOL    HW226418   1.466   6.755   0.268
 8507SOL     OW26419   1.777   1.595   6.286
 8507SOL    HW126420   1.691   1.552   6.314
 8507SOL    HW226421   1.814   1.546   6.206
 8508SOL     OW26422   0.038   2.482   5.467
 8508SOL    HW126423   6.990   2.546   5.460
 8508SOL    HW226424   0.104   2.515   5.534
 8509SOL     OW26425   6.102   1.932   4.116
 8509SOL    HW126426   6.094   2.018   4.166
 8509SOL    HW226427   6.031   1.869   4.146
 8510SOL     OW26428   5.820   6.053   2.745
 8510SOL    HW126429   5.767   6.139   2.743
 8510SOL    HW226430   5.774   5.985   2.689
 8511SOL     OW26431   6.890   4.667   1.299
 8511SOL    HW126432   6.856   4.613   1.222
 8511SOL    HW226433   6.814   4.688   1.361
 8512SOL     OW26434   4.748   2.275   0.102
 8512SOL    HW126435   4.822   2.262   0.168
 8512SOL    HW226436   4.755   2.205   0.030
 8513SOL     OW26437   6.063   4.527   0.902
 8513SOL    HW126438   6.071   4.562   0.808
 8513SOL    HW226439   5.995   4.454   0.905
 8514SOL     OW26440   2.736   1.177   4.691
 8514SOL    HW126441   2.661   1.165   4.626
 8514SOL    HW226442   2.722   1.260   4.745
 8515SOL     OW26443   0.812   1.102   0.267
 8515SOL    HW126444   0.805   1.181   0.207
 8515SOL    HW226445   0.734   1.042   0.253
 8516SOL     OW26446   5.979   3.047   2.554
 8516SOL    HW126447   5.881   3.068   2.547
 8516SOL    HW226448   6.032   3.115   2.504
 8517SOL     OW26449   1.707   2.971   5.262
 8517SOL    HW126450   1.613   2.966   5.228
 8517SOL    HW226451   1.762   3.027   5.200
 8518SOL     OW26452   5.387   4.735   6.556
 8518SOL    HW126453   5.372   4.821   6.507
 8518SOL    HW226454   5.473   4.741   6.607
 8519SOL     OW26455   1.590   4.355   0.925
 8519SOL    HW126456   1.653   4.326   0.997
 8519SOL    HW226457   1.639   4.363   0.839
 8520SOL     OW26458   3.865   4.055   4.533
 8520SOL    HW126459   3.808   3.973   4.530
 8520SOL    HW226460   3.807   4.136   4.529
 8521SOL     OW26461   1.536   6.384   5.310
 8521SOL    HW126462   1.524   6.329   5.228
 8521SOL    HW226463   1.511   6.479   5.292
 8522SOL     OW26464   1.419   0.044   0.363
 8522SOL    HW126465   1.441   0.141   0.373
 8522SOL    HW226466   1.409   0.003   0.453
 8523SOL     OW26467   2.702   0.105   6.259
 8523SOL    HW126468   2.620   0.057   6.290
 8523SOL    HW226469   2.677   0.169   6.186
 8524SOL     OW26470   1.151   5.065   4.693
 8524SOL    HW126471   1.143   5.164   4.699
 8524SOL    HW226472   1.146   5.037   4.597
 8525SOL     OW26473   6.804   4.990   1.253
 8525SOL    HW126474   6.862   4.912   1.276
 8525SOL    HW226475   6.842   5.039   1.174
 8526SOL     OW26476   2.202   6.754   0.592
 8526SOL    HW126477   2.228   6.674   0.538
 8526SOL    HW226478   2.269   6.769   0.665
 8527SOL     OW26479   3.832   0.279   6.545
 8527SOL    HW126480   3.736   0.254   6.533
 8527SOL    HW226481   3.855   0.354   6.484
 8528SOL     OW26482   4.665   2.587   0.851
 8528SOL    HW126483   4.716   2.520   0.905
 8528SOL    HW226484   4.708   2.677   0.861
 8529SOL     OW26485   1.202   6.170   0.068
 8529SOL    HW126486   1.291   6.201   0.035
 8529SOL    HW226487   1.182   6.213   0.156
 8530SOL     OW26488   2.933   3.290   4.265
 8530SOL    HW126489   2.908   3.376   4.309
 8530SOL    HW226490   2.966   3.225   4.334
 8531SOL     OW26491   6.801   5.947   3.574
 8531SOL    HW126492   6.780   5.910   3.664
 8531SOL    HW226493   6.898   5.935   3.554
 8532SOL     OW26494   3.702   6.208   4.357
 8532SOL    HW126495   3.638   6.198   4.433
 8532SOL    HW226496   3.652   6.230   4.273
 8533SOL     OW26497   1.059   6.217   6.866
 8533SOL    HW126498   1.146   6.186   6.905
 8533SOL    HW226499   1.001   6.137   6.848
 8534SOL     OW26500   4.272   2.045   3.753
 8534SOL    HW126501   4.248   1.969   3.814
 8534SOL    HW226502   4.190   2.101   3.736
 8535SOL     OW26503   5.622   0.867   3.736
 8535SOL    HW126504   5.719   0.890   3.729
 8535SOL    HW226505   5.586   0.901   3.823
 8536SOL     OW26506   0.440   0.656   4.919
 8536SOL    HW126507   0.414   0.580   4.859
 8536SOL    HW226508   0.500   0.622   4.991
 8537SOL     OW26509   6.590   1.255   3.301
 8537SOL    HW126510   6.599   1.212   3.391
 8537SOL    HW226511   6.539   1.341   3.310
 8538SOL     OW26512   1.589   1.672   0.404
 8538SOL    HW126513   1.610   1.592   0.347
 8538SOL    HW226514   1.612   1.651   0.499
 8539SOL     OW26515   6.177   2.939   2.993
 8539SOL    HW126516   6.192   3.030   3.032
 8539SOL    HW226517   6.079   2.924   2.979
 8540SOL     OW26518   4.218   0.069   6.701
 8540SOL    HW126519   4.230   0.130   6.779
 8540SOL    HW226520   4.184   0.121   6.623
 8541SOL     OW26521   2.323   2.363   3.464
 8541SOL    HW126522   2.236   2.400   3.431
 8541SOL    HW226523   2.308   2.319   3.553
 8542SOL     OW26524   4.258   3.921   6.403
 8542SOL    HW126525   4.197   3.973   6.344
 8542SOL    HW226526   4.305   3.850   6.350
 8543SOL     OW26527   2.079   2.601   0.189
 8543SOL    HW126528   2.144   2.532   0.220
 8543SOL    HW226529   2.127   2.687   0.170
 8544SOL     OW26530   5.299   2.631   3.627
 8544SOL    HW126531   5.391   2.665   3.648
 8544SOL    HW226532   5.237   2.655   3.702
 8545SOL     OW26533   5.014   6.164   5.550
 8545SOL    HW126534   5.068   6.081   5.568
 8545SOL    HW226535   4.919   6.149   5.580
 8546SOL     OW26536   5.095   1.918   4.082
 8546SOL    HW126537   5.178   1.934   4.137
 8546SOL    HW226538   5.019   1.897   4.143
 8547SOL     OW26539   1.089   4.741   4.359
 8547SOL    HW126540   1.042   4.689   4.287
 8547SOL    HW226541   1.187   4.740   4.341
 8548SOL     OW26542   5.402   1.005   4.858
 8548SOL    HW126543   5.405   0.923   4.800
 8548SOL    HW226544   5.492   1.022   4.898
 8549SOL     OW26545   6.625   3.316   4.321
 8549SOL    HW126546   6.696   3.246   4.310
 8549SOL    HW226547   6.573   3.325   4.236
 8550SOL     OW26548   1.693   5.169   6.473
 8550SOL    HW126549   1.761   5.222   6.423
 8550SOL    HW226550   1.685   5.078   6.433
 8551SOL     OW26551   3.698   4.135   6.791
 8551SOL    HW126552   3.707   4.117   6.889
 8551SOL    HW226553   3.788   4.135   6.749
 8552SOL     OW26554   2.803   5.898   3.497
 8552SOL    HW126555   2.755   5.964   3.439
 8552SOL    HW226556   2.737   5.849   3.553
 8553SOL     OW26557   4.842   6.505   0.547
 8553SOL    HW126558   4.783   6.586   0.540
 8553SOL    HW226559   4.932   6.533   0.581
 8554SOL     OW26560   0.021   4.270   6.899
 8554SOL    HW126561   7.000   4.242   6.816
 8554SOL    HW226562   0.078   4.194   6.931
 8555SOL     OW26563   0.789   0.896   4.021
 8555SOL    HW126564   0.860   0.832   4.052
 8555SOL    HW226565   0.699   0.862   4.049
 8556SOL     OW26566   6.508   0.727   3.709
 8556SOL    HW126567   6.469   0.652   3.763
 8556SOL    HW226568   6.521   0.807   3.767
 8557SOL     OW26569   0.058   6.910   1.516
 8557SOL    HW126570   0.145   6.957   1.533
 8557SOL    HW226571   0.040   6.908   1.418
 8558SOL     OW26572   1.891   5.406   2.384
 8558SOL    HW126573   1.851   5.343   2.451
 8558SOL    HW226574   1.946   5.353   2.318
 8559SOL     OW26575   0.976   0.362   1.584
 8559SOL    HW126576   1.028   0.367   1.670
 8559SOL    HW226577   0.975   0.452   1.540
 8560SOL     OW26578   6.401   1.545   0.341
 8560SOL    HW126579   6.405   1.599   0.426
 8560SOL    HW226580   6.341   1.592   0.275
 8561SOL     OW26581   4.940   5.953   3.306
 8561SOL    HW126582   4.964   5.943   3.209
 8561SOL    HW226583   4.845   5.926   3.319
 8562SOL     OW26584   3.480   6.941   4.418
 8562SOL    HW126585   3.473   6.904   4.510
 8562SOL    HW226586   3.569   6.984   4.405
 8563SOL     OW26587   2.693   2.791   6.899
 8563SOL    HW126588   2.622   2.721   6.894
 8563SOL    HW226589   2.768   2.768   6.837
 8564SOL     OW26590   0.795   7.016   3.733
 8564SOL    HW126591   0.873   6.994   3.675
 8564SOL    HW226592   0.828   0.027   3.820
 8565SOL     OW26593   3.900   6.936   0.630
 8565SOL    HW126594   3.852   6.902   0.711
 8565SOL    HW226595   3.998   6.921   0.642
 8566SOL     OW26596   1.409   2.286   2.889
 8566SOL    HW126597   1.489   2.249   2.842
 8566SOL    HW226598   1.330   2.283   2.828
 8567SOL     OW26599   5.507   1.373   0.883
 8567SOL    HW126600   5.456   1.288   0.874
 8567SOL    HW226601   5.465   1.444   0.826
 8568SOL     OW26602   5.441   2.011   0.304
 8568SOL    HW126603   5.498   1.929   0.311
 8568SOL    HW226604   5.470   2.077   0.373
 8569SOL     OW26605   4.558   1.077   4.464
 8569SOL    HW126606   4.636   1.129   4.432
 8569SOL    HW226607   4.500   1.134   4.522
 8570SOL     OW26608   0.343   4.003   6.659
 8570SOL    HW126609   0.301   3.952   6.584
 8570SOL    HW226610   0.307   4.097   6.659
 8571SOL     OW26611   6.476   4.089   4.439
 8571SOL    HW126612   6.477   4.048   4.530
 8571SOL    HW226613   6.561   4.139   4.424
 8572SOL     OW26614   1.946   5.187   5.307
 8572SOL    HW126615   1.921   5.184   5.210
 8572SOL    HW226616   1.973   5.095   5.337
 8573SOL     OW26617   4.378   5.755   5.627
 8573SOL    HW126618   4.359   5.760   5.528
 8573SOL    HW226619   4.319   5.686   5.668
 8574SOL     OW26620   0.063   3.458   5.765
 8574SOL    HW126621   0.144   3.497   5.809
 8574SOL    HW226622   0.083   3.441   5.668
 8575SOL     OW26623   3.197   2.837   0.813
 8575SOL    HW126624   3.164   2.877   0.898
 8575SOL    HW226625   3.258   2.760   0.834
 8576SOL     OW26626   0.688   7.012   1.405
 8576SOL    HW126627   0.780   6.983   1.378
 8576SOL    HW226628   0.686   0.001   1.504
 8577SOL     OW26629   6.410   5.788   3.336
 8577SOL    HW126630   6.342   5.801   3.264
 8577SOL    HW226631   6.380   5.716   3.399
 8578SOL     OW26632   4.545   0.256   3.696
 8578SOL    HW126633   4.568   0.188   3.766
 8578SOL    HW226634   4.481   0.215   3.630
 8579SOL     OW26635   1.216   4.932   3.397
 8579SOL    HW126636   1.167   4.983   3.468
 8579SOL    HW226637   1.296   4.888   3.436
 8580SOL     OW26638   1.631   6.338   1.712
 8580SOL    HW126639   1.727   6.334   1.684
 8580SOL    HW226640   1.593   6.427   1.688
 8581SOL     OW26641   3.241   1.696   0.914
 8581SOL    HW126642   3.273   1.740   0.997
 8581SOL    HW226643   3.316   1.689   0.848
 8582SOL     OW26644   4.467   4.496   2.149
 8582SOL    HW126645   4.514   4.422   2.101
 8582SOL    HW226646   4.381   4.461   2.187
 8583SOL     OW26647   6.194   7.015   5.837
 8583SOL    HW126648   6.255   0.056   5.877
 8583SOL    HW226649   6.180   6.941   5.902
 8584SOL     OW26650   6.824   5.246   0.534
 8584SOL    HW126651   6.899   5.265   0.598
 8584SOL    HW226652   6.768   5.328   0.523
 8585SOL     OW26653   0.266   0.946   0.139
 8585SOL    HW126654   0.271   0.917   0.235
 8585SOL    HW226655   0.345   0.911   0.089
 8586SOL     OW26656   3.889   5.718   2.761
 8586SOL    HW126657   3.980   5.714   2.719
 8586SOL    HW226658   3.873   5.810   2.798
 8587SOL     OW26659   0.381   1.820   2.484
 8587SOL    HW126660   0.296   1.781   2.449
 8587SOL    HW226661   0.385   1.917   2.461
 8588SOL     OW26662   4.121   2.379   0.344
 8588SOL    HW126663   4.023   2.395   0.332
 8588SOL    HW226664   4.168   2.393   0.257
 8589SOL     OW26665   3.523   1.288   4.076
 8589SOL    HW126666   3.546   1.200   4.118
 8589SOL    HW226667   3.459   1.273   4.001
 8590SOL     OW26668   6.088   5.153   5.347
 8590SOL    HW126669   6.023   5.228   5.349
 8590SOL    HW226670   6.077   5.097   5.429
 8591SOL     OW26671   0.691   3.702   6.287
 8591SOL    HW126672   0.733   3.633   6.347
 8591SOL    HW226673   0.754   3.778   6.275
 8592SOL     OW26674   6.841   4.039   0.872
 8592SOL    HW126675   6.796   3.961   0.914
 8592SOL    HW226676   6.826   4.121   0.928
 8593SOL     OW26677   1.774   0.241   2.126
 8593SOL    HW126678   1.701   0.174   2.116
 8593SOL    HW226679   1.739   0.322   2.173
 8594SOL     OW26680   2.919   3.488   4.441
 8594SOL    HW126681   3.018   3.496   4.429
 8594SOL    HW226682   2.899   3.454   4.533
 8595SOL     OW26683   1.932   2.243   2.245
 8595SOL    HW126684   1.855   2.216   2.303
 8595SOL    HW226685   2.006   2.176   2.254
 8596SOL     OW26686   6.019   5.510   1.408
 8596SOL    HW126687   5.974   5.570   1.473
 8596SOL    HW226688   6.049   5.427   1.455
 8597SOL     OW26689   2.748   1.476   0.791
 8597SOL    HW126690   2.776   1.450   0.699
 8597SOL    HW226691   2.777   1.406   0.856
 8598SOL     OW26692   6.446   3.817   1.260
 8598SOL    HW126693   6.473   3.841   1.353
 8598SOL    HW226694   6.347   3.825   1.251
 8599SOL     OW26695   1.395   2.940   3.368
 8599SOL    HW126696   1.384   2.920   3.465
 8599SOL    HW226697   1.418   2.856   3.319
 8600SOL     OW26698   6.345   5.103   6.492
 8600SOL    HW126699   6.275   5.175   6.491
 8600SOL    HW226700   6.415   5.125   6.559
 8601SOL     OW26701   0.589   6.918   4.048
 8601SOL    HW126702   0.670   6.973   4.025
 8601SOL    HW226703   0.520   6.977   4.090
 8602SOL     OW26704   2.386   5.807   2.169
 8602SOL    HW126705   2.470   5.853   2.197
 8602SOL    HW226706   2.401   5.762   2.082
 8603SOL     OW26707   3.983   3.197   0.377
 8603SOL    HW126708   3.898   3.249   0.376
 8603SOL    HW226709   4.058   3.256   0.347
 8604SOL     OW26710   5.374   2.980   3.912
 8604SOL    HW126711   5.413   2.931   3.834
 8604SOL    HW226712   5.301   3.041   3.880
 8605SOL     OW26713   2.580   6.062   3.295
 8605SOL    HW126714   2.547   6.073   3.202
 8605SOL    HW226715   2.575   6.150   3.343
 8606SOL     OW26716   4.181   4.681   5.740
 8606SOL    HW126717   4.099   4.688   5.683
 8606SOL    HW226718   4.255   4.638   5.688
 8607SOL     OW26719   4.564   5.493   2.242
 8607SOL    HW126720   4.531   5.504   2.336
 8607SOL    HW226721   4.582   5.584   2.203
 8608SOL     OW26722   4.382   5.377   2.901
 8608SOL    HW126723   4.366   5.475   2.903
 8608SOL    HW226724   4.358   5.341   2.811
 8609SOL     OW26725   3.583   0.738   5.152
 8609SOL    HW126726   3.674   0.769   5.182
 8609SOL    HW226727   3.592   0.688   5.066
 8610SOL     OW26728   1.221   6.323   3.560
 8610SOL    HW126729   1.129   6.338   3.523
 8610SOL    HW226730   1.288   6.368   3.501
 8611SOL     OW26731   2.045   1.820   4.925
 8611SOL    HW126732   2.124   1.825   4.864
 8611SOL    HW226733   2.026   1.724   4.946
 8612SOL     OW26734   3.974   3.001   6.297
 8612SOL    HW126735   4.011   2.933   6.361
 8612SOL    HW226736   4.015   3.090   6.317
 8613SOL     OW26737   1.964   1.954   1.139
 8613SOL    HW126738   2.039   1.889   1.124
 8613SOL    HW226739   1.970   1.990   1.232
 8614SOL     OW26740   0.997   2.788   3.231
 8614SOL    HW126741   1.028   2.839   3.151
 8614SOL    HW226742   1.073   2.776   3.294
 8615SOL     OW26743   4.271   1.857   5.597
 8615SOL    HW126744   4.210   1.785   5.561
 8615SOL    HW226745   4.346   1.814   5.646
 8616SOL     OW26746   0.824   4.682   0.415
 8616SOL    HW126747   0.864   4.748   0.352
 8616SOL    HW226748   0.765   4.729   0.480
 8617SOL     OW26749   6.346   2.813   0.957
 8617SOL    HW126750   6.252   2.819   0.922
 8617SOL    HW226751   6.358   2.877   1.033
 8618SOL     OW26752   4.473   0.037   3.209
 8618SOL    HW126753   4.559   0.048   3.160
 8618SOL    HW226754   4.401   0.087   3.161
 8619SOL     OW26755   4.421   5.314   7.023
 8619SOL    HW126756   4.439   5.260   6.941
 8619SOL    HW226757   4.465   5.404   7.014
 8620SOL     OW26758   6.090   6.211   2.179
 8620SOL    HW126759   6.007   6.230   2.231
 8620SOL    HW226760   6.138   6.133   2.220
 8621SOL     OW26761   5.843   1.271   3.641
 8621SOL    HW126762   5.806   1.349   3.690
 8621SOL    HW226763   5.936   1.291   3.611
 8622SOL     OW26764   4.459   5.134   0.485
 8622SOL    HW126765   4.537   5.184   0.446
 8622SOL    HW226766   4.375   5.169   0.444
 8623SOL     OW26767   1.186   3.655   3.134
 8623SOL    HW126768   1.127   3.647   3.215
 8623SOL    HW226769   1.184   3.568   3.084
 8624SOL     OW26770   0.775   4.048   3.254
 8624SOL    HW126771   0.700   3.996   3.295
 8624SOL    HW226772   0.799   4.007   3.166
 8625SOL     OW26773   4.158   0.867   4.632
 8625SOL    HW126774   4.218   0.845   4.555
 8625SOL    HW226775   4.195   0.947   4.680
 8626SOL     OW26776   3.233   3.499   4.354
 8626SOL    HW126777   3.269   3.504   4.261
 8626SOL    HW226778   3.272   3.420   4.400
 8627SOL     OW26779   0.881   0.992   0.799
 8627SOL    HW126780   0.883   1.067   0.865
 8627SOL    HW226781   0.951   1.006   0.730
 8628SOL     OW26782   5.392   1.085   6.652
 8628SOL    HW126783   5.442   1.143   6.588
 8628SOL    HW226784   5.329   1.026   6.602
 8629SOL     OW26785   1.436   4.415   3.920
 8629SOL    HW126786   1.505   4.371   3.863
 8629SOL    HW226787   1.476   4.496   3.964
 8630SOL     OW26788   5.816   4.051   4.009
 8630SOL    HW126789   5.764   4.046   3.924
 8630SOL    HW226790   5.912   4.070   3.989
 8631SOL     OW26791   3.690   6.047   5.004
 8631SOL    HW126792   3.668   5.960   4.960
 8631SOL    HW226793   3.786   6.069   4.988
 8632SOL     OW26794   3.802   0.289   3.295
 8632SOL    HW126795   3.841   0.381   3.288
 8632SOL    HW226796   3.757   0.279   3.384
 8633SOL     OW26797   5.416   1.283   4.060
 8633SOL    HW126798   5.488   1.288   4.130
 8633SOL    HW226799   5.335   1.239   4.099
 8634SOL     OW26800   6.673   4.560   2.016
 8634SOL    HW126801   6.663   4.590   2.111
 8634SOL    HW226802   6.652   4.462   2.010
 8635SOL     OW26803   5.943   3.506   5.963
 8635SOL    HW126804   5.883   3.576   6.003
 8635SOL    HW226805   5.888   3.438   5.916
 8636SOL     OW26806   6.599   6.191   0.347
 8636SOL    HW126807   6.616   6.289   0.338
 8636SOL    HW226808   6.673   6.150   0.400
 8637SOL     OW26809   1.934   0.632   0.788
 8637SOL    HW126810   1.990   0.586   0.857
 8637SOL    HW226811   1.969   0.611   0.697
 8638SOL     OW26812   2.817   4.934   0.481
 8638SOL    HW126813   2.915   4.952   0.486
 8638SOL    HW226814   2.779   4.926   0.573
 8639SOL     OW26815   5.966   3.389   2.064
 8639SOL    HW126816   5.889   3.345   2.018
 8639SOL    HW226817   5.980   3.480   2.025
 8640SOL     OW26818   5.114   4.940   0.816
 8640SOL    HW126819   5.143   4.865   0.875
 8640SOL    HW226820   5.032   4.913   0.766
 8641SOL     OW26821   6.819   3.983   3.236
 8641SOL    HW126822   6.825   4.082   3.248
 8641SOL    HW226823   6.761   3.962   3.158
 8642SOL     OW26824   4.559   0.930   1.681
 8642SOL    HW126825   4.632   0.970   1.736
 8642SOL    HW226826   4.509   0.863   1.736
 8643SOL     OW26827   4.246   0.749   6.471
 8643SOL    HW126828   4.201   0.681   6.412
 8643SOL    HW226829   4.255   0.712   6.563
 8644SOL     OW26830   5.719   2.182   4.557
 8644SOL    HW126831   5.659   2.121   4.608
 8644SOL    HW226832   5.755   2.135   4.477
 8645SOL     OW26833   6.514   3.847   1.521
 8645SOL    HW126834   6.572   3.769   1.499
 8645SOL    HW226835   6.544   3.887   1.608
 8646SOL     OW26836   5.175   0.729   6.847
 8646SOL    HW126837   5.148   0.792   6.774
 8646SOL    HW226838   5.167   0.775   6.936
 8647SOL     OW26839   3.986   4.669   7.022
 8647SOL    HW126840   3.959   4.573   0.005
 8647SOL    HW226841   3.905   4.724   7.003
 8648SOL     OW26842   5.757   0.720   4.402
 8648SOL    HW126843   5.772   0.702   4.499
 8648SOL    HW226844   5.662   0.701   4.378
 8649SOL     OW26845   5.927   3.982   5.490
 8649SOL    HW126846   5.944   4.049   5.562
 8649SOL    HW226847   6.013   3.964   5.441
 8650SOL     OW26848   2.175   5.298   3.878
 8650SOL    HW126849   2.186   5.219   3.817
 8650SOL    HW226850   2.213   5.379   3.835
 8651SOL     OW26851   3.753   1.810   0.065
 8651SOL    HW126852   3.682   1.754   0.106
 8651SOL    HW226853   3.721   1.845   7.004
 8652SOL     OW26854   2.033   3.535   3.881
 8652SOL    HW126855   2.072   3.592   3.809
 8652SOL    HW226856   1.934   3.542   3.879
 8653SOL     OW26857   0.443   2.882   6.855
 8653SOL    HW126858   0.440   2.825   6.773
 8653SOL    HW226859   0.422   2.827   6.935
 8654SOL     OW26860   0.252   6.984   2.958
 8654SOL    HW126861   0.277   6.915   2.890
 8654SOL    HW226862   0.153   6.994   2.961
 8655SOL     OW26863   5.936   6.238   4.689
 8655SOL    HW126864   5.977   6.217   4.600
 8655SOL    HW226865   5.990   6.308   4.735
 8656SOL     OW26866   6.760   0.854   1.390
 8656SOL    HW126867   6.692   0.781   1.392
 8656SOL    HW226868   6.839   0.828   1.445
 8657SOL     OW26869   4.748   4.861   6.443
 8657SOL    HW126870   4.659   4.868   6.396
 8657SOL    HW226871   4.821   4.857   6.375
 8658SOL     OW26872   5.780   5.297   0.079
 8658SOL    HW126873   5.830   5.215   0.051
 8658SOL    HW226874   5.697   5.271   0.128
 8659SOL     OW26875   4.792   0.449   3.283
 8659SOL    HW126876   4.732   0.404   3.349
 8659SOL    HW226877   4.833   0.529   3.325
 8660SOL     OW26878   5.602   3.700   0.592
 8660SOL    HW126879   5.676   3.727   0.529
 8660SOL    HW226880   5.599   3.600   0.598
 8661SOL     OW26881   6.594   4.211   1.811
 8661SOL    HW126882   6.524   4.247   1.749
 8661SOL    HW226883   6.685   4.235   1.776
 8662SOL     OW26884   6.491   6.164   1.244
 8662SOL    HW126885   6.455   6.195   1.332
 8662SOL    HW226886   6.421   6.175   1.174
 8663SOL     OW26887   2.405   5.749   0.817
 8663SOL    HW126888   2.371   5.657   0.798
 8663SOL    HW226889   2.347   5.817   0.771
 8664SOL     OW26890   4.231   6.061   6.988
 8664SOL    HW126891   4.294   6.110   6.927
 8664SOL    HW226892   4.284   6.011   0.029
 8665SOL     OW26893   4.369   5.449   5.117
 8665SOL    HW126894   4.310   5.526   5.141
 8665SOL    HW226895   4.465   5.477   5.127
 8666SOL     OW26896   4.989   2.816   5.349
 8666SOL    HW126897   4.922   2.771   5.290
 8666SOL    HW226898   5.012   2.755   5.425
 8667SOL     OW26899   5.002   1.681   3.524
 8667SOL    HW126900   4.908   1.707   3.501
 8667SOL    HW226901   5.020   1.703   3.620
 8668SOL     OW26902   4.857   2.202   4.022
 8668SOL    HW126903   4.939   2.197   4.079
 8668SOL    HW226904   4.852   2.120   3.964
 8669SOL     OW26905   4.238   0.752   6.171
 8669SOL    HW126906   4.176   0.710   6.237
 8669SOL    HW226907   4.288   0.826   6.215
 8670SOL     OW26908   3.523   5.455   4.231
 8670SOL    HW126909   3.546   5.465   4.328
 8670SOL    HW226910   3.460   5.529   4.204
 8671SOL     OW26911   6.279   6.898   3.688
 8671SOL    HW126912   6.360   6.842   3.671
 8671SOL    HW226913   6.203   6.839   3.716
 8672SOL     OW26914   3.461   4.900   4.305
 8672SOL    HW126915   3.554   4.863   4.313
 8672SOL    HW226916   3.460   4.970   4.234
 8673SOL     OW26917   6.865   1.621   0.550
 8673SOL    HW126918   6.848   1.703   0.603
 8673SOL    HW226919   6.861   1.643   0.452
 8674SOL     OW26920   6.855   0.846   2.664
 8674SOL    HW126921   6.805   0.795   2.734
 8674SOL    HW226922   6.952   0.849   2.688
 8675SOL     OW26923   2.532   1.250   3.627
 8675SOL    HW126924   2.489   1.209   3.547
 8675SOL    HW226925   2.494   1.210   3.710
 8676SOL     OW26926   4.081   0.285   2.418
 8676SOL    HW126927   4.165   0.292   2.364
 8676SOL    HW226928   4.104   0.260   2.513
 8677SOL     OW26929   2.770   4.087   6.372
 8677SOL    HW126930   2.726   4.068   6.284
 8677SOL    HW226931   2.796   4.183   6.375
 8678SOL     OW26932   1.130   0.476   6.481
 8678SOL    HW126933   1.200   0.523   6.428
 8678SOL    HW226934   1.173   0.424   6.555
 8679SOL     OW26935   6.380   1.916   5.231
 8679SOL    HW126936   6.371   1.910   5.132
 8679SOL    HW226937   6.444   1.990   5.254
 8680SOL     OW26938   1.515   3.766   0.151
 8680SOL    HW126939   1.590   3.778   0.216
 8680SOL    HW226940   1.502   3.850   0.099
 8681SOL     OW26941   4.330   4.201   0.509
 8681SOL    HW126942   4.374   4.140   0.443
 8681SOL    HW226943   4.399   4.250   0.561
 8682SOL     OW26944   2.576   6.512   2.767
 8682SOL    HW126945   2.525   6.584   2.814
 8682SOL    HW226946   2.514   6.460   2.708
 8683SOL     OW26947   0.629   3.032   1.280
 8683SOL    HW126948   0.720   3.035   1.321
 8683SOL    HW226949   0.562   3.069   1.344
 8684SOL     OW26950   5.878   2.667   5.336
 8684SOL    HW126951   5.912   2.583   5.377
 8684SOL    HW226952   5.830   2.646   5.251
 8685SOL     OW26953   0.874   1.854   6.848
 8685SOL    HW126954   0.778   1.853   6.822
 8685SOL    HW226955   0.899   1.766   6.889
 8686SOL     OW26956   6.967   2.066   2.639
 8686SOL    HW126957   6.965   2.166   2.634
 8686SOL    HW226958   0.028   2.037   2.676
 8687SOL     OW26959   3.706   6.692   2.114
 8687SOL    HW126960   3.709   6.658   2.020
 8687SOL    HW226961   3.660   6.624   2.172
 8688SOL     OW26962   3.133   6.944   1.470
 8688SOL    HW126963   3.188   6.879   1.522
 8688SOL    HW226964   3.183   6.971   1.387
 8689SOL     OW26965   4.453   5.685   0.056
 8689SOL    HW126966   4.384   5.680   7.012
 8689SOL    HW226967   4.447   5.773   0.102
 8690SOL     OW26968   0.703   1.880   3.474
 8690SOL    HW126969   0.770   1.947   3.443
 8690SOL    HW226970   0.749   1.798   3.505
 8691SOL     OW26971   4.534   2.528   6.408
 8691SOL    HW126972   4.514   2.449   6.466
 8691SOL    HW226973   4.609   2.506   6.345
 8692SOL     OW26974   2.738   2.092   3.420
 8692SOL    HW126975   2.800   2.156   3.465
 8692SOL    HW226976   2.769   1.998   3.437
 8693SOL     OW26977   5.729   2.254   0.862
 8693SOL    HW126978   5.802   2.240   0.795
 8693SOL    HW226979   5.756   2.214   0.949
 8694SOL     OW26980   4.622   0.315   6.855
 8694SOL    HW126981   4.542   0.321   6.795
 8694SOL    HW226982   4.688   0.385   6.828
 8695SOL     OW26983   5.157   3.340   5.303
 8695SOL    HW126984   5.191   3.247   5.288
 8695SOL    HW226985   5.068   3.351   5.258
 8696SOL     OW26986   2.825   5.868   0.914
 8696SOL    HW126987   2.879   5.891   0.834
 8696SOL    HW226988   2.847   5.776   0.944
 8697SOL     OW26989   6.795   3.373   1.251
 8697SOL    HW126990   6.762   3.356   1.344
 8697SOL    HW226991   6.789   3.470   1.231
 8698SOL     OW26992   5.505   5.985   4.373
 8698SOL    HW126993   5.525   6.082   4.357
 8698SOL    HW226994   5.510   5.966   4.471
 8699SOL     OW26995   0.908   1.550   5.733
 8699SOL    HW126996   0.997   1.559   5.689
 8699SOL    HW226997   0.846   1.498   5.674
 8700SOL     OW26998   2.121   0.621   4.978
 8700SOL    HW126999   2.051   0.609   5.049
 8700SOL    HW227000   2.138   0.719   4.964
 8701SOL     OW27001   0.934   0.802   5.312
 8701SOL    HW127002   0.859   0.785   5.249
 8701SOL    HW227003   0.968   0.896   5.298
 8702SOL     OW27004   5.664   4.932   0.448
 8702SOL    HW127005   5.662   4.942   0.348
 8702SOL    HW227006   5.708   4.845   0.472
 8703SOL     OW27007   3.170   5.710   1.100
 8703SOL    HW127008   3.186   5.695   1.003
 8703SOL    HW227009   3.220   5.641   1.153
 8704SOL     OW27010   6.605   4.706   2.238
 8704SOL    HW127011   6.658   4.712   2.322
 8704SOL    HW227012   6.615   4.790   2.186
 8705SOL     OW27013   4.862   0.218   6.144
 8705SOL    HW127014   4.944   0.209   6.088
 8705SOL    HW227015   4.811   0.132   6.143
 8706SOL     OW27016   4.971   2.100   6.819
 8706SOL    HW127017   5.032   2.101   6.899
 8706SOL    HW227018   5.003   2.032   6.753
 8707SOL     OW27019   4.690   3.027   6.927
 8707SOL    HW127020   4.715   2.939   6.968
 8707SOL    HW227021   4.623   3.073   6.986
 8708SOL     OW27022   3.593   1.198   1.567
 8708SOL    HW127023   3.681   1.164   1.601
 8708SOL    HW227024   3.560   1.271   1.627
 8709SOL     OW27025   6.928   4.675   0.384
 8709SOL    HW127026   6.977   4.693   0.470
 8709SOL    HW227027   6.977   4.717   0.308
 8710SOL     OW27028   1.631   3.530   2.976
 8710SOL    HW127029   1.701   3.593   2.945
 8710SOL    HW227030   1.564   3.516   2.904
 8711SOL     OW27031   6.007   0.784   2.649
 8711SOL    HW127032   5.989   0.740   2.561
 8711SOL    HW227033   6.056   0.870   2.634
 8712SOL     OW27034   3.232   1.664   4.680
 8712SOL    HW127035   3.217   1.566   4.667
 8712SOL    HW227036   3.299   1.678   4.752
 8713SOL     OW27037   6.879   4.245   3.789
 8713SOL    HW127038   6.781   4.265   3.788
 8713SOL    HW227039   6.897   4.171   3.854
 8714SOL     OW27040   1.456   0.994   6.021
 8714SOL    HW127041   1.513   1.068   6.058
 8714SOL    HW227042   1.388   0.967   6.089
 8715SOL     OW27043   6.496   0.856   1.687
 8715SOL    HW127044   6.596   0.861   1.680
 8715SOL    HW227045   6.455   0.900   1.607
 8716SOL     OW27046   0.681   1.589   1.261
 8716SOL    HW127047   0.595   1.638   1.277
 8716SOL    HW227048   0.732   1.583   1.347
 8717SOL     OW27049   4.122   3.705   2.115
 8717SOL    HW127050   4.148   3.783   2.172
 8717SOL    HW227051   4.093   3.629   2.175
 8718SOL     OW27052   6.956   2.416   4.729
 8718SOL    HW127053   6.945   2.477   4.651
 8718SOL    HW227054   6.925   2.324   4.705
 8719SOL     OW27055   1.283   0.663   5.783
 8719SOL    HW127056   1.293   0.591   5.851
 8719SOL    HW227057   1.361   0.726   5.789
 8720SOL     OW27058   5.659   4.948   5.135
 8720SOL    HW127059   5.732   5.016   5.145
 8720SOL    HW227060   5.659   4.887   5.214
 8721SOL     OW27061   6.832   2.062   4.724
 8721SOL    HW127062   6.780   2.132   4.773
 8721SOL    HW227063   6.864   1.993   4.788
 8722SOL     OW27064   3.519   2.280   0.761
 8722SOL    HW127065   3.464   2.220   0.819
 8722SOL    HW227066   3.614   2.248   0.761
 8723SOL     OW27067   6.600   5.782   0.627
 8723SOL    HW127068   6.656   5.825   0.698
 8723SOL    HW227069   6.652   5.778   0.542
 8724SOL     OW27070   5.496   0.450   6.073
 8724SOL    HW127071   5.438   0.518   6.118
 8724SOL    HW227072   5.588   0.487   6.061
 8725SOL     OW27073   2.032   0.250   0.234
 8725SOL    HW127074   1.983   0.292   0.158
 8725SOL    HW227075   1.966   0.207   0.297
 8726SOL     OW27076   5.962   0.011   1.539
 8726SOL    HW127077   6.062   7.027   1.538
 8726SOL    HW227078   5.931   0.039   1.448
 8727SOL     OW27079   6.406   6.105   1.719
 8727SOL    HW127080   6.357   6.138   1.799
 8727SOL    HW227081   6.502   6.132   1.724
 8728SOL     OW27082   2.965   6.790   5.137
 8728SOL    HW127083   2.898   6.717   5.122
 8728SOL    HW227084   3.028   6.763   5.211
 8729SOL     OW27085   3.819   5.363   3.676
 8729SOL    HW127086   3.861   5.281   3.716
 8729SOL    HW227087   3.726   5.342   3.646
 8730SOL     OW27088   0.473   5.926   2.389
 8730SOL    HW127089   0.447   5.836   2.354
 8730SOL    HW227090   0.407   5.995   2.358
 8731SOL     OW27091   1.043   1.858   3.635
 8731SOL    HW127092   1.138   1.884   3.619
 8731SOL    HW227093   1.021   1.871   3.731
 8732SOL     OW27094   5.568   3.973   1.590
 8732SOL    HW127095   5.476   4.006   1.610
 8732SOL    HW227096   5.598   3.912   1.662
 8733SOL     OW27097   0.809   6.316   2.000
 8733SOL    HW127098   0.739   6.338   2.069
 8733SOL    HW227099   0.894   6.362   2.024
 8734SOL     OW27100   0.526   5.766   1.267
 8734SOL    HW127101   0.605   5.763   1.328
 8734SOL    HW227102   0.446   5.730   1.315
 8735SOL     OW27103   0.428   1.743   0.313
 8735SOL    HW127104   0.444   1.729   0.410
 8735SOL    HW227105   0.383   1.831   0.298
 8736SOL     OW27106   0.929   5.141   6.543
 8736SOL    HW127107   1.016   5.124   6.496
 8736SOL    HW227108   0.865   5.185   6.479
 8737SOL     OW27109   3.301   6.109   6.016
 8737SOL    HW127110   3.320   6.012   6.029
 8737SOL    HW227111   3.228   6.137   6.078
 8738SOL     OW27112   1.197   3.958   3.893
 8738SOL    HW127113   1.158   3.871   3.924
 8738SOL    HW227114   1.292   3.943   3.864
 8739SOL     OW27115   6.809   3.492   5.746
 8739SOL    HW127116   6.779   3.587   5.752
 8739SOL    HW227117   6.908   3.488   5.765
 8740SOL     OW27118   2.874   0.221   6.437
 8740SOL    HW127119   2.817   0.151   6.396
 8740SOL    HW227120   2.817   0.283   6.491
 8741SOL     OW27121   1.316   2.905   2.396
 8741SOL    HW127122   1.372   2.825   2.376
 8741SOL    HW227123   1.235   2.905   2.337
 8742SOL     OW27124   4.859   0.140   1.653
 8742SOL    HW127125   4.820   0.058   1.694
 8742SOL    HW227126   4.957   0.144   1.673
 8743SOL     OW27127   1.897   5.744   2.010
 8743SOL    HW127128   1.963   5.816   2.030
 8743SOL    HW227129   1.862   5.706   2.096
 8744SOL     OW27130   4.110   2.849   6.478
 8744SOL    HW127131   4.168   2.820   6.402
 8744SOL    HW227132   4.167   2.872   6.557
 8745SOL     OW27133   6.123   2.003   5.303
 8745SOL    HW127134   6.216   1.970   5.287
 8745SOL    HW227135   6.058   1.927   5.297
 8746SOL     OW27136   5.332   4.844   5.455
 8746SOL    HW127137   5.293   4.755   5.477
 8746SOL    HW227138   5.258   4.911   5.446
 8747SOL     OW27139   1.170   2.569   3.991
 8747SOL    HW127140   1.080   2.595   4.027
 8747SOL    HW227141   1.218   2.514   4.059
 8748SOL     OW27142   1.281   0.801   6.430
 8748SOL    HW127143   1.300   0.774   6.525
 8748SOL    HW227144   1.187   0.833   6.422
 8749SOL     OW27145   3.709   0.630   3.772
 8749SOL    HW127146   3.795   0.660   3.814
 8749SOL    HW227147   3.695   0.679   3.686
 8750SOL     OW27148   1.987   2.252   5.091
 8750SOL    HW127149   1.891   2.225   5.084
 8750SOL    HW227150   2.022   2.276   5.000
 8751SOL     OW27151   0.838   0.131   2.031
 8751SOL    HW127152   0.877   0.216   2.067
 8751SOL    HW227153   0.738   0.140   2.025
 8752SOL     OW27154   2.049   3.424   6.690
 8752SOL    HW127155   2.093   3.495   6.635
 8752SOL    HW227156   2.066   3.335   6.649
 8753SOL     OW27157   5.554   1.379   4.863
 8753SOL    HW127158   5.571   1.452   4.797
 8753SOL    HW227159   5.636   1.323   4.874
 8754SOL     OW27160   0.723   1.361   6.261
 8754SOL    HW127161   0.701   1.268   6.290
 8754SOL    HW227162   0.660   1.389   6.188
 8755SOL     OW27163   2.653   0.836   0.575
 8755SOL    HW127164   2.598   0.884   0.507
 8755SOL    HW227165   2.601   0.758   0.611
 8756SOL     OW27166   2.154   2.929   4.085
 8756SOL    HW127167   2.210   2.936   4.002
 8756SOL    HW227168   2.075   2.989   4.077
 8757SOL     OW27169   4.125   6.613   4.707
 8757SOL    HW127170   4.064   6.627   4.786
 8757SOL    HW227171   4.220   6.617   4.737
 8758SOL     OW27172   5.947   6.339   1.971
 8758SOL    HW127173   5.993   6.288   2.044
 8758SOL    HW227174   5.888   6.278   1.919
 8759SOL     OW27175   4.641   0.660   5.656
 8759SOL    HW127176   4.656   0.749   5.698
 8759SOL    HW227177   4.707   0.594   5.692
 8760SOL     OW27178   2.009   1.917   4.443
 8760SOL    HW127179   1.962   1.839   4.486
 8760SOL    HW227180   2.021   1.989   4.510
 8761SOL     OW27181   5.099   0.462   6.899
 8761SOL    HW127182   5.126   0.558   6.885
 8761SOL    HW227183   5.167   0.403   6.855
 8762SOL     OW27184   1.312   3.579   1.236
 8762SOL    HW127185   1.230   3.624   1.202
 8762SOL    HW227186   1.289   3.487   1.269
 8763SOL     OW27187   0.302   6.337   6.189
 8763SOL    HW127188   0.256   6.270   6.130
 8763SOL    HW227189   0.276   6.320   6.284
 8764SOL     OW27190   4.926   1.350   4.218
 8764SOL    HW127191   4.914   1.272   4.156
 8764SOL    HW227192   4.910   1.435   4.168
 8765SOL     OW27193   5.468   6.738   4.752
 8765SOL    HW127194   5.486   6.833   4.727
 8765SOL    HW227195   5.507   6.719   4.842
 8766SOL     OW27196   2.404   5.154   2.969
 8766SOL    HW127197   2.462   5.079   2.939
 8766SOL    HW227198   2.419   5.172   3.066
 8767SOL     OW27199   4.796   1.065   3.060
 8767SOL    HW127200   4.698   1.063   3.043
 8767SOL    HW227201   4.838   0.985   3.017
 8768SOL     OW27202   2.103   3.531   0.234
 8768SOL    HW127203   2.089   3.623   0.198
 8768SOL    HW227204   2.198   3.519   0.262
 8769SOL     OW27205   1.011   7.021   5.733
 8769SOL    HW127206   1.070   0.017   5.810
 8769SOL    HW227207   1.010   0.070   5.668
 8770SOL     OW27208   5.237   4.093   1.413
 8770SOL    HW127209   5.213   4.001   1.383
 8770SOL    HW227210   5.248   4.095   1.512
 8771SOL     OW27211   1.874   1.627   6.798
 8771SOL    HW127212   1.937   1.578   6.737
 8771SOL    HW227213   1.900   1.723   6.803
 8772SOL     OW27214   5.878   1.374   6.359
 8772SOL    HW127215   5.978   1.374   6.358
 8772SOL    HW227216   5.844   1.342   6.270
 8773SOL     OW27217   3.258   2.152   2.900
 8773SOL    HW127218   3.254   2.057   2.931
 8773SOL    HW227219   3.167   2.191   2.898
 8774SOL     OW27220   1.311   1.719   0.697
 8774SOL    HW127221   1.249   1.703   0.774
 8774SOL    HW227222   1.277   1.670   0.617
 8775SOL     OW27223   5.905   6.808   3.383
 8775SOL    HW127224   5.845   6.769   3.452
 8775SOL    HW227225   5.999   6.777   3.399
 8776SOL     OW27226   3.122   3.045   4.862
 8776SOL    HW127227   3.083   2.955   4.882
 8776SOL    HW227228   3.136   3.095   4.947
 8777SOL     OW27229   6.125   5.753   2.104
 8777SOL    HW127230   6.153   5.767   2.009
 8777SOL    HW227231   6.206   5.744   2.162
 8778SOL     OW27232   7.016   1.880   3.564
 8778SOL    HW127233   6.936   1.825   3.587
 8778SOL    HW227234   0.033   1.911   3.649
 8779SOL     OW27235   1.710   4.744   1.411
 8779SOL    HW127236   1.686   4.785   1.323
 8779SOL    HW227237   1.703   4.644   1.405
 8780SOL     OW27238   0.547   5.313   4.301
 8780SOL    HW127239   0.588   5.262   4.225
 8780SOL    HW227240   0.607   5.306   4.381
 8781SOL     OW27241   0.640   1.740   3.171
 8781SOL    HW127242   0.572   1.723   3.242
 8781SOL    HW227243   0.614   1.692   3.087
 8782SOL     OW27244   4.437   1.353   2.617
 8782SOL    HW127245   4.396   1.442   2.597
 8782SOL    HW227246   4.369   1.282   2.607
 8783SOL     OW27247   5.901   4.054   4.352
 8783SOL    HW127248   5.830   4.122   4.332
 8783SOL    HW227249   5.878   3.968   4.308
 8784SOL     OW27250   5.686   5.304   5.565
 8784SOL    HW127251   5.665   5.386   5.511
 8784SOL    HW227252   5.626   5.230   5.537
 8785SOL     OW27253   5.509   4.467   6.815
 8785SOL    HW127254   5.513   4.368   6.820
 8785SOL    HW227255   5.578   4.500   6.750
 8786SOL     OW27256   1.614   6.719   7.003
 8786SOL    HW127257   1.694   6.779   6.998
 8786SOL    HW227258   1.559   6.744   0.055
 8787SOL     OW27259   1.967   3.508   1.432
 8787SOL    HW127260   2.024   3.541   1.356
 8787SOL    HW227261   1.971   3.573   1.507
 8788SOL     OW27262   6.812   1.938   5.322
 8788SOL    HW127263   6.723   1.979   5.305
 8788SOL    HW227264   6.869   1.947   5.240
 8789SOL     OW27265   6.533   0.305   6.717
 8789SOL    HW127266   6.446   0.264   6.744
 8789SOL    HW227267   6.517   0.396   6.681
 8790SOL     OW27268   6.241   1.814   6.705
 8790SOL    HW127269   6.326   1.800   6.655
 8790SOL    HW227270   6.247   1.770   6.795
 8791SOL     OW27271   4.708   6.632   5.903
 8791SOL    HW127272   4.740   6.575   5.979
 8791SOL    HW227273   4.760   6.718   5.902
 8792SOL     OW27274   4.245   6.811   3.164
 8792SOL    HW127275   4.303   6.885   3.199
 8792SOL    HW227276   4.171   6.794   3.229
 8793SOL     OW27277   1.792   5.854   3.581
 8793SOL    HW127278   1.781   5.901   3.669
 8793SOL    HW227279   1.702   5.832   3.544
 8794SOL     OW27280   1.748   6.965   2.799
 8794SOL    HW127281   1.774   6.986   2.893
 8794SOL    HW227282   1.800   6.885   2.767
 8795SOL     OW27283   1.782   6.667   5.766
 8795SOL    HW127284   1.761   6.571   5.779
 8795SOL    HW227285   1.758   6.718   5.848
 8796SOL     OW27286   4.826   2.212   5.523
 8796SOL    HW127287   4.771   2.211   5.440
 8796SOL    HW227288   4.846   2.119   5.552
 8797SOL     OW27289   0.643   6.636   6.020
 8797SOL    HW127290   0.743   6.629   6.016
 8797SOL    HW227291   0.605   6.613   5.930
 8798SOL     OW27292   5.541   3.621   5.073
 8798SOL    HW127293   5.455   3.586   5.112
 8798SOL    HW227294   5.618   3.582   5.123
 8799SOL     OW27295   3.177   4.845   2.891
 8799SOL    HW127296   3.101   4.909   2.879
 8799SOL    HW227297   3.196   4.799   2.804
 8800SOL     OW27298   4.481   4.810   6.242
 8800SOL    HW127299   4.471   4.757   6.158
 8800SOL    HW227300   4.432   4.897   6.233
 8801SOL     OW27301   2.729   1.269   4.342
 8801SOL    HW127302   2.704   1.339   4.409
 8801SOL    HW227303   2.828   1.253   4.347
 8802SOL     OW27304   2.011   6.181   2.210
 8802SOL    HW127305   2.063   6.266   2.200
 8802SOL    HW227306   1.925   6.199   2.257
 8803SOL     OW27307   2.639   5.585   0.021
 8803SOL    HW127308   2.726   5.581   6.998
 8803SOL    HW227309   2.647   5.651   0.096
 8804SOL     OW27310   4.251   0.336   1.391
 8804SOL    HW127311   4.228   0.421   1.440
 8804SOL    HW227312   4.270   0.357   1.295
 8805SOL     OW27313   0.553   0.342   3.171
 8805SOL    HW127314   0.573   0.244   3.162
 8805SOL    HW227315   0.457   0.354   3.197
 8806SOL     OW27316   1.573   5.070   0.100
 8806SOL    HW127317   1.599   5.140   0.166
 8806SOL    HW227318   1.506   5.108   0.036
 8807SOL     OW27319   0.649   5.983   5.956
 8807SOL    HW127320   0.646   5.907   6.021
 8807SOL    HW227321   0.692   5.952   5.871
 8808SOL     OW27322   5.157   1.185   0.022
 8808SOL    HW127323   5.238   1.145   0.065
 8808SOL    HW227324   5.178   1.208   6.954
 8809SOL     OW27325   6.037   3.967   1.608
 8809SOL    HW127326   6.046   3.949   1.510
 8809SOL    HW227327   6.081   3.895   1.660
 8810SOL     OW27328   4.577   1.541   3.671
 8810SOL    HW127329   4.498   1.602   3.670
 8810SOL    HW227330   4.546   1.447   3.656
 8811SOL     OW27331   2.667   1.826   3.254
 8811SOL    HW127332   2.706   1.864   3.170
 8811SOL    HW227333   2.584   1.774   3.232
 8812SOL     OW27334   1.053   1.119   0.613
 8812SOL    HW127335   1.033   1.073   0.526
 8812SOL    HW227336   1.146   1.155   0.610
 8813SOL     OW27337   1.363   6.670   2.078
 8813SOL    HW127338   1.313   6.662   1.992
 8813SOL    HW227339   1.303   6.647   2.154
 8814SOL     OW27340   6.083   0.919   6.898
 8814SOL    HW127341   6.177   0.945   6.879
 8814SOL    HW227342   6.030   0.918   6.813
 8815SOL     OW27343   0.295   6.119   2.291
 8815SOL    HW127344   0.303   6.192   2.223
 8815SOL    HW227345   0.235   6.047   2.256
 8816SOL     OW27346   1.125   5.823   1.763
 8816SOL    HW127347   1.196   5.755   1.749
 8816SOL    HW227348   1.076   5.802   1.848
 8817SOL     OW27349   1.305   5.745   5.040
 8817SOL    HW127350   1.233   5.740   5.109
 8817SOL    HW227351   1.332   5.840   5.026
 8818SOL     OW27352   0.329   4.736   4.049
 8818SOL    HW127353   0.283   4.649   4.031
 8818SOL    HW227354   0.378   4.730   4.136
 8819SOL     OW27355   5.241   6.518   4.285
 8819SOL    HW127356   5.183   6.479   4.357
 8819SOL    HW227357   5.194   6.509   4.196
 8820SOL     OW27358   1.855   2.482   4.329
 8820SOL    HW127359   1.953   2.479   4.347
 8820SOL    HW227360   1.806   2.493   4.416
 8821SOL     OW27361   2.627   0.445   6.188
 8821SOL    HW127362   2.712   0.477   6.146
 8821SOL    HW227363   2.564   0.416   6.116
 8822SOL     OW27364   0.527   1.434   3.582
 8822SOL    HW127365   0.452   1.378   3.547
 8822SOL    HW227366   0.495   1.527   3.599
 8823SOL     OW27367   1.696   6.814   0.945
 8823SOL    HW127368   1.725   6.738   0.887
 8823SOL    HW227369   1.681   6.895   0.889
 8824SOL     OW27370   3.597   4.152   0.706
 8824SOL    HW127371   3.650   4.067   0.714
 8824SOL    HW227372   3.576   4.187   0.797
 8825SOL     OW27373   1.013   1.299   1.918
 8825SOL    HW127374   1.091   1.350   1.882
 8825SOL    HW227375   0.965   1.354   1.986
 8826SOL     OW27376   5.535   1.240   6.474
 8826SOL    HW127377   5.463   1.298   6.437
 8826SOL    HW227378   5.591   1.204   6.399
 8827SOL     OW27379   1.691   1.413   3.383
 8827SOL    HW127380   1.724   1.368   3.466
 8827SOL    HW227381   1.712   1.510   3.387
 8828SOL     OW27382   2.658   6.158   2.320
 8828SOL    HW127383   2.594   6.227   2.286
 8828SOL    HW227384   2.631   6.130   2.412
 8829SOL     OW27385   0.215   1.971   0.018
 8829SOL    HW127386   0.207   1.873   7.023
 8829SOL    HW227387   0.140   2.021   7.002
 8830SOL     OW27388   0.991   1.597   0.177
 8830SOL    HW127389   1.001   1.604   0.276
 8830SOL    HW227390   0.995   1.688   0.136
 8831SOL     OW27391   6.342   1.034   3.168
 8831SOL    HW127392   6.437   1.026   3.136
 8831SOL    HW227393   6.339   1.022   3.267
 8832SOL     OW27394   6.569   0.486   2.700
 8832SOL    HW127395   6.589   0.572   2.653
 8832SOL    HW227396   6.483   0.495   2.751
 8833SOL     OW27397   2.389   5.267   4.534
 8833SOL    HW127398   2.471   5.292   4.482
 8833SOL    HW227399   2.412   5.192   4.597
 8834SOL     OW27400   6.021   3.159   4.832
 8834SOL    HW127401   6.115   3.145   4.865
 8834SOL    HW227402   5.958   3.102   4.885
 8835SOL     OW27403   6.759   6.463   5.423
 8835SOL    HW127404   6.738   6.389   5.488
 8835SOL    HW227405   6.852   6.496   5.440
 8836SOL     OW27406   4.252   1.369   6.810
 8836SOL    HW127407   4.253   1.352   6.909
 8836SOL    HW227408   4.335   1.420   6.785
 8837SOL     OW27409   0.486   1.063   1.520
 8837SOL    HW127410   0.496   1.162   1.511
 8837SOL    HW227411   0.454   1.025   1.434
 8838SOL     OW27412   2.856   5.238   3.126
 8838SOL    HW127413   2.819   5.162   3.074
 8838SOL    HW227414   2.863   5.212   3.223
 8839SOL     OW27415   6.112   5.937   3.802
 8839SOL    HW127416   6.065   5.851   3.782
 8839SOL    HW227417   6.193   5.945   3.745
 8840SOL     OW27418   5.940   2.434   2.096
 8840SOL    HW127419   5.984   2.345   2.100
 8840SOL    HW227420   6.010   2.506   2.099
 8841SOL     OW27421   0.903   1.779   5.425
 8841SOL    HW127422   0.821   1.832   5.448
 8841SOL    HW227423   0.963   1.834   5.367
 8842SOL     OW27424   2.287   2.753   1.969
 8842SOL    HW127425   2.275   2.850   1.951
 8842SOL    HW227426   2.294   2.703   1.883
 8843SOL     OW27427   1.188   2.575   4.877
 8843SOL    HW127428   1.123   2.533   4.941
 8843SOL    HW227429   1.167   2.547   4.784
 8844SOL     OW27430   6.370   0.519   6.184
 8844SOL    HW127431   6.359   0.533   6.085
 8844SOL    HW227432   6.335   0.599   6.233
 8845SOL     OW27433   4.970   4.083   0.238
 8845SOL    HW127434   4.930   3.998   0.205
 8845SOL    HW227435   4.976   4.081   0.338
 8846SOL     OW27436   1.997   4.556   3.895
 8846SOL    HW127437   2.071   4.488   3.892
 8846SOL    HW227438   1.967   4.576   3.801
 8847SOL     OW27439   3.192   0.090   2.146
 8847SOL    HW127440   3.200   7.019   2.130
 8847SOL    HW227441   3.257   0.139   2.087
 8848SOL     OW27442   1.654   0.472   2.227
 8848SOL    HW127443   1.585   0.491   2.297
 8848SOL    HW227444   1.744   0.503   2.259
 8849SOL     OW27445   2.575   6.749   1.694
 8849SOL    HW127446   2.562   6.694   1.611
 8849SOL    HW227447   2.603   6.689   1.769
 8850SOL     OW27448   3.565   2.407   6.681
 8850SOL    HW127449   3.595   2.419   6.775
 8850SOL    HW227450   3.644   2.387   6.623
 8851SOL     OW27451   1.806   4.628   2.397
 8851SOL    HW127452   1.721   4.677   2.417
 8851SOL    HW227453   1.876   4.694   2.368
 8852SOL     OW27454   0.906   1.403   6.019
 8852SOL    HW127455   0.827   1.366   6.067
 8852SOL    HW227456   0.936   1.487   6.065
 8853SOL     OW27457   3.973   1.310   0.318
 8853SOL    HW127458   3.906   1.332   0.248
 8853SOL    HW227459   3.989   1.391   0.375
 8854SOL     OW27460   1.794   3.199   5.094
 8854SOL    HW127461   1.856   3.250   5.154
 8854SOL    HW227462   1.832   3.195   5.002
 8855SOL     OW27463   5.784   5.255   0.761
 8855SOL    HW127464   5.760   5.234   0.666
 8855SOL    HW227465   5.705   5.240   0.820
 8856SOL     OW27466   0.928   5.516   6.227
 8856SOL    HW127467   0.906   5.611   6.206
 8856SOL    HW227468   0.998   5.513   6.298
 8857SOL     OW27469   6.685   1.269   5.458
 8857SOL    HW127470   6.702   1.304   5.366
 8857SOL    HW227471   6.590   1.238   5.465
 8858SOL     OW27472   6.319   4.733   4.443
 8858SOL    HW127473   6.355   4.762   4.354
 8858SOL    HW227474   6.230   4.689   4.431
 8859SOL     OW27475   0.610   0.596   3.606
 8859SOL    HW127476   0.555   0.551   3.676
 8859SOL    HW227477   0.663   0.670   3.648
 8860SOL     OW27478   6.777   2.255   1.710
 8860SOL    HW127479   6.678   2.241   1.704
 8860SOL    HW227480   6.797   2.353   1.710
 8861SOL     OW27481   4.410   2.294   1.468
 8861SOL    HW127482   4.506   2.267   1.463
 8861SOL    HW227483   4.389   2.358   1.394
 8862SOL     OW27484   4.577   5.009   5.126
 8862SOL    HW127485   4.488   4.990   5.167
 8862SOL    HW227486   4.648   5.003   5.197
 8863SOL     OW27487   2.238   4.040   3.874
 8863SOL    HW127488   2.229   3.972   3.946
 8863SOL    HW227489   2.233   3.995   3.785
 8864SOL     OW27490   5.900   1.296   5.413
 8864SOL    HW127491   5.825   1.274   5.476
 8864SOL    HW227492   5.904   1.395   5.400
 8865SOL     OW27493   2.055   1.506   6.622
 8865SOL    HW127494   2.063   1.568   6.544
 8865SOL    HW227495   2.081   1.414   6.594
 8866SOL     OW27496   5.962   5.804   2.306
 8866SOL    HW127497   6.033   5.805   2.237
 8866SOL    HW227498   5.984   5.871   2.378
 8867SOL     OW27499   6.498   3.926   2.757
 8867SOL    HW127500   6.480   4.024   2.769
 8867SOL    HW227501   6.426   3.886   2.700
 8868SOL     OW27502   0.323   3.679   3.389
 8868SOL    HW127503   0.244   3.707   3.443
 8868SOL    HW227504   0.358   3.758   3.338
 8869SOL     OW27505   3.158   6.215   3.786
 8869SOL    HW127506   3.174   6.195   3.689
 8869SOL    HW227507   3.061   6.231   3.801
 8870SOL     OW27508   1.549   0.125   2.366
 8870SOL    HW127509   1.631   0.109   2.420
 8870SOL    HW227510   1.530   0.045   2.309
 8871SOL     OW27511   0.457   0.947   3.000
 8871SOL    HW127512   0.516   1.020   2.966
 8871SOL    HW227513   0.490   0.858   2.966
 8872SOL     OW27514   0.630   4.803   4.810
 8872SOL    HW127515   0.675   4.778   4.896
 8872SOL    HW227516   0.545   4.751   4.801
 8873SOL     OW27517   1.385   0.752   2.466
 8873SOL    HW127518   1.289   0.754   2.495
 8873SOL    HW227519   1.411   0.658   2.444
 8874SOL     OW27520   3.178   5.695   0.223
 8874SOL    HW127521   3.233   5.744   0.155
 8874SOL    HW227522   3.123   5.761   0.275
 8875SOL     OW27523   0.232   3.471   3.665
 8875SOL    HW127524   0.138   3.445   3.641
 8875SOL    HW227525   0.291   3.462   3.585
 8876SOL     OW27526   3.860   0.799   6.658
 8876SOL    HW127527   3.894   0.718   6.706
 8876SOL    HW227528   3.935   0.841   6.608
 8877SOL     OW27529   1.597   4.022   1.324
 8877SOL    HW127530   1.689   3.998   1.357
 8877SOL    HW227531   1.595   4.016   1.224
 8878SOL     OW27532   4.465   3.922   1.054
 8878SOL    HW127533   4.519   4.005   1.036
 8878SOL    HW227534   4.493   3.883   1.142
 8879SOL     OW27535   6.012   4.819   2.343
 8879SOL    HW127536   5.946   4.796   2.270
 8879SOL    HW227537   5.972   4.888   2.403
 8880SOL     OW27538   4.689   6.631   4.013
 8880SOL    HW127539   4.785   6.603   4.015
 8880SOL    HW227540   4.659   6.651   4.106
 8881SOL     OW27541   4.149   5.270   4.516
 8881SOL    HW127542   4.184   5.341   4.455
 8881SOL    HW227543   4.079   5.217   4.469
 8882SOL     OW27544   4.342   0.450   1.137
 8882SOL    HW127545   4.436   0.417   1.129
 8882SOL    HW227546   4.341   0.550   1.136
 8883SOL     OW27547   0.166   6.184   4.697
 8883SOL    HW127548   0.186   6.122   4.772
 8883SOL    HW227549   0.074   6.166   4.663
 8884SOL     OW27550   5.199   3.740   4.907
 8884SOL    HW127551   5.114   3.703   4.869
 8884SOL    HW227552   5.233   3.680   4.980
 8885SOL     OW27553   6.196   5.413   0.531
 8885SOL    HW127554   6.137   5.465   0.594
 8885SOL    HW227555   6.279   5.465   0.513
 8886SOL     OW27556   3.313   5.654   6.739
 8886SOL    HW127557   3.273   5.639   6.649
 8886SOL    HW227558   3.297   5.573   6.796
 8887SOL     OW27559   5.149   1.430   1.411
 8887SOL    HW127560   5.050   1.425   1.430
 8887SOL    HW227561   5.179   1.525   1.420
 8888SOL     OW27562   2.462   1.626   3.953
 8888SOL    HW127563   2.410   1.548   3.919
 8888SOL    HW227564   2.474   1.694   3.881
 8889SOL     OW27565   0.516   6.532   6.242
 8889SOL    HW127566   0.453   6.460   6.212
 8889SOL    HW227567   0.533   6.594   6.165
 8890SOL     OW27568   0.287   6.852   7.014
 8890SOL    HW127569   0.305   6.847   0.084
 8890SOL    HW227570   0.201   6.902   6.999
 8891SOL     OW27571   6.187   4.479   0.400
 8891SOL    HW127572   6.277   4.494   0.441
 8891SOL    HW227573   6.192   4.492   0.301
 8892SOL     OW27574   3.034   5.441   3.421
 8892SOL    HW127575   3.083   5.513   3.470
 8892SOL    HW227576   3.096   5.363   3.406
 8893SOL     OW27577   1.317   4.996   4.904
 8893SOL    HW127578   1.304   5.078   4.960
 8893SOL    HW227579   1.288   5.015   4.810
 8894SOL     OW27580   4.378   1.587   7.012
 8894SOL    HW127581   4.281   1.613   7.021
 8894SOL    HW227582   4.416   1.571   0.075
 8895SOL     OW27583   0.376   3.778   1.268
 8895SOL    HW127584   0.285   3.779   1.226
 8895SOL    HW227585   0.445   3.800   1.198
 8896SOL     OW27586   0.449   2.143   4.493
 8896SOL    HW127587   0.422   2.054   4.457
 8896SOL    HW227588   0.380   2.211   4.470
 8897SOL     OW27589   1.893   3.992   4.227
 8897SOL    HW127590   1.853   3.928   4.161
 8897SOL    HW227591   1.991   3.974   4.235
 8898SOL     OW27592   5.066   4.006   2.797
 8898SOL    HW127593   5.004   3.929   2.811
 8898SOL    HW227594   5.151   3.991   2.847
 8899SOL     OW27595   6.794   3.200   6.350
 8899SOL    HW127596   6.735   3.269   6.308
 8899SOL    HW227597   6.885   3.205   6.309
 8900SOL     OW27598   4.986   2.575   4.161
 8900SOL    HW127599   4.984   2.650   4.227
 8900SOL    HW227600   4.915   2.509   4.184
 8901SOL     OW27601   1.292   2.790   4.628
 8901SOL    HW127602   1.218   2.729   4.653
 8901SOL    HW227603   1.316   2.776   4.532
 8902SOL     OW27604   0.714   4.276   0.099
 8902SOL    HW127605   0.786   4.297   0.165
 8902SOL    HW227606   0.630   4.251   0.147
 8903SOL     OW27607   1.466   0.241   5.084
 8903SOL    HW127608   1.394   0.301   5.120
 8903SOL    HW227609   1.535   0.226   5.155
 8904SOL     OW27610   0.602   1.157   3.407
 8904SOL    HW127611   0.619   1.073   3.355
 8904SOL    HW227612   0.689   1.196   3.435
 8905SOL     OW27613   1.658   3.742   1.706
 8905SOL    HW127614   1.584   3.792   1.661
 8905SOL    HW227615   1.697   3.799   1.779
 8906SOL     OW27616   6.975   0.063   0.663
 8906SOL    HW127617   6.906   0.108   0.607
 8906SOL    HW227618   6.999   0.123   0.740
 8907SOL     OW27619   3.555   3.031   4.821
 8907SOL    HW127620   3.526   3.124   4.799
 8907SOL    HW227621   3.491   2.990   4.885
 8908SOL     OW27622   1.294   5.926   1.073
 8908SOL    HW127623   1.256   5.864   1.005
 8908SOL    HW227624   1.232   6.003   1.086
 8909SOL     OW27625   2.801   0.711   0.089
 8909SOL    HW127626   2.715   0.742   0.048
 8909SOL    HW227627   2.852   0.789   0.124
 8910SOL     OW27628   2.054   1.848   4.147
 8910SOL    HW127629   2.060   1.881   4.241
 8910SOL    HW227630   2.096   1.915   4.085
 8911SOL     OW27631   4.677   1.501   4.022
 8911SOL    HW127632   4.588   1.540   4.001
 8911SOL    HW227633   4.740   1.519   3.946
 8912SOL     OW27634   3.376   3.859   4.921
 8912SOL    HW127635   3.402   3.862   4.824
 8912SOL    HW227636   3.321   3.939   4.943
 8913SOL     OW27637   5.195   5.903   6.842
 8913SOL    HW127638   5.246   5.874   6.923
 8913SOL    HW227639   5.245   5.975   6.795
 8914SOL     OW27640   4.950   6.469   6.329
 8914SOL    HW127641   5.040   6.496   6.294
 8914SOL    HW227642   4.899   6.551   6.356
 8915SOL     OW27643   0.901   1.111   3.442
 8915SOL    HW127644   0.884   1.014   3.457
 8915SOL    HW227645   0.939   1.152   3.526
 8916SOL     OW27646   5.191   1.309   6.774
 8916SOL    HW127647   5.232   1.379   6.833
 8916SOL    HW227648   5.256   1.234   6.761
 8917SOL     OW27649   5.606   1.785   0.291
 8917SOL    HW127650   5.684   1.738   0.333
 8917SOL    HW227651   5.610   1.772   0.192
 8918SOL     OW27652   0.750   4.524   2.214
 8918SOL    HW127653   0.768   4.427   2.202
 8918SOL    HW227654   0.680   4.538   2.283
 8919SOL     OW27655   5.809   3.627   0.254
 8919SOL    HW127656   5.805   3.718   0.214
 8919SOL    HW227657   5.902   3.610   0.288
 8920SOL     OW27658   6.822   1.636   0.286
 8920SOL    HW127659   6.749   1.568   0.293
 8920SOL    HW227660   6.796   1.705   0.219
 8921SOL     OW27661   1.421   3.166   1.361
 8921SOL    HW127662   1.478   3.246   1.345
 8921SOL    HW227663   1.389   3.129   1.274
 8922SOL     OW27664   3.646   0.282   3.517
 8922SOL    HW127665   3.549   0.291   3.492
 8922SOL    HW227666   3.661   0.319   3.608
 8923SOL     OW27667   1.669   2.241   5.140
 8923SOL    HW127668   1.657   2.324   5.085
 8923SOL    HW227669   1.584   2.219   5.187
 8924SOL     OW27670   5.190   5.325   4.715
 8924SOL    HW127671   5.233   5.251   4.766
 8924SOL    HW227672   5.135   5.287   4.641
 8925SOL     OW27673   1.094   0.631   3.575
 8925SOL    HW127674   1.070   0.608   3.481
 8925SOL    HW227675   1.017   0.611   3.635
 8926SOL     OW27676   6.712   3.186   5.307
 8926SOL    HW127677   6.752   3.225   5.390
 8926SOL    HW227678   6.663   3.258   5.257
 8927SOL     OW27679   6.737   1.357   6.379
 8927SOL    HW127680   6.669   1.424   6.348
 8927SOL    HW227681   6.770   1.304   6.301
 8928SOL     OW27682   2.037   6.586   5.093
 8928SOL    HW127683   1.950   6.602   5.140
 8928SOL    HW227684   2.027   6.610   4.996
 8929SOL     OW27685   0.111   1.998   4.657
 8929SOL    HW127686   0.161   2.001   4.744
 8929SOL    HW227687   0.080   2.090   4.634
 8930SOL     OW27688   1.672   4.770   3.795
 8930SOL    HW127689   1.660   4.712   3.876
 8930SOL    HW227690   1.643   4.720   3.713
 8931SOL     OW27691   3.810   2.583   1.101
 8931SOL    HW127692   3.758   2.498   1.096
 8931SOL    HW227693   3.757   2.652   1.150
 8932SOL     OW27694   0.155   2.732   2.974
 8932SOL    HW127695   0.229   2.669   2.952
 8932SOL    HW227696   0.127   2.718   3.069
 8933SOL     OW27697   3.829   1.934   5.745
 8933SOL    HW127698   3.800   1.848   5.788
 8933SOL    HW227699   3.784   2.010   5.790
 8934SOL     OW27700   2.656   5.877   4.278
 8934SOL    HW127701   2.681   5.911   4.368
 8934SOL    HW227702   2.673   5.778   4.273
 8935SOL     OW27703   0.101   5.095   1.393
 8935SOL    HW127704   0.051   5.015   1.425
 8935SOL    HW227705   0.184   5.106   1.448
 8936SOL     OW27706   2.090   3.357   0.832
 8936SOL    HW127707   2.171   3.321   0.877
 8936SOL    HW227708   2.095   3.339   0.734
 8937SOL     OW27709   0.468   6.654   5.789
 8937SOL    HW127710   0.398   6.601   5.836
 8937SOL    HW227711   0.472   6.626   5.693
 8938SOL     OW27712   6.122   5.423   0.938
 8938SOL    HW127713   6.076   5.340   0.970
 8938SOL    HW227714   6.219   5.403   0.924
 8939SOL     OW27715   5.274   2.302   4.380
 8939SOL    HW127716   5.229   2.275   4.464
 8939SOL    HW227717   5.371   2.321   4.398
 8940SOL     OW27718   6.648   1.094   3.570
 8940SOL    HW127719   6.687   1.148   3.646
 8940SOL    HW227720   6.550   1.080   3.586
 8941SOL     OW27721   5.338   2.641   6.168
 8941SOL    HW127722   5.275   2.605   6.237
 8941SOL    HW227723   5.285   2.679   6.092
 8942SOL     OW27724   0.401   2.276   5.325
 8942SOL    HW127725   0.330   2.330   5.281
 8942SOL    HW227726   0.376   2.179   5.322
 8943SOL     OW27727   4.722   3.501   1.166
 8943SOL    HW127728   4.704   3.443   1.087
 8943SOL    HW227729   4.674   3.466   1.246
 8944SOL     OW27730   4.136   5.777   0.825
 8944SOL    HW127731   4.081   5.726   0.760
 8944SOL    HW227732   4.197   5.715   0.874
 8945SOL     OW27733   2.562   0.690   4.512
 8945SOL    HW127734   2.523   0.634   4.586
 8945SOL    HW227735   2.536   0.785   4.525
 8946SOL     OW27736   3.665   1.742   4.816
 8946SOL    HW127737   3.731   1.733   4.741
 8946SOL    HW227738   3.701   1.803   4.886
 8947SOL     OW27739   3.834   3.703   5.602
 8947SOL    HW127740   3.852   3.709   5.504
 8947SOL    HW227741   3.741   3.670   5.617
 8948SOL     OW27742   5.534   4.850   3.122
 8948SOL    HW127743   5.461   4.787   3.095
 8948SOL    HW227744   5.515   4.884   3.215
 8949SOL     OW27745   1.347   6.881   6.736
 8949SOL    HW127746   1.321   6.934   6.816
 8949SOL    HW227747   1.279   6.810   6.719
 8950SOL     OW27748   5.001   3.167   5.081
 8950SOL    HW127749   4.975   3.188   4.987
 8950SOL    HW227750   4.963   3.235   5.142
 8951SOL     OW27751   1.434   2.859   5.456
 8951SOL    HW127752   1.405   2.849   5.361
 8951SOL    HW227753   1.498   2.935   5.464
 8952SOL     OW27754   1.082   1.232   3.086
 8952SOL    HW127755   1.095   1.295   3.010
 8952SOL    HW227756   1.132   1.265   3.166
 8953SOL     OW27757   1.918   3.344   0.290
 8953SOL    HW127758   1.921   3.248   0.262
 8953SOL    HW227759   1.999   3.391   0.257
 8954SOL     OW27760   1.771   5.963   6.322
 8954SOL    HW127761   1.762   6.062   6.335
 8954SOL    HW227762   1.723   5.916   6.395
 8955SOL     OW27763   0.013   4.236   3.541
 8955SOL    HW127764   6.979   4.210   3.615
 8955SOL    HW227765   6.996   4.218   3.453
 8956SOL     OW27766   0.246   0.738   6.324
 8956SOL    HW127767   0.295   0.695   6.399
 8956SOL    HW227768   0.178   0.674   6.287
 8957SOL     OW27769   2.594   4.953   2.160
 8957SOL    HW127770   2.636   4.925   2.247
 8957SOL    HW227771   2.629   4.896   2.086
 8958SOL     OW27772   1.769   6.802   4.218
 8958SOL    HW127773   1.825   6.837   4.294
 8958SOL    HW227774   1.692   6.751   4.255
 8959SOL     OW27775   1.270   4.896   0.520
 8959SOL    HW127776   1.227   4.972   0.470
 8959SOL    HW227777   1.368   4.911   0.527
 8960SOL     OW27778   3.790   5.688   1.882
 8960SOL    HW127779   3.796   5.629   1.801
 8960SOL    HW227780   3.828   5.778   1.859
 8961SOL     OW27781   1.463   2.271   3.954
 8961SOL    HW127782   1.477   2.208   3.877
 8961SOL    HW227783   1.517   2.354   3.938
 8962SOL     OW27784   5.857   0.566   3.514
 8962SOL    HW127785   5.768   0.611   3.501
 8962SOL    HW227786   5.919   0.627   3.562
 8963SOL     OW27787   5.774   0.661   4.659
 8963SOL    HW127788   5.729   0.586   4.707
 8963SOL    HW227789   5.817   0.722   4.726
 8964SOL     OW27790   5.331   4.879   1.994
 8964SOL    HW127791   5.300   4.822   1.918
 8964SOL    HW227792   5.329   4.975   1.967
 8965SOL     OW27793   1.525   5.282   1.693
 8965SOL    HW127794   1.544   5.322   1.783
 8965SOL    HW227795   1.584   5.325   1.624
 8966SOL     OW27796   1.809   2.511   6.241
 8966SOL    HW127797   1.712   2.511   6.218
 8966SOL    HW227798   1.859   2.570   6.178
 8967SOL     OW27799   4.248   0.722   0.751
 8967SOL    HW127800   4.155   0.706   0.719
 8967SOL    HW227801   4.246   0.762   0.842
 8968SOL     OW27802   5.202   6.257   1.485
 8968SOL    HW127803   5.108   6.291   1.486
 8968SOL    HW227804   5.201   6.157   1.491
 8969SOL     OW27805   5.835   1.014   3.625
 8969SOL    HW127806   5.816   1.109   3.602
 8969SOL    HW227807   5.881   0.969   3.548
 8970SOL     OW27808   3.518   2.488   1.471
 8970SOL    HW127809   3.573   2.511   1.551
 8970SOL    HW227810   3.425   2.467   1.500
 8971SOL     OW27811   3.848   5.462   2.129
 8971SOL    HW127812   3.884   5.517   2.054
 8971SOL    HW227813   3.748   5.470   2.132
 8972SOL     OW27814   5.460   6.141   5.762
 8972SOL    HW127815   5.531   6.072   5.774
 8972SOL    HW227816   5.411   6.123   5.676
 8973SOL     OW27817   1.511   5.034   0.542
 8973SOL    HW127818   1.520   5.036   0.642
 8973SOL    HW227819   1.503   5.127   0.507
 8974SOL     OW27820   0.747   4.117   6.121
 8974SOL    HW127821   0.760   4.057   6.200
 8974SOL    HW227822   0.681   4.075   6.058
 8975SOL     OW27823   3.007   0.203   0.999
 8975SOL    HW127824   3.058   0.217   0.914
 8975SOL    HW227825   2.970   0.110   1.000
 8976SOL     OW27826   1.669   5.263   4.572
 8976SOL    HW127827   1.632   5.318   4.647
 8976SOL    HW227828   1.651   5.308   4.485
 8977SOL     OW27829   6.162   1.439   5.520
 8977SOL    HW127830   6.133   1.343   5.527
 8977SOL    HW227831   6.228   1.459   5.592
 8978SOL     OW27832   5.788   6.475   0.050
 8978SOL    HW127833   5.765   6.385   0.087
 8978SOL    HW227834   5.863   6.466   7.012
 8979SOL     OW27835   1.729   3.885   4.967
 8979SOL    HW127836   1.780   3.800   4.977
 8979SOL    HW227837   1.786   3.962   4.994
 8980SOL     OW27838   3.434   3.292   4.818
 8980SOL    HW127839   3.471   3.302   4.725
 8980SOL    HW227840   3.405   3.381   4.851
 8981SOL     OW27841   3.749   1.258   5.008
 8981SOL    HW127842   3.788   1.261   5.100
 8981SOL    HW227843   3.692   1.339   4.994
 8982SOL     OW27844   2.532   4.113   0.325
 8982SOL    HW127845   2.628   4.086   0.316
 8982SOL    HW227846   2.508   4.177   0.253
 8983SOL     OW27847   3.844   5.335   6.934
 8983SOL    HW127848   3.748   5.315   6.913
 8983SOL    HW227849   3.850   5.379   7.023
 8984SOL     OW27850   2.235   5.781   3.358
 8984SOL    HW127851   2.221   5.694   3.309
 8984SOL    HW227852   2.324   5.818   3.333
 8985SOL     OW27853   3.647   2.768   0.292
 8985SOL    HW127854   3.709   2.835   0.250
 8985SOL    HW227855   3.580   2.816   0.348
 8986SOL     OW27856   3.739   4.857   2.952
 8986SOL    HW127857   3.739   4.822   3.046
 8986SOL    HW227858   3.667   4.926   2.943
 8987SOL     OW27859   5.150   5.757   2.809
 8987SOL    HW127860   5.163   5.702   2.727
 8987SOL    HW227861   5.207   5.722   2.883
 8988SOL     OW27862   0.421   5.599   4.202
 8988SOL    HW127863   0.405   5.535   4.127
 8988SOL    HW227864   0.416   5.551   4.289
 8989SOL     OW27865   4.331   2.737   6.330
 8989SOL    HW127866   4.379   2.651   6.347
 8989SOL    HW227867   4.396   2.813   6.339
 8990SOL     OW27868   0.589   5.173   4.060
 8990SOL    HW127869   0.623   5.118   3.984
 8990SOL    HW227870   0.489   5.171   4.061
 8991SOL     OW27871   1.625   2.309   4.726
 8991SOL    HW127872   1.643   2.235   4.791
 8991SOL    HW227873   1.554   2.369   4.763
 8992SOL     OW27874   5.749   2.136   7.014
 8992SOL    HW127875   5.832   2.090   0.019
 8992SOL    HW227876   5.774   2.215   6.958
 8993SOL     OW27877   3.779   3.533   6.084
 8993SOL    HW127878   3.847   3.563   6.151
 8993SOL    HW227879   3.775   3.599   6.009
 8994SOL     OW27880   2.074   4.597   4.943
 8994SOL    HW127881   1.984   4.554   4.933
 8994SOL    HW227882   2.101   4.638   4.856
 8995SOL     OW27883   0.036   1.732   1.552
 8995SOL    HW127884   0.066   1.643   1.518
 8995SOL    HW227885   0.064   1.803   1.487
 8996SOL     OW27886   5.383   3.952   6.917
 8996SOL    HW127887   5.322   3.881   6.953
 8996SOL    HW227888   5.409   3.928   6.823
 8997SOL     OW27889   5.328   0.938   5.230
 8997SOL    HW127890   5.383   0.862   5.265
 8997SOL    HW227891   5.346   1.021   5.282
 8998SOL     OW27892   6.165   3.919   3.734
 8998SOL    HW127893   6.263   3.911   3.751
 8998SOL    HW227894   6.120   3.963   3.812
 8999SOL     OW27895   4.550   0.077   5.834
 8999SOL    HW127896   4.623   0.012   5.858
 8999SOL    HW227897   4.577   0.169   5.862
 9000SOL     OW27898   1.534   4.261   1.452
 9000SOL    HW127899   1.555   4.178   1.399
 9000SOL    HW227900   1.438   4.261   1.478
 9001SOL     OW27901   0.245   4.801   2.091
 9001SOL    HW127902   0.189   4.733   2.140
 9001SOL    HW227903   0.272   4.873   2.155
 9002SOL     OW27904   1.299   4.242   5.607
 9002SOL    HW127905   1.335   4.308   5.541
 9002SOL    HW227906   1.290   4.153   5.564
 9003SOL     OW27907   5.265   2.551   1.164
 9003SOL    HW127908   5.246   2.512   1.074
 9003SOL    HW227909   5.313   2.638   1.152
 9004SOL     OW27910   4.449   5.196   0.756
 9004SOL    HW127911   4.494   5.284   0.772
 9004SOL    HW227912   4.459   5.170   0.660
 9005SOL     OW27913   5.374   1.164   5.935
 9005SOL    HW127914   5.408   1.252   5.904
 9005SOL    HW227915   5.390   1.095   5.865
 9006SOL     OW27916   3.128   0.295   0.770
 9006SOL    HW127917   3.223   0.264   0.768
 9006SOL    HW227918   3.084   0.273   0.683
 9007SOL     OW27919   2.640   1.161   2.706
 9007SOL    HW127920   2.615   1.087   2.769
 9007SOL    HW227921   2.578   1.238   2.719
 9008SOL     OW27922   0.345   5.431   2.974
 9008SOL    HW127923   0.394   5.484   2.905
 9008SOL    HW227924   0.407   5.408   3.049
 9009SOL     OW27925   3.817   5.237   0.928
 9009SOL    HW127926   3.891   5.303   0.914
 9009SOL    HW227927   3.849   5.146   0.902
 9010SOL     OW27928   2.237   6.541   3.973
 9010SOL    HW127929   2.177   6.599   4.028
 9010SOL    HW227930   2.266   6.463   4.029
 9011SOL     OW27931   4.413   0.813   2.212
 9011SOL    HW127932   4.469   0.865   2.148
 9011SOL    HW227933   4.463   0.731   2.241
 9012SOL     OW27934   2.654   5.767   0.661
 9012SOL    HW127935   2.555   5.774   0.668
 9012SOL    HW227936   2.684   5.678   0.696
 9013SOL     OW27937   1.506   6.866   4.483
 9013SOL    HW127938   1.550   6.928   4.548
 9013SOL    HW227939   1.551   6.777   4.487
 9014SOL     OW27940   6.536   2.735   1.891
 9014SOL    HW127941   6.619   2.695   1.927
 9014SOL    HW227942   6.465   2.665   1.885
 9015SOL     OW27943   4.802   2.809   0.940
 9015SOL    HW127944   4.887   2.759   0.923
 9015SOL    HW227945   4.809   2.902   0.903
 9016SOL     OW27946   5.704   5.122   6.736
 9016SOL    HW127947   5.656   5.062   6.801
 9016SOL    HW227948   5.686   5.217   6.760
 9017SOL     OW27949   3.577   1.122   4.805
 9017SOL    HW127950   3.638   1.199   4.824
 9017SOL    HW227951   3.555   1.076   4.891
 9018SOL     OW27952   3.633   3.227   6.769
 9018SOL    HW127953   3.629   3.320   6.805
 9018SOL    HW227954   3.622   3.162   6.844
 9019SOL     OW27955   1.446   3.838   3.033
 9019SOL    HW127956   1.391   3.782   3.096
 9019SOL    HW227957   1.426   3.811   2.939
 9020SOL     OW27958   6.688   5.310   1.451
 9020SOL    HW127959   6.614   5.263   1.500
 9020SOL    HW227960   6.775   5.288   1.494
 9021SOL     OW27961   6.802   0.378   3.767
 9021SOL    HW127962   6.771   0.340   3.680
 9021SOL    HW227963   6.733   0.362   3.837
 9022SOL     OW27964   3.930   2.669   6.981
 9022SOL    HW127965   3.927   2.764   6.950
 9022SOL    HW227966   3.973   2.613   6.911
 9023SOL     OW27967   3.910   3.025   1.159
 9023SOL    HW127968   3.922   3.011   1.061
 9023SOL    HW227969   3.963   2.957   1.209
 9024SOL     OW27970   0.978   4.890   5.982
 9024SOL    HW127971   0.972   4.985   5.949
 9024SOL    HW227972   1.041   4.839   5.923
 9025SOL     OW27973   0.477   5.495   0.588
 9025SOL    HW127974   0.386   5.481   0.549
 9025SOL    HW227975   0.497   5.593   0.589
 9026SOL     OW27976   3.540   1.661   0.237
 9026SOL    HW127977   3.495   1.579   0.272
 9026SOL    HW227978   3.519   1.738   0.297
 9027SOL     OW27979   1.052   3.652   3.672
 9027SOL    HW127980   1.146   3.629   3.645
 9027SOL    HW227981   0.989   3.585   3.633
 9028SOL     OW27982   3.561   3.329   5.068
 9028SOL    HW127983   3.520   3.323   4.976
 9028SOL    HW227984   3.625   3.406   5.071
 9029SOL     OW27985   4.291   0.553   4.557
 9029SOL    HW127986   4.359   0.625   4.545
 9029SOL    HW227987   4.231   0.550   4.477
 9030SOL     OW27988   2.412   2.616   3.909
 9030SOL    HW127989   2.461   2.643   3.992
 9030SOL    HW227990   2.314   2.613   3.929
 9031SOL     OW27991   4.616   0.073   4.493
 9031SOL    HW127992   4.576   0.037   4.408
 9031SOL    HW227993   4.645   0.167   4.478
 9032SOL     OW27994   4.954   3.778   1.124
 9032SOL    HW127995   4.940   3.685   1.159
 9032SOL    HW227996   4.966   3.841   1.201
 9033SOL     OW27997   0.622   5.227   2.112
 9033SOL    HW127998   0.581   5.232   2.021
 9033SOL    HW227999   0.551   5.209   2.180
 9034SOL     OW28000   3.437   6.157   5.021
 9034SOL    HW128001   3.439   6.257   5.015
 9034SOL    HW228002   3.528   6.121   4.999
 9035SOL     OW28003   2.138   5.895   0.185
 9035SOL    HW128004   2.048   5.935   0.202
 9035SOL    HW228005   2.208   5.966   0.193
 9036SOL     OW28006   1.375   3.481   4.925
 9036SOL    HW128007   1.384   3.563   4.869
 9036SOL    HW228008   1.345   3.507   5.017
 9037SOL     OW28009   0.699   2.552   3.983
 9037SOL    HW128010   0.618   2.532   3.927
 9037SOL    HW228011   0.754   2.469   3.991
 9038SOL     OW28012   4.443   2.974   6.343
 9038SOL    HW128013   4.463   3.021   6.430
 9038SOL    HW228014   4.496   3.017   6.270
 9039SOL     OW28015   3.487   4.880   6.817
 9039SOL    HW128016   3.442   4.792   6.828
 9039SOL    HW228017   3.425   4.944   6.773
 9040SOL     OW28018   2.351   2.353   1.877
 9040SOL    HW128019   2.347   2.270   1.933
 9040SOL    HW228020   2.412   2.339   1.800
 9041SOL     OW28021   0.513   2.410   0.913
 9041SOL    HW128022   0.536   2.503   0.942
 9041SOL    HW228023   0.419   2.389   0.939
 9042SOL     OW28024   3.752   5.780   5.161
 9042SOL    HW128025   3.784   5.812   5.250
 9042SOL    HW228026   3.820   5.803   5.091
 9043SOL     OW28027   2.683   1.274   6.697
 9043SOL    HW128028   2.697   1.342   6.625
 9043SOL    HW228029   2.640   1.317   6.776
 9044SOL     OW28030   0.477   0.402   6.977
 9044SOL    HW128031   0.461   0.352   0.035
 9044SOL    HW228032   0.452   0.343   6.900
 9045SOL     OW28033   4.104   0.313   3.184
 9045SOL    HW128034   4.196   0.336   3.215
 9045SOL    HW228035   4.038   0.379   3.220
 9046SOL     OW28036   3.764   3.216   2.546
 9046SOL    HW128037   3.838   3.149   2.541
 9046SOL    HW228038   3.679   3.174   2.513
 9047SOL     OW28039   1.768   4.483   5.473
 9047SOL    HW128040   1.703   4.553   5.445
 9047SOL    HW228041   1.852   4.527   5.507
 9048SOL     OW28042   5.676   2.359   6.271
 9048SOL    HW128043   5.746   2.410   6.322
 9048SOL    HW228044   5.704   2.350   6.175
 9049SOL     OW28045   3.279   6.586   6.293
 9049SOL    HW128046   3.288   6.588   6.392
 9049SOL    HW228047   3.364   6.620   6.251
 9050SOL     OW28048   0.848   4.364   1.574
 9050SOL    HW128049   0.837   4.268   1.546
 9050SOL    HW228050   0.839   4.423   1.494
 9051SOL     OW28051   2.556   1.461   1.079
 9051SOL    HW128052   2.647   1.487   1.047
 9051SOL    HW228053   2.497   1.445   0.999
 9052SOL     OW28054   2.096   2.790   4.465
 9052SOL    HW128055   2.061   2.719   4.527
 9052SOL    HW228056   2.058   2.776   4.374
 9053SOL     OW28057   2.312   1.411   1.409
 9053SOL    HW128058   2.288   1.506   1.388
 9053SOL    HW228059   2.411   1.398   1.398
 9054SOL     OW28060   3.083   5.618   3.938
 9054SOL    HW128061   3.180   5.600   3.922
 9054SOL    HW228062   3.028   5.563   3.875
 9055SOL     OW28063   6.793   4.281   4.737
 9055SOL    HW128064   6.746   4.256   4.822
 9055SOL    HW228065   6.731   4.335   4.680
 9056SOL     OW28066   6.109   2.029   2.487
 9056SOL    HW128067   6.197   2.066   2.455
 9056SOL    HW228068   6.109   2.026   2.587
 9057SOL     OW28069   4.580   1.578   4.465
 9057SOL    HW128070   4.646   1.505   4.481
 9057SOL    HW228071   4.550   1.615   4.553
 9058SOL     OW28072   1.649   0.321   6.180
 9058SOL    HW128073   1.603   0.403   6.215
 9058SOL    HW228074   1.602   0.239   6.212
 9059SOL     OW28075   1.611   2.383   2.405
 9059SOL    HW128076   1.617   2.286   2.425
 9059SOL    HW228077   1.638   2.399   2.310
 9060SOL     OW28078   5.059   2.889   4.774
 9060SOL    HW128079   5.123   2.827   4.729
 9060SOL    HW228080   4.998   2.836   4.833
 9061SOL     OW28081   4.904   5.293   2.414
 9061SOL    HW128082   4.909   5.354   2.335
 9061SOL    HW228083   4.846   5.335   2.484
 9062SOL     OW28084   1.719   5.403   1.558
 9062SOL    HW128085   1.802   5.457   1.576
 9062SOL    HW228086   1.666   5.447   1.485
 9063SOL     OW28087   2.790   1.530   3.517
 9063SOL    HW128088   2.794   1.539   3.617
 9063SOL    HW228089   2.797   1.433   3.493
 9064SOL     OW28090   6.390   3.687   7.020
 9064SOL    HW128091   6.398   3.669   0.090
 9064SOL    HW228092   6.480   3.677   6.977
 9065SOL     OW28093   3.099   0.815   0.456
 9065SOL    HW128094   3.053   0.903   0.451
 9065SOL    HW228095   3.047   0.752   0.513
 9066SOL     OW28096   5.245   6.613   7.025
 9066SOL    HW128097   5.341   6.587   7.013
 9066SOL    HW228098   5.223   6.692   6.969
 9067SOL     OW28099   1.426   6.780   3.242
 9067SOL    HW128100   1.412   6.699   3.185
 9067SOL    HW228101   1.462   6.752   3.331
 9068SOL     OW28102   1.756   6.177   5.986
 9068SOL    HW128103   1.834   6.147   6.041
 9068SOL    HW228104   1.675   6.124   6.011
 9069SOL     OW28105   2.020   2.495   5.856
 9069SOL    HW128106   1.926   2.483   5.825
 9069SOL    HW228107   2.052   2.410   5.900
 9070SOL     OW28108   1.473   4.408   4.506
 9070SOL    HW128109   1.393   4.374   4.457
 9070SOL    HW228110   1.547   4.425   4.441
 9071SOL     OW28111   6.248   6.404   6.952
 9071SOL    HW128112   6.234   6.495   6.991
 9071SOL    HW228113   6.316   6.409   6.880
 9072SOL     OW28114   6.712   4.055   0.226
 9072SOL    HW128115   6.690   4.031   0.131
 9072SOL    HW228116   6.810   4.073   0.234
 9073SOL     OW28117   2.005   0.753   2.302
 9073SOL    HW128118   2.104   0.766   2.300
 9073SOL    HW228119   1.966   0.781   2.215
 9074SOL     OW28120   1.140   0.023   3.178
 9074SOL    HW128121   1.194   6.968   3.163
 9074SOL    HW228122   1.088   0.045   3.096
 9075SOL     OW28123   6.661   0.640   2.432
 9075SOL    HW128124   6.596   0.566   2.412
 9075SOL    HW228125   6.610   0.724   2.451
 9076SOL     OW28126   6.720   0.843   5.624
 9076SOL    HW128127   6.637   0.813   5.578
 9076SOL    HW228128   6.758   0.768   5.678
 9077SOL     OW28129   5.867   6.321   2.301
 9077SOL    HW128130   5.786   6.357   2.254
 9077SOL    HW228131   5.846   6.230   2.337
 9078SOL     OW28132   4.117   3.665   4.521
 9078SOL    HW128133   4.173   3.583   4.514
 9078SOL    HW228134   4.095   3.683   4.617
 9079SOL     OW28135   3.320   6.865   5.159
 9079SOL    HW128136   3.391   6.829   5.100
 9079SOL    HW228137   3.252   6.794   5.177
 9080SOL     OW28138   5.529   2.491   0.462
 9080SOL    HW128139   5.430   2.500   0.457
 9080SOL    HW228140   5.571   2.579   0.441
 9081SOL     OW28141   5.641   6.377   2.123
 9081SOL    HW128142   5.562   6.355   2.180
 9081SOL    HW228143   5.682   6.293   2.088
 9082SOL     OW28144   3.289   1.255   3.910
 9082SOL    HW128145   3.273   1.300   3.823
 9082SOL    HW228146   3.301   1.157   3.895
 9083SOL     OW28147   5.089   4.532   5.086
 9083SOL    HW128148   5.139   4.565   5.166
 9083SOL    HW228149   5.088   4.432   5.086
 9084SOL     OW28150   3.178   4.097   3.103
 9084SOL    HW128151   3.216   4.021   3.050
 9084SOL    HW228152   3.172   4.178   3.045
 9085SOL     OW28153   2.203   2.347   1.548
 9085SOL    HW128154   2.218   2.271   1.611
 9085SOL    HW228155   2.283   2.357   1.489
 9086SOL     OW28156   0.415   3.974   1.448
 9086SOL    HW128157   0.402   3.926   1.535
 9086SOL    HW228158   0.406   3.909   1.373
 9087SOL     OW28159   4.874   3.815   2.538
 9087SOL    HW128160   4.881   3.792   2.441
 9087SOL    HW228161   4.816   3.896   2.549
 9088SOL     OW28162   5.906   0.871   6.682
 9088SOL    HW128163   5.818   0.841   6.720
 9088SOL    HW228164   5.906   0.857   6.583
 9089SOL     OW28165   4.351   0.150   5.531
 9089SOL    HW128166   4.312   0.072   5.579
 9089SOL    HW228167   4.335   0.233   5.584
 9090SOL     OW28168   5.776   1.077   4.146
 9090SOL    HW128169   5.707   1.148   4.131
 9090SOL    HW228170   5.838   1.073   4.068
 9091SOL     OW28171   3.272   3.708   7.015
 9091SOL    HW128172   3.356   3.696   6.962
 9091SOL    HW228173   3.216   3.778   6.971
 9092SOL     OW28174   6.640   2.407   0.201
 9092SOL    HW128175   6.561   2.376   0.149
 9092SOL    HW228176   6.709   2.445   0.140
 9093SOL     OW28177   1.638   6.848   5.252
 9093SOL    HW128178   1.626   6.880   5.158
 9093SOL    HW228179   1.588   6.908   5.314
 9094SOL     OW28180   0.414   3.416   2.159
 9094SOL    HW128181   0.335   3.391   2.216
 9094SOL    HW228182   0.440   3.511   2.179
 9095SOL     OW28183   5.093   6.265   5.302
 9095SOL    HW128184   5.069   6.219   5.217
 9095SOL    HW228185   5.067   6.207   5.380
 9096SOL     OW28186   6.433   5.564   2.439
 9096SOL    HW128187   6.388   5.526   2.520
 9096SOL    HW228188   6.531   5.541   2.443
 9097SOL     OW28189   0.950   2.988   6.021
 9097SOL    HW128190   0.943   3.042   6.105
 9097SOL    HW228191   1.037   2.939   6.021
 9098SOL     OW28192   1.701   3.422   4.335
 9098SOL    HW128193   1.776   3.484   4.315
 9098SOL    HW228194   1.617   3.474   4.349
 9099SOL     OW28195   2.173   3.483   6.969
 9099SOL    HW128196   2.141   3.425   6.894
 9099SOL    HW228197   2.106   3.480   0.016
 9100SOL     OW28198   0.734   4.477   2.842
 9100SOL    HW128199   0.769   4.510   2.754
 9100SOL    HW228200   0.682   4.550   2.886
 9101SOL     OW28201   1.563   2.027   2.004
 9101SOL    HW128202   1.533   1.986   1.918
 9101SOL    HW228203   1.484   2.059   2.056
 9102SOL     OW28204   4.415   6.055   2.931
 9102SOL    HW128205   4.415   6.023   2.837
 9102SOL    HW228206   4.425   6.155   2.932
 9103SOL     OW28207   5.841   1.695   0.433
 9103SOL    HW128208   5.836   1.750   0.516
 9103SOL    HW228209   5.925   1.641   0.434
 9104SOL     OW28210   6.470   1.247   0.030
 9104SOL    HW128211   6.529   1.217   6.983
 9104SOL    HW228212   6.444   1.168   0.085
 9105SOL     OW28213   2.279   0.458   6.656
 9105SOL    HW128214   2.188   0.473   6.616
 9105SOL    HW228215   2.341   0.425   6.585
 9106SOL     OW28216   1.606   5.046   6.841
 9106SOL    HW128217   1.650   4.986   6.775
 9106SOL    HW228218   1.669   5.066   6.916
 9107SOL     OW28219   2.267   1.203   0.100
 9107SOL    HW128220   2.202   1.273   0.071
 9107SOL    HW228221   2.315   1.166   0.020
 9108SOL     OW28222   5.690   5.203   6.053
 9108SOL    HW128223   5.629   5.259   5.996
 9108SOL    HW228224   5.785   5.219   6.024
 9109SOL     OW28225   5.161   2.796   2.686
 9109SOL    HW128226   5.091   2.762   2.622
 9109SOL    HW228227   5.247   2.809   2.637
 9110SOL     OW28228   1.296   5.638   4.518
 9110SOL    HW128229   1.251   5.569   4.461
 9110SOL    HW228230   1.234   5.667   4.590
 9111SOL     OW28231   4.412   3.053   5.362
 9111SOL    HW128232   4.349   2.979   5.384
 9111SOL    HW228233   4.361   3.138   5.353
 9112SOL     OW28234   1.306   5.373   2.425
 9112SOL    HW128235   1.302   5.356   2.523
 9112SOL    HW228236   1.382   5.320   2.385
 9113SOL     OW28237   4.942   2.080   3.427
 9113SOL    HW128238   4.938   1.981   3.418
 9113SOL    HW228239   4.902   2.123   3.345
 9114SOL     OW28240   1.170   5.997   5.150
 9114SOL    HW128241   1.100   5.978   5.081
 9114SOL    HW228242   1.125   6.025   5.235
 9115SOL     OW28243   5.605   4.509   4.131
 9115SOL    HW128244   5.548   4.585   4.160
 9115SOL    HW228245   5.610   4.507   4.031
 9116SOL     OW28246   0.780   6.799   3.238
 9116SOL    HW128247   0.707   6.866   3.227
 9116SOL    HW228248   0.753   6.730   3.306
 9117SOL     OW28249   3.964   0.577   6.808
 9117SOL    HW128250   3.914   0.498   6.843
 9117SOL    HW228251   4.043   0.546   6.755
 9118SOL     OW28252   6.339   4.134   0.974
 9118SOL    HW128253   6.270   4.093   1.033
 9118SOL    HW228254   6.403   4.187   1.029
 9119SOL     OW28255   3.723   0.577   0.704
 9119SOL    HW128256   3.700   0.499   0.646
 9119SOL    HW228257   3.645   0.638   0.712
 9120SOL     OW28258   6.123   3.057   5.302
 9120SOL    HW128259   6.115   3.142   5.354
 9120SOL    HW228260   6.218   3.026   5.304
 9121SOL     OW28261   3.249   0.763   4.984
 9121SOL    HW128262   3.166   0.715   5.013
 9121SOL    HW228263   3.261   0.752   4.886
 9122SOL     OW28264   2.528   4.548   2.671
 9122SOL    HW128265   2.622   4.579   2.686
 9122SOL    HW228266   2.465   4.620   2.700
 9123SOL     OW28267   1.040   0.479   4.144
 9123SOL    HW128268   1.101   0.449   4.071
 9123SOL    HW228269   1.077   0.451   4.233
 9124SOL     OW28270   2.833   5.723   1.534
 9124SOL    HW128271   2.841   5.623   1.539
 9124SOL    HW228272   2.858   5.754   1.442
 9125SOL     OW28273   4.819   6.236   1.218
 9125SOL    HW128274   4.901   6.184   1.193
 9125SOL    HW228275   4.753   6.231   1.143
 9126SOL     OW28276   3.790   4.424   0.237
 9126SOL    HW128277   3.843   4.343   0.263
 9126SOL    HW228278   3.715   4.436   0.302
 9127SOL     OW28279   0.135   4.163   5.455
 9127SOL    HW128280   0.184   4.246   5.479
 9127SOL    HW228281   0.190   4.108   5.392
 9128SOL     OW28282   5.624   3.464   5.352
 9128SOL    HW128283   5.685   3.467   5.273
 9128SOL    HW228284   5.627   3.373   5.392
 9129SOL     OW28285   1.556   2.798   0.697
 9129SOL    HW128286   1.549   2.841   0.787
 9129SOL    HW228287   1.649   2.762   0.684
 9130SOL     OW28288   2.609   3.970   5.363
 9130SOL    HW128289   2.538   3.965   5.293
 9130SOL    HW228290   2.676   4.040   5.338
 9131SOL     OW28291   5.355   2.813   1.091
 9131SOL    HW128292   5.281   2.854   1.144
 9131SOL    HW228293   5.380   2.874   1.016
 9132SOL     OW28294   0.152   4.359   3.825
 9132SOL    HW128295   0.091   4.281   3.811
 9132SOL    HW228296   0.224   4.356   3.755
 9133SOL     OW28297   4.817   1.457   0.639
 9133SOL    HW128298   4.899   1.453   0.697
 9133SOL    HW228299   4.788   1.552   0.628
 9134SOL     OW28300   3.936   5.342   0.649
 9134SOL    HW128301   3.995   5.368   0.724
 9134SOL    HW228302   3.856   5.402   0.646
 9135SOL     OW28303   0.283   6.666   2.838
 9135SOL    HW128304   0.278   6.631   2.931
 9135SOL    HW228305   0.201   6.639   2.787
 9136SOL     OW28306   6.093   4.447   0.113
 9136SOL    HW128307   6.136   4.361   0.086
 9136SOL    HW228308   6.077   4.503   0.031
 9137SOL     OW28309   5.465   6.543   6.246
 9137SOL    HW128310   5.540   6.485   6.214
 9137SOL    HW228311   5.472   6.555   6.345
 9138SOL     OW28312   3.128   3.289   0.951
 9138SOL    HW128313   3.189   3.210   0.942
 9138SOL    HW228314   3.119   3.334   0.862
 9139SOL     OW28315   6.801   0.008   0.981
 9139SOL    HW128316   6.878   0.064   0.950
 9139SOL    HW228317   6.742   7.014   0.903
 9140SOL     OW28318   0.992   4.246   3.239
 9140SOL    HW128319   0.908   4.194   3.250
 9140SOL    HW228320   1.068   4.183   3.220
 9141SOL     OW28321   6.571   5.877   5.664
 9141SOL    HW128322   6.554   5.830   5.578
 9141SOL    HW228323   6.518   5.962   5.667
 9142SOL     OW28324   1.009   4.510   3.835
 9142SOL    HW128325   1.094   4.464   3.809
 9142SOL    HW228326   0.978   4.567   3.760
 9143SOL     OW28327   0.333   4.027   2.673
 9143SOL    HW128328   0.254   3.980   2.713
 9143SOL    HW228329   0.343   4.002   2.577
 9144SOL     OW28330   2.364   4.688   5.651
 9144SOL    HW128331   2.389   4.745   5.573
 9144SOL    HW228332   2.338   4.746   5.728
 9145SOL     OW28333   1.070   6.318   5.611
 9145SOL    HW128334   1.136   6.282   5.545
 9145SOL    HW228335   1.119   6.354   5.690
 9146SOL     OW28336   6.448   2.882   2.821
 9146SOL    HW128337   6.395   2.797   2.809
 9146SOL    HW228338   6.545   2.859   2.829
 9147SOL     OW28339   4.223   6.930   4.250
 9147SOL    HW128340   4.191   6.915   4.343
 9147SOL    HW228341   4.177   6.868   4.187
 9148SOL     OW28342   6.124   6.236   1.629
 9148SOL    HW128343   6.042   6.222   1.574
 9148SOL    HW228344   6.202   6.194   1.583
 9149SOL     OW28345   0.559   3.651   2.200
 9149SOL    HW128346   0.574   3.692   2.290
 9149SOL    HW228347   0.647   3.639   2.155
 9150SOL     OW28348   2.718   2.429   0.987
 9150SOL    HW128349   2.706   2.368   0.909
 9150SOL    HW228350   2.781   2.503   0.962
 9151SOL     OW28351   1.597   3.018   3.725
 9151SOL    HW128352   1.601   3.097   3.663
 9151SOL    HW228353   1.518   2.962   3.702
 9152SOL     OW28354   1.849   4.446   3.098
 9152SOL    HW128355   1.938   4.478   3.066
 9152SOL    HW228356   1.861   4.393   3.183
 9153SOL     OW28357   6.806   3.886   6.820
 9153SOL    HW128358   6.875   3.867   6.890
 9153SOL    HW228359   6.836   3.848   6.733
 9154SOL     OW28360   5.575   4.947   2.491
 9154SOL    HW128361   5.606   5.027   2.542
 9154SOL    HW228362   5.601   4.864   2.541
 9155SOL     OW28363   1.482   6.530   2.436
 9155SOL    HW128364   1.494   6.488   2.346
 9155SOL    HW228365   1.514   6.625   2.433
 9156SOL     OW28366   6.777   4.109   6.329
 9156SOL    HW128367   6.810   4.197   6.296
 9156SOL    HW228368   6.764   4.113   6.428
 9157SOL     OW28369   2.070   5.001   6.249
 9157SOL    HW128370   1.981   5.041   6.225
 9157SOL    HW228371   2.056   4.907   6.281
 9158SOL     OW28372   6.711   3.639   4.625
 9158SOL    HW128373   6.768   3.717   4.650
 9158SOL    HW228374   6.733   3.562   4.685
 9159SOL     OW28375   3.176   1.649   4.126
 9159SOL    HW128376   3.252   1.704   4.093
 9159SOL    HW228377   3.127   1.609   4.049
 9160SOL     OW28378   0.125   4.372   1.120
 9160SOL    HW128379   0.208   4.316   1.115
 9160SOL    HW228380   0.146   4.458   1.167
 9161SOL     OW28381   6.543   4.532   1.679
 9161SOL    HW128382   6.469   4.485   1.727
 9161SOL    HW228383   6.575   4.608   1.735
 9162SOL     OW28384   4.049   1.996   1.760
 9162SOL    HW128385   4.031   2.094   1.761
 9162SOL    HW228386   4.124   1.976   1.696
 9163SOL     OW28387   1.420   2.321   3.664
 9163SOL    HW128388   1.402   2.380   3.585
 9163SOL    HW228389   1.352   2.338   3.735
 9164SOL     OW28390   2.886   0.029   0.088
 9164SOL    HW128391   2.956   6.988   0.107
 9164SOL    HW228392   2.843   0.059   0.174
 9165SOL     OW28393   5.405   1.720   6.148
 9165SOL    HW128394   5.375   1.793   6.210
 9165SOL    HW228395   5.479   1.668   6.191
 9166SOL     OW28396   5.277   5.706   1.514
 9166SOL    HW128397   5.336   5.786   1.515
 9166SOL    HW228398   5.305   5.642   1.586
 9167SOL     OW28399   1.643   1.257   4.559
 9167SOL    HW128400   1.702   1.336   4.543
 9167SOL    HW228401   1.612   1.220   4.471
 9168SOL     OW28402   6.560   6.021   4.525
 9168SOL    HW128403   6.580   6.017   4.427
 9168SOL    HW228404   6.556   5.928   4.561
 9169SOL     OW28405   6.741   5.912   0.850
 9169SOL    HW128406   6.681   5.991   0.859
 9169SOL    HW228407   6.835   5.942   0.835
 9170SOL     OW28408   1.268   1.444   5.973
 9170SOL    HW128409   1.292   1.398   5.888
 9170SOL    HW228410   1.180   1.491   5.962
 9171SOL     OW28411   3.212   4.827   6.920
 9171SOL    HW128412   3.254   4.917   6.911
 9171SOL    HW228413   3.151   4.826   7.000
 9172SOL     OW28414   4.364   1.039   3.751
 9172SOL    HW128415   4.372   1.137   3.733
 9172SOL    HW228416   4.383   1.021   3.847
 9173SOL     OW28417   5.800   3.317   4.770
 9173SOL    HW128418   5.882   3.260   4.776
 9173SOL    HW228419   5.728   3.280   4.829
 9174SOL     OW28420   0.581   4.544   0.715
 9174SOL    HW128421   0.492   4.540   0.760
 9174SOL    HW228422   0.568   4.541   0.616
 9175SOL     OW28423   2.212   0.464   6.996
 9175SOL    HW128424   2.183   0.551   0.009
 9175SOL    HW228425   2.272   0.482   6.919
 9176SOL     OW28426   1.342   1.506   2.370
 9176SOL    HW128427   1.441   1.491   2.363
 9176SOL    HW228428   1.321   1.544   2.461
 9177SOL     OW28429   0.537   4.306   3.629
 9177SOL    HW128430   0.605   4.234   3.619
 9177SOL    HW228431   0.455   4.282   3.577
 9178SOL     OW28432   1.873   5.961   0.256
 9178SOL    HW128433   1.806   5.889   0.237
 9178SOL    HW228434   1.864   5.990   0.351
 9179SOL     OW28435   3.416   5.157   4.185
 9179SOL    HW128436   3.448   5.251   4.195
 9179SOL    HW228437   3.330   5.156   4.135
 9180SOL     OW28438   6.515   0.921   5.100
 9180SOL    HW128439   6.565   1.007   5.094
 9180SOL    HW228440   6.500   0.898   5.196
 9181SOL     OW28441   2.822   1.818   3.472
 9181SOL    HW128442   2.779   1.835   3.384
 9181SOL    HW228443   2.807   1.722   3.498
 9182SOL     OW28444   1.107   1.373   2.874
 9182SOL    HW128445   1.154   1.319   2.803
 9182SOL    HW228446   1.157   1.458   2.889
 9183SOL     OW28447   1.097   1.950   6.251
 9183SOL    HW128448   1.189   1.917   6.269
 9183SOL    HW228449   1.031   1.879   6.273
 9184SOL     OW28450   3.848   3.332   0.865
 9184SOL    HW128451   3.907   3.280   0.804
 9184SOL    HW228452   3.757   3.340   0.824
 9185SOL     OW28453   1.213   1.085   6.849
 9185SOL    HW128454   1.147   1.122   6.914
 9185SOL    HW228455   1.268   1.014   6.893
 9186SOL     OW28456   5.306   1.155   6.183
 9186SOL    HW128457   5.323   1.161   6.085
 9186SOL    HW228458   5.243   1.228   6.211
 9187SOL     OW28459   5.958   2.260   0.715
 9187SOL    HW128460   5.991   2.314   0.638
 9187SOL    HW228461   6.019   2.270   0.792
 9188SOL     OW28462   1.458   0.676   1.852
 9188SOL    HW128463   1.536   0.738   1.858
 9188SOL    HW228464   1.423   0.674   1.758
 9189SOL     OW28465   3.985   1.357   4.912
 9189SOL    HW128466   3.890   1.339   4.937
 9189SOL    HW228467   3.997   1.340   4.814
 9190SOL     OW28468   6.793   2.313   5.291
 9190SOL    HW128469   6.748   2.269   5.214
 9190SOL    HW228470   6.787   2.412   5.282
 9191SOL     OW28471   5.579   6.663   0.629
 9191SOL    HW128472   5.509   6.594   0.649
 9191SOL    HW228473   5.551   6.716   0.548
 9192SOL     OW28474   5.310   4.535   4.352
 9192SOL    HW128475   5.357   4.620   4.328
 9192SOL    HW228476   5.361   4.488   4.424
 9193SOL     OW28477   3.463   2.841   3.511
 9193SOL    HW128478   3.534   2.845   3.440
 9193SOL    HW228479   3.490   2.898   3.588
 9194SOL     OW28480   3.507   5.903   2.794
 9194SOL    HW128481   3.509   5.869   2.699
 9194SOL    HW228482   3.436   5.973   2.803
 9195SOL     OW28483   0.035   3.309   2.791
 9195SOL    HW128484   0.063   3.241   2.859
 9195SOL    HW228485   7.006   3.265   2.722
 9196SOL     OW28486   4.360   0.209   3.454
 9196SOL    HW128487   4.392   0.126   3.407
 9196SOL    HW228488   4.336   0.278   3.387
 9197SOL     OW28489   3.673   3.132   5.512
 9197SOL    HW128490   3.595   3.071   5.494
 9197SOL    HW228491   3.693   3.132   5.609
 9198SOL     OW28492   5.127   2.505   5.146
 9198SOL    HW128493   5.187   2.488   5.068
 9198SOL    HW228494   5.063   2.579   5.124
 9199SOL     OW28495   1.362   3.964   6.602
 9199SOL    HW128496   1.380   3.869   6.577
 9199SOL    HW228497   1.366   3.974   6.701
 9200SOL     OW28498   6.350   6.279   0.515
 9200SOL    HW128499   6.417   6.248   0.447
 9200SOL    HW228500   6.278   6.210   0.525
 9201SOL     OW28501   1.987   4.051   3.298
 9201SOL    HW128502   1.929   4.054   3.217
 9201SOL    HW228503   1.938   4.005   3.372
 9202SOL     OW28504   3.322   5.446   3.801
 9202SOL    HW128505   3.262   5.366   3.794
 9202SOL    HW228506   3.292   5.515   3.735
 9203SOL     OW28507   5.143   0.888   6.138
 9203SOL    HW128508   5.043   0.892   6.144
 9203SOL    HW228509   5.182   0.961   6.195
 9204SOL     OW28510   4.673   4.228   1.703
 9204SOL    HW128511   4.670   4.314   1.652
 9204SOL    HW228512   4.588   4.215   1.753
 9205SOL     OW28513   4.822   2.973   2.317
 9205SOL    HW128514   4.803   2.986   2.220
 9205SOL    HW228515   4.742   2.933   2.361
 9206SOL     OW28516   0.524   0.024   2.935
 9206SOL    HW128517   0.427   0.002   2.946
 9206SOL    HW228518   0.574   6.971   2.905
 9207SOL     OW28519   3.894   6.355   6.850
 9207SOL    HW128520   3.988   6.365   6.882
 9207SOL    HW228521   3.832   6.403   6.912
 9208SOL     OW28522   4.566   4.728   2.360
 9208SOL    HW128523   4.650   4.782   2.355
 9208SOL    HW228524   4.516   4.737   2.274
 9209SOL     OW28525   3.842   0.678   2.965
 9209SOL    HW128526   3.792   0.592   2.975
 9209SOL    HW228527   3.932   0.670   3.008
 9210SOL     OW28528   1.325   6.833   0.560
 9210SOL    HW128529   1.375   6.765   0.614
 9210SOL    HW228530   1.264   6.786   0.496
 9211SOL     OW28531   5.022   1.817   6.320
 9211SOL    HW128532   4.995   1.895   6.377
 9211SOL    HW228533   5.026   1.735   6.378
 9212SOL     OW28534   6.094   3.311   4.606
 9212SOL    HW128535   6.073   3.271   4.696
 9212SOL    HW228536   6.020   3.290   4.543
 9213SOL     OW28537   6.705   0.024   2.624
 9213SOL    HW128538   6.605   0.026   2.622
 9213SOL    HW228539   6.740   0.117   2.609
 9214SOL     OW28540   2.050   2.463   5.229
 9214SOL    HW128541   2.116   2.523   5.185
 9214SOL    HW228542   1.994   2.418   5.159
 9215SOL     OW28543   0.768   3.502   2.739
 9215SOL    HW128544   0.678   3.487   2.778
 9215SOL    HW228545   0.784   3.438   2.664
 9216SOL     OW28546   2.770   5.608   4.305
 9216SOL    HW128547   2.797   5.594   4.400
 9216SOL    HW228548   2.846   5.647   4.253
 9217SOL     OW28549   4.622   1.071   6.378
 9217SOL    HW128550   4.620   1.102   6.473
 9217SOL    HW228551   4.532   1.084   6.336
 9218SOL     OW28552   6.219   5.376   6.803
 9218SOL    HW128553   6.202   5.331   6.715
 9218SOL    HW228554   6.226   5.308   6.875
 9219SOL     OW28555   3.520   2.857   5.568
 9219SOL    HW128556   3.453   2.906   5.512
 9219SOL    HW228557   3.605   2.845   5.517
 9220SOL     OW28558   0.777   6.352   3.690
 9220SOL    HW128559   0.824   6.358   3.778
 9220SOL    HW228560   0.678   6.348   3.705
 9221SOL     OW28561   2.448   1.791   0.687
 9221SOL    HW128562   2.381   1.850   0.730
 9221SOL    HW228563   2.538   1.835   0.688
 9222SOL     OW28564   1.907   3.044   4.225
 9222SOL    HW128565   1.846   2.966   4.215
 9222SOL    HW228566   1.916   3.068   4.322
 9223SOL     OW28567   0.462   3.198   4.975
 9223SOL    HW128568   0.550   3.235   4.945
 9223SOL    HW228569   0.408   3.172   4.895
 9224SOL     OW28570   2.266   4.190   3.535
 9224SOL    HW128571   2.222   4.230   3.455
 9224SOL    HW228572   2.324   4.259   3.579
 9225SOL     OW28573   5.228   5.673   6.670
 9225SOL    HW128574   5.138   5.630   6.675
 9225SOL    HW228575   5.230   5.753   6.730
 9226SOL     OW28576   0.888   0.788   0.998
 9226SOL    HW128577   0.985   0.781   1.024
 9226SOL    HW228578   0.875   0.867   0.939
 9227SOL     OW28579   2.120   4.680   0.715
 9227SOL    HW128580   2.042   4.677   0.651
 9227SOL    HW228581   2.201   4.643   0.670
 9228SOL     OW28582   3.359   3.351   5.252
 9228SOL    HW128583   3.442   3.348   5.197
 9228SOL    HW228584   3.354   3.438   5.301
 9229SOL     OW28585   0.423   4.988   0.247
 9229SOL    HW128586   0.455   4.922   0.314
 9229SOL    HW228587   0.345   4.950   0.197
 9230SOL     OW28588   4.434   1.340   5.015
 9230SOL    HW128589   4.530   1.364   5.035
 9230SOL    HW228590   4.387   1.318   5.100
 9231SOL     OW28591   6.597   5.291   3.565
 9231SOL    HW128592   6.645   5.239   3.636
 9231SOL    HW228593   6.636   5.382   3.558
 9232SOL     OW28594   1.352   5.041   2.507
 9232SOL    HW128595   1.369   4.943   2.504
 9232SOL    HW228596   1.268   5.060   2.557
 9233SOL     OW28597   0.782   6.684   6.582
 9233SOL    HW128598   0.791   6.712   6.677
 9233SOL    HW228599   0.689   6.650   6.566
 9234SOL     OW28600   1.967   4.181   0.388
 9234SOL    HW128601   2.045   4.198   0.327
 9234SOL    HW228602   1.885   4.225   0.350
 9235SOL     OW28603   2.005   2.132   3.257
 9235SOL    HW128604   1.935   2.119   3.327
 9235SOL    HW228605   1.972   2.095   3.170
 9236SOL     OW28606   2.479   3.413   6.632
 9236SOL    HW128607   2.564   3.363   6.643
 9236SOL    HW228608   2.424   3.371   6.561
 9237SOL     OW28609   5.268   5.011   3.277
 9237SOL    HW128610   5.315   5.099   3.264
 9237SOL    HW228611   5.200   4.999   3.206
 9238SOL     OW28612   1.256   2.843   4.965
 9238SOL    HW128613   1.207   2.759   4.940
 9238SOL    HW228614   1.190   2.915   4.988
 9239SOL     OW28615   1.298   5.057   6.974
 9239SOL    HW128616   1.255   5.005   0.020
 9239SOL    HW228617   1.376   5.005   6.939
 9240SOL     OW28618   4.329   2.324   2.827
 9240SOL    HW128619   4.308   2.355   2.920
 9240SOL    HW228620   4.243   2.298   2.781
 9241SOL     OW28621   6.094   6.350   1.207
 9241SOL    HW128622   6.070   6.283   1.278
 9241SOL    HW228623   6.158   6.417   1.245
 9242SOL     OW28624   1.151   2.481   0.584
 9242SOL    HW128625   1.136   2.518   0.675
 9242SOL    HW228626   1.126   2.550   0.515
 9243SOL     OW28627   1.214   0.809   0.188
 9243SOL    HW128628   1.212   0.831   0.091
 9243SOL    HW228629   1.245   0.714   0.201
 9244SOL     OW28630   3.375   6.752   5.444
 9244SOL    HW128631   3.364   6.850   5.464
 9244SOL    HW228632   3.463   6.737   5.399
 9245SOL     OW28633   1.234   4.670   3.640
 9245SOL    HW128634   1.254   4.577   3.673
 9245SOL    HW228635   1.147   4.669   3.590
 9246SOL     OW28636   6.037   0.531   6.491
 9246SOL    HW128637   5.942   0.508   6.468
 9246SOL    HW228638   6.049   0.630   6.487
 9247SOL     OW28639   3.705   6.561   2.961
 9247SOL    HW128640   3.612   6.528   2.946
 9247SOL    HW228641   3.732   6.620   2.884
 9248SOL     OW28642   2.347   1.161   6.870
 9248SOL    HW128643   2.426   1.102   6.885
 9248SOL    HW228644   2.378   1.250   6.837
 9249SOL     OW28645   3.414   5.962   0.924
 9249SOL    HW128646   3.396   5.998   0.832
 9249SOL    HW228647   3.376   6.025   0.992
 9250SOL     OW28648   0.449   2.981   3.607
 9250SOL    HW128649   0.544   2.961   3.630
 9250SOL    HW228650   0.389   2.932   3.670
 9251SOL     OW28651   3.012   3.217   1.176
 9251SOL    HW128652   2.969   3.129   1.154
 9251SOL    HW228653   3.055   3.254   1.093
 9252SOL     OW28654   5.459   2.019   5.372
 9252SOL    HW128655   5.529   2.089   5.355
 9252SOL    HW228656   5.489   1.959   5.446
 9253SOL     OW28657   0.852   5.543   5.295
 9253SOL    HW128658   0.933   5.484   5.291
 9253SOL    HW228659   0.769   5.488   5.290
 9254SOL     OW28660   0.398   4.748   2.455
 9254SOL    HW128661   0.394   4.838   2.412
 9254SOL    HW228662   0.306   4.722   2.485
 9255SOL     OW28663   0.082   4.402   0.530
 9255SOL    HW128664   0.060   4.320   0.582
 9255SOL    HW228665   0.012   4.472   0.547
 9256SOL     OW28666   2.895   6.093   1.300
 9256SOL    HW128667   2.909   6.096   1.201
 9256SOL    HW228668   2.919   6.182   1.339
 9257SOL     OW28669   6.806   5.900   3.849
 9257SOL    HW128670   6.862   5.945   3.919
 9257SOL    HW228671   6.841   5.807   3.833
 9258SOL     OW28672   3.406   5.015   1.301
 9258SOL    HW128673   3.417   4.980   1.208
 9258SOL    HW228674   3.390   4.939   1.364
 9259SOL     OW28675   1.971   2.070   0.280
 9259SOL    HW128676   2.007   2.106   0.194
 9259SOL    HW228677   2.011   1.979   0.297
 9260SOL     OW28678   5.748   3.971   4.971
 9260SOL    HW128679   5.749   3.903   4.898
 9260SOL    HW228680   5.839   3.976   5.012
 9261SOL     OW28681   3.648   2.500   1.713
 9261SOL    HW128682   3.746   2.507   1.692
 9261SOL    HW228683   3.632   2.418   1.768
 9262SOL     OW28684   6.412   5.763   4.956
 9262SOL    HW128685   6.444   5.848   4.914
 9262SOL    HW228686   6.353   5.785   5.034
 9263SOL     OW28687   1.875   4.255   4.190
 9263SOL    HW128688   1.865   4.305   4.276
 9263SOL    HW228689   1.900   4.160   4.209
 9264SOL     OW28690   4.481   4.341   0.046
 9264SOL    HW128691   4.560   4.322   0.106
 9264SOL    HW228692   4.488   4.434   0.011
 9265SOL     OW28693   6.368   1.941   0.550
 9265SOL    HW128694   6.423   2.022   0.569
 9265SOL    HW228695   6.273   1.960   0.571
 9266SOL     OW28696   1.178   4.602   1.162
 9266SOL    HW128697   1.223   4.573   1.078
 9266SOL    HW228698   1.227   4.680   1.201
 9267SOL     OW28699   6.749   1.120   4.288
 9267SOL    HW128700   6.686   1.078   4.223
 9267SOL    HW228701   6.768   1.214   4.259
 9268SOL     OW28702   0.954   0.051   1.796
 9268SOL    HW128703   1.013   0.114   1.846
 9268SOL    HW228704   0.878   0.021   1.855
 9269SOL     OW28705   3.766   1.475   0.117
 9269SOL    HW128706   3.718   1.403   0.066
 9269SOL    HW228707   3.711   1.502   0.196
 9270SOL     OW28708   1.974   0.418   6.499
 9270SOL    HW128709   1.890   0.380   6.538
 9270SOL    HW228710   2.004   0.361   6.423
 9271SOL     OW28711   1.285   6.262   4.905
 9271SOL    HW128712   1.186   6.251   4.912
 9271SOL    HW228713   1.308   6.359   4.912
 9272SOL     OW28714   6.689   6.188   6.117
 9272SOL    HW128715   6.726   6.219   6.205
 9272SOL    HW228716   6.637   6.104   6.131
 9273SOL     OW28717   4.960   4.638   3.626
 9273SOL    HW128718   4.921   4.727   3.648
 9273SOL    HW228719   4.946   4.618   3.529
 9274SOL     OW28720   0.339   2.782   0.668
 9274SOL    HW128721   0.431   2.775   0.630
 9274SOL    HW228722   0.292   2.860   0.627
 9275SOL     OW28723   6.899   0.826   0.122
 9275SOL    HW128724   6.871   0.920   0.104
 9275SOL    HW228725   6.947   0.790   0.042
 9276SOL     OW28726   2.772   5.469   0.290
 9276SOL    HW128727   2.854   5.511   0.251
 9276SOL    HW228728   2.694   5.487   0.230
 9277SOL     OW28729   5.000   5.695   1.562
 9277SOL    HW128730   4.958   5.666   1.476
 9277SOL    HW228731   5.100   5.689   1.554
 9278SOL     OW28732   1.224   0.500   5.560
 9278SOL    HW128733   1.140   0.514   5.507
 9278SOL    HW228734   1.222   0.559   5.641
 9279SOL     OW28735   4.200   5.984   1.698
 9279SOL    HW128736   4.275   6.011   1.638
 9279SOL    HW228737   4.137   5.925   1.647
 9280SOL     OW28738   1.587   6.805   2.445
 9280SOL    HW128739   1.634   6.878   2.495
 9280SOL    HW228740   1.564   6.837   2.353
 9281SOL     OW28741   2.222   5.360   7.004
 9281SOL    HW128742   2.168   5.441   7.026
 9281SOL    HW228743   2.319   5.382   7.007
 9282SOL     OW28744   2.906   7.006   4.995
 9282SOL    HW128745   2.948   6.925   5.036
 9282SOL    HW228746   2.935   0.060   5.044
 9283SOL     OW28747   4.102   6.487   1.054
 9283SOL    HW128748   4.087   6.404   1.107
 9283SOL    HW228749   4.193   6.484   1.012
 9284SOL     OW28750   3.504   4.034   5.172
 9284SOL    HW128751   3.555   3.961   5.218
 9284SOL    HW228752   3.523   4.031   5.074
 9285SOL     OW28753   0.638   5.377   2.761
 9285SOL    HW128754   0.669   5.379   2.666
 9285SOL    HW228755   0.693   5.312   2.813
 9286SOL     OW28756   4.562   6.402   1.633
 9286SOL    HW128757   4.496   6.350   1.687
 9286SOL    HW228758   4.537   6.499   1.633
 9287SOL     OW28759   3.555   4.269   5.996
 9287SOL    HW128760   3.458   4.246   6.001
 9287SOL    HW228761   3.602   4.205   5.935
 9288SOL     OW28762   3.365   2.107   2.340
 9288SOL    HW128763   3.368   2.117   2.439
 9288SOL    HW228764   3.270   2.094   2.311
 9289SOL     OW28765   5.084   6.614   0.661
 9289SOL    HW128766   5.166   6.651   0.617
 9289SOL    HW228767   5.111   6.557   0.739
 9290SOL     OW28768   4.673   0.862   3.703
 9290SOL    HW128769   4.670   0.845   3.801
 9290SOL    HW228770   4.658   0.776   3.653
 9291SOL     OW28771   1.000   4.590   6.118
 9291SOL    HW128772   0.938   4.532   6.170
 9291SOL    HW228773   0.955   4.677   6.097
 9292SOL     OW28774   1.051   1.322   6.468
 9292SOL    HW128775   1.003   1.364   6.545
 9292SOL    HW228776   1.115   1.253   6.503
 9293SOL     OW28777   4.750   2.484   4.654
 9293SOL    HW128778   4.656   2.489   4.688
 9293SOL    HW228779   4.806   2.431   4.718
 9294SOL     OW28780   4.846   0.992   6.599
 9294SOL    HW128781   4.896   1.040   6.672
 9294SOL    HW228782   4.873   1.029   6.510
 9295SOL     OW28783   0.577   1.070   5.374
 9295SOL    HW128784   0.667   1.091   5.336
 9295SOL    HW228785   0.587   1.024   5.462
 9296SOL     OW28786   1.780   4.589   6.881
 9296SOL    HW128787   1.683   4.612   6.873
 9296SOL    HW228788   1.796   4.500   6.838
 9297SOL     OW28789   6.261   5.823   2.592
 9297SOL    HW128790   6.236   5.738   2.638
 9297SOL    HW228791   6.178   5.874   2.569
 9298SOL     OW28792   1.625   5.293   6.706
 9298SOL    HW128793   1.671   5.226   6.764
 9298SOL    HW228794   1.639   5.270   6.610
 9299SOL     OW28795   2.317   2.595   4.628
 9299SOL    HW128796   2.227   2.571   4.666
 9299SOL    HW228797   2.332   2.694   4.639
 9300SOL     OW28798   1.566   5.303   4.988
 9300SOL    HW128799   1.574   5.320   4.889
 9300SOL    HW228800   1.622   5.369   5.038
 9301SOL     OW28801   0.416   4.639   4.750
 9301SOL    HW128802   0.398   4.596   4.661
 9301SOL    HW228803   0.421   4.568   4.820
 9302SOL     OW28804   2.195   3.559   5.459
 9302SOL    HW128805   2.191   3.655   5.430
 9302SOL    HW228806   2.245   3.506   5.391
 9303SOL     OW28807   2.499   4.455   0.747
 9303SOL    HW128808   2.475   4.456   0.845
 9303SOL    HW228809   2.597   4.474   0.737
 9304SOL     OW28810   4.152   4.913   0.007
 9304SOL    HW128811   4.230   4.958   0.049
 9304SOL    HW228812   4.141   4.821   0.046
 9305SOL     OW28813   1.949   1.974   1.695
 9305SOL    HW128814   1.855   2.006   1.681
 9305SOL    HW228815   1.948   1.882   1.734
 9306SOL     OW28816   6.669   5.578   4.967
 9306SOL    HW128817   6.642   5.674   4.975
 9306SOL    HW228818   6.588   5.520   4.977
 9307SOL     OW28819   2.299   3.539   1.496
 9307SOL    HW128820   2.345   3.450   1.487
 9307SOL    HW228821   2.346   3.594   1.565
 9308SOL     OW28822   2.088   3.599   2.234
 9308SOL    HW128823   1.988   3.597   2.232
 9308SOL    HW228824   2.124   3.571   2.144
 9309SOL     OW28825   4.943   5.364   6.374
 9309SOL    HW128826   4.863   5.414   6.341
 9309SOL    HW228827   5.025   5.397   6.328
 9310SOL     OW28828   5.994   6.372   6.913
 9310SOL    HW128829   6.092   6.366   6.933
 9310SOL    HW228830   5.957   6.280   6.902
 9311SOL     OW28831   4.660   3.730   1.587
 9311SOL    HW128832   4.715   3.806   1.623
 9311SOL    HW228833   4.581   3.716   1.646
 9312SOL     OW28834   0.639   3.181   2.977
 9312SOL    HW128835   0.604   3.148   3.064
 9312SOL    HW228836   0.648   3.280   2.980
 9313SOL     OW28837   0.575   0.741   2.226
 9313SOL    HW128838   0.496   0.722   2.285
 9313SOL    HW228839   0.546   0.739   2.130
 9314SOL     OW28840   5.131   3.783   0.526
 9314SOL    HW128841   5.122   3.748   0.619
 9314SOL    HW228842   5.228   3.800   0.506
 9315SOL     OW28843   5.294   0.182   6.202
 9315SOL    HW128844   5.300   0.258   6.267
 9315SOL    HW228845   5.208   0.186   6.152
 9316SOL     OW28846   4.787   0.253   5.672
 9316SOL    HW128847   4.866   0.307   5.698
 9316SOL    HW228848   4.707   0.282   5.725
 9317SOL     OW28849   3.786   6.486   3.203
 9317SOL    HW128850   3.788   6.496   3.103
 9317SOL    HW228851   3.732   6.406   3.227
 9318SOL     OW28852   4.399   6.198   1.792
 9318SOL    HW128853   4.349   6.284   1.799
 9318SOL    HW228854   4.341   6.122   1.823
 9319SOL     OW28855   2.719   2.817   0.172
 9319SOL    HW128856   2.730   2.795   0.075
 9319SOL    HW228857   2.769   2.751   0.228
 9320SOL     OW28858   6.469   6.435   6.800
 9320SOL    HW128859   6.515   6.365   6.856
 9320SOL    HW228860   6.517   6.522   6.809
 9321SOL     OW28861   0.324   3.595   4.999
 9321SOL    HW128862   0.311   3.535   5.078
 9321SOL    HW228863   0.422   3.602   4.978
 9322SOL     OW28864   5.881   3.333   6.608
 9322SOL    HW128865   5.950   3.397   6.644
 9322SOL    HW228866   5.927   3.253   6.570
 9323SOL     OW28867   0.625   1.953   5.819
 9323SOL    HW128868   0.662   2.046   5.819
 9323SOL    HW228869   0.686   1.893   5.767
 9324SOL     OW28870   1.045   4.682   1.854
 9324SOL    HW128871   1.037   4.780   1.873
 9324SOL    HW228872   1.122   4.644   1.905
 9325SOL     OW28873   0.928   4.632   3.581
 9325SOL    HW128874   0.970   4.583   3.505
 9325SOL    HW228875   0.830   4.616   3.580
 9326SOL     OW28876   4.751   4.444   1.906
 9326SOL    HW128877   4.743   4.438   1.806
 9326SOL    HW228878   4.683   4.385   1.949
 9327SOL     OW28879   3.767   0.737   3.523
 9327SOL    HW128880   3.793   0.832   3.543
 9327SOL    HW228881   3.840   0.675   3.552
 9328SOL     OW28882   2.422   0.089   4.314
 9328SOL    HW128883   2.453   0.000   4.349
 9328SOL    HW228884   2.501   0.147   4.297
 9329SOL     OW28885   0.262   5.230   6.748
 9329SOL    HW128886   0.242   5.313   6.799
 9329SOL    HW228887   0.202   5.224   6.668
 9330SOL     OW28888   6.771   6.104   6.592
 9330SOL    HW128889   6.673   6.096   6.609
 9330SOL    HW228890   6.792   6.195   6.557
 9331SOL     OW28891   1.433   3.530   4.315
 9331SOL    HW128892   1.356   3.592   4.333
 9331SOL    HW228893   1.402   3.454   4.258
 9332SOL     OW28894   4.673   5.658   1.219
 9332SOL    HW128895   4.709   5.664   1.126
 9332SOL    HW228896   4.671   5.749   1.260
 9333SOL     OW28897   4.598   4.003   0.639
 9333SOL    HW128898   4.569   4.098   0.628
 9333SOL    HW228899   4.661   3.996   0.716
 9334SOL     OW28900   5.829   5.952   5.878
 9334SOL    HW128901   5.798   5.989   5.790
 9334SOL    HW228902   5.750   5.930   5.935
 9335SOL     OW28903   0.741   3.742   1.680
 9335SOL    HW128904   0.741   3.759   1.581
 9335SOL    HW228905   0.657   3.695   1.706
 9336SOL     OW28906   5.853   6.953   5.523
 9336SOL    HW128907   5.889   6.901   5.446
 9336SOL    HW228908   5.760   6.922   5.543
 9337SOL     OW28909   2.437   0.397   6.427
 9337SOL    HW128910   2.505   0.402   6.353
 9337SOL    HW228911   2.411   0.302   6.442
 9338SOL     OW28912   5.667   6.640   0.294
 9338SOL    HW128913   5.574   6.606   0.282
 9338SOL    HW228914   5.728   6.595   0.229
 9339SOL     OW28915   6.053   3.601   5.583
 9339SOL    HW128916   5.956   3.626   5.583
 9339SOL    HW228917   6.093   3.622   5.493
 9340SOL     OW28918   3.844   5.574   1.351
 9340SOL    HW128919   3.800   5.523   1.425
 9340SOL    HW228920   3.789   5.654   1.328
 9341SOL     OW28921   5.260   4.205   6.925
 9341SOL    HW128922   5.170   4.178   6.959
 9341SOL    HW228923   5.316   4.123   6.911
 9342SOL     OW28924   3.413   0.427   4.160
 9342SOL    HW128925   3.506   0.393   4.168
 9342SOL    HW228926   3.350   0.349   4.156
 9343SOL     OW28927   4.493   3.806   1.336
 9343SOL    HW128928   4.468   3.887   1.389
 9343SOL    HW228929   4.554   3.748   1.390
 9344SOL     OW28930   6.045   6.338   5.204
 9344SOL    HW128931   6.038   6.418   5.264
 9344SOL    HW228932   5.954   6.308   5.178
 9345SOL     OW28933   0.947   6.063   0.690
 9345SOL    HW128934   0.864   6.083   0.638
 9345SOL    HW228935   1.014   6.018   0.631
 9346SOL     OW28936   5.791   5.733   0.730
 9346SOL    HW128937   5.744   5.786   0.801
 9346SOL    HW228938   5.827   5.796   0.661
 9347SOL     OW28939   3.362   5.344   1.127
 9347SOL    HW128940   3.349   5.383   1.036
 9347SOL    HW228941   3.297   5.387   1.190
 9348SOL     OW28942   2.840   5.869   2.002
 9348SOL    HW128943   2.904   5.945   1.990
 9348SOL    HW228944   2.819   5.830   1.912
 9349SOL     OW28945   6.957   5.824   1.935
 9349SOL    HW128946   6.904   5.760   1.879
 9349SOL    HW228947   6.904   5.908   1.950
 9350SOL     OW28948   6.668   0.642   5.967
 9350SOL    HW128949   6.645   0.722   6.022
 9350SOL    HW228950   6.585   0.589   5.950
 9351SOL     OW28951   3.504   2.383   6.081
 9351SOL    HW128952   3.409   2.411   6.097
 9351SOL    HW228953   3.534   2.417   5.992
 9352SOL     OW28954   3.565   2.489   5.843
 9352SOL    HW128955   3.662   2.514   5.846
 9352SOL    HW228956   3.553   2.408   5.785
 9353SOL     OW28957   0.786   3.390   1.424
 9353SOL    HW128958   0.832   3.328   1.360
 9353SOL    HW228959   0.719   3.339   1.477
 9354SOL     OW28960   4.947   2.303   1.628
 9354SOL    HW128961   4.930   2.224   1.688
 9354SOL    HW228962   5.035   2.292   1.584
 9355SOL     OW28963   6.860   0.113   3.370
 9355SOL    HW128964   6.825   0.025   3.340
 9355SOL    HW228965   6.870   0.174   3.292
 9356SOL     OW28966   4.395   4.573   2.562
 9356SOL    HW128967   4.362   4.652   2.613
 9356SOL    HW228968   4.435   4.603   2.476
 9357SOL     OW28969   3.720   3.037   0.793
 9357SOL    HW128970   3.690   2.987   0.875
 9357SOL    HW228971   3.805   3.085   0.814
 9358SOL     OW28972   5.939   4.564   1.969
 9358SOL    HW128973   5.887   4.558   2.054
 9358SOL    HW228974   5.934   4.477   1.921
 9359SOL     OW28975   6.345   3.810   5.524
 9359SOL    HW128976   6.425   3.834   5.469
 9359SOL    HW228977   6.299   3.894   5.554
 9360SOL     OW28978   1.948   0.819   6.731
 9360SOL    HW128979   2.016   0.869   6.785
 9360SOL    HW228980   1.872   0.792   6.790
 9361SOL     OW28981   3.038   6.938   2.595
 9361SOL    HW128982   3.056   7.010   2.529
 9361SOL    HW228983   3.010   6.855   2.548
 9362SOL     OW28984   2.120   1.167   2.673
 9362SOL    HW128985   2.045   1.218   2.633
 9362SOL    HW228986   2.086   1.109   2.748
 9363SOL     OW28987   3.457   5.574   2.507
 9363SOL    HW128988   3.478   5.672   2.506
 9363SOL    HW228989   3.535   5.522   2.473
 9364SOL     OW28990   4.375   4.630   0.208
 9364SOL    HW128991   4.305   4.570   0.245
 9364SOL    HW228992   4.378   4.621   0.108
 9365SOL     OW28993   2.913   1.675   4.608
 9365SOL    HW128994   3.001   1.703   4.571
 9365SOL    HW228995   2.898   1.719   4.696
 9366SOL     OW28996   2.704   1.772   0.802
 9366SOL    HW128997   2.794   1.806   0.776
 9366SOL    HW228998   2.700   1.673   0.785
 9367SOL     OW28999   6.899   5.627   3.081
 9367SOL    HW129000   6.896   5.670   2.991
 9367SOL    HW229001   6.981   5.569   3.087
 9368SOL     OW29002   3.099   2.090   1.566
 9368SOL    HW129003   3.071   2.159   1.633
 9368SOL    HW229004   3.171   2.033   1.604
 9369SOL     OW29005   6.973   2.191   4.536
 9369SOL    HW129006   6.909   2.147   4.599
 9369SOL    HW229007   6.932   2.196   4.445
 9370SOL     OW29008   5.872   1.131   2.765
 9370SOL    HW129009   5.795   1.158   2.707
 9370SOL    HW229010   5.849   1.046   2.813
 9371SOL     OW29011   0.500   6.071   0.517
 9371SOL    HW129012   0.477   6.115   0.604
 9371SOL    HW229013   0.448   6.113   0.444
 9372SOL     OW29014   5.890   6.636   4.522
 9372SOL    HW129015   5.987   6.661   4.522
 9372SOL    HW229016   5.860   6.617   4.616
 9373SOL     OW29017   3.582   1.698   3.547
 9373SOL    HW129018   3.488   1.730   3.561
 9373SOL    HW229019   3.586   1.600   3.562
 9374SOL     OW29020   5.513   3.469   0.201
 9374SOL    HW129021   5.487   3.373   0.200
 9374SOL    HW229022   5.607   3.479   0.233
 9375SOL     OW29023   0.332   1.234   3.447
 9375SOL    HW129024   0.283   1.178   3.514
 9375SOL    HW229025   0.428   1.205   3.444
 9376SOL     OW29026   2.207   3.867   1.448
 9376SOL    HW129027   2.165   3.831   1.531
 9376SOL    HW229028   2.218   3.794   1.381
 9377SOL     OW29029   6.066   5.427   4.057
 9377SOL    HW129030   6.043   5.524   4.048
 9377SOL    HW229031   6.037   5.394   4.147
 9378SOL     OW29032   2.617   0.329   0.502
 9378SOL    HW129033   2.625   0.428   0.488
 9378SOL    HW229034   2.528   0.307   0.542
 9379SOL     OW29035   5.142   4.909   4.306
 9379SOL    HW129036   5.161   4.951   4.217
 9379SOL    HW229037   5.226   4.909   4.361
 9380SOL     OW29038   6.033   0.131   5.666
 9380SOL    HW129039   5.968   0.060   5.638
 9380SOL    HW229040   6.094   0.094   5.735
 9381SOL     OW29041   2.295   1.726   5.735
 9381SOL    HW129042   2.316   1.812   5.781
 9381SOL    HW229043   2.198   1.725   5.709
 9382SOL     OW29044   4.724   2.185   2.656
 9382SOL    HW129045   4.775   2.271   2.651
 9382SOL    HW229046   4.789   2.109   2.663
 9383SOL     OW29047   4.132   6.310   4.630
 9383SOL    HW129048   4.153   6.296   4.727
 9383SOL    HW229049   4.129   6.408   4.611
 9384SOL     OW29050   4.904   6.005   2.284
 9384SOL    HW129051   4.843   6.019   2.205
 9384SOL    HW229052   4.911   5.907   2.303
 9385SOL     OW29053   3.620   1.203   3.253
 9385SOL    HW129054   3.609   1.107   3.281
 9385SOL    HW229055   3.584   1.214   3.161
 9386SOL     OW29056   2.803   0.002   5.647
 9386SOL    HW129057   2.879   7.007   5.586
 9386SOL    HW229058   2.823   6.995   5.739
 9387SOL     OW29059   3.411   6.706   0.263
 9387SOL    HW129060   3.356   6.642   0.316
 9387SOL    HW229061   3.382   6.704   0.168
 9388SOL     OW29062   6.891   0.586   3.171
 9388SOL    HW129063   6.911   0.617   3.264
 9388SOL    HW229064   6.945   0.638   3.105
 9389SOL     OW29065   2.462   0.995   5.557
 9389SOL    HW129066   2.446   1.047   5.640
 9389SOL    HW229067   2.400   0.917   5.553
 9390SOL     OW29068   2.597   5.512   2.125
 9390SOL    HW129069   2.498   5.523   2.134
 9390SOL    HW229070   2.644   5.571   2.191
 9391SOL     OW29071   0.292   1.290   5.686
 9391SOL    HW129072   0.332   1.283   5.777
 9391SOL    HW229073   0.364   1.283   5.617
 9392SOL     OW29074   1.453   6.019   4.500
 9392SOL    HW129075   1.485   6.114   4.503
 9392SOL    HW229076   1.531   5.958   4.517
 9393SOL     OW29077   3.762   2.174   5.228
 9393SOL    HW129078   3.707   2.132   5.156
 9393SOL    HW229079   3.845   2.119   5.242
 9394SOL     OW29080   6.153   2.833   2.436
 9394SOL    HW129081   6.077   2.897   2.447
 9394SOL    HW229082   6.131   2.746   2.478
 9395SOL     OW29083   2.405   3.452   0.557
 9395SOL    HW129084   2.309   3.424   0.563
 9395SOL    HW229085   2.430   3.464   0.461
 9396SOL     OW29086   6.129   0.514   6.023
 9396SOL    HW129087   6.074   0.456   6.082
 9396SOL    HW229088   6.072   0.554   5.952
 9397SOL     OW29089   2.458   6.916   1.091
 9397SOL    HW129090   2.515   6.969   1.029
 9397SOL    HW229091   2.516   6.864   1.153
 9398SOL     OW29092   2.689   1.492   6.464
 9398SOL    HW129093   2.664   1.564   6.529
 9398SOL    HW229094   2.607   1.457   6.420
 9399SOL     OW29095   6.963   0.697   5.438
 9399SOL    HW129096   6.870   0.672   5.412
 9399SOL    HW229097   6.969   0.706   5.537
 9400SOL     OW29098   5.696   3.115   2.247
 9400SOL    HW129099   5.790   3.089   2.225
 9400SOL    HW229100   5.686   3.214   2.241
 9401SOL     OW29101   2.848   6.599   3.285
 9401SOL    HW129102   2.938   6.562   3.264
 9401SOL    HW229103   2.858   6.685   3.335
 9402SOL     OW29104   2.097   5.139   6.483
 9402SOL    HW129105   2.095   5.075   6.560
 9402SOL    HW229106   2.083   5.090   6.397
 9403SOL     OW29107   5.272   2.040   4.263
 9403SOL    HW129108   5.219   2.108   4.213
 9403SOL    HW229109   5.323   2.085   4.337
 9404SOL     OW29110   1.185   4.890   6.623
 9404SOL    HW129111   1.269   4.943   6.608
 9404SOL    HW229112   1.135   4.884   6.537
 9405SOL     OW29113   6.339   6.821   0.810
 9405SOL    HW129114   6.260   6.763   0.787
 9405SOL    HW229115   6.363   6.807   0.906
 9406SOL     OW29116   0.133   1.294   4.659
 9406SOL    HW129117   0.184   1.211   4.635
 9406SOL    HW229118   0.174   1.337   4.739
 9407SOL     OW29119   3.077   5.927   3.001
 9407SOL    HW129120   2.995   5.979   2.977
 9407SOL    HW229121   3.158   5.983   2.985
 9408SOL     OW29122   3.827   1.921   6.038
 9408SOL    HW129123   3.918   1.954   6.064
 9408SOL    HW229124   3.773   1.905   6.120
 9409SOL     OW29125   5.971   3.394   3.941
 9409SOL    HW129126   6.051   3.403   4.001
 9409SOL    HW229127   5.962   3.476   3.885
 9410SOL     OW29128   4.196   6.355   2.946
 9410SOL    HW129129   4.294   6.372   2.936
 9410SOL    HW229130   4.148   6.441   2.962
 9411SOL     OW29131   4.030   5.611   0.640
 9411SOL    HW129132   4.125   5.610   0.609
 9411SOL    HW229133   3.983   5.531   0.604
 9412SOL     OW29134   7.014   2.490   1.269
 9412SOL    HW129135   0.038   2.454   1.346
 9412SOL    HW229136   6.980   2.414   1.213
 9413SOL     OW29137   3.960   6.059   5.497
 9413SOL    HW129138   3.985   6.152   5.472
 9413SOL    HW229139   3.989   6.041   5.591
 9414SOL     OW29140   2.980   1.576   2.385
 9414SOL    HW129141   2.937   1.538   2.466
 9414SOL    HW229142   3.072   1.609   2.407
 9415SOL     OW29143   2.225   6.528   2.391
 9415SOL    HW129144   2.308   6.511   2.445
 9415SOL    HW229145   2.210   6.627   2.385
 9416SOL     OW29146   1.354   2.172   2.122
 9416SOL    HW129147   1.266   2.138   2.154
 9416SOL    HW229148   1.357   2.271   2.131
 9417SOL     OW29149   2.300   5.499   5.521
 9417SOL    HW129150   2.241   5.544   5.454
 9417SOL    HW229151   2.262   5.513   5.613
 9418SOL     OW29152   2.387   5.111   1.216
 9418SOL    HW129153   2.465   5.053   1.193
 9418SOL    HW229154   2.367   5.103   1.314
 9419SOL     OW29155   3.031   6.662   4.848
 9419SOL    HW129156   3.061   6.580   4.799
 9419SOL    HW229157   3.014   6.639   4.944
 9420SOL     OW29158   6.922   1.157   4.582
 9420SOL    HW129159   6.872   1.222   4.524
 9420SOL    HW229160   7.011   1.195   4.606
 9421SOL     OW29161   0.650   4.313   5.304
 9421SOL    HW129162   0.615   4.359   5.223
 9421SOL    HW229163   0.713   4.240   5.276
 9422SOL     OW29164   5.165   0.548   1.983
 9422SOL    HW129165   5.253   0.553   1.936
 9422SOL    HW229166   5.175   0.492   2.066
 9423SOL     OW29167   3.926   0.706   3.911
 9423SOL    HW129168   3.947   0.627   3.969
 9423SOL    HW229169   3.993   0.711   3.837
 9424SOL     OW29170   3.800   6.558   4.780
 9424SOL    HW129171   3.712   6.605   4.782
 9424SOL    HW229172   3.787   6.465   4.745
 9425SOL     OW29173   0.888   3.460   5.081
 9425SOL    HW129174   0.906   3.500   4.991
 9425SOL    HW229175   0.956   3.390   5.100
 9426SOL     OW29176   3.138   0.275   6.728
 9426SOL    HW129177   3.171   0.203   6.667
 9426SOL    HW229178   3.167   0.254   6.822
 9427SOL     OW29179   2.858   5.311   4.886
 9427SOL    HW129180   2.885   5.262   4.969
 9427SOL    HW229181   2.759   5.300   4.872
 9428SOL     OW29182   5.791   0.422   3.078
 9428SOL    HW129183   5.750   0.405   3.168
 9428SOL    HW229184   5.869   0.484   3.089
 9429SOL     OW29185   0.928   4.035   2.054
 9429SOL    HW129186   0.872   3.994   1.982
 9429SOL    HW229187   1.024   4.035   2.024
 9430SOL     OW29188   6.583   6.671   1.731
 9430SOL    HW129189   6.511   6.653   1.664
 9430SOL    HW229190   6.543   6.676   1.822
 9431SOL     OW29191   0.061   3.919   0.866
 9431SOL    HW129192   0.070   3.834   0.813
 9431SOL    HW229193   6.993   3.948   0.867
 9432SOL     OW29194   6.120   0.317   3.001
 9432SOL    HW129195   6.088   0.257   2.928
 9432SOL    HW229196   6.090   0.280   3.090
 9433SOL     OW29197   3.370   4.716   5.295
 9433SOL    HW129198   3.278   4.723   5.257
 9433SOL    HW229199   3.413   4.806   5.297
 9434SOL     OW29200   5.831   4.858   2.738
 9434SOL    HW129201   5.753   4.802   2.708
 9434SOL    HW229202   5.817   4.887   2.833
 9435SOL     OW29203   1.530   1.109   4.338
 9435SOL    HW129204   1.556   1.023   4.380
 9435SOL    HW229205   1.453   1.095   4.276
 9436SOL     OW29206   2.676   3.321   0.278
 9436SOL    HW129207   2.765   3.341   0.319
 9436SOL    HW229208   2.664   3.222   0.269
 9437SOL     OW29209   1.613   5.167   3.525
 9437SOL    HW129210   1.574   5.140   3.437
 9437SOL    HW229211   1.664   5.252   3.515
 9438SOL     OW29212   0.690   6.458   2.199
 9438SOL    HW129213   0.706   6.549   2.162
 9438SOL    HW229214   0.600   6.456   2.243
 9439SOL     OW29215   0.157   2.632   2.248
 9439SOL    HW129216   0.229   2.673   2.303
 9439SOL    HW229217   0.069   2.669   2.276
 9440SOL     OW29218   4.838   6.500   6.068
 9440SOL    HW129219   4.850   6.491   6.166
 9440SOL    HW229220   4.928   6.506   6.024
 9441SOL     OW29221   1.908   4.808   5.083
 9441SOL    HW129222   1.884   4.876   5.152
 9441SOL    HW229223   1.976   4.845   5.020
 9442SOL     OW29224   6.729   2.682   0.552
 9442SOL    HW129225   6.655   2.737   0.589
 9442SOL    HW229226   6.811   2.739   0.541
 9443SOL     OW29227   1.928   4.053   0.909
 9443SOL    HW129228   1.990   4.122   0.870
 9443SOL    HW229229   1.950   3.963   0.871
 9444SOL     OW29230   0.443   3.102   0.106
 9444SOL    HW129231   0.460   3.179   0.045
 9444SOL    HW229232   0.398   3.134   0.190
 9445SOL     OW29233   5.617   3.814   1.817
 9445SOL    HW129234   5.645   3.887   1.879
 9445SOL    HW229235   5.671   3.732   1.836
 9446SOL     OW29236   6.695   6.022   2.177
 9446SOL    HW129237   6.681   6.016   2.079
 9446SOL    HW229238   6.712   6.117   2.203
 9447SOL     OW29239   5.649   3.910   2.234
 9447SOL    HW129240   5.581   3.934   2.304
 9447SOL    HW229241   5.741   3.918   2.273
 9448SOL     OW29242   5.736   6.206   0.519
 9448SOL    HW129243   5.835   6.217   0.512
 9448SOL    HW229244   5.693   6.228   0.431
 9449SOL     OW29245   5.638   5.468   5.792
 9449SOL    HW129246   5.651   5.410   5.712
 9449SOL    HW229247   5.592   5.417   5.864
 9450SOL     OW29248   3.428   4.941   4.789
 9450SOL    HW129249   3.505   4.975   4.736
 9450SOL    HW229250   3.377   4.874   4.735
 9451SOL     OW29251   4.482   5.356   6.325
 9451SOL    HW129252   4.545   5.291   6.282
 9451SOL    HW229253   4.495   5.447   6.285
 9452SOL     OW29254   2.454   4.567   1.595
 9452SOL    HW129255   2.518   4.548   1.669
 9452SOL    HW229256   2.401   4.484   1.574
 9453SOL     OW29257   2.518   5.333   2.773
 9453SOL    HW129258   2.482   5.261   2.713
 9453SOL    HW229259   2.485   5.319   2.866
 9454SOL     OW29260   1.476   3.687   5.810
 9454SOL    HW129261   1.403   3.671   5.876
 9454SOL    HW229262   1.477   3.614   5.743
 9455SOL     OW29263   3.439   1.186   2.317
 9455SOL    HW129264   3.380   1.236   2.382
 9455SOL    HW229265   3.515   1.245   2.289
 9456SOL     OW29266   0.977   3.587   0.800
 9456SOL    HW129267   0.978   3.496   0.759
 9456SOL    HW229268   1.071   3.614   0.824
 9457SOL     OW29269   1.534   3.197   0.171
 9457SOL    HW129270   1.548   3.270   0.104
 9457SOL    HW229271   1.561   3.110   0.131
 9458SOL     OW29272   0.222   5.221   5.252
 9458SOL    HW129273   0.145   5.158   5.256
 9458SOL    HW229274   0.271   5.221   5.339
 9459SOL     OW29275   6.653   5.367   1.853
 9459SOL    HW129276   6.561   5.403   1.837
 9459SOL    HW229277   6.721   5.435   1.824
 9460SOL     OW29278   0.924   1.980   4.989
 9460SOL    HW129279   0.869   1.897   4.989
 9460SOL    HW229280   0.868   2.058   5.016
 9461SOL     OW29281   0.868   0.840   3.469
 9461SOL    HW129282   0.872   0.748   3.432
 9461SOL    HW229283   0.840   0.836   3.565
 9462SOL     OW29284   0.575   2.926   1.981
 9462SOL    HW129285   0.592   2.832   2.012
 9462SOL    HW229286   0.640   2.988   2.025
 9463SOL     OW29287   5.972   1.288   0.139
 9463SOL    HW129288   5.928   1.207   0.178
 9463SOL    HW229289   6.026   1.333   0.211
 9464SOL     OW29290   6.104   0.129   6.147
 9464SOL    HW129291   6.200   0.133   6.122
 9464SOL    HW229292   6.068   0.037   6.127
 9465SOL     OW29293   6.201   0.182   4.098
 9465SOL    HW129294   6.241   0.103   4.052
 9465SOL    HW229295   6.110   0.159   4.132
 9466SOL     OW29296   2.119   2.974   5.939
 9466SOL    HW129297   2.054   2.974   6.015
 9466SOL    HW229298   2.212   2.987   5.974
 9467SOL     OW29299   1.615   2.774   2.284
 9467SOL    HW129300   1.619   2.774   2.384
 9467SOL    HW229301   1.704   2.746   2.247
 9468SOL     OW29302   6.655   3.280   5.819
 9468SOL    HW129303   6.723   3.350   5.799
 9468SOL    HW229304   6.626   3.236   5.734
 9469SOL     OW29305   6.163   5.497   2.266
 9469SOL    HW129306   6.146   5.563   2.340
 9469SOL    HW229307   6.076   5.456   2.237
 9470SOL     OW29308   4.727   3.821   0.471
 9470SOL    HW129309   4.671   3.894   0.509
 9470SOL    HW229310   4.701   3.734   0.514
 9471SOL     OW29311   7.004   2.443   5.877
 9471SOL    HW129312   6.977   2.534   5.846
 9471SOL    HW229313   0.076   2.436   5.875
 9472SOL     OW29314   5.830   4.275   4.644
 9472SOL    HW129315   5.763   4.334   4.690
 9472SOL    HW229316   5.834   4.300   4.547
 9473SOL     OW29317   2.378   5.812   5.895
 9473SOL    HW129318   2.382   5.804   5.995
 9473SOL    HW229319   2.462   5.854   5.862
 9474SOL     OW29320   4.748   4.901   2.119
 9474SOL    HW129321   4.844   4.888   2.094
 9474SOL    HW229322   4.697   4.816   2.101
 9475SOL     OW29323   2.616   3.963   1.110
 9475SOL    HW129324   2.697   3.906   1.122
 9475SOL    HW229325   2.644   4.059   1.101
 9476SOL     OW29326   4.288   3.311   5.311
 9476SOL    HW129327   4.235   3.318   5.395
 9476SOL    HW229328   4.349   3.390   5.303
 9477SOL     OW29329   0.965   2.518   1.100
 9477SOL    HW129330   0.888   2.468   1.059
 9477SOL    HW229331   1.032   2.453   1.135
 9478SOL     OW29332   5.958   4.752   5.359
 9478SOL    HW129333   6.019   4.792   5.291
 9478SOL    HW229334   5.943   4.818   5.433
 9479SOL     OW29335   6.079   5.939   6.632
 9479SOL    HW129336   6.150   6.005   6.606
 9479SOL    HW229337   6.047   5.890   6.551
 9480SOL     OW29338   5.544   4.610   0.166
 9480SOL    HW129339   5.485   4.626   0.087
 9480SOL    HW229340   5.490   4.571   0.241
 9481SOL     OW29341   6.788   3.804   1.940
 9481SOL    HW129342   6.767   3.812   2.037
 9481SOL    HW229343   6.830   3.889   1.908
 9482SOL     OW29344   4.828   0.830   2.028
 9482SOL    HW129345   4.888   0.792   1.957
 9482SOL    HW229346   4.825   0.930   2.019
 9483SOL     OW29347   1.928   1.904   0.584
 9483SOL    HW129348   1.940   1.981   0.646
 9483SOL    HW229349   1.986   1.915   0.504
 9484SOL     OW29350   6.523   1.696   4.036
 9484SOL    HW129351   6.602   1.648   4.074
 9484SOL    HW229352   6.460   1.630   3.995
 9485SOL     OW29353   0.859   0.833   3.159
 9485SOL    HW129354   0.906   0.884   3.231
 9485SOL    HW229355   0.890   0.738   3.159
 9486SOL     OW29356   2.688   5.857   1.222
 9486SOL    HW129357   2.709   5.919   1.147
 9486SOL    HW229358   2.715   5.899   1.309
 9487SOL     OW29359   3.091   3.756   3.670
 9487SOL    HW129360   3.100   3.729   3.766
 9487SOL    HW229361   3.109   3.854   3.661
 9488SOL     OW29362   1.692   6.615   1.173
 9488SOL    HW129363   1.662   6.673   1.097
 9488SOL    HW229364   1.636   6.532   1.175
 9489SOL     OW29365   4.006   4.467   1.329
 9489SOL    HW129366   4.078   4.437   1.267
 9489SOL    HW229367   4.047   4.509   1.411
 9490SOL     OW29368   5.501   0.786   1.209
 9490SOL    HW129369   5.481   0.884   1.209
 9490SOL    HW229370   5.433   0.739   1.152
 9491SOL     OW29371   6.358   5.450   4.446
 9491SOL    HW129372   6.278   5.423   4.393
 9491SOL    HW229373   6.329   5.503   4.526
 9492SOL     OW29374   3.268   3.883   2.134
 9492SOL    HW129375   3.280   3.948   2.059
 9492SOL    HW229376   3.249   3.933   2.219
 9493SOL     OW29377   4.415   5.744   3.253
 9493SOL    HW129378   4.315   5.740   3.264
 9493SOL    HW229379   4.438   5.814   3.186
 9494SOL     OW29380   5.341   3.398   6.743
 9494SOL    HW129381   5.437   3.376   6.726
 9494SOL    HW229382   5.291   3.398   6.656
 9495SOL     OW29383   6.388   1.896   4.741
 9495SOL    HW129384   6.437   1.873   4.657
 9495SOL    HW229385   6.335   1.980   4.727
 9496SOL     OW29386   5.796   3.876   0.147
 9496SOL    HW129387   5.703   3.901   0.120
 9496SOL    HW229388   5.845   3.958   0.177
 9497SOL     OW29389   5.350   5.551   0.085
 9497SOL    HW129390   5.281   5.612   0.123
 9497SOL    HW229391   5.435   5.561   0.137
 9498SOL     OW29392   3.644   0.341   5.402
 9498SOL    HW129393   3.611   0.412   5.463
 9498SOL    HW229394   3.744   0.343   5.398
 9499SOL     OW29395   2.876   3.537   5.497
 9499SOL    HW129396   2.941   3.481   5.445
 9499SOL    HW229397   2.866   3.626   5.452
 9500SOL     OW29398   4.189   5.798   1.917
 9500SOL    HW129399   4.125   5.855   1.866
 9500SOL    HW229400   4.281   5.837   1.911
 9501SOL     OW29401   3.636   1.400   4.658
 9501SOL    HW129402   3.559   1.360   4.607
 9501SOL    HW229403   3.674   1.477   4.607
 9502SOL     OW29404   6.516   2.427   5.096
 9502SOL    HW129405   6.448   2.483   5.048
 9502SOL    HW229406   6.473   2.342   5.125
 9503SOL     OW29407   0.572   0.126   1.997
 9503SOL    HW129408   0.477   0.154   1.982
 9503SOL    HW229409   0.575   0.051   2.064
 9504SOL     OW29410   0.109   2.627   0.600
 9504SOL    HW129411   0.088   2.569   0.679
 9504SOL    HW229412   0.193   2.679   0.619
 9505SOL     OW29413   6.455   3.323   3.180
 9505SOL    HW129414   6.532   3.375   3.216
 9505SOL    HW229415   6.480   3.280   3.094
 9506SOL     OW29416   6.882   3.395   0.103
 9506SOL    HW129417   6.836   3.306   0.104
 9506SOL    HW229418   6.913   3.417   0.196
 9507SOL     OW29419   0.965   1.514   3.773
 9507SOL    HW129420   1.041   1.576   3.796
 9507SOL    HW229421   1.000   1.422   3.758
 9508SOL     OW29422   5.687   1.878   0.859
 9508SOL    HW129423   5.628   1.852   0.935
 9508SOL    HW229424   5.648   1.958   0.813
 9509SOL     OW29425   2.070   6.614   5.461
 9509SOL    HW129426   1.972   6.596   5.455
 9509SOL    HW229427   2.114   6.543   5.516
 9510SOL     OW29428   6.949   4.564   2.427
 9510SOL    HW129429   6.883   4.638   2.415
 9510SOL    HW229430   6.900   4.477   2.431
 9511SOL     OW29431   0.424   2.305   0.173
 9511SOL    HW129432   0.350   2.307   0.241
 9511SOL    HW229433   0.458   2.398   0.159
 9512SOL     OW29434   1.206   2.181   3.996
 9512SOL    HW129435   1.304   2.202   3.991
 9512SOL    HW229436   1.160   2.223   3.918
 9513SOL     OW29437   2.110   3.821   4.080
 9513SOL    HW129438   2.064   3.808   3.992
 9513SOL    HW229439   2.074   3.756   4.147
 9514SOL     OW29440   1.841   3.436   0.033
 9514SOL    HW129441   1.875   3.371   6.993
 9514SOL    HW229442   1.841   3.392   0.123
 9515SOL     OW29443   1.673   6.287   6.342
 9515SOL    HW129444   1.627   6.376   6.352
 9515SOL    HW229445   1.607   6.214   6.358
 9516SOL     OW29446   5.596   4.279   3.716
 9516SOL    HW129447   5.557   4.267   3.625
 9516SOL    HW229448   5.570   4.202   3.774
 9517SOL     OW29449   0.712   5.779   1.464
 9517SOL    HW129450   0.735   5.823   1.551
 9517SOL    HW229451   0.713   5.680   1.476
 9518SOL     OW29452   0.844   2.580   6.103
 9518SOL    HW129453   0.910   2.625   6.163
 9518SOL    HW229454   0.761   2.636   6.098
 9519SOL     OW29455   3.244   3.804   3.066
 9519SOL    HW129456   3.288   3.751   2.995
 9519SOL    HW229457   3.306   3.815   3.144
 9520SOL     OW29458   0.056   0.535   5.237
 9520SOL    HW129459   7.019   0.564   5.308
 9520SOL    HW229460   0.149   0.547   5.269
 9521SOL     OW29461   3.457   6.691   1.360
 9521SOL    HW129462   3.517   6.677   1.281
 9521SOL    HW229463   3.376   6.633   1.351
 9522SOL     OW29464   3.889   5.556   1.084
 9522SOL    HW129465   3.869   5.653   1.077
 9522SOL    HW229466   3.891   5.529   1.180
 9523SOL     OW29467   2.487   5.121   4.754
 9523SOL    HW129468   2.519   5.215   4.761
 9523SOL    HW229469   2.564   5.058   4.766
 9524SOL     OW29470   1.535   3.999   1.053
 9524SOL    HW129471   1.462   4.067   1.060
 9524SOL    HW229472   1.564   3.991   0.958
 9525SOL     OW29473   1.976   2.200   5.586
 9525SOL    HW129474   1.890   2.248   5.605
 9525SOL    HW229475   1.977   2.172   5.490
 9526SOL     OW29476   5.315   4.988   6.757
 9526SOL    HW129477   5.329   5.084   6.730
 9526SOL    HW229478   5.387   4.961   6.820
 9527SOL     OW29479   3.513   6.806   3.620
 9527SOL    HW129480   3.482   6.712   3.628
 9527SOL    HW229481   3.593   6.811   3.560
 9528SOL     OW29482   6.296   1.397   1.131
 9528SOL    HW129483   6.232   1.364   1.062
 9528SOL    HW229484   6.365   1.454   1.088
 9529SOL     OW29485   6.535   2.114   1.842
 9529SOL    HW129486   6.444   2.085   1.813
 9529SOL    HW229487   6.605   2.060   1.794
 9530SOL     OW29488   0.649   5.287   3.737
 9530SOL    HW129489   0.723   5.313   3.674
 9530SOL    HW229490   0.661   5.191   3.764
 9531SOL     OW29491   4.228   4.904   3.397
 9531SOL    HW129492   4.243   5.002   3.386
 9531SOL    HW229493   4.315   4.858   3.417
 9532SOL     OW29494   5.946   5.527   2.080
 9532SOL    HW129495   5.980   5.446   2.031
 9532SOL    HW229496   6.014   5.600   2.073
 9533SOL     OW29497   1.640   5.523   3.975
 9533SOL    HW129498   1.546   5.556   3.989
 9533SOL    HW229499   1.698   5.561   4.047
 9534SOL     OW29500   6.050   5.023   4.525
 9534SOL    HW129501   5.997   4.996   4.445
 9534SOL    HW229502   6.023   4.966   4.603
 9535SOL     OW29503   1.581   1.565   5.958
 9535SOL    HW129504   1.654   1.619   5.915
 9535SOL    HW229505   1.525   1.624   6.016
 9536SOL     OW29506   3.658   3.842   5.254
 9536SOL    HW129507   3.642   3.802   5.163
 9536SOL    HW229508   3.741   3.801   5.293
 9537SOL     OW29509   1.645   1.015   3.813
 9537SOL    HW129510   1.698   1.011   3.897
 9537SOL    HW229511   1.680   1.088   3.754
 9538SOL     OW29512   3.585   0.502   4.567
 9538SOL    HW129513   3.649   0.542   4.501
 9538SOL    HW229514   3.547   0.574   4.624
 9539SOL     OW29515   3.747   2.882   3.076
 9539SOL    HW129516   3.659   2.911   3.038
 9539SOL    HW229517   3.768   2.790   3.045
 9540SOL     OW29518   4.787   5.118   4.235
 9540SOL    HW129519   4.788   5.020   4.255
 9540SOL    HW229520   4.743   5.168   4.310
 9541SOL     OW29521   1.260   6.572   4.896
 9541SOL    HW129522   1.209   6.639   4.949
 9541SOL    HW229523   1.247   6.589   4.798
 9542SOL     OW29524   5.875   4.908   4.323
 9542SOL    HW129525   5.797   4.934   4.266
 9542SOL    HW229526   5.917   4.825   4.286
 9543SOL     OW29527   2.479   0.813   5.993
 9543SOL    HW129528   2.429   0.873   5.930
 9543SOL    HW229529   2.509   0.865   6.072
 9544SOL     OW29530   5.154   4.096   3.394
 9544SOL    HW129531   5.158   4.192   3.420
 9544SOL    HW229532   5.105   4.086   3.307
 9545SOL     OW29533   1.321   4.802   1.955
 9545SOL    HW129534   1.241   4.861   1.940
 9545SOL    HW229535   1.341   4.798   2.052
 9546SOL     OW29536   2.908   1.269   5.696
 9546SOL    HW129537   3.004   1.289   5.717
 9546SOL    HW229538   2.884   1.312   5.609
 9547SOL     OW29539   3.506   6.245   4.166
 9547SOL    HW129540   3.474   6.335   4.137
 9547SOL    HW229541   3.442   6.175   4.134
 9548SOL     OW29542   1.327   5.203   6.104
 9548SOL    HW129543   1.242   5.228   6.149
 9548SOL    HW229544   1.393   5.173   6.172
 9549SOL     OW29545   3.936   2.051   2.602
 9549SOL    HW129546   3.961   2.075   2.508
 9549SOL    HW229547   3.841   2.020   2.605
 9550SOL     OW29548   5.584   2.759   1.599
 9550SOL    HW129549   5.681   2.784   1.608
 9550SOL    HW229550   5.554   2.775   1.505
 9551SOL     OW29551   6.456   1.966   6.255
 9551SOL    HW129552   6.423   2.053   6.292
 9551SOL    HW229553   6.407   1.891   6.298
 9552SOL     OW29554   2.566   0.763   6.698
 9552SOL    HW129555   2.628   0.839   6.717
 9552SOL    HW229556   2.473   0.797   6.691
 9553SOL     OW29557   5.263   2.569   0.441
 9553SOL    HW129558   5.219   2.528   0.360
 9553SOL    HW229559   5.203   2.556   0.520
 9554SOL     OW29560   2.677   6.516   3.855
 9554SOL    HW129561   2.692   6.501   3.757
 9554SOL    HW229562   2.598   6.463   3.885
 9555SOL     OW29563   6.336   1.274   3.024
 9555SOL    HW129564   6.343   1.247   2.927
 9555SOL    HW229565   6.326   1.191   3.080
 9556SOL     OW29566   1.736   4.641   0.976
 9556SOL    HW129567   1.826   4.682   0.985
 9556SOL    HW229568   1.740   4.565   0.912
 9557SOL     OW29569   5.229   6.902   2.103
 9557SOL    HW129570   5.189   6.812   2.084
 9557SOL    HW229571   5.186   6.971   2.045
 9558SOL     OW29572   5.665   6.452   5.669
 9558SOL    HW129573   5.685   6.487   5.760
 9558SOL    HW229574   5.744   6.403   5.634
 9559SOL     OW29575   1.427   3.922   6.912
 9559SOL    HW129576   1.513   3.873   6.899
 9559SOL    HW229577   1.351   3.861   6.890
 9560SOL     OW29578   3.738   0.358   1.985
 9560SOL    HW129579   3.657   0.400   2.025
 9560SOL    HW229580   3.819   0.412   2.010
 9561SOL     OW29581   0.531   0.212   0.914
 9561SOL    HW129582   0.519   0.128   0.966
 9561SOL    HW229583   0.513   0.291   0.973
 9562SOL     OW29584   2.573   5.737   3.922
 9562SOL    HW129585   2.555   5.705   4.015
 9562SOL    HW229586   2.662   5.781   3.918
 9563SOL     OW29587   0.742   6.744   0.270
 9563SOL    HW129588   0.805   6.753   0.193
 9563SOL    HW229589   0.677   6.820   0.267
 9564SOL     OW29590   1.130   0.429   1.065
 9564SOL    HW129591   1.109   0.397   1.158
 9564SOL    HW229592   1.209   0.378   1.030
 9565SOL     OW29593   3.287   0.942   4.158
 9565SOL    HW129594   3.248   0.852   4.179
 9565SOL    HW229595   3.268   1.006   4.233
 9566SOL     OW29596   2.380   6.544   0.502
 9566SOL    HW129597   2.469   6.571   0.539
 9566SOL    HW229598   2.379   6.561   0.404
 9567SOL     OW29599   0.170   4.955   0.472
 9567SOL    HW129600   0.126   4.867   0.488
 9567SOL    HW229601   0.105   5.017   0.428
 9568SOL     OW29602   3.932   2.074   0.149
 9568SOL    HW129603   3.893   2.010   0.083
 9568SOL    HW229604   4.019   2.037   0.183
 9569SOL     OW29605   5.968   0.604   2.003
 9569SOL    HW129606   6.044   0.612   1.939
 9569SOL    HW229607   5.994   0.543   2.078
 9570SOL     OW29608   0.561   3.015   0.880
 9570SOL    HW129609   0.487   2.950   0.898
 9570SOL    HW229610   0.525   3.108   0.880
 9571SOL     OW29611   2.586   2.656   6.351
 9571SOL    HW129612   2.558   2.561   6.343
 9571SOL    HW229613   2.683   2.665   6.329
 9572SOL     OW29614   2.202   3.902   3.606
 9572SOL    HW129615   2.191   3.827   3.540
 9572SOL    HW229616   2.204   3.989   3.557
 9573SOL     OW29617   6.707   0.616   5.316
 9573SOL    HW129618   6.672   0.524   5.302
 9573SOL    HW229619   6.734   0.656   5.228
 9574SOL     OW29620   4.022   2.857   1.332
 9574SOL    HW129621   4.035   2.851   1.431
 9574SOL    HW229622   4.010   2.766   1.295
 9575SOL     OW29623   6.091   0.058   2.283
 9575SOL    HW129624   6.020   0.001   2.240
 9575SOL    HW229625   6.050   0.115   2.354
 9576SOL     OW29626   1.280   1.350   0.135
 9576SOL    HW129627   1.332   1.427   0.098
 9576SOL    HW229628   1.318   1.264   0.099
 9577SOL     OW29629   0.113   6.377   0.298
 9577SOL    HW129630   0.036   6.386   0.362
 9577SOL    HW229631   0.078   6.374   0.205
 9578SOL     OW29632   1.488   2.980   2.949
 9578SOL    HW129633   1.399   2.996   2.908
 9578SOL    HW229634   1.491   3.020   3.040
 9579SOL     OW29635   6.321   0.110   2.154
 9579SOL    HW129636   6.237   0.061   2.178
 9579SOL    HW229637   6.360   0.150   2.237
 9580SOL     OW29638   4.896   4.309   1.020
 9580SOL    HW129639   4.827   4.378   1.037
 9580SOL    HW229640   4.974   4.324   1.080
 9581SOL     OW29641   6.935   0.710   6.768
 9581SOL    HW129642   6.837   0.720   6.749
 9581SOL    HW229643   6.979   0.800   6.768
 9582SOL     OW29644   3.893   6.157   4.606
 9582SOL    HW129645   3.833   6.106   4.544
 9582SOL    HW229646   3.982   6.171   4.563
 9583SOL     OW29647   3.333   4.420   1.593
 9583SOL    HW129648   3.355   4.509   1.633
 9583SOL    HW229649   3.259   4.430   1.526
 9584SOL     OW29650   1.677   4.707   5.063
 9584SOL    HW129651   1.774   4.731   5.067
 9584SOL    HW229652   1.641   4.729   4.973
 9585SOL     OW29653   5.213   5.993   1.518
 9585SOL    HW129654   5.178   5.936   1.443
 9585SOL    HW229655   5.184   5.955   1.605
 9586SOL     OW29656   4.486   4.917   1.497
 9586SOL    HW129657   4.454   4.988   1.559
 9586SOL    HW229658   4.444   4.929   1.408
 9587SOL     OW29659   2.308   6.825   2.113
 9587SOL    HW129660   2.360   6.893   2.165
 9587SOL    HW229661   2.212   6.852   2.109
 9588SOL     OW29662   6.300   6.207   1.078
 9588SOL    HW129663   6.263   6.118   1.049
 9588SOL    HW229664   6.227   6.260   1.120
 9589SOL     OW29665   1.754   3.442   6.609
 9589SOL    HW129666   1.766   3.370   6.677
 9589SOL    HW229667   1.839   3.494   6.599
 9590SOL     OW29668   5.868   1.828   1.762
 9590SOL    HW129669   5.843   1.767   1.837
 9590SOL    HW229670   5.895   1.775   1.682
 9591SOL     OW29671   3.249   6.505   5.853
 9591SOL    HW129672   3.334   6.543   5.888
 9591SOL    HW229673   3.269   6.420   5.804
 9592SOL     OW29674   3.035   4.325   6.559
 9592SOL    HW129675   3.016   4.384   6.638
 9592SOL    HW229676   2.971   4.346   6.485
 9593SOL     OW29677   1.895   0.906   5.784
 9593SOL    HW129678   1.897   0.990   5.838
 9593SOL    HW229679   1.821   0.911   5.717
 9594SOL     OW29680   2.422   6.113   4.208
 9594SOL    HW129681   2.380   6.025   4.231
 9594SOL    HW229682   2.485   6.140   4.281
 9595SOL     OW29683   0.447   3.401   3.467
 9595SOL    HW129684   0.427   3.499   3.457
 9595SOL    HW229685   0.541   3.383   3.440
 9596SOL     OW29686   0.749   5.359   0.927
 9596SOL    HW129687   0.695   5.441   0.945
 9596SOL    HW229688   0.784   5.362   0.834
 9597SOL     OW29689   1.284   4.217   1.567
 9597SOL    HW129690   1.260   4.313   1.553
 9597SOL    HW229691   1.202   4.165   1.592
 9598SOL     OW29692   1.834   3.592   2.644
 9598SOL    HW129693   1.927   3.556   2.642
 9598SOL    HW229694   1.772   3.525   2.603
 9599SOL     OW29695   3.300   6.827   4.105
 9599SOL    HW129696   3.255   6.889   4.169
 9599SOL    HW229697   3.398   6.821   4.127
 9600SOL     OW29698   3.198   0.163   1.257
 9600SOL    HW129699   3.247   0.098   1.199
 9600SOL    HW229700   3.124   0.206   1.204
 9601SOL     OW29701   6.185   4.659   1.100
 9601SOL    HW129702   6.281   4.649   1.075
 9601SOL    HW229703   6.128   4.605   1.038
 9602SOL     OW29704   4.491   4.794   5.762
 9602SOL    HW129705   4.442   4.820   5.678
 9602SOL    HW229706   4.541   4.709   5.747
 9603SOL     OW29707   5.667   6.371   6.226
 9603SOL    HW129708   5.747   6.429   6.240
 9603SOL    HW229709   5.674   6.290   6.285
 9604SOL     OW29710   4.770   0.500   1.457
 9604SOL    HW129711   4.788   0.461   1.548
 9604SOL    HW229712   4.846   0.477   1.396
 9605SOL     OW29713   0.214   5.195   2.918
 9605SOL    HW129714   0.259   5.284   2.921
 9605SOL    HW229715   0.211   5.162   2.824
 9606SOL     OW29716   1.640   1.224   7.004
 9606SOL    HW129717   1.593   1.160   0.038
 9606SOL    HW229718   1.576   1.255   6.933
 9607SOL     OW29719   3.149   1.645   6.969
 9607SOL    HW129720   3.060   1.602   6.980
 9607SOL    HW229721   3.142   1.721   6.904
 9608SOL     OW29722   0.154   4.669   2.564
 9608SOL    HW129723   0.128   4.677   2.660
 9608SOL    HW229724   0.098   4.598   2.520
 9609SOL     OW29725   3.856   2.708   6.507
 9609SOL    HW129726   3.806   2.714   6.421
 9609SOL    HW229727   3.939   2.764   6.502
 9610SOL     OW29728   1.820   4.943   2.692
 9610SOL    HW129729   1.825   5.000   2.774
 9610SOL    HW229730   1.911   4.908   2.670
 9611SOL     OW29731   1.775   6.644   0.755
 9611SOL    HW129732   1.817   6.707   0.690
 9611SOL    HW229733   1.767   6.554   0.712
 9612SOL     OW29734   0.603   3.118   1.798
 9612SOL    HW129735   0.690   3.081   1.767
 9612SOL    HW229736   0.565   3.060   1.869
 9613SOL     OW29737   5.721   6.365   3.500
 9613SOL    HW129738   5.771   6.423   3.436
 9613SOL    HW229739   5.623   6.381   3.492
 9614SOL     OW29740   3.627   1.956   2.588
 9614SOL    HW129741   3.600   1.981   2.495
 9614SOL    HW229742   3.553   1.903   2.631
 9615SOL     OW29743   2.839   2.278   1.235
 9615SOL    HW129744   2.793   2.244   1.152
 9615SOL    HW229745   2.785   2.253   1.315
 9616SOL     OW29746   3.449   3.297   1.377
 9616SOL    HW129747   3.351   3.275   1.374
 9616SOL    HW229748   3.478   3.309   1.472
 9617SOL     OW29749   2.013   3.244   3.943
 9617SOL    HW129750   2.000   3.337   3.908
 9617SOL    HW229751   2.052   3.249   4.036
 9618SOL     OW29752   3.125   0.623   1.085
 9618SOL    HW129753   3.039   0.616   1.136
 9618SOL    HW229754   3.177   0.702   1.118
 9619SOL     OW29755   1.911   0.363   5.517
 9619SOL    HW129756   1.872   0.451   5.491
 9619SOL    HW229757   1.864   0.328   5.598
 9620SOL     OW29758   4.635   0.512   4.687
 9620SOL    HW129759   4.558   0.450   4.701
 9620SOL    HW229760   4.721   0.460   4.690
 9621SOL     OW29761   1.735   2.800   1.896
 9621SOL    HW129762   1.696   2.794   1.804
 9621SOL    HW229763   1.687   2.869   1.949
 9622SOL     OW29764   6.004   1.478   0.584
 9622SOL    HW129765   5.920   1.431   0.610
 9622SOL    HW229766   6.041   1.527   0.663
 9623SOL     OW29767   2.300   2.781   6.708
 9623SOL    HW129768   2.237   2.704   6.696
 9623SOL    HW229769   2.364   2.785   6.631
 9624SOL     OW29770   6.222   3.578   3.156
 9624SOL    HW129771   6.224   3.509   3.084
 9624SOL    HW229772   6.137   3.570   3.208
 9625SOL     OW29773   5.323   5.860   0.071
 9625SOL    HW129774   5.279   5.929   0.128
 9625SOL    HW229775   5.392   5.812   0.124
 9626SOL     OW29776   3.839   5.022   0.628
 9626SOL    HW129777   3.770   4.959   0.593
 9626SOL    HW229778   3.863   4.997   0.722
 9627SOL     OW29779   1.225   5.940   6.719
 9627SOL    HW129780   1.163   5.869   6.687
 9627SOL    HW229781   1.242   5.929   6.817
 9628SOL     OW29782   5.095   5.210   0.965
 9628SOL    HW129783   5.153   5.270   0.909
 9628SOL    HW229784   5.067   5.132   0.910
 9629SOL     OW29785   1.782   0.723   1.615
 9629SOL    HW129786   1.765   0.694   1.522
 9629SOL    HW229787   1.866   0.778   1.618
 9630SOL     OW29788   6.209   6.938   5.062
 9630SOL    HW129789   6.152   7.005   5.110
 9630SOL    HW229790   6.183   6.936   4.965
 9631SOL     OW29791   6.204   0.144   6.580
 9631SOL    HW129792   6.256   0.196   6.512
 9631SOL    HW229793   6.107   0.156   6.563
 9632SOL     OW29794   1.669   6.376   2.598
 9632SOL    HW129795   1.589   6.405   2.546
 9632SOL    HW229796   1.643   6.363   2.694
 9633SOL     OW29797   5.712   5.379   6.822
 9633SOL    HW129798   5.775   5.402   6.896
 9633SOL    HW229799   5.620   5.367   6.859
 9634SOL     OW29800   1.582   6.574   4.332
 9634SOL    HW129801   1.496   6.575   4.383
 9634SOL    HW229802   1.563   6.586   4.234
 9635SOL     OW29803   2.169   5.206   5.064
 9635SOL    HW129804   2.113   5.285   5.091
 9635SOL    HW229805   2.139   5.173   4.975
 9636SOL     OW29806   4.411   1.734   5.285
 9636SOL    HW129807   4.443   1.754   5.192
 9636SOL    HW229808   4.374   1.818   5.326
 9637SOL     OW29809   2.213   2.236   6.248
 9637SOL    HW129810   2.260   2.174   6.310
 9637SOL    HW229811   2.135   2.277   6.294
 9638SOL     OW29812   6.636   3.687   5.513
 9638SOL    HW129813   6.578   3.717   5.589
 9638SOL    HW229814   6.716   3.747   5.506
 9639SOL     OW29815   4.256   1.722   2.308
 9639SOL    HW129816   4.257   1.810   2.356
 9639SOL    HW229817   4.187   1.724   2.235
 9640SOL     OW29818   2.422   2.618   3.167
 9640SOL    HW129819   2.428   2.679   3.088
 9640SOL    HW229820   2.494   2.549   3.161
 9641SOL     OW29821   4.784   0.044   0.381
 9641SOL    HW129822   4.744   0.101   0.309
 9641SOL    HW229823   4.790   0.096   0.466
 9642SOL     OW29824   2.990   0.357   4.778
 9642SOL    HW129825   3.053   0.306   4.719
 9642SOL    HW229826   2.996   0.323   4.871
 9643SOL     OW29827   5.383   3.899   3.154
 9643SOL    HW129828   5.438   3.895   3.070
 9643SOL    HW229829   5.362   3.995   3.176
 9644SOL     OW29830   1.150   3.131   6.444
 9644SOL    HW129831   1.161   3.131   6.543
 9644SOL    HW229832   1.195   3.212   6.406
 9645SOL     OW29833   3.101   5.295   5.299
 9645SOL    HW129834   3.157   5.339   5.229
 9645SOL    HW229835   3.004   5.313   5.280
 9646SOL     OW29836   4.392   4.848   2.590
 9646SOL    HW129837   4.293   4.834   2.600
 9646SOL    HW229838   4.409   4.903   2.508
 9647SOL     OW29839   6.530   3.372   1.339
 9647SOL    HW129840   6.498   3.428   1.262
 9647SOL    HW229841   6.570   3.287   1.303
 9648SOL     OW29842   4.261   2.092   1.154
 9648SOL    HW129843   4.215   2.075   1.067
 9648SOL    HW229844   4.235   2.022   1.220
 9649SOL     OW29845   2.602   6.545   0.190
 9649SOL    HW129846   2.672   6.616   0.191
 9649SOL    HW229847   2.597   6.505   0.098
 9650SOL     OW29848   0.005   5.616   2.285
 9650SOL    HW129849   6.955   5.628   2.346
 9650SOL    HW229850   0.090   5.626   2.336
 9651SOL     OW29851   0.631   2.001   6.097
 9651SOL    HW129852   0.721   2.041   6.113
 9651SOL    HW229853   0.630   1.952   6.010
 9652SOL     OW29854   1.161   4.822   2.316
 9652SOL    HW129855   1.155   4.922   2.320
 9652SOL    HW229856   1.249   4.796   2.276
 9653SOL     OW29857   4.682   4.867   4.533
 9653SOL    HW129858   4.735   4.841   4.453
 9653SOL    HW229859   4.743   4.879   4.611
 9654SOL     OW29860   2.501   2.526   2.019
 9654SOL    HW129861   2.448   2.611   2.019
 9654SOL    HW229862   2.458   2.460   1.958
 9655SOL     OW29863   6.926   2.040   6.248
 9655SOL    HW129864   6.834   2.044   6.209
 9655SOL    HW229865   6.921   2.002   6.340
 9656SOL     OW29866   3.123   0.103   2.434
 9656SOL    HW129867   3.175   0.112   2.349
 9656SOL    HW229868   3.150   0.176   2.497
 9657SOL     OW29869   6.363   0.934   4.568
 9657SOL    HW129870   6.380   0.849   4.617
 9657SOL    HW229871   6.323   0.914   4.479
 9658SOL     OW29872   6.156   3.010   1.990
 9658SOL    HW129873   6.204   2.993   2.076
 9658SOL    HW229874   6.174   3.103   1.959
 9659SOL     OW29875   0.641   4.939   0.085
 9659SOL    HW129876   0.631   4.844   0.115
 9659SOL    HW229877   0.564   4.993   0.119
 9660SOL     OW29878   0.946   5.606   0.658
 9660SOL    HW129879   0.888   5.686   0.647
 9660SOL    HW229880   0.963   5.591   0.756
 9661SOL     OW29881   4.391   0.195   0.775
 9661SOL    HW129882   4.411   0.155   0.685
 9661SOL    HW229883   4.405   0.126   0.846
 9662SOL     OW29884   6.182   1.730   4.470
 9662SOL    HW129885   6.241   1.811   4.476
 9662SOL    HW229886   6.087   1.758   4.485
 9663SOL     OW29887   1.476   5.375   3.097
 9663SOL    HW129888   1.390   5.425   3.103
 9663SOL    HW229889   1.552   5.440   3.096
 9664SOL     OW29890   4.519   6.330   2.538
 9664SOL    HW129891   4.538   6.403   2.605
 9664SOL    HW229892   4.589   6.259   2.546
 9665SOL     OW29893   5.492   4.133   4.870
 9665SOL    HW129894   5.557   4.086   4.930
 9665SOL    HW229895   5.414   4.073   4.853
 9666SOL     OW29896   5.445   4.224   2.322
 9666SOL    HW129897   5.476   4.272   2.240
 9666SOL    HW229898   5.383   4.283   2.374
 9667SOL     OW29899   3.894   3.761   4.012
 9667SOL    HW129900   3.794   3.754   4.015
 9667SOL    HW229901   3.929   3.705   3.936
 9668SOL     OW29902   0.116   1.181   5.504
 9668SOL    HW129903   0.138   1.089   5.473
 9668SOL    HW229904   0.173   1.205   5.582
 9669SOL     OW29905   0.379   0.286   0.197
 9669SOL    HW129906   0.338   0.233   0.271
 9669SOL    HW229907   0.310   0.348   0.158
 9670SOL     OW29908   4.813   4.583   6.604
 9670SOL    HW129909   4.832   4.675   6.638
 9670SOL    HW229910   4.847   4.575   6.510
 9671SOL     OW29911   0.314   5.230   5.509
 9671SOL    HW129912   0.403   5.210   5.552
 9671SOL    HW229913   0.246   5.165   5.541
 9672SOL     OW29914   0.756   6.196   4.937
 9672SOL    HW129915   0.728   6.265   4.871
 9672SOL    HW229916   0.706   6.111   4.919
 9673SOL     OW29917   3.626   3.858   6.698
 9673SOL    HW129918   3.600   3.954   6.691
 9673SOL    HW229919   3.721   3.846   6.670
 9674SOL     OW29920   3.149   6.191   1.602
 9674SOL    HW129921   3.068   6.149   1.645
 9674SOL    HW229922   3.226   6.128   1.608
 9675SOL     OW29923   6.599   1.565   2.203
 9675SOL    HW129924   6.589   1.466   2.190
 9675SOL    HW229925   6.511   1.610   2.189
 9676SOL     OW29926   0.901   3.695   5.483
 9676SOL    HW129927   0.854   3.780   5.509
 9676SOL    HW229928   0.950   3.658   5.562
 9677SOL     OW29929   2.121   4.178   6.079
 9677SOL    HW129930   2.215   4.202   6.056
 9677SOL    HW229931   2.075   4.142   5.998
 9678SOL     OW29932   3.939   3.908   3.453
 9678SOL    HW129933   3.859   3.943   3.502
 9678SOL    HW229934   3.950   3.811   3.472
 9679SOL     OW29935   1.418   2.680   2.121
 9679SOL    HW129936   1.409   2.744   2.045
 9679SOL    HW229937   1.467   2.724   2.196
 9680SOL     OW29938   5.855   6.078   3.273
 9680SOL    HW129939   5.904   6.124   3.199
 9680SOL    HW229940   5.900   6.097   3.360
 9681SOL     OW29941   1.659   0.848   1.827
 9681SOL    HW129942   1.744   0.814   1.786
 9681SOL    HW229943   1.649   0.945   1.807
 9682SOL     OW29944   5.458   4.743   3.725
 9682SOL    HW129945   5.505   4.727   3.639
 9682SOL    HW229946   5.363   4.770   3.707
 9683SOL     OW29947   3.918   5.520   0.101
 9683SOL    HW129948   3.909   5.602   0.045
 9683SOL    HW229949   3.965   5.542   0.187
 9684SOL     OW29950   0.605   3.888   5.365
 9684SOL    HW129951   0.590   3.790   5.378
 9684SOL    HW229952   0.624   3.931   5.453
 9685SOL     OW29953   1.795   3.115   1.288
 9685SOL    HW129954   1.880   3.163   1.267
 9685SOL    HW229955   1.781   3.116   1.387
 9686SOL     OW29956   6.878   0.390   1.511
 9686SOL    HW129957   6.809   0.322   1.488
 9686SOL    HW229958   6.866   0.418   1.607
 9687SOL     OW29959   2.648   0.873   3.394
 9687SOL    HW129960   2.688   0.782   3.389
 9687SOL    HW229961   2.564   0.870   3.449
 9688SOL     OW29962   0.168   1.738   3.095
 9688SOL    HW129963   0.141   1.685   3.175
 9688SOL    HW229964   0.268   1.738   3.087
 9689SOL     OW29965   2.857   6.397   6.606
 9689SOL    HW129966   2.763   6.420   6.578
 9689SOL    HW229967   2.897   6.335   6.538
 9690SOL     OW29968   6.157   5.057   0.706
 9690SOL    HW129969   6.204   5.142   0.731
 9690SOL    HW229970   6.113   5.069   0.617
 9691SOL     OW29971   2.075   5.362   1.932
 9691SOL    HW129972   2.063   5.374   2.030
 9691SOL    HW229973   2.113   5.270   1.915
 9692SOL     OW29974   2.782   5.485   1.924
 9692SOL    HW129975   2.818   5.561   1.870
 9692SOL    HW229976   2.743   5.519   2.009
 9693SOL     OW29977   0.225   6.238   1.572
 9693SOL    HW129978   0.166   6.159   1.553
 9693SOL    HW229979   0.317   6.205   1.597
 9694SOL     OW29980   1.445   2.545   0.513
 9694SOL    HW129981   1.473   2.578   0.603
 9694SOL    HW229982   1.345   2.532   0.512
 9695SOL     OW29983   6.743   3.825   1.048
 9695SOL    HW129984   6.780   3.847   1.138
 9695SOL    HW229985   6.656   3.873   1.035
 9696SOL     OW29986   3.891   2.782   1.742
 9696SOL    HW129987   3.904   2.685   1.721
 9696SOL    HW229988   3.794   2.801   1.756
 9697SOL     OW29989   0.297   4.996   6.904
 9697SOL    HW129990   0.296   5.082   6.854
 9697SOL    HW229991   0.386   4.951   6.890
 9698SOL     OW29992   5.701   1.225   5.162
 9698SOL    HW129993   5.750   1.298   5.113
 9698SOL    HW229994   5.766   1.177   5.222
 9699SOL     OW29995   1.025   3.778   6.659
 9699SOL    HW129996   0.930   3.784   6.690
 9699SOL    HW229997   1.043   3.849   6.591
 9700SOL     OW29998   3.316   4.902   5.686
 9700SOL    HW129999   3.385   4.943   5.746
 9700SOL    HW230000   3.282   4.970   5.622
 9701SOL     OW30001   4.282   5.083   4.653
 9701SOL    HW130002   4.378   5.111   4.643
 9701SOL    HW230003   4.223   5.157   4.620
 9702SOL     OW30004   5.312   0.939   0.699
 9702SOL    HW130005   5.380   0.886   0.749
 9702SOL    HW230006   5.231   0.952   0.757
 9703SOL     OW30007   3.313   6.294   4.445
 9703SOL    HW130008   3.226   6.284   4.492
 9703SOL    HW230009   3.299   6.292   4.346
 9704SOL     OW30010   3.526   6.828   2.816
 9704SOL    HW130011   3.476   6.792   2.895
 9704SOL    HW230012   3.530   6.928   2.823
 9705SOL     OW30013   3.333   4.457   0.708
 9705SOL    HW130014   3.244   4.448   0.663
 9705SOL    HW230015   3.383   4.535   0.670
 9706SOL     OW30016   6.314   2.949   2.211
 9706SOL    HW130017   6.400   2.982   2.249
 9706SOL    HW230018   6.255   2.916   2.285
 9707SOL     OW30019   1.597   4.114   2.311
 9707SOL    HW130020   1.507   4.089   2.346
 9707SOL    HW230021   1.589   4.143   2.216
 9708SOL     OW30022   2.173   1.774   3.818
 9708SOL    HW130023   2.190   1.722   3.901
 9708SOL    HW230024   2.174   1.872   3.838
 9709SOL     OW30025   1.538   6.062   3.469
 9709SOL    HW130026   1.544   5.968   3.437
 9709SOL    HW230027   1.617   6.114   3.435
 9710SOL     OW30028   0.243   1.265   3.193
 9710SOL    HW130029   0.241   1.362   3.173
 9710SOL    HW230030   0.274   1.251   3.287
 9711SOL     OW30031   1.603   3.633   6.049
 9711SOL    HW130032   1.555   3.648   5.962
 9711SOL    HW230033   1.660   3.713   6.070
 9712SOL     OW30034   5.420   2.023   4.508
 9712SOL    HW130035   5.350   1.959   4.542
 9712SOL    HW230036   5.457   2.075   4.585
 9713SOL     OW30037   0.395   5.005   3.453
 9713SOL    HW130038   0.351   5.015   3.364
 9713SOL    HW230039   0.493   5.023   3.444
 9714SOL     OW30040   2.090   2.423   1.919
 9714SOL    HW130041   2.105   2.467   2.008
 9714SOL    HW230042   2.177   2.388   1.885
 9715SOL     OW30043   5.320   5.101   4.813
 9715SOL    HW130044   5.393   5.103   4.882
 9715SOL    HW230045   5.261   5.022   4.829
 9716SOL     OW30046   4.006   1.761   6.432
 9716SOL    HW130047   3.910   1.785   6.418
 9716SOL    HW230048   4.051   1.832   6.486
 9717SOL     OW30049   5.756   5.506   3.699
 9717SOL    HW130050   5.731   5.594   3.739
 9717SOL    HW230051   5.835   5.469   3.747
 9718SOL     OW30052   3.834   3.238   1.323
 9718SOL    HW130053   3.867   3.208   1.413
 9718SOL    HW230054   3.866   3.173   1.254
 9719SOL     OW30055   0.498   2.835   0.090
 9719SOL    HW130056   0.485   2.934   0.089
 9719SOL    HW230057   0.592   2.813   0.064
 9720SOL     OW30058   0.394   6.503   2.342
 9720SOL    HW130059   0.301   6.533   2.323
 9720SOL    HW230060   0.395   6.447   2.425
 9721SOL     OW30061   7.006   3.973   2.428
 9721SOL    HW130062   7.015   3.888   2.377
 9721SOL    HW230063   6.911   3.983   2.460
 9722SOL     OW30064   0.465   0.580   3.845
 9722SOL    HW130065   0.420   0.517   3.909
 9722SOL    HW230066   0.397   0.615   3.780
 9723SOL     OW30067   0.296   0.663   3.662
 9723SOL    HW130068   0.338   0.677   3.573
 9723SOL    HW230069   0.210   0.713   3.667
 9724SOL     OW30070   3.010   2.418   1.496
 9724SOL    HW130071   2.964   2.388   1.580
 9724SOL    HW230072   2.941   2.450   1.431
 9725SOL     OW30073   5.089   3.326   6.187
 9725SOL    HW130074   5.152   3.250   6.176
 9725SOL    HW230075   5.001   3.292   6.219
 9726SOL     OW30076   4.940   6.733   4.882
 9726SOL    HW130077   4.877   6.714   4.957
 9726SOL    HW230078   5.023   6.777   4.917
 9727SOL     OW30079   0.706   2.898   5.906
 9727SOL    HW130080   0.784   2.929   5.961
 9727SOL    HW230081   0.685   2.803   5.929
 9728SOL     OW30082   2.167   6.119   6.217
 9728SOL    HW130083   2.173   6.191   6.286
 9728SOL    HW230084   2.173   6.159   6.126
 9729SOL     OW30085   1.062   4.498   3.375
 9729SOL    HW130086   1.159   4.488   3.355
 9729SOL    HW230087   1.013   4.416   3.346
 9730SOL     OW30088   6.709   3.340   2.708
 9730SOL    HW130089   6.749   3.282   2.779
 9730SOL    HW230090   6.627   3.384   2.743
 9731SOL     OW30091   3.586   5.182   0.713
 9731SOL    HW130092   3.669   5.238   0.722
 9731SOL    HW230093   3.545   5.168   0.803
 9732SOL     OW30094   7.004   6.086   2.717
 9732SOL    HW130095   0.008   6.019   2.649
 9732SOL    HW230096   6.904   6.090   2.716
 9733SOL     OW30097   5.101   4.694   4.649
 9733SOL    HW130098   5.139   4.654   4.565
 9733SOL    HW230099   5.003   4.672   4.654
 9734SOL     OW30100   5.536   2.221   3.915
 9734SOL    HW130101   5.508   2.207   3.821
 9734SOL    HW230102   5.503   2.144   3.971
 9735SOL     OW30103   2.489   5.653   1.901
 9735SOL    HW130104   2.542   5.695   1.827
 9735SOL    HW230105   2.549   5.595   1.956
 9736SOL     OW30106   4.729   1.611   6.743
 9736SOL    HW130107   4.803   1.588   6.807
 9736SOL    HW230108   4.729   1.545   6.668
 9737SOL     OW30109   4.261   2.204   5.179
 9737SOL    HW130110   4.255   2.280   5.115
 9737SOL    HW230111   4.229   2.120   5.135
 9738SOL     OW30112   1.853   1.239   3.232
 9738SOL    HW130113   1.814   1.153   3.201
 9738SOL    HW230114   1.783   1.292   3.280
 9739SOL     OW30115   6.368   4.823   1.877
 9739SOL    HW130116   6.389   4.842   1.781
 9739SOL    HW230117   6.282   4.869   1.902
 9740SOL     OW30118   6.344   4.115   2.516
 9740SOL    HW130119   6.282   4.144   2.443
 9740SOL    HW230120   6.321   4.021   2.543
 9741SOL     OW30121   4.764   1.604   1.738
 9741SOL    HW130122   4.786   1.689   1.787
 9741SOL    HW230123   4.670   1.608   1.705
 9742SOL     OW30124   5.385   0.812   3.316
 9742SOL    HW130125   5.378   0.739   3.384
 9742SOL    HW230126   5.464   0.795   3.257
 9743SOL     OW30127   1.896   3.312   5.721
 9743SOL    HW130128   1.848   3.351   5.800
 9743SOL    HW230129   1.910   3.383   5.652
 9744SOL     OW30130   2.012   1.079   2.077
 9744SOL    HW130131   1.921   1.110   2.048
 9744SOL    HW230132   2.056   1.150   2.132
 9745SOL     OW30133   0.695   2.147   5.064
 9745SOL    HW130134   0.660   2.213   5.129
 9745SOL    HW230135   0.701   2.057   5.108
 9746SOL     OW30136   5.764   0.773   5.128
 9746SOL    HW130137   5.836   0.761   5.060
 9746SOL    HW230138   5.677   0.744   5.090
 9747SOL     OW30139   1.315   0.492   0.504
 9747SOL    HW130140   1.255   0.444   0.568
 9747SOL    HW230141   1.366   0.563   0.554
 9748SOL     OW30142   1.066   6.161   4.289
 9748SOL    HW130143   1.116   6.123   4.367
 9748SOL    HW230144   1.128   6.171   4.211
 9749SOL     OW30145   0.981   3.537   4.857
 9749SOL    HW130146   1.042   3.470   4.815
 9749SOL    HW230147   0.993   3.626   4.813
 9750SOL     OW30148   4.938   5.062   3.473
 9750SOL    HW130149   4.858   5.017   3.434
 9750SOL    HW230150   5.005   4.993   3.501
 9751SOL     OW30151   1.815   2.296   0.884
 9751SOL    HW130152   1.764   2.295   0.798
 9751SOL    HW230153   1.796   2.380   0.933
 9752SOL     OW30154   4.144   0.761   5.573
 9752SOL    HW130155   4.093   0.834   5.526
 9752SOL    HW230156   4.217   0.728   5.514
 9753SOL     OW30157   6.501   5.767   5.412
 9753SOL    HW130158   6.458   5.687   5.370
 9753SOL    HW230159   6.551   5.818   5.342
 9754SOL     OW30160   1.549   1.936   0.309
 9754SOL    HW130161   1.591   1.857   0.352
 9754SOL    HW230162   1.592   2.020   0.344
 9755SOL     OW30163   4.020   3.958   4.733
 9755SOL    HW130164   4.096   4.022   4.742
 9755SOL    HW230165   3.961   3.986   4.658
 9756SOL     OW30166   6.056   3.100   6.514
 9756SOL    HW130167   6.103   3.038   6.576
 9756SOL    HW230168   6.123   3.149   6.458
 9757SOL     OW30169   5.667   2.619   3.882
 9757SOL    HW130170   5.743   2.683   3.873
 9757SOL    HW230171   5.611   2.622   3.800
 9758SOL     OW30172   2.834   0.565   6.603
 9758SOL    HW130173   2.778   0.647   6.617
 9758SOL    HW230174   2.800   0.492   6.661
 9759SOL     OW30175   2.949   6.454   1.170
 9759SOL    HW130176   2.950   6.431   1.267
 9759SOL    HW230177   2.992   6.543   1.156
 9760SOL     OW30178   5.686   4.415   6.063
 9760SOL    HW130179   5.637   4.481   6.007
 9760SOL    HW230180   5.624   4.378   6.132
 9761SOL     OW30181   5.159   5.425   1.396
 9761SOL    HW130182   5.201   5.342   1.358
 9761SOL    HW230183   5.201   5.506   1.353
 9762SOL     OW30184   2.761   2.220   5.219
 9762SOL    HW130185   2.693   2.222   5.292
 9762SOL    HW230186   2.722   2.258   5.135
 9763SOL     OW30187   3.073   1.554   1.905
 9763SOL    HW130188   3.141   1.626   1.919
 9763SOL    HW230189   2.984   1.597   1.887
 9764SOL     OW30190   1.106   1.922   2.950
 9764SOL    HW130191   1.080   1.956   2.859
 9764SOL    HW230192   1.024   1.906   3.005
 9765SOL     OW30193   0.392   2.218   5.976
 9765SOL    HW130194   0.402   2.157   6.055
 9765SOL    HW230195   0.478   2.220   5.924
 9766SOL     OW30196   2.668   0.241   3.411
 9766SOL    HW130197   2.716   0.189   3.340
 9766SOL    HW230198   2.722   0.321   3.437
 9767SOL     OW30199   5.285   0.562   5.308
 9767SOL    HW130200   5.221   0.556   5.231
 9767SOL    HW230201   5.292   0.473   5.353
 9768SOL     OW30202   4.635   2.191   2.368
 9768SOL    HW130203   4.646   2.221   2.463
 9768SOL    HW230204   4.704   2.236   2.311
 9769SOL     OW30205   1.433   2.238   1.116
 9769SOL    HW130206   1.513   2.253   1.175
 9769SOL    HW230207   1.455   2.170   1.047
 9770SOL     OW30208   5.646   4.967   5.908
 9770SOL    HW130209   5.634   5.043   5.972
 9770SOL    HW230210   5.732   4.921   5.926
 9771SOL     OW30211   4.378   5.527   5.993
 9771SOL    HW130212   4.380   5.429   6.008
 9771SOL    HW230213   4.328   5.548   5.909
 9772SOL     OW30214   6.906   0.221   2.540
 9772SOL    HW130215   6.965   0.162   2.485
 9772SOL    HW230216   6.872   0.296   2.483
 9773SOL     OW30217   6.071   5.602   3.598
 9773SOL    HW130218   6.160   5.573   3.563
 9773SOL    HW230219   6.040   5.537   3.668
 9774SOL     OW30220   6.463   4.769   3.812
 9774SOL    HW130221   6.426   4.858   3.785
 9774SOL    HW230222   6.521   4.780   3.893
 9775SOL     OW30223   1.738   2.544   4.593
 9775SOL    HW130224   1.684   2.627   4.605
 9775SOL    HW230225   1.689   2.467   4.633
 9776SOL     OW30226   6.833   5.850   4.408
 9776SOL    HW130227   6.738   5.834   4.380
 9776SOL    HW230228   6.894   5.791   4.354
 9777SOL     OW30229   5.085   4.309   6.186
 9777SOL    HW130230   4.995   4.313   6.229
 9777SOL    HW230231   5.100   4.218   6.148
 9778SOL     OW30232   5.394   6.533   2.734
 9778SOL    HW130233   5.360   6.439   2.742
 9778SOL    HW230234   5.477   6.542   2.788
 9779SOL     OW30235   2.879   1.464   5.501
 9779SOL    HW130236   2.799   1.514   5.534
 9779SOL    HW230237   2.956   1.528   5.492
 9780SOL     OW30238   2.644   3.679   0.330
 9780SOL    HW130239   2.730   3.652   0.286
 9780SOL    HW230240   2.662   3.701   0.426
 9781SOL     OW30241   2.771   4.834   5.164
 9781SOL    HW130242   2.715   4.870   5.089
 9781SOL    HW230243   2.832   4.763   5.129
 9782SOL     OW30244   6.385   0.324   1.547
 9782SOL    HW130245   6.444   0.404   1.535
 9782SOL    HW230246   6.331   0.334   1.631
 9783SOL     OW30247   5.808   1.689   2.069
 9783SOL    HW130248   5.732   1.755   2.077
 9783SOL    HW230249   5.774   1.598   2.091
 9784SOL     OW30250   4.514   1.080   3.037
 9784SOL    HW130251   4.476   1.109   3.125
 9784SOL    HW230252   4.512   1.156   2.972
 9785SOL     OW30253   0.328   2.771   2.406
 9785SOL    HW130254   0.338   2.870   2.418
 9785SOL    HW230255   0.414   2.732   2.372
 9786SOL     OW30256   2.556   5.659   5.578
 9786SOL    HW130257   2.476   5.610   5.545
 9786SOL    HW230258   2.638   5.604   5.564
 9787SOL     OW30259   4.816   3.978   1.952
 9787SOL    HW130260   4.904   3.938   1.978
 9787SOL    HW230261   4.793   4.052   2.016
 9788SOL     OW30262   6.275   0.604   5.147
 9788SOL    HW130263   6.368   0.613   5.112
 9788SOL    HW230264   6.220   0.681   5.115
 9789SOL     OW30265   2.429   5.371   5.247
 9789SOL    HW130266   2.365   5.411   5.312
 9789SOL    HW230267   2.415   5.272   5.243
 9790SOL     OW30268   5.518   1.815   4.307
 9790SOL    HW130269   5.437   1.859   4.345
 9790SOL    HW230270   5.597   1.876   4.316
 9791SOL     OW30271   0.847   1.536   1.872
 9791SOL    HW130272   0.820   1.624   1.912
 9791SOL    HW230273   0.801   1.462   1.922
 9792SOL     OW30274   4.298   4.644   0.953
 9792SOL    HW130275   4.276   4.552   0.919
 9792SOL    HW230276   4.217   4.702   0.946
 9793SOL     OW30277   5.747   5.881   2.152
 9793SOL    HW130278   5.833   5.870   2.201
 9793SOL    HW230279   5.697   5.795   2.152
 9794SOL     OW30280   4.634   2.750   6.514
 9794SOL    HW130281   4.638   2.811   6.435
 9794SOL    HW230282   4.578   2.670   6.491
 9795SOL     OW30283   1.745   3.573   3.942
 9795SOL    HW130284   1.690   3.624   4.008
 9795SOL    HW230285   1.726   3.476   3.951
 9796SOL     OW30286   2.750   5.048   0.075
 9796SOL    HW130287   2.746   5.098   0.161
 9796SOL    HW230288   2.658   5.042   0.035
 9797SOL     OW30289   4.560   3.143   6.105
 9797SOL    HW130290   4.557   3.216   6.173
 9797SOL    HW230291   4.527   3.178   6.017
 9798SOL     OW30292   2.677   1.077   0.983
 9798SOL    HW130293   2.677   1.039   1.075
 9798SOL    HW230294   2.753   1.141   0.973
 9799SOL     OW30295   2.990   3.445   2.817
 9799SOL    HW130296   3.083   3.462   2.786
 9799SOL    HW230297   2.955   3.361   2.774
 9800SOL     OW30298   4.290   5.224   6.468
 9800SOL    HW130299   4.326   5.184   6.553
 9800SOL    HW230300   4.362   5.277   6.423
 9801SOL     OW30301   3.723   5.916   6.384
 9801SOL    HW130302   3.798   5.852   6.368
 9801SOL    HW230303   3.759   6.009   6.394
 9802SOL     OW30304   6.982   3.355   0.802
 9802SOL    HW130305   0.049   3.387   0.792
 9802SOL    HW230306   6.934   3.412   0.869
 9803SOL     OW30307   5.805   0.759   7.017
 9803SOL    HW130308   5.903   0.769   0.007
 9803SOL    HW230309   5.755   0.768   0.075
 9804SOL     OW30310   6.202   5.716   4.299
 9804SOL    HW130311   6.146   5.633   4.305
 9804SOL    HW230312   6.180   5.765   4.215
 9805SOL     OW30313   1.749   5.524   0.170
 9805SOL    HW130314   1.667   5.467   0.170
 9805SOL    HW230315   1.830   5.465   0.178
 9806SOL     OW30316   0.294   2.369   2.476
 9806SOL    HW130317   0.308   2.435   2.550
 9806SOL    HW230318   0.366   2.380   2.407
 9807SOL     OW30319   3.776   2.229   0.647
 9807SOL    HW130320   3.756   2.264   0.556
 9807SOL    HW230321   3.807   2.134   0.641
 9808SOL     OW30322   0.345   1.634   4.622
 9808SOL    HW130323   0.256   1.611   4.583
 9808SOL    HW230324   0.374   1.561   4.684
 9809SOL     OW30325   0.593   1.340   4.538
 9809SOL    HW130326   0.664   1.272   4.525
 9809SOL    HW230327   0.570   1.382   4.450
 9810SOL     OW30328   3.248   0.734   3.136
 9810SOL    HW130329   3.191   0.681   3.073
 9810SOL    HW230330   3.226   0.831   3.128
 9811SOL     OW30331   0.149   0.019   2.613
 9811SOL    HW130332   0.242   7.015   2.592
 9811SOL    HW230333   0.101   0.039   2.527
 9812SOL     OW30334   5.049   2.563   6.222
 9812SOL    HW130335   5.002   2.533   6.305
 9812SOL    HW230336   4.994   2.634   6.177
 9813SOL     OW30337   6.648   4.644   0.443
 9813SOL    HW130338   6.745   4.669   0.447
 9813SOL    HW230339   6.599   4.713   0.390
 9814SOL     OW30340   6.801   6.617   5.843
 9814SOL    HW130341   6.868   6.582   5.778
 9814SOL    HW230342   6.832   6.704   5.879
 9815SOL     OW30343   5.733   3.295   1.913
 9815SOL    HW130344   5.729   3.220   1.848
 9815SOL    HW230345   5.710   3.381   1.867
 9816SOL     OW30346   6.676   6.969   0.115
 9816SOL    HW130347   6.747   7.026   0.157
 9816SOL    HW230348   6.637   6.909   0.185
 9817SOL     OW30349   2.916   6.278   6.865
 9817SOL    HW130350   2.902   6.340   6.788
 9817SOL    HW230351   2.927   6.185   6.831
 9818SOL     OW30352   0.964   6.600   4.041
 9818SOL    HW130353   1.046   6.556   4.076
 9818SOL    HW230354   0.931   6.551   3.960
 9819SOL     OW30355   6.559   3.584   5.263
 9819SOL    HW130356   6.481   3.638   5.231
 9819SOL    HW230357   6.577   3.605   5.359
 9820SOL     OW30358   3.700   2.215   6.153
 9820SOL    HW130359   3.783   2.246   6.199
 9820SOL    HW230360   3.644   2.293   6.128
 9821SOL     OW30361   4.770   2.566   1.721
 9821SOL    HW130362   4.774   2.662   1.748
 9821SOL    HW230363   4.805   2.510   1.796
 9822SOL     OW30364   3.203   6.387   5.293
 9822SOL    HW130365   3.187   6.373   5.195
 9822SOL    HW230366   3.180   6.304   5.343
 9823SOL     OW30367   1.861   0.559   3.290
 9823SOL    HW130368   1.850   0.623   3.365
 9823SOL    HW230369   1.907   0.477   3.323
 9824SOL     OW30370   0.696   6.004   5.194
 9824SOL    HW130371   0.613   6.045   5.233
 9824SOL    HW230372   0.718   5.921   5.246
 9825SOL     OW30373   5.138   6.142   6.174
 9825SOL    HW130374   5.181   6.217   6.124
 9825SOL    HW230375   5.061   6.176   6.228
 9826SOL     OW30376   2.188   6.679   5.860
 9826SOL    HW130377   2.115   6.741   5.830
 9826SOL    HW230378   2.270   6.695   5.804
 9827SOL     OW30379   1.544   5.670   1.711
 9827SOL    HW130380   1.572   5.578   1.741
 9827SOL    HW230381   1.599   5.738   1.759
 9828SOL     OW30382   3.927   2.001   4.814
 9828SOL    HW130383   3.999   2.065   4.842
 9828SOL    HW230384   3.864   2.046   4.751
 9829SOL     OW30385   4.646   5.483   5.157
 9829SOL    HW130386   4.656   5.573   5.200
 9829SOL    HW230387   4.677   5.488   5.062
 9830SOL     OW30388   5.959   2.182   2.296
 9830SOL    HW130389   5.863   2.158   2.313
 9830SOL    HW230390   6.016   2.139   2.366
 9831SOL     OW30391   0.304   3.960   2.397
 9831SOL    HW130392   0.295   4.008   2.310
 9831SOL    HW230393   0.215   3.924   2.425
 9832SOL     OW30394   4.516   4.654   4.810
 9832SOL    HW130395   4.464   4.611   4.884
 9832SOL    HW230396   4.538   4.748   4.835
 9833SOL     OW30397   3.204   3.931   3.943
 9833SOL    HW130398   3.221   3.950   3.847
 9833SOL    HW230399   3.106   3.926   3.960
 9834SOL     OW30400   2.132   5.838   5.545
 9834SOL    HW130401   2.076   5.886   5.478
 9834SOL    HW230402   2.077   5.768   5.590
 9835SOL     OW30403   3.276   4.125   4.132
 9835SOL    HW130404   3.205   4.194   4.118
 9835SOL    HW230405   3.263   4.050   4.068
 9836SOL     OW30406   0.061   3.516   5.471
 9836SOL    HW130407   0.079   3.606   5.512
 9836SOL    HW230408   0.146   3.463   5.468
 9837SOL     OW30409   5.192   1.958   3.118
 9837SOL    HW130410   5.153   1.868   3.140
 9837SOL    HW230411   5.120   2.027   3.124
 9838SOL     OW30412   1.361   6.939   1.723
 9838SOL    HW130413   1.303   6.861   1.699
 9838SOL    HW230414   1.310   7.000   1.785
 9839SOL     OW30415   4.712   0.457   2.566
 9839SOL    HW130416   4.735   0.419   2.656
 9839SOL    HW230417   4.645   0.398   2.521
 9840SOL     OW30418   6.338   1.013   0.125
 9840SOL    HW130419   6.340   0.992   0.027
 9840SOL    HW230420   6.244   1.031   0.153
 9841SOL     OW30421   0.559   6.262   3.823
 9841SOL    HW130422   0.577   6.307   3.911
 9841SOL    HW230423   0.544   6.165   3.838
 9842SOL     OW30424   2.756   2.166   6.930
 9842SOL    HW130425   2.657   2.161   6.924
 9842SOL    HW230426   2.789   2.242   6.875
 9843SOL     OW30427   0.818   0.221   1.059
 9843SOL    HW130428   0.837   0.275   1.141
 9843SOL    HW230429   0.764   0.141   1.084
 9844SOL     OW30430   5.396   6.736   4.101
 9844SOL    HW130431   5.490   6.701   4.102
 9844SOL    HW230432   5.378   6.785   4.186
 9845SOL     OW30433   1.899   3.764   1.539
 9845SOL    HW130434   1.973   3.759   1.606
 9845SOL    HW230435   1.811   3.746   1.584
 9846SOL     OW30436   5.521   2.411   0.982
 9846SOL    HW130437   5.610   2.411   0.936
 9846SOL    HW230438   5.519   2.338   1.050
 9847SOL     OW30439   3.770   3.680   0.189
 9847SOL    HW130440   3.676   3.669   0.223
 9847SOL    HW230441   3.768   3.728   0.101
 9848SOL     OW30442   3.355   3.622   5.393
 9848SOL    HW130443   3.358   3.712   5.349
 9848SOL    HW230444   3.265   3.609   5.435
 9849SOL     OW30445   0.577   1.749   4.540
 9849SOL    HW130446   0.566   1.763   4.442
 9849SOL    HW230447   0.510   1.683   4.572
 9850SOL     OW30448   0.991   0.192   4.678
 9850SOL    HW130449   1.079   0.144   4.670
 9850SOL    HW230450   0.959   0.217   4.587
 9851SOL     OW30451   3.751   4.899   4.263
 9851SOL    HW130452   3.827   4.845   4.227
 9851SOL    HW230453   3.780   4.994   4.274
 9852SOL     OW30454   2.264   0.914   0.118
 9852SOL    HW130455   2.351   0.897   0.163
 9852SOL    HW230456   2.232   1.006   0.139
 9853SOL     OW30457   6.648   4.721   3.609
 9853SOL    HW130458   6.564   4.696   3.658
 9853SOL    HW230459   6.727   4.678   3.655
 9854SOL     OW30460   0.663   4.733   6.060
 9854SOL    HW130461   0.576   4.772   6.092
 9854SOL    HW230462   0.681   4.764   5.967
 9855SOL     OW30463   1.523   4.836   1.607
 9855SOL    HW130464   1.473   4.757   1.643
 9855SOL    HW230465   1.592   4.806   1.542
 9856SOL     OW30466   5.933   4.031   3.126
 9856SOL    HW130467   5.924   4.124   3.160
 9856SOL    HW230468   5.927   4.030   3.027
 9857SOL     OW30469   3.754   0.654   4.310
 9857SOL    HW130470   3.818   0.722   4.346
 9857SOL    HW230471   3.693   0.698   4.244
 9858SOL     OW30472   6.242   6.824   2.586
 9858SOL    HW130473   6.211   6.811   2.680
 9858SOL    HW230474   6.302   6.748   2.560
 9859SOL     OW30475   6.652   5.731   3.415
 9859SOL    HW130476   6.561   5.757   3.382
 9859SOL    HW230477   6.693   5.807   3.465
 9860SOL     OW30478   1.375   2.702   4.394
 9860SOL    HW130479   1.424   2.628   4.347
 9860SOL    HW230480   1.404   2.789   4.355
 9861SOL     OW30481   3.670   1.507   4.066
 9861SOL    HW130482   3.642   1.576   4.134
 9861SOL    HW230483   3.614   1.425   4.078
 9862SOL     OW30484   1.100   5.124   0.449
 9862SOL    HW130485   1.013   5.098   0.408
 9862SOL    HW230486   1.095   5.113   0.549
 9863SOL     OW30487   3.506   5.889   0.567
 9863SOL    HW130488   3.600   5.898   0.536
 9863SOL    HW230489   3.482   5.970   0.622
 9864SOL     OW30490   2.896   5.684   5.611
 9864SOL    HW130491   2.858   5.607   5.559
 9864SOL    HW230492   2.952   5.741   5.550
 9865SOL     OW30493   0.181   5.926   5.647
 9865SOL    HW130494   0.213   6.015   5.616
 9865SOL    HW230495   0.087   5.911   5.614
 9866SOL     OW30496   6.178   4.682   4.884
 9866SOL    HW130497   6.216   4.735   4.960
 9866SOL    HW230498   6.111   4.617   4.920
 9867SOL     OW30499   4.289   1.973   1.647
 9867SOL    HW130500   4.340   2.056   1.668
 9867SOL    HW230501   4.350   1.894   1.654
 9868SOL     OW30502   1.993   3.884   3.808
 9868SOL    HW130503   1.988   3.968   3.863
 9868SOL    HW230504   2.080   3.882   3.759
 9869SOL     OW30505   6.469   2.831   0.729
 9869SOL    HW130506   6.415   2.831   0.813
 9869SOL    HW230507   6.517   2.919   0.720
 9870SOL     OW30508   2.903   1.215   2.666
 9870SOL    HW130509   2.951   1.128   2.676
 9870SOL    HW230510   2.805   1.202   2.685
 9871SOL     OW30511   6.848   4.649   4.573
 9871SOL    HW130512   6.866   4.551   4.563
 9871SOL    HW230513   6.765   4.673   4.522
 9872SOL     OW30514   1.278   5.170   5.841
 9872SOL    HW130515   1.182   5.157   5.820
 9872SOL    HW230516   1.293   5.160   5.939
 9873SOL     OW30517   1.026   1.750   5.878
 9873SOL    HW130518   1.120   1.732   5.850
 9873SOL    HW230519   0.967   1.675   5.849
 9874SOL     OW30520   0.481   2.606   4.803
 9874SOL    HW130521   0.463   2.704   4.799
 9874SOL    HW230522   0.401   2.556   4.769
 9875SOL     OW30523   6.334   5.257   0.755
 9875SOL    HW130524   6.282   5.287   0.674
 9875SOL    HW230525   6.369   5.338   0.803
 9876SOL     OW30526   1.767   6.558   3.867
 9876SOL    HW130527   1.838   6.627   3.853
 9876SOL    HW230528   1.745   6.515   3.780
 9877SOL     OW30529   0.514   5.097   4.982
 9877SOL    HW130530   0.583   5.033   5.017
 9877SOL    HW230531   0.558   5.165   4.924
 9878SOL     OW30532   2.296   2.455   6.876
 9878SOL    HW130533   2.364   2.488   6.810
 9878SOL    HW230534   2.232   2.394   6.830
 9879SOL     OW30535   6.655   5.200   6.405
 9879SOL    HW130536   6.686   5.175   6.314
 9879SOL    HW230537   6.623   5.295   6.405
 9880SOL     OW30538   2.973   1.264   6.852
 9880SOL    HW130539   3.046   1.219   6.904
 9880SOL    HW230540   2.972   1.229   6.759
 9881SOL     OW30541   5.897   0.520   4.240
 9881SOL    HW130542   5.886   0.568   4.152
 9881SOL    HW230543   5.862   0.578   4.313
 9882SOL     OW30544   3.367   2.916   5.034
 9882SOL    HW130545   3.441   2.927   5.100
 9882SOL    HW230546   3.296   2.985   5.052
 9883SOL     OW30547   2.565   0.057   1.809
 9883SOL    HW130548   2.515   0.118   1.870
 9883SOL    HW230549   2.544   6.990   1.833
 9884SOL     OW30550   2.348   3.763   5.621
 9884SOL    HW130551   2.274   3.759   5.553
 9884SOL    HW230552   2.424   3.705   5.591
 9885SOL     OW30553   5.722   2.804   4.708
 9885SOL    HW130554   5.639   2.850   4.737
 9885SOL    HW230555   5.784   2.795   4.786
 9886SOL     OW30556   4.106   5.786   1.248
 9886SOL    HW130557   4.070   5.707   1.198
 9886SOL    HW230558   4.067   5.870   1.210
 9887SOL     OW30559   3.262   0.006   6.340
 9887SOL    HW130560   3.213   0.092   6.321
 9887SOL    HW230561   3.321   0.019   6.420
 9888SOL     OW30562   6.230   6.453   3.252
 9888SOL    HW130563   6.220   6.353   3.250
 9888SOL    HW230564   6.235   6.484   3.347
 9889SOL     OW30565   7.018   5.534   3.430
 9889SOL    HW130566   0.020   5.459   3.372
 9889SOL    HW230567   7.019   5.619   3.378
 9890SOL     OW30568   0.258   3.946   2.078
 9890SOL    HW130569   0.179   3.899   2.117
 9890SOL    HW230570   0.257   3.938   1.979
 9891SOL     OW30571   5.660   5.516   0.631
 9891SOL    HW130572   5.674   5.421   0.659
 9891SOL    HW230573   5.719   5.576   0.686
 9892SOL     OW30574   2.086   4.801   4.074
 9892SOL    HW130575   2.011   4.817   4.137
 9892SOL    HW230576   2.061   4.728   4.010
 9893SOL     OW30577   5.279   5.331   3.718
 9893SOL    HW130578   5.348   5.343   3.789
 9893SOL    HW230579   5.231   5.417   3.702
 9894SOL     OW30580   3.903   3.343   6.276
 9894SOL    HW130581   4.001   3.360   6.268
 9894SOL    HW230582   3.855   3.389   6.201
 9895SOL     OW30583   5.289   2.151   6.730
 9895SOL    HW130584   5.294   2.229   6.667
 9895SOL    HW230585   5.370   2.152   6.789
 9896SOL     OW30586   3.837   4.114   0.909
 9896SOL    HW130587   3.772   4.042   0.885
 9896SOL    HW230588   3.905   4.079   0.973
 9897SOL     OW30589   6.608   1.844   3.810
 9897SOL    HW130590   6.509   1.830   3.814
 9897SOL    HW230591   6.652   1.785   3.877
 9898SOL     OW30592   1.231   5.136   5.280
 9898SOL    HW130593   1.223   5.147   5.181
 9898SOL    HW230594   1.182   5.210   5.326
 9899SOL     OW30595   5.795   5.282   1.662
 9899SOL    HW130596   5.827   5.223   1.588
 9899SOL    HW230597   5.866   5.288   1.733
 9900SOL     OW30598   1.281   3.576   3.538
 9900SOL    HW130599   1.320   3.649   3.481
 9900SOL    HW230600   1.354   3.532   3.590
 9901SOL     OW30601   3.302   2.106   5.190
 9901SOL    HW130602   3.246   2.168   5.136
 9901SOL    HW230603   3.256   2.084   5.276
 9902SOL     OW30604   4.383   3.848   0.028
 9902SOL    HW130605   4.466   3.866   0.079
 9902SOL    HW230606   4.406   3.816   6.964
 9903SOL     OW30607   3.963   1.440   1.672
 9903SOL    HW130608   3.881   1.498   1.678
 9903SOL    HW230609   3.979   1.414   1.577
 9904SOL     OW30610   0.025   0.442   2.028
 9904SOL    HW130611   7.011   0.417   1.941
 9904SOL    HW230612   0.123   0.423   2.025
 9905SOL     OW30613   1.102   6.414   5.261
 9905SOL    HW130614   1.126   6.509   5.279
 9905SOL    HW230615   1.148   6.355   5.327
 9906SOL     OW30616   3.128   2.654   6.015
 9906SOL    HW130617   3.174   2.664   5.927
 9906SOL    HW230618   3.082   2.739   6.039
 9907SOL     OW30619   2.260   6.563   3.032
 9907SOL    HW130620   2.288   6.483   3.085
 9907SOL    HW230621   2.341   6.614   3.003
 9908SOL     OW30622   1.050   3.570   5.672
 9908SOL    HW130623   1.080   3.664   5.689
 9908SOL    HW230624   1.121   3.506   5.702
 9909SOL     OW30625   4.006   6.750   2.826
 9909SOL    HW130626   3.910   6.732   2.805
 9909SOL    HW230627   4.030   6.706   2.913
 9910SOL     OW30628   0.097   4.039   1.299
 9910SOL    HW130629   0.009   4.083   1.279
 9910SOL    HW230630   0.160   4.107   1.335
 9911SOL     OW30631   3.012   4.777   3.141
 9911SOL    HW130632   2.930   4.726   3.114
 9911SOL    HW230633   3.067   4.796   3.060
 9912SOL     OW30634   5.171   0.189   1.456
 9912SOL    HW130635   5.092   0.216   1.401
 9912SOL    HW230636   5.201   0.098   1.428
 9913SOL     OW30637   4.778   1.764   2.371
 9913SOL    HW130638   4.706   1.731   2.432
 9913SOL    HW230639   4.860   1.785   2.424
 9914SOL     OW30640   1.609   6.524   5.023
 9914SOL    HW130641   1.523   6.523   5.075
 9914SOL    HW230642   1.677   6.578   5.073
 9915SOL     OW30643   5.287   3.691   4.451
 9915SOL    HW130644   5.291   3.616   4.517
 9915SOL    HW230645   5.380   3.712   4.418
 9916SOL     OW30646   2.194   2.984   1.819
 9916SOL    HW130647   2.100   2.999   1.788
 9916SOL    HW230648   2.255   3.048   1.773
 9917SOL     OW30649   2.280   3.451   5.960
 9917SOL    HW130650   2.254   3.392   5.883
 9917SOL    HW230651   2.204   3.512   5.981
 9918SOL     OW30652   1.459   1.434   5.379
 9918SOL    HW130653   1.433   1.338   5.388
 9918SOL    HW230654   1.399   1.479   5.313
 9919SOL     OW30655   0.363   5.110   3.181
 9919SOL    HW130656   0.329   5.104   3.088
 9919SOL    HW230657   0.434   5.180   3.187
 9920SOL     OW30658   4.394   6.825   1.292
 9920SOL    HW130659   4.343   6.765   1.353
 9920SOL    HW230660   4.492   6.807   1.302
 9921SOL     OW30661   5.286   0.178   2.754
 9921SOL    HW130662   5.333   0.118   2.689
 9921SOL    HW230663   5.225   0.239   2.703
 9922SOL     OW30664   4.232   3.025   1.286
 9922SOL    HW130665   4.197   3.101   1.340
 9922SOL    HW230666   4.165   2.951   1.283
 9923SOL     OW30667   6.448   2.067   6.528
 9923SOL    HW130668   6.524   2.131   6.519
 9923SOL    HW230669   6.469   1.984   6.476
 9924SOL     OW30670   6.109   0.561   3.333
 9924SOL    HW130671   6.191   0.515   3.366
 9924SOL    HW230672   6.058   0.600   3.410
 9925SOL     OW30673   2.589   2.502   4.800
 9925SOL    HW130674   2.558   2.559   4.875
 9925SOL    HW230675   2.527   2.513   4.722
 9926SOL     OW30676   1.291   1.287   0.591
 9926SOL    HW130677   1.264   1.326   0.503
 9926SOL    HW230678   1.377   1.328   0.621
 9927SOL     OW30679   0.763   2.562   2.781
 9927SOL    HW130680   0.778   2.562   2.682
 9927SOL    HW230681   0.793   2.650   2.820
 9928SOL     OW30682   0.282   3.513   3.180
 9928SOL    HW130683   0.308   3.417   3.195
 9928SOL    HW230684   0.308   3.567   3.260
 9929SOL     OW30685   2.320   4.435   6.603
 9929SOL    HW130686   2.277   4.358   6.650
 9929SOL    HW230687   2.272   4.453   6.517
 9930SOL     OW30688   0.166   6.470   6.793
 9930SOL    HW130689   0.077   6.427   6.806
 9930SOL    HW230690   0.229   6.406   6.750
 9931SOL     OW30691   2.143   5.938   5.826
 9931SOL    HW130692   2.206   5.863   5.842
 9931SOL    HW230693   2.164   5.982   5.738
 9932SOL     OW30694   1.652   2.233   0.681
 9932SOL    HW130695   1.687   2.207   0.591
 9932SOL    HW230696   1.552   2.241   0.676
 9933SOL     OW30697   1.290   2.005   3.602
 9933SOL    HW130698   1.334   1.989   3.514
 9933SOL    HW230699   1.319   2.093   3.640
 9934SOL     OW30700   3.621   1.084   5.813
 9934SOL    HW130701   3.523   1.071   5.804
 9934SOL    HW230702   3.667   0.995   5.812
 9935SOL     OW30703   2.427   2.175   0.921
 9935SOL    HW130704   2.385   2.181   1.011
 9935SOL    HW230705   2.382   2.103   0.868
 9936SOL     OW30706   6.082   6.511   5.404
 9936SOL    HW130707   6.099   6.470   5.493
 9936SOL    HW230708   6.110   6.607   5.405
 9937SOL     OW30709   0.459   0.265   3.617
 9937SOL    HW130710   0.496   0.181   3.577
 9937SOL    HW230711   0.360   0.254   3.632
 9938SOL     OW30712   6.823   1.748   3.683
 9938SOL    HW130713   6.872   1.702   3.756
 9938SOL    HW230714   6.750   1.805   3.721
 9939SOL     OW30715   3.143   4.483   1.382
 9939SOL    HW130716   3.208   4.478   1.306
 9939SOL    HW230717   3.079   4.406   1.377
 9940SOL     OW30718   0.228   0.936   3.127
 9940SOL    HW130719   0.319   0.951   3.088
 9940SOL    HW230720   0.222   0.979   3.217
 9941SOL     OW30721   5.119   4.879   6.633
 9941SOL    HW130722   5.182   4.915   6.702
 9941SOL    HW230723   5.144   4.785   6.610
 9942SOL     OW30724   4.815   5.183   2.809
 9942SOL    HW130725   4.906   5.162   2.844
 9942SOL    HW230726   4.746   5.150   2.873
 9943SOL     OW30727   2.183   4.184   6.367
 9943SOL    HW130728   2.268   4.132   6.353
 9943SOL    HW230729   2.157   4.230   6.283
 9944SOL     OW30730   0.473   4.794   6.426
 9944SOL    HW130731   0.403   4.835   6.484
 9944SOL    HW230732   0.563   4.805   6.468
 9945SOL     OW30733   6.272   3.232   6.436
 9945SOL    HW130734   6.316   3.246   6.525
 9945SOL    HW230735   6.333   3.182   6.375
 9946SOL     OW30736   5.612   1.705   1.639
 9946SOL    HW130737   5.565   1.731   1.555
 9946SOL    HW230738   5.546   1.670   1.705
 9947SOL     OW30739   1.185   1.641   3.855
 9947SOL    HW130740   1.179   1.730   3.900
 9947SOL    HW230741   1.272   1.597   3.878
 9948SOL     OW30742   6.274   0.066   4.475
 9948SOL    HW130743   6.252   6.996   4.469
 9948SOL    HW230744   6.205   0.113   4.530
 9949SOL     OW30745   5.943   4.981   3.863
 9949SOL    HW130746   6.015   4.961   3.797
 9949SOL    HW230747   5.920   4.898   3.914
 9950SOL     OW30748   5.680   4.039   5.526
 9950SOL    HW130749   5.773   4.027   5.492
 9950SOL    HW230750   5.676   4.118   5.587
 9951SOL     OW30751   0.375   2.050   3.412
 9951SOL    HW130752   0.405   2.060   3.507
 9951SOL    HW230753   0.285   2.004   3.411
 9952SOL     OW30754   0.597   4.808   1.762
 9952SOL    HW130755   0.544   4.737   1.807
 9952SOL    HW230756   0.623   4.878   1.829
 9953SOL     OW30757   5.915   2.445   3.567
 9953SOL    HW130758   5.970   2.529   3.570
 9953SOL    HW230759   5.818   2.468   3.574
 9954SOL     OW30760   3.680   1.685   5.928
 9954SOL    HW130761   3.681   1.784   5.943
 9954SOL    HW230762   3.599   1.645   5.971
 9955SOL     OW30763   5.802   4.068   0.963
 9955SOL    HW130764   5.845   4.151   0.927
 9955SOL    HW230765   5.874   4.007   0.997
 9956SOL     OW30766   2.094   3.258   3.216
 9956SOL    HW130767   2.035   3.178   3.221
 9956SOL    HW230768   2.132   3.278   3.307
 9957SOL     OW30769   4.853   0.099   0.817
 9957SOL    HW130770   4.855   0.088   0.916
 9957SOL    HW230771   4.866   0.010   0.773
 9958SOL     OW30772   5.055   5.794   0.414
 9958SOL    HW130773   5.092   5.819   0.503
 9958SOL    HW230774   5.021   5.876   0.368
 9959SOL     OW30775   4.961   4.321   0.738
 9959SOL    HW130776   5.036   4.256   0.724
 9959SOL    HW230777   4.936   4.322   0.835
 9960SOL     OW30778   0.329   0.600   6.962
 9960SOL    HW130779   0.383   0.515   6.963
 9960SOL    HW230780   0.275   0.606   0.019
 9961SOL     OW30781   2.667   4.951   1.510
 9961SOL    HW130782   2.591   4.904   1.556
 9961SOL    HW230783   2.728   4.884   1.469
 9962SOL     OW30784   3.432   7.004   1.546
 9962SOL    HW130785   3.388   6.920   1.577
 9962SOL    HW230786   3.439   7.002   1.446
 9963SOL     OW30787   0.602   1.125   6.468
 9963SOL    HW130788   0.511   1.088   6.449
 9963SOL    HW230789   0.670   1.074   6.417
 9964SOL     OW30790   4.424   4.089   6.024
 9964SOL    HW130791   4.496   4.137   5.974
 9964SOL    HW230792   4.336   4.132   6.005
 9965SOL     OW30793   2.834   5.537   4.605
 9965SOL    HW130794   2.908   5.473   4.581
 9965SOL    HW230795   2.746   5.492   4.590
 9966SOL     OW30796   3.856   4.940   2.444
 9966SOL    HW130797   3.816   4.924   2.535
 9966SOL    HW230798   3.788   4.918   2.374
 9967SOL     OW30799   0.186   0.573   2.754
 9967SOL    HW130800   0.142   0.663   2.754
 9967SOL    HW230801   0.116   0.502   2.747
 9968SOL     OW30802   3.332   6.653   7.024
 9968SOL    HW130803   3.400   6.621   6.959
 9968SOL    HW230804   3.243   6.612   7.002
 9969SOL     OW30805   1.732   5.319   3.787
 9969SOL    HW130806   1.714   5.383   3.861
 9969SOL    HW230807   1.713   5.226   3.818
 9970SOL     OW30808   6.495   3.559   1.524
 9970SOL    HW130809   6.521   3.485   1.462
 9970SOL    HW230810   6.440   3.626   1.474
 9971SOL     OW30811   0.517   4.670   2.968
 9971SOL    HW130812   0.438   4.610   2.983
 9971SOL    HW230813   0.486   4.758   2.932
 9972SOL     OW30814   3.078   3.085   6.857
 9972SOL    HW130815   2.997   3.133   6.891
 9972SOL    HW230816   3.056   3.043   6.769
 9973SOL     OW30817   3.062   1.928   3.593
 9973SOL    HW130818   3.061   2.025   3.567
 9973SOL    HW230819   2.987   1.880   3.548
 9974SOL     OW30820   1.368   3.248   2.931
 9974SOL    HW130821   1.389   3.248   3.029
 9974SOL    HW230822   1.367   3.154   2.898
 9975SOL     OW30823   1.825   5.086   6.981
 9975SOL    HW130824   1.876   5.167   6.953
 9975SOL    HW230825   1.888   5.019   7.021
 9976SOL     OW30826   3.203   4.052   6.608
 9976SOL    HW130827   3.290   4.052   6.658
 9976SOL    HW230828   3.198   4.133   6.550
 9977SOL     OW30829   5.163   6.309   5.726
 9977SOL    HW130830   5.127   6.287   5.635
 9977SOL    HW230831   5.263   6.308   5.723
 9978SOL     OW30832   0.673   3.440   6.570
 9978SOL    HW130833   0.646   3.344   6.559
 9978SOL    HW230834   0.739   3.463   6.498
 9979SOL     OW30835   4.175   3.273   5.081
 9979SOL    HW130836   4.219   3.285   5.170
 9979SOL    HW230837   4.236   3.305   5.009
 9980SOL     OW30838   2.212   1.393   0.938
 9980SOL    HW130839   2.153   1.465   0.974
 9980SOL    HW230840   2.164   1.306   0.943
 9981SOL     OW30841   0.181   2.698   1.549
 9981SOL    HW130842   0.103   2.746   1.587
 9981SOL    HW230843   0.183   2.711   1.450
 9982SOL     OW30844   2.228   2.149   5.198
 9982SOL    HW130845   2.153   2.204   5.162
 9982SOL    HW230846   2.304   2.149   5.134
 9983SOL     OW30847   0.848   2.858   2.265
 9983SOL    HW130848   0.847   2.868   2.364
 9983SOL    HW230849   0.837   2.761   2.241
 9984SOL     OW30850   6.936   6.009   1.184
 9984SOL    HW130851   7.027   5.967   1.193
 9984SOL    HW230852   6.933   6.063   1.100
 9985SOL     OW30853   3.881   5.259   0.352
 9985SOL    HW130854   3.810   5.216   0.296
 9985SOL    HW230855   3.837   5.311   0.426
 9986SOL     OW30856   5.297   4.930   0.095
 9986SOL    HW130857   5.262   4.866   0.164
 9986SOL    HW230858   5.252   4.912   0.007
 9987SOL     OW30859   5.106   3.029   1.465
 9987SOL    HW130860   5.125   3.121   1.430
 9987SOL    HW230861   5.108   2.964   1.389
 9988SOL     OW30862   5.395   6.788   4.387
 9988SOL    HW130863   5.487   6.799   4.423
 9988SOL    HW230864   5.356   6.702   4.420
 9989SOL     OW30865   6.656   5.213   2.402
 9989SOL    HW130866   6.593   5.177   2.333
 9989SOL    HW230867   6.667   5.311   2.389
 9990SOL     OW30868   0.624   6.750   3.694
 9990SOL    HW130869   0.679   6.832   3.711
 9990SOL    HW230870   0.552   6.771   3.628
 9991SOL     OW30871   1.624   4.523   3.355
 9991SOL    HW130872   1.644   4.425   3.354
 9991SOL    HW230873   1.663   4.566   3.274
 9992SOL     OW30874   3.448   4.910   1.040
 9992SOL    HW130875   3.491   4.999   1.025
 9992SOL    HW230876   3.514   4.837   1.023
 9993SOL     OW30877   3.789   6.786   4.319
 9993SOL    HW130878   3.751   6.697   4.343
 9993SOL    HW230879   3.797   6.843   4.401
 9994SOL     OW30880   6.632   4.707   4.350
 9994SOL    HW130881   6.576   4.790   4.349
 9994SOL    HW230882   6.573   4.627   4.337
 9995SOL     OW30883   2.870   0.596   4.831
 9995SOL    HW130884   2.899   0.503   4.809
 9995SOL    HW230885   2.898   0.618   4.924
 9996SOL     OW30886   2.285   3.547   1.052
 9996SOL    HW130887   2.329   3.470   1.098
 9996SOL    HW230888   2.296   3.537   0.953
 9997SOL     OW30889   5.929   3.050   3.783
 9997SOL    HW130890   6.028   3.062   3.790
 9997SOL    HW230891   5.903   2.965   3.828
 9998SOL     OW30892   5.184   4.471   2.655
 9998SOL    HW130893   5.204   4.518   2.741
 9998SOL    HW230894   5.085   4.462   2.644
 9999SOL     OW30895   0.926   6.292   3.920
 9999SOL    HW130896   0.996   6.355   3.885
 9999SOL    HW230897   0.964   6.199   3.922
10000SOL     OW30898   5.737   1.982   1.547
10000SOL    HW130899   5.719   1.888   1.574
10000SOL    HW230900   5.812   2.019   1.603
10001SOL     OW30901   4.058   6.300   2.070
10001SOL    HW130902   4.102   6.388   2.053
10001SOL    HW230903   4.081   6.268   2.162
10002SOL     OW30904   2.836   0.767   1.861
10002SOL    HW130905   2.883   0.854   1.845
10002SOL    HW230906   2.900   0.692   1.848
10003SOL     OW30907   1.410   1.036   3.954
10003SOL    HW130908   1.488   1.033   3.892
10003SOL    HW230909   1.363   1.124   3.944
10004SOL     OW30910   6.237   4.072   5.104
10004SOL    HW130911   6.220   4.110   5.013
10004SOL    HW230912   6.256   4.146   5.168
10005SOL     OW30913   1.846   5.352   3.290
10005SOL    HW130914   1.943   5.333   3.273
10005SOL    HW230915   1.822   5.323   3.383
10006SOL     OW30916   5.410   0.752   5.463
10006SOL    HW130917   5.393   0.737   5.561
10006SOL    HW230918   5.366   0.679   5.411
10007SOL     OW30919   1.374   5.140   4.467
10007SOL    HW130920   1.461   5.172   4.505
10007SOL    HW230921   1.390   5.060   4.409
10008SOL     OW30922   4.162   1.710   6.224
10008SOL    HW130923   4.162   1.777   6.150
10008SOL    HW230924   4.087   1.730   6.287
10009SOL     OW30925   0.980   3.281   2.054
10009SOL    HW130926   0.991   3.368   2.005
10009SOL    HW230927   1.061   3.264   2.110
10010SOL     OW30928   2.253   4.687   0.116
10010SOL    HW130929   2.223   4.692   0.021
10010SOL    HW230930   2.349   4.658   0.120
10011SOL     OW30931   1.453   3.492   0.588
10011SOL    HW130932   1.455   3.592   0.597
10011SOL    HW230933   1.389   3.454   0.656
10012SOL     OW30934   4.949   1.488   2.558
10012SOL    HW130935   5.015   1.550   2.514
10012SOL    HW230936   4.953   1.399   2.513
10013SOL     OW30937   0.679   6.138   4.523
10013SOL    HW130938   0.722   6.060   4.569
10013SOL    HW230939   0.580   6.134   4.537
10014SOL     OW30940   0.725   0.177   2.853
10014SOL    HW130941   0.639   0.127   2.863
10014SOL    HW230942   0.707   0.275   2.856
10015SOL     OW30943   4.241   4.426   5.591
10015SOL    HW130944   4.180   4.360   5.635
10015SOL    HW230945   4.187   4.489   5.535
10016SOL     OW30946   2.233   6.900   2.795
10016SOL    HW130947   2.179   6.908   2.879
10016SOL    HW230948   2.192   6.958   2.724
10017SOL     OW30949   2.514   1.572   2.997
10017SOL    HW130950   2.509   1.475   2.974
10017SOL    HW230951   2.496   1.583   3.095
10018SOL     OW30952   6.333   2.515   6.190
10018SOL    HW130953   6.331   2.494   6.287
10018SOL    HW230954   6.261   2.581   6.169
10019SOL     OW30955   0.559   1.536   2.455
10019SOL    HW130956   0.470   1.496   2.477
10019SOL    HW230957   0.614   1.541   2.538
10020SOL     OW30958   6.772   0.540   2.018
10020SOL    HW130959   6.845   0.497   2.071
10020SOL    HW230960   6.747   0.627   2.059
10021SOL     OW30961   1.598   4.114   1.885
10021SOL    HW130962   1.506   4.076   1.878
10021SOL    HW230963   1.611   4.183   1.813
10022SOL     OW30964   2.680   6.123   0.514
10022SOL    HW130965   2.635   6.068   0.443
10022SOL    HW230966   2.660   6.219   0.500
10023SOL     OW30967   1.777   6.791   6.014
10023SOL    HW130968   1.774   6.719   6.083
10023SOL    HW230969   1.871   6.809   5.988
10024SOL     OW30970   1.598   4.539   3.052
10024SOL    HW130971   1.693   4.509   3.045
10024SOL    HW230972   1.541   4.465   3.086
10025SOL     OW30973   1.216   4.475   1.496
10025SOL    HW130974   1.255   4.486   1.405
10025SOL    HW230975   1.140   4.539   1.508
10026SOL     OW30976   5.234   1.502   4.010
10026SOL    HW130977   5.314   1.444   4.023
10026SOL    HW230978   5.175   1.463   3.939
10027SOL     OW30979   1.800   1.788   5.662
10027SOL    HW130980   1.767   1.696   5.681
10027SOL    HW230981   1.812   1.838   5.748
10028SOL     OW30982   4.312   0.751   1.620
10028SOL    HW130983   4.323   0.742   1.719
10028SOL    HW230984   4.272   0.668   1.583
10029SOL     OW30985   0.105   3.238   4.888
10029SOL    HW130986   0.107   3.274   4.982
10029SOL    HW230987   0.029   3.173   4.879
10030SOL     OW30988   2.681   0.025   4.588
10030SOL    HW130989   2.651   0.118   4.611
10030SOL    HW230990   2.699   7.002   4.672
10031SOL     OW30991   3.046   5.009   4.113
10031SOL    HW130992   2.956   4.972   4.089
10031SOL    HW230993   3.096   4.941   4.167
10032SOL     OW30994   3.057   6.107   4.916
10032SOL    HW130995   3.100   6.039   4.856
10032SOL    HW230996   2.992   6.162   4.864
10033SOL     OW30997   4.172   1.915   2.720
10033SOL    HW130998   4.196   1.933   2.816
10033SOL    HW230999   4.093   1.970   2.694
10034SOL     OW31000   2.663   0.536   3.561
10034SOL    HW131001   2.669   0.592   3.644
10034SOL    HW231002   2.755   0.524   3.523
10035SOL     OW31003   6.106   2.771   1.633
10035SOL    HW131004   6.165   2.778   1.713
10035SOL    HW231005   6.142   2.830   1.561
10036SOL     OW31006   6.238   0.587   0.008
10036SOL    HW131007   6.196   0.534   6.962
10036SOL    HW231008   6.169   0.647   0.049
10037SOL     OW31009   6.101   6.919   6.834
10037SOL    HW131010   6.051   6.998   6.869
10037SOL    HW231011   6.047   6.836   6.848
10038SOL     OW31012   4.203   0.195   6.948
10038SOL    HW131013   4.167   0.165   0.009
10038SOL    HW231014   4.236   0.289   6.957
10039SOL     OW31015   5.647   5.106   3.650
10039SOL    HW131016   5.616   5.183   3.594
10039SOL    HW231017   5.702   5.044   3.594
10040SOL     OW31018   3.589   0.536   0.400
10040SOL    HW131019   3.540   0.524   0.314
10040SOL    HW231020   3.620   0.631   0.408
10041SOL     OW31021   6.782   4.805   5.411
10041SOL    HW131022   6.716   4.789   5.338
10041SOL    HW231023   6.848   4.731   5.413
10042SOL     OW31024   0.693   0.773   5.169
10042SOL    HW131025   0.706   0.688   5.119
10042SOL    HW231026   0.652   0.753   5.258
10043SOL     OW31027   1.758   1.004   3.119
10043SOL    HW131028   1.810   0.973   3.039
10043SOL    HW231029   1.660   0.995   3.101
10044SOL     OW31030   1.846   1.437   5.525
10044SOL    HW131031   1.872   1.473   5.436
10044SOL    HW231032   1.779   1.497   5.567
10045SOL     OW31033   4.539   6.799   4.687
10045SOL    HW131034   4.620   6.758   4.646
10045SOL    HW231035   4.532   6.770   4.783
10046SOL     OW31036   0.292   2.328   2.158
10046SOL    HW131037   0.222   2.348   2.089
10046SOL    HW231038   0.256   2.265   2.226
10047SOL     OW31039   6.465   1.502   5.013
10047SOL    HW131040   6.429   1.421   5.060
10047SOL    HW231041   6.519   1.474   4.934
10048SOL     OW31042   3.661   1.503   1.942
10048SOL    HW131043   3.684   1.565   2.016
10048SOL    HW231044   3.572   1.460   1.962
10049SOL     OW31045   2.245   0.736   6.380
10049SOL    HW131046   2.259   0.682   6.298
10049SOL    HW231047   2.170   0.697   6.434
10050SOL     OW31048   5.018   2.552   4.850
10050SOL    HW131049   5.093   2.546   4.784
10050SOL    HW231050   4.967   2.466   4.852
10051SOL     OW31051   5.947   2.843   4.477
10051SOL    HW131052   5.884   2.855   4.553
10051SOL    HW231053   5.950   2.926   4.422
10052SOL     OW31054   1.515   3.339   1.805
10052SOL    HW131055   1.508   3.331   1.904
10052SOL    HW231056   1.552   3.429   1.781
10053SOL     OW31057   3.129   5.160   3.359
10053SOL    HW131058   3.146   5.114   3.446
10053SOL    HW231059   3.165   5.103   3.284
10054SOL     OW31060   4.212   5.554   5.749
10054SOL    HW131061   4.136   5.597   5.799
10054SOL    HW231062   4.180   5.469   5.707
10055SOL     OW31063   6.583   2.747   5.063
10055SOL    HW131064   6.554   2.798   5.144
10055SOL    HW231065   6.668   2.787   5.028
10056SOL     OW31066   6.574   4.962   1.394
10056SOL    HW131067   6.653   4.964   1.331
10056SOL    HW231068   6.583   5.038   1.459
10057SOL     OW31069   4.184   1.811   4.478
10057SOL    HW131070   4.173   1.807   4.379
10057SOL    HW231071   4.166   1.904   4.510
10058SOL     OW31072   0.067   5.417   3.907
10058SOL    HW131073   0.059   5.493   3.843
10058SOL    HW231074   0.089   5.333   3.857
10059SOL     OW31075   5.363   0.244   0.914
10059SOL    HW131076   5.382   0.269   0.819
10059SOL    HW231077   5.286   0.298   0.948
10060SOL     OW31078   2.899   2.262   1.714
10060SOL    HW131079   2.919   2.326   1.788
10060SOL    HW231080   2.896   2.169   1.750
10061SOL     OW31081   6.217   1.175   4.170
10061SOL    HW131082   6.151   1.118   4.220
10061SOL    HW231083   6.242   1.254   4.225
10062SOL     OW31084   5.917   5.805   3.495
10062SOL    HW131085   5.946   5.724   3.545
10062SOL    HW231086   5.848   5.855   3.548
10063SOL     OW31087   1.389   3.514   3.993
10063SOL    HW131088   1.421   3.517   3.898
10063SOL    HW231089   1.414   3.425   4.033
10064SOL     OW31090   4.892   5.556   4.396
10064SOL    HW131091   4.901   5.603   4.308
10064SOL    HW231092   4.935   5.612   4.467
10065SOL     OW31093   1.187   6.705   2.520
10065SOL    HW131094   1.176   6.629   2.583
10065SOL    HW231095   1.244   6.776   2.562
10066SOL     OW31096   0.462   0.179   4.081
10066SOL    HW131097   0.479   0.202   4.177
10066SOL    HW231098   0.491   0.255   4.023
10067SOL     OW31099   4.972   4.547   4.416
10067SOL    HW131100   4.966   4.475   4.347
10067SOL    HW231101   4.924   4.628   4.384
10068SOL     OW31102   5.297   2.791   4.534
10068SOL    HW131103   5.355   2.868   4.562
10068SOL    HW231104   5.329   2.707   4.578
10069SOL     OW31105   3.018   1.008   3.728
10069SOL    HW131106   3.027   1.082   3.661
10069SOL    HW231107   2.966   1.040   3.807
10070SOL     OW31108   0.455   6.202   5.064
10070SOL    HW131109   0.468   6.176   5.159
10070SOL    HW231110   0.543   6.232   5.025
10071SOL     OW31111   4.831   5.478   4.075
10071SOL    HW131112   4.747   5.427   4.090
10071SOL    HW231113   4.811   5.575   4.067
10072SOL     OW31114   0.446   6.123   3.347
10072SOL    HW131115   0.435   6.163   3.438
10072SOL    HW231116   0.411   6.186   3.278
10073SOL     OW31117   6.337   4.849   5.331
10073SOL    HW131118   6.420   4.865   5.278
10073SOL    HW231119   6.328   4.922   5.400
10074SOL     OW31120   1.425   0.116   5.742
10074SOL    HW131121   1.460   0.051   5.809
10074SOL    HW231122   1.501   0.163   5.697
10075SOL     OW31123   1.203   2.261   3.324
10075SOL    HW131124   1.237   2.306   3.242
10075SOL    HW231125   1.188   2.164   3.306
10076SOL     OW31126   5.016   0.256   4.206
10076SOL    HW131127   5.102   0.248   4.155
10076SOL    HW231128   4.941   0.219   4.151
10077SOL     OW31129   4.122   2.486   6.559
10077SOL    HW131130   4.101   2.390   6.539
10077SOL    HW231131   4.076   2.545   6.492
10078SOL     OW31132   6.064   6.618   4.918
10078SOL    HW131133   6.040   6.639   5.013
10078SOL    HW231134   6.163   6.623   4.907
10079SOL     OW31135   0.849   3.064   1.394
10079SOL    HW131136   0.890   3.116   1.469
10079SOL    HW231137   0.921   3.018   1.342
10080SOL     OW31138   2.285   2.563   0.519
10080SOL    HW131139   2.315   2.619   0.442
10080SOL    HW231140   2.352   2.491   0.536
10081SOL     OW31141   0.866   0.251   6.310
10081SOL    HW131142   0.909   0.341   6.314
10081SOL    HW231143   0.772   0.257   6.342
10082SOL     OW31144   6.311   1.980   1.738
10082SOL    HW131145   6.348   1.893   1.705
10082SOL    HW231146   6.233   1.962   1.799
10083SOL     OW31147   4.354   0.220   3.985
10083SOL    HW131148   4.304   0.298   3.946
10083SOL    HW231149   4.358   0.230   4.084
10084SOL     OW31150   2.787   0.900   5.945
10084SOL    HW131151   2.711   0.837   5.930
10084SOL    HW231152   2.760   0.971   6.010
10085SOL     OW31153   0.795   4.948   2.982
10085SOL    HW131154   0.884   4.940   3.028
10085SOL    HW231155   0.726   4.979   3.048
10086SOL     OW31156   6.162   4.722   2.091
10086SOL    HW131157   6.099   4.660   2.044
10086SOL    HW231158   6.245   4.672   2.115
10087SOL     OW31159   1.241   1.038   4.273
10087SOL    HW131160   1.199   0.987   4.198
10087SOL    HW231161   1.198   1.010   4.360
10088SOL     OW31162   0.454   6.885   4.802
10088SOL    HW131163   0.507   6.922   4.878
10088SOL    HW231164   0.414   6.797   4.828
10089SOL     OW31165   2.491   1.387   2.794
10089SOL    HW131166   2.532   1.477   2.780
10089SOL    HW231167   2.398   1.386   2.756
10090SOL     OW31168   0.980   4.487   0.559
10090SOL    HW131169   0.911   4.549   0.521
10090SOL    HW231170   0.980   4.494   0.658
10091SOL     OW31171   0.979   3.279   4.595
10091SOL    HW131172   1.005   3.217   4.669
10091SOL    HW231173   0.880   3.272   4.579
10092SOL     OW31174   1.873   3.533   5.198
10092SOL    HW131175   1.918   3.451   5.233
10092SOL    HW231176   1.838   3.587   5.274
10093SOL     OW31177   0.613   5.367   5.249
10093SOL    HW131178   0.563   5.427   5.311
10093SOL    HW231179   0.590   5.271   5.268
10094SOL     OW31180   2.477   0.574   2.385
10094SOL    HW131181   2.477   0.671   2.363
10094SOL    HW231182   2.399   0.554   2.445
10095SOL     OW31183   6.900   1.737   5.908
10095SOL    HW131184   6.885   1.680   5.989
10095SOL    HW231185   6.858   1.693   5.828
10096SOL     OW31186   0.177   5.137   2.640
10096SOL    HW131187   0.114   5.160   2.565
10096SOL    HW231188   0.268   5.172   2.618
10097SOL     OW31189   1.175   1.651   0.931
10097SOL    HW131190   1.129   1.715   0.993
10097SOL    HW231191   1.143   1.558   0.948
10098SOL     OW31192   1.911   6.060   5.779
10098SOL    HW131193   1.847   6.098   5.846
10098SOL    HW231194   1.982   6.007   5.827
10099SOL     OW31195   6.864   3.561   5.236
10099SOL    HW131196   6.802   3.509   5.295
10099SOL    HW231197   6.917   3.625   5.291
10100SOL     OW31198   4.768   0.758   4.682
10100SOL    HW131199   4.695   0.826   4.693
10100SOL    HW231200   4.733   0.668   4.708
10101SOL     OW31201   0.422   4.638   1.885
10101SOL    HW131202   0.337   4.663   1.932
10101SOL    HW231203   0.418   4.541   1.861
10102SOL     OW31204   3.224   1.222   2.110
10102SOL    HW131205   3.281   1.300   2.085
10102SOL    HW231206   3.224   1.211   2.210
10103SOL     OW31207   2.700   1.183   5.056
10103SOL    HW131208   2.797   1.159   5.053
10103SOL    HW231209   2.645   1.103   5.032
10104SOL     OW31210   1.094   4.557   5.394
10104SOL    HW131211   1.035   4.545   5.475
10104SOL    HW231212   1.119   4.467   5.358
10105SOL     OW31213   1.458   1.402   6.437
10105SOL    HW131214   1.537   1.435   6.488
10105SOL    HW231215   1.445   1.305   6.454
10106SOL     OW31216   5.308   5.405   0.496
10106SOL    HW131217   5.401   5.423   0.465
10106SOL    HW231218   5.308   5.385   0.593
10107SOL     OW31219   6.183   0.973   5.931
10107SOL    HW131220   6.179   1.071   5.951
10107SOL    HW231221   6.137   0.955   5.844
10108SOL     OW31222   6.270   6.199   0.116
10108SOL    HW131223   6.274   6.272   0.047
10108SOL    HW231224   6.361   6.163   0.132
10109SOL     OW31225   4.668   5.775   3.334
10109SOL    HW131226   4.591   5.753   3.275
10109SOL    HW231227   4.744   5.713   3.314
10110SOL     OW31228   3.578   6.599   5.754
10110SOL    HW131229   3.676   6.616   5.760
10110SOL    HW231230   3.537   6.661   5.687
10111SOL     OW31231   6.568   3.259   3.464
10111SOL    HW131232   6.525   3.289   3.549
10111SOL    HW231233   6.624   3.178   3.480
10112SOL     OW31234   5.446   4.030   5.343
10112SOL    HW131235   5.531   4.051   5.391
10112SOL    HW231236   5.467   3.995   5.251
10113SOL     OW31237   3.948   0.846   7.025
10113SOL    HW131238   4.015   0.829   6.952
10113SOL    HW231239   3.865   0.794   7.006
10114SOL     OW31240   5.335   1.459   6.964
10114SOL    HW131241   5.296   1.547   6.937
10114SOL    HW231242   5.431   1.456   6.937
10115SOL     OW31243   1.912   2.563   3.822
10115SOL    HW131244   1.918   2.506   3.740
10115SOL    HW231245   1.882   2.655   3.797
10116SOL     OW31246   0.841   6.727   0.730
10116SOL    HW131247   0.834   6.674   0.646
10116SOL    HW231248   0.776   6.691   0.798
10117SOL     OW31249   6.250   0.350   5.224
10117SOL    HW131250   6.239   0.449   5.218
10117SOL    HW231251   6.328   0.322   5.167
10118SOL     OW31252   0.479   5.068   2.549
10118SOL    HW131253   0.578   5.063   2.555
10118SOL    HW231254   0.449   5.163   2.553
10119SOL     OW31255   2.330   0.554   4.654
10119SOL    HW131256   2.332   0.502   4.568
10119SOL    HW231257   2.295   0.496   4.727
10120SOL     OW31258   0.589   3.202   3.864
10120SOL    HW131259   0.529   3.282   3.869
10120SOL    HW231260   0.570   3.152   3.779
10121SOL     OW31261   6.617   4.769   5.169
10121SOL    HW131262   6.672   4.723   5.100
10121SOL    HW231263   6.566   4.844   5.127
10122SOL     OW31264   5.197   2.993   6.696
10122SOL    HW131265   5.118   2.937   6.719
10122SOL    HW231266   5.181   3.039   6.609
10123SOL     OW31267   0.745   5.762   0.837
10123SOL    HW131268   0.791   5.766   0.926
10123SOL    HW231269   0.786   5.830   0.775
10124SOL     OW31270   2.883   4.515   0.158
10124SOL    HW131271   2.824   4.557   0.090
10124SOL    HW231272   2.979   4.523   0.130
10125SOL     OW31273   2.057   0.502   2.820
10125SOL    HW131274   2.115   0.430   2.857
10125SOL    HW231275   2.002   0.542   2.895
10126SOL     OW31276   6.220   5.624   6.969
10126SOL    HW131277   6.219   5.698   6.903
10126SOL    HW231278   6.167   5.547   6.934
10127SOL     OW31279   3.175   5.405   5.578
10127SOL    HW131280   3.251   5.466   5.553
10127SOL    HW231281   3.119   5.388   5.497
10128SOL     OW31282   0.480   1.248   1.120
10128SOL    HW131283   0.398   1.242   1.062
10128SOL    HW231284   0.554   1.290   1.068
10129SOL     OW31285   5.180   2.754   3.875
10129SOL    HW131286   5.098   2.743   3.819
10129SOL    HW231287   5.154   2.750   3.972
10130SOL     OW31288   1.153   5.292   3.093
10130SOL    HW131289   1.176   5.203   3.130
10130SOL    HW231290   1.190   5.301   3.001
10131SOL     OW31291   0.792   1.998   2.241
10131SOL    HW131292   0.719   2.042   2.188
10131SOL    HW231293   0.758   1.912   2.279
10132SOL     OW31294   3.392   6.780   3.078
10132SOL    HW131295   3.309   6.729   3.056
10132SOL    HW231296   3.374   6.878   3.069
10133SOL     OW31297   4.291   6.015   3.569
10133SOL    HW131298   4.318   5.920   3.587
10133SOL    HW231299   4.372   6.072   3.560
10134SOL     OW31300   6.317   0.812   3.515
10134SOL    HW131301   6.335   0.901   3.556
10134SOL    HW231302   6.386   0.746   3.546
10135SOL     OW31303   4.902   3.756   2.809
10135SOL    HW131304   4.874   3.762   2.714
10135SOL    HW231305   4.963   3.678   2.821
10136SOL     OW31306   5.834   0.083   3.385
10136SOL    HW131307   5.870   7.021   3.412
10136SOL    HW231308   5.871   0.153   3.445
10137SOL     OW31309   6.724   5.413   4.604
10137SOL    HW131310   6.758   5.459   4.686
10137SOL    HW231311   6.647   5.354   4.628
10138SOL     OW31312   5.749   2.505   0.638
10138SOL    HW131313   5.759   2.440   0.713
10138SOL    HW231314   5.655   2.502   0.604
10139SOL     OW31315   3.979   3.016   2.782
10139SOL    HW131316   4.000   2.968   2.867
10139SOL    HW231317   4.049   3.085   2.765
10140SOL     OW31318   6.230   6.063   6.432
10140SOL    HW131319   6.243   6.147   6.380
10140SOL    HW231320   6.193   5.992   6.372
10141SOL     OW31321   3.024   2.276   4.406
10141SOL    HW131322   2.995   2.205   4.471
10141SOL    HW231323   2.991   2.365   4.436
10142SOL     OW31324   4.577   6.576   5.287
10142SOL    HW131325   4.579   6.675   5.277
10142SOL    HW231326   4.649   6.547   5.350
10143SOL     OW31327   4.280   0.043   1.275
10143SOL    HW131328   4.283   0.091   1.363
10143SOL    HW231329   4.319   6.979   1.285
10144SOL     OW31330   3.720   5.504   5.550
10144SOL    HW131331   3.638   5.464   5.591
10144SOL    HW231332   3.750   5.582   5.605
10145SOL     OW31333   2.714   6.133   6.057
10145SOL    HW131334   2.653   6.072   6.108
10145SOL    HW231335   2.718   6.104   5.961
10146SOL     OW31336   3.665   5.274   4.686
10146SOL    HW131337   3.757   5.311   4.699
10146SOL    HW231338   3.670   5.179   4.658
10147SOL     OW31339   4.864   4.457   4.670
10147SOL    HW131340   4.904   4.488   4.584
10147SOL    HW231341   4.766   4.477   4.671
10148SOL     OW31342   6.398   5.793   0.303
10148SOL    HW131343   6.352   5.724   0.247
10148SOL    HW231344   6.393   5.767   0.400
10149SOL     OW31345   5.009   1.700   0.580
10149SOL    HW131346   5.044   1.610   0.608
10149SOL    HW231347   5.026   1.713   0.482
10150SOL     OW31348   4.567   4.192   1.029
10150SOL    HW131349   4.553   4.277   0.977
10150SOL    HW231350   4.654   4.151   1.004
10151SOL     OW31351   1.844   0.143   6.485
10151SOL    HW131352   1.854   0.100   6.395
10151SOL    HW231353   1.796   0.081   6.546
10152SOL     OW31354   1.317   5.406   4.167
10152SOL    HW131355   1.354   5.345   4.097
10152SOL    HW231356   1.343   5.500   4.146
10153SOL     OW31357   4.478   5.882   3.835
10153SOL    HW131358   4.430   5.918   3.915
10153SOL    HW231359   4.550   5.946   3.807
10154SOL     OW31360   6.579   6.197   5.836
10154SOL    HW131361   6.638   6.207   5.916
10154SOL    HW231362   6.508   6.129   5.857
10155SOL     OW31363   4.106   1.434   6.225
10155SOL    HW131364   4.140   1.384   6.145
10155SOL    HW231365   4.123   1.531   6.213
10156SOL     OW31366   5.989   6.801   2.181
10156SOL    HW131367   6.068   6.767   2.231
10156SOL    HW231368   5.938   6.724   2.143
10157SOL     OW31369   5.953   1.613   5.657
10157SOL    HW131370   6.052   1.599   5.647
10157SOL    HW231371   5.935   1.709   5.676
10158SOL     OW31372   4.872   3.867   0.088
10158SOL    HW131373   4.922   3.782   0.107
10158SOL    HW231374   4.906   3.906   0.002
10159SOL     OW31375   2.409   3.173   5.863
10159SOL    HW131376   2.318   3.190   5.824
10159SOL    HW231377   2.470   3.249   5.841
10160SOL     OW31378   1.134   4.566   2.628
10160SOL    HW131379   1.102   4.471   2.637
10160SOL    HW231380   1.091   4.608   2.548
10161SOL     OW31381   3.458   4.883   0.539
10161SOL    HW131382   3.504   4.918   0.621
10161SOL    HW231383   3.359   4.881   0.555
10162SOL     OW31384   2.676   3.678   6.945
10162SOL    HW131385   2.592   3.647   6.900
10162SOL    HW231386   2.746   3.608   6.936
10163SOL     OW31387   5.842   4.125   6.356
10163SOL    HW131388   5.826   4.223   6.357
10163SOL    HW231389   5.770   4.079   6.304
10164SOL     OW31390   6.406   2.820   4.832
10164SOL    HW131391   6.358   2.851   4.915
10164SOL    HW231392   6.457   2.737   4.853
10165SOL     OW31393   1.464   2.003   4.261
10165SOL    HW131394   1.553   1.964   4.240
10165SOL    HW231395   1.474   2.074   4.331
10166SOL     OW31396   3.736   1.069   2.084
10166SOL    HW131397   3.808   1.075   2.016
10166SOL    HW231398   3.709   0.973   2.096
10167SOL     OW31399   5.190   1.326   6.479
10167SOL    HW131400   5.250   1.397   6.514
10167SOL    HW231401   5.154   1.271   6.554
10168SOL     OW31402   6.476   3.989   4.705
10168SOL    HW131403   6.437   3.900   4.683
10168SOL    HW231404   6.528   3.983   4.790
10169SOL     OW31405   6.919   4.259   3.297
10169SOL    HW131406   6.954   4.329   3.234
10169SOL    HW231407   6.829   4.285   3.330
10170SOL     OW31408   0.575   4.284   5.918
10170SOL    HW131409   0.673   4.300   5.907
10170SOL    HW231410   0.559   4.227   5.999
10171SOL     OW31411   6.309   3.593   6.616
10171SOL    HW131412   6.321   3.663   6.687
10171SOL    HW231413   6.398   3.569   6.578
10172SOL     OW31414   6.038   0.554   3.085
10172SOL    HW131415   6.080   0.576   3.172
10172SOL    HW231416   6.072   0.466   3.053
10173SOL     OW31417   1.909   2.378   1.317
10173SOL    HW131418   1.901   2.456   1.255
10173SOL    HW231419   1.952   2.408   1.403
10174SOL     OW31420   5.614   4.650   2.367
10174SOL    HW131421   5.529   4.694   2.396
10174SOL    HW231422   5.637   4.577   2.432
10175SOL     OW31423   6.638   2.798   4.286
10175SOL    HW131424   6.632   2.787   4.385
10175SOL    HW231425   6.577   2.733   4.241
10176SOL     OW31426   1.072   3.165   5.865
10176SOL    HW131427   1.030   3.094   5.922
10176SOL    HW231428   1.009   3.241   5.854
10177SOL     OW31429   2.768   0.286   0.061
10177SOL    HW131430   2.830   0.363   0.077
10177SOL    HW231431   2.798   0.207   0.115
10178SOL     OW31432   6.551   3.279   4.762
10178SOL    HW131433   6.622   3.349   4.760
10178SOL    HW231434   6.470   3.315   4.808
10179SOL     OW31435   0.904   2.016   5.831
10179SOL    HW131436   0.907   2.075   5.912
10179SOL    HW231437   0.945   1.927   5.853
10180SOL     OW31438   3.252   5.175   6.184
10180SOL    HW131439   3.210   5.186   6.274
10180SOL    HW231440   3.205   5.103   6.134
10181SOL     OW31441   5.184   3.540   2.150
10181SOL    HW131442   5.128   3.548   2.068
10181SOL    HW231443   5.259   3.476   2.133
10182SOL     OW31444   5.795   1.530   1.600
10182SOL    HW131445   5.888   1.540   1.635
10182SOL    HW231446   5.738   1.605   1.634
10183SOL     OW31447   1.240   1.775   6.568
10183SOL    HW131448   1.332   1.806   6.591
10183SOL    HW231449   1.172   1.840   6.602
10184SOL     OW31450   4.902   1.719   6.083
10184SOL    HW131451   4.955   1.752   6.161
10184SOL    HW231452   4.928   1.624   6.063
10185SOL     OW31453   4.792   6.461   0.816
10185SOL    HW131454   4.741   6.406   0.882
10185SOL    HW231455   4.759   6.441   0.724
10186SOL     OW31456   6.023   3.412   3.586
10186SOL    HW131457   5.978   3.473   3.651
10186SOL    HW231458   5.980   3.322   3.589
10187SOL     OW31459   1.080   1.747   2.099
10187SOL    HW131460   1.124   1.707   2.019
10187SOL    HW231461   0.984   1.766   2.078
10188SOL     OW31462   3.961   6.013   6.934
10188SOL    HW131463   3.923   6.105   6.938
10188SOL    HW231464   4.060   6.017   6.943
10189SOL     OW31465   2.597   0.160   5.764
10189SOL    HW131466   2.668   0.125   5.703
10189SOL    HW231467   2.536   0.221   5.713
10190SOL     OW31468   5.237   2.281   1.233
10190SOL    HW131469   5.332   2.256   1.216
10190SOL    HW231470   5.224   2.379   1.213
10191SOL     OW31471   5.012   4.291   0.046
10191SOL    HW131472   4.964   4.232   7.007
10191SOL    HW231473   5.004   4.250   0.137
10192SOL     OW31474   4.541   0.886   4.694
10192SOL    HW131475   4.519   0.958   4.760
10192SOL    HW231476   4.526   0.921   4.601
10193SOL     OW31477   4.430   3.982   1.681
10193SOL    HW131478   4.513   3.927   1.693
10193SOL    HW231479   4.423   4.049   1.755
10194SOL     OW31480   5.808   4.664   4.869
10194SOL    HW131481   5.805   4.626   4.962
10194SOL    HW231482   5.794   4.763   4.873
10195SOL     OW31483   6.175   4.416   1.423
10195SOL    HW131484   6.257   4.468   1.398
10195SOL    HW231485   6.149   4.439   1.516
10196SOL     OW31486   5.980   1.575   4.683
10196SOL    HW131487   5.983   1.488   4.634
10196SOL    HW231488   5.929   1.642   4.629
10197SOL     OW31489   0.202   1.749   4.915
10197SOL    HW131490   0.211   1.843   4.882
10197SOL    HW231491   0.240   1.686   4.848
10198SOL     OW31492   4.169   0.639   2.380
10198SOL    HW131493   4.111   0.720   2.368
10198SOL    HW231494   4.180   0.592   2.292
10199SOL     OW31495   1.775   2.800   5.761
10199SOL    HW131496   1.793   2.887   5.808
10199SOL    HW231497   1.724   2.817   5.677
10200SOL     OW31498   4.784   2.437   1.078
10200SOL    HW131499   4.788   2.527   1.121
10200SOL    HW231500   4.782   2.367   1.150
10201SOL     OW31501   0.933   4.812   0.766
10201SOL    HW131502   0.854   4.796   0.826
10201SOL    HW231503   0.902   4.824   0.672
10202SOL     OW31504   4.034   2.268   5.814
10202SOL    HW131505   4.056   2.338   5.745
10202SOL    HW231506   4.057   2.178   5.779
10203SOL     OW31507   5.099   2.540   4.467
10203SOL    HW131508   5.008   2.499   4.460
10203SOL    HW231509   5.093   2.638   4.448
10204SOL     OW31510   5.056   6.436   6.962
10204SOL    HW131511   5.123   6.507   6.983
10204SOL    HW231512   4.994   6.469   6.890
10205SOL     OW31513   0.744   1.669   0.568
10205SOL    HW131514   0.810   1.721   0.513
10205SOL    HW231515   0.730   1.579   0.527
10206SOL     OW31516   0.844   1.271   5.786
10206SOL    HW131517   0.876   1.329   5.860
10206SOL    HW231518   0.780   1.323   5.728
10207SOL     OW31519   1.315   1.542   6.240
10207SOL    HW131520   1.377   1.493   6.301
10207SOL    HW231521   1.314   1.498   6.150
10208SOL     OW31522   5.393   5.215   4.334
10208SOL    HW131523   5.381   5.313   4.316
10208SOL    HW231524   5.488   5.197   4.360
10209SOL     OW31525   6.743   0.288   5.937
10209SOL    HW131526   6.841   0.267   5.937
10209SOL    HW231527   6.717   0.331   5.851
10210SOL     OW31528   4.417   6.413   1.257
10210SOL    HW131529   4.449   6.488   1.200
10210SOL    HW231530   4.393   6.447   1.348
10211SOL     OW31531   3.518   6.607   4.673
10211SOL    HW131532   3.516   6.706   4.666
10211SOL    HW231533   3.480   6.566   4.590
10212SOL     OW31534   0.661   0.047   5.434
10212SOL    HW131535   0.684   0.033   5.530
10212SOL    HW231536   0.609   6.997   5.400
10213SOL     OW31537   5.115   2.814   0.874
10213SOL    HW131538   5.156   2.831   0.964
10213SOL    HW231539   5.171   2.750   0.823
10214SOL     OW31540   1.357   2.061   1.382
10214SOL    HW131541   1.420   2.020   1.316
10214SOL    HW231542   1.291   2.118   1.332
10215SOL     OW31543   4.099   3.585   2.867
10215SOL    HW131544   4.159   3.508   2.885
10215SOL    HW231545   4.057   3.615   2.952
10216SOL     OW31546   6.132   0.403   1.758
10216SOL    HW131547   6.180   0.370   1.840
10216SOL    HW231548   6.042   0.359   1.752
10217SOL     OW31549   2.966   0.752   3.707
10217SOL    HW131550   2.870   0.727   3.700
10217SOL    HW231551   2.975   0.851   3.709
10218SOL     OW31552   1.121   2.926   1.886
10218SOL    HW131553   1.037   2.872   1.885
10218SOL    HW231554   1.197   2.870   1.855
10219SOL     OW31555   0.264   1.334   1.989
10219SOL    HW131556   0.325   1.414   1.993
10219SOL    HW231557   0.232   1.322   1.896
10220SOL     OW31558   3.489   3.017   1.258
10220SOL    HW131559   3.513   2.950   1.328
10220SOL    HW231560   3.476   3.106   1.300
10221SOL     OW31561   0.549   6.047   3.058
10221SOL    HW131562   0.520   6.092   3.142
10221SOL    HW231563   0.515   6.098   2.979
10222SOL     OW31564   2.945   3.378   4.710
10222SOL    HW131565   3.023   3.352   4.767
10222SOL    HW231566   2.908   3.466   4.742
10223SOL     OW31567   0.880   5.729   1.076
10223SOL    HW131568   0.812   5.665   1.113
10223SOL    HW231569   0.915   5.786   1.150
10224SOL     OW31570   6.201   3.848   3.463
10224SOL    HW131571   6.173   3.854   3.559
10224SOL    HW231572   6.294   3.885   3.453
10225SOL     OW31573   1.576   3.909   5.706
10225SOL    HW131574   1.551   3.819   5.741
10225SOL    HW231575   1.533   3.924   5.617
10226SOL     OW31576   3.701   2.181   6.917
10226SOL    HW131577   3.788   2.226   6.934
10226SOL    HW231578   3.631   2.222   6.975
10227SOL     OW31579   5.605   4.004   0.802
10227SOL    HW131580   5.684   4.013   0.863
10227SOL    HW231581   5.578   4.094   0.769
10228SOL     OW31582   5.795   0.958   0.527
10228SOL    HW131583   5.824   1.053   0.518
10228SOL    HW231584   5.696   0.954   0.533
10229SOL     OW31585   0.309   3.409   5.182
10229SOL    HW131586   0.217   3.378   5.204
10229SOL    HW231587   0.359   3.335   5.136
10230SOL     OW31588   6.706   5.494   2.364
10230SOL    HW131589   6.758   5.541   2.435
10230SOL    HW231590   6.734   5.529   2.274
10231SOL     OW31591   1.882   6.481   3.186
10231SOL    HW131592   1.941   6.486   3.106
10231SOL    HW231593   1.932   6.514   3.266
10232SOL     OW31594   3.798   0.100   2.799
10232SOL    HW131595   3.825   0.068   2.890
10232SOL    HW231596   3.871   0.156   2.761
10233SOL     OW31597   3.985   4.244   6.361
10233SOL    HW131598   4.011   4.339   6.377
10233SOL    HW231599   3.928   4.238   6.279
10234SOL     OW31600   6.567   0.663   1.396
10234SOL    HW131601   6.511   0.647   1.477
10234SOL    HW231602   6.536   0.604   1.322
10235SOL     OW31603   0.844   1.188   3.186
10235SOL    HW131604   0.865   1.148   3.275
10235SOL    HW231605   0.929   1.200   3.134
10236SOL     OW31606   2.242   6.848   0.318
10236SOL    HW131607   2.244   6.849   0.418
10236SOL    HW231608   2.279   6.761   0.285
10237SOL     OW31609   0.357   3.288   6.908
10237SOL    HW131610   0.311   3.307   6.822
10237SOL    HW231611   0.298   3.313   6.984
10238SOL     OW31612   3.970   4.980   0.849
10238SOL    HW131613   3.991   4.891   0.888
10238SOL    HW231614   4.053   5.020   0.809
10239SOL     OW31615   1.690   2.947   4.950
10239SOL    HW131616   1.758   3.013   4.919
10239SOL    HW231617   1.602   2.992   4.963
10240SOL     OW31618   2.424   0.125   1.385
10240SOL    HW131619   2.422   0.216   1.427
10240SOL    HW231620   2.330   0.091   1.376
10241SOL     OW31621   4.523   2.238   1.741
10241SOL    HW131622   4.494   2.292   1.662
10241SOL    HW231623   4.540   2.298   1.819
10242SOL     OW31624   0.218   2.187   0.600
10242SOL    HW131625   0.307   2.172   0.642
10242SOL    HW231626   0.165   2.102   0.605
10243SOL     OW31627   2.344   4.603   0.584
10243SOL    HW131628   2.351   4.589   0.485
10243SOL    HW231629   2.421   4.560   0.629
10244SOL     OW31630   2.335   4.314   1.593
10244SOL    HW131631   2.394   4.273   1.663
10244SOL    HW231632   2.316   4.246   1.522
10245SOL     OW31633   3.883   4.149   0.567
10245SOL    HW131634   3.787   4.160   0.593
10245SOL    HW231635   3.913   4.056   0.588
10246SOL     OW31636   3.201   2.933   4.468
10246SOL    HW131637   3.228   2.997   4.540
10246SOL    HW231638   3.183   2.844   4.509
10247SOL     OW31639   0.895   3.969   4.422
10247SOL    HW131640   0.958   3.995   4.495
10247SOL    HW231641   0.947   3.936   4.343
10248SOL     OW31642   1.273   0.442   3.681
10248SOL    HW131643   1.372   0.454   3.684
10248SOL    HW231644   1.233   0.514   3.624
10249SOL     OW31645   2.039   4.713   6.883
10249SOL    HW131646   1.949   4.672   6.867
10249SOL    HW231647   2.102   4.683   6.812
10250SOL     OW31648   5.404   2.832   6.799
10250SOL    HW131649   5.498   2.845   6.768
10250SOL    HW231650   5.342   2.887   6.744
10251SOL     OW31651   1.571   0.315   4.201
10251SOL    HW131652   1.542   0.232   4.152
10251SOL    HW231653   1.539   0.396   4.151
10252SOL     OW31654   4.459   3.891   5.844
10252SOL    HW131655   4.449   3.967   5.908
10252SOL    HW231656   4.515   3.819   5.886
10253SOL     OW31657   4.001   6.754   6.947
10253SOL    HW131658   3.962   6.784   0.006
10253SOL    HW231659   4.091   6.715   6.963
10254SOL     OW31660   5.689   1.758   5.029
10254SOL    HW131661   5.783   1.727   5.016
10254SOL    HW231662   5.687   1.829   5.100
10255SOL     OW31663   2.962   5.793   1.290
10255SOL    HW131664   2.918   5.879   1.263
10255SOL    HW231665   3.023   5.762   1.217
10256SOL     OW31666   5.109   0.807   1.884
10256SOL    HW131667   5.154   0.744   1.947
10256SOL    HW231668   5.099   0.896   1.927
10257SOL     OW31669   2.778   4.994   3.034
10257SOL    HW131670   2.757   4.899   3.054
10257SOL    HW231671   2.763   5.012   2.937
10258SOL     OW31672   2.479   2.057   2.709
10258SOL    HW131673   2.496   2.074   2.806
10258SOL    HW231674   2.392   2.009   2.698
10259SOL     OW31675   0.667   4.089   4.155
10259SOL    HW131676   0.745   4.030   4.177
10259SOL    HW231677   0.660   4.100   4.056
10260SOL     OW31678   1.228   1.069   3.589
10260SOL    HW131679   1.251   1.160   3.622
10260SOL    HW231680   1.285   1.047   3.509
10261SOL     OW31681   0.427   3.776   0.451
10261SOL    HW131682   0.445   3.776   0.549
10261SOL    HW231683   0.476   3.701   0.408
10262SOL     OW31684   3.683   1.245   6.971
10262SOL    HW131685   3.757   1.192   7.012
10262SOL    HW231686   3.687   1.237   6.872
10263SOL     OW31687   5.994   0.981   0.995
10263SOL    HW131688   6.000   0.977   0.895
10263SOL    HW231689   6.071   0.930   1.035
10264SOL     OW31690   6.235   5.001   6.719
10264SOL    HW131691   6.273   5.047   6.639
10264SOL    HW231692   6.153   5.050   6.749
10265SOL     OW31693   2.323   2.926   0.267
10265SOL    HW131694   2.361   2.847   0.315
10265SOL    HW231695   2.331   2.913   0.169
10266SOL     OW31696   3.071   3.104   2.922
10266SOL    HW131697   3.026   3.136   3.006
10266SOL    HW231698   3.092   3.182   2.864
10267SOL     OW31699   5.557   0.423   0.445
10267SOL    HW131700   5.579   0.501   0.504
10267SOL    HW231701   5.527   0.346   0.501
10268SOL     OW31702   5.268   0.043   1.219
10268SOL    HW131703   5.277   0.130   1.172
10268SOL    HW231704   5.220   7.005   1.160
10269SOL     OW31705   1.994   2.329   6.378
10269SOL    HW131706   1.941   2.407   6.345
10269SOL    HW231707   1.976   2.316   6.476
10270SOL     OW31708   3.367   5.975   2.348
10270SOL    HW131709   3.429   6.051   2.329
10270SOL    HW231710   3.373   5.908   2.273
10271SOL     OW31711   2.674   2.171   0.801
10271SOL    HW131712   2.657   2.168   0.702
10271SOL    HW231713   2.587   2.167   0.850
10272SOL     OW31714   6.753   0.870   4.403
10272SOL    HW131715   6.736   0.967   4.384
10272SOL    HW231716   6.830   0.863   4.467
10273SOL     OW31717   2.680   5.188   4.178
10273SOL    HW131718   2.585   5.162   4.162
10273SOL    HW231719   2.732   5.109   4.211
10274SOL     OW31720   0.336   4.822   5.531
10274SOL    HW131721   0.426   4.780   5.521
10274SOL    HW231722   0.283   4.808   5.447
10275SOL     OW31723   0.025   0.722   3.022
10275SOL    HW131724   0.097   0.665   3.062
10275SOL    HW231725   0.058   0.760   2.936
10276SOL     OW31726   4.657   5.597   5.479
10276SOL    HW131727   4.608   5.667   5.427
10276SOL    HW231728   4.593   5.545   5.535
10277SOL     OW31729   1.061   6.863   4.081
10277SOL    HW131730   1.159   6.862   4.102
10277SOL    HW231731   1.027   6.769   4.078
10278SOL     OW31732   0.411   0.448   5.271
10278SOL    HW131733   0.486   0.413   5.328
10278SOL    HW231734   0.388   0.380   5.201
10279SOL     OW31735   2.476   5.581   4.651
10279SOL    HW131736   2.486   5.658   4.588
10279SOL    HW231737   2.380   5.555   4.657
10280SOL     OW31738   5.303   3.918   0.855
10280SOL    HW131739   5.240   3.853   0.813
10280SOL    HW231740   5.388   3.920   0.802
10281SOL     OW31741   6.429   1.899   3.164
10281SOL    HW131742   6.509   1.958   3.176
10281SOL    HW231743   6.420   1.839   3.243
10282SOL     OW31744   4.928   3.436   2.570
10282SOL    HW131745   4.895   3.513   2.515
10282SOL    HW231746   4.941   3.466   2.664
10283SOL     OW31747   0.160   3.833   1.112
10283SOL    HW131748   0.143   3.915   1.167
10283SOL    HW231749   0.136   3.852   1.017
10284SOL     OW31750   0.448   2.417   4.164
10284SOL    HW131751   0.510   2.495   4.163
10284SOL    HW231752   0.464   2.361   4.082
10285SOL     OW31753   4.326   6.427   3.700
10285SOL    HW131754   4.360   6.348   3.650
10285SOL    HW231755   4.400   6.493   3.713
10286SOL     OW31756   3.466   1.682   4.248
10286SOL    HW131757   3.445   1.703   4.343
10286SOL    HW231758   3.427   1.752   4.188
10287SOL     OW31759   2.073   6.345   1.922
10287SOL    HW131760   2.056   6.383   2.013
10287SOL    HW231761   2.166   6.367   1.893
10288SOL     OW31762   3.315   0.000   4.903
10288SOL    HW131763   3.227   7.006   4.860
10288SOL    HW231764   3.316   6.993   4.997
10289SOL     OW31765   3.252   6.532   0.427
10289SOL    HW131766   3.285   6.437   0.422
10289SOL    HW231767   3.225   6.553   0.521
10290SOL     OW31768   2.939   3.243   2.648
10290SOL    HW131769   3.013   3.176   2.655
10290SOL    HW231770   2.915   3.256   2.552
10291SOL     OW31771   3.294   0.664   2.644
10291SOL    HW131772   3.379   0.708   2.671
10291SOL    HW231773   3.252   0.621   2.725
10292SOL     OW31774   6.928   0.685   6.379
10292SOL    HW131775   6.986   0.640   6.311
10292SOL    HW231776   6.892   0.616   6.443
10293SOL     OW31777   0.799   3.607   4.072
10293SOL    HW131778   0.760   3.534   4.015
10293SOL    HW231779   0.813   3.572   4.165
10294SOL     OW31780   3.345   2.051   2.624
10294SOL    HW131781   3.257   2.005   2.635
10294SOL    HW231782   3.367   2.100   2.709
10295SOL     OW31783   1.223   2.465   6.467
10295SOL    HW131784   1.245   2.436   6.560
10295SOL    HW231785   1.126   2.485   6.459
10296SOL     OW31786   5.474   1.005   5.743
10296SOL    HW131787   5.441   0.917   5.776
10296SOL    HW231788   5.564   0.993   5.701
10297SOL     OW31789   3.048   1.986   6.595
10297SOL    HW131790   2.975   2.004   6.662
10297SOL    HW231791   3.091   1.899   6.616
10298SOL     OW31792   1.267   3.837   2.153
10298SOL    HW131793   1.231   3.908   2.092
10298SOL    HW231794   1.358   3.809   2.122
10299SOL     OW31795   4.755   6.633   2.676
10299SOL    HW131796   4.747   6.711   2.614
10299SOL    HW231797   4.848   6.628   2.713
10300SOL     OW31798   1.204   4.053   2.013
10300SOL    HW131799   1.225   4.138   2.059
10300SOL    HW231800   1.255   4.048   1.926
10301SOL     OW31801   4.098   1.330   5.630
10301SOL    HW131802   4.122   1.255   5.569
10301SOL    HW231803   4.006   1.314   5.668
10302SOL     OW31804   2.828   6.249   4.502
10302SOL    HW131805   2.867   6.279   4.415
10302SOL    HW231806   2.729   6.238   4.492
10303SOL     OW31807   1.165   6.048   3.901
10303SOL    HW131808   1.128   6.040   3.809
10303SOL    HW231809   1.147   5.963   3.951
10304SOL     OW31810   6.406   7.002   6.998
10304SOL    HW131811   6.472   0.044   6.968
10304SOL    HW231812   6.434   6.967   0.060
10305SOL     OW31813   2.721   3.777   5.826
10305SOL    HW131814   2.708   3.876   5.835
10305SOL    HW231815   2.632   3.731   5.828
10306SOL     OW31816   5.596   0.133   1.018
10306SOL    HW131817   5.554   0.086   1.096
10306SOL    HW231818   5.532   0.131   0.941
10307SOL     OW31819   2.985   1.064   4.434
10307SOL    HW131820   2.980   1.160   4.462
10307SOL    HW231821   3.077   1.043   4.402
10308SOL     OW31822   2.165   4.528   2.649
10308SOL    HW131823   2.236   4.592   2.681
10308SOL    HW231824   2.201   4.435   2.651
10309SOL     OW31825   5.646   0.352   5.473
10309SOL    HW131826   5.552   0.360   5.439
10309SOL    HW231827   5.648   0.377   5.570
10310SOL     OW31828   2.595   3.264   6.969
10310SOL    HW131829   2.503   3.279   7.006
10310SOL    HW231830   2.591   3.196   6.897
10311SOL     OW31831   5.499   5.732   6.863
10311SOL    HW131832   5.504   5.812   6.804
10311SOL    HW231833   5.427   5.671   6.830
10312SOL     OW31834   4.372   0.194   2.006
10312SOL    HW131835   4.388   0.222   2.101
10312SOL    HW231836   4.274   0.184   1.990
10313SOL     OW31837   4.377   5.646   2.948
10313SOL    HW131838   4.292   5.637   3.001
10313SOL    HW231839   4.443   5.700   2.999
10314SOL     OW31840   0.721   0.256   6.783
10314SOL    HW131841   0.628   0.274   6.753
10314SOL    HW231842   0.767   0.199   6.715
10315SOL     OW31843   5.191   6.525   3.466
10315SOL    HW131844   5.183   6.532   3.566
10315SOL    HW231845   5.100   6.531   3.425
10316SOL     OW31846   6.630   1.580   6.217
10316SOL    HW131847   6.713   1.529   6.195
10316SOL    HW231848   6.621   1.657   6.154
10317SOL     OW31849   3.340   5.848   6.058
10317SOL    HW131850   3.422   5.827   6.110
10317SOL    HW231851   3.321   5.775   5.993
10318SOL     OW31852   5.164   0.085   6.890
10318SOL    HW131853   5.113   0.138   6.957
10318SOL    HW231854   5.218   0.147   6.833
10319SOL     OW31855   0.340   4.882   4.926
10319SOL    HW131856   0.344   4.822   4.846
10319SOL    HW231857   0.397   4.963   4.910
10320SOL     OW31858   0.057   0.440   3.673
10320SOL    HW131859   0.080   0.536   3.662
10320SOL    HW231860   6.991   0.431   3.706
10321SOL     OW31861   6.047   2.001   1.936
10321SOL    HW131862   5.976   1.970   1.872
10321SOL    HW231863   6.040   1.950   2.022
10322SOL     OW31864   4.429   4.757   4.566
10322SOL    HW131865   4.424   4.703   4.650
10322SOL    HW231866   4.510   4.815   4.568
10323SOL     OW31867   6.020   4.496   5.448
10323SOL    HW131868   5.981   4.571   5.393
10323SOL    HW231869   6.112   4.476   5.416
10324SOL     OW31870   2.872   3.567   2.393
10324SOL    HW131871   2.852   3.470   2.379
10324SOL    HW231872   2.804   3.622   2.343
10325SOL     OW31873   0.256   5.561   2.404
10325SOL    HW131874   0.274   5.590   2.498
10325SOL    HW231875   0.318   5.610   2.342
10326SOL     OW31876   5.515   3.884   6.680
10326SOL    HW131877   5.494   3.891   6.582
10326SOL    HW231878   5.567   3.800   6.697
10327SOL     OW31879   2.384   3.938   0.967
10327SOL    HW131880   2.326   3.860   0.989
10327SOL    HW231881   2.474   3.927   1.010
10328SOL     OW31882   6.563   3.127   2.464
10328SOL    HW131883   6.557   3.226   2.479
10328SOL    HW231884   6.493   3.081   2.519
10329SOL     OW31885   3.078   0.771   2.833
10329SOL    HW131886   3.039   0.721   2.756
10329SOL    HW231887   3.023   0.754   2.915
10330SOL     OW31888   4.776   0.611   0.721
10330SOL    HW131889   4.855   0.667   0.744
10330SOL    HW231890   4.770   0.602   0.621
10331SOL     OW31891   6.274   6.475   6.608
10331SOL    HW131892   6.329   6.530   6.545
10331SOL    HW231893   6.333   6.436   6.679
10332SOL     OW31894   0.871   0.820   6.999
10332SOL    HW131895   0.959   0.827   0.019
10332SOL    HW231896   0.832   0.729   7.015
10333SOL     OW31897   0.609   5.675   4.450
10333SOL    HW131898   0.561   5.596   4.489
10333SOL    HW231899   0.549   5.755   4.455
10334SOL     OW31900   3.234   6.970   4.328
10334SOL    HW131901   3.184   6.990   4.412
10334SOL    HW231902   3.332   6.980   4.344
10335SOL     OW31903   0.600   4.719   6.703
10335SOL    HW131904   0.604   4.619   6.697
10335SOL    HW231905   0.677   4.759   6.653
10336SOL     OW31906   6.401   6.825   2.185
10336SOL    HW131907   6.358   6.912   2.161
10336SOL    HW231908   6.414   6.820   2.284
10337SOL     OW31909   6.443   5.447   0.214
10337SOL    HW131910   6.408   5.358   0.243
10337SOL    HW231911   6.367   5.511   0.201
10338SOL     OW31912   1.971   6.736   2.047
10338SOL    HW131913   2.020   6.698   1.969
10338SOL    HW231914   1.903   6.802   2.015
10339SOL     OW31915   6.175   3.514   6.365
10339SOL    HW131916   6.186   3.416   6.348
10339SOL    HW231917   6.240   3.542   6.435
10340SOL     OW31918   1.876   2.808   6.546
10340SOL    HW131919   1.955   2.831   6.489
10340SOL    HW231920   1.808   2.881   6.538
10341SOL     OW31921   2.096   3.308   2.210
10341SOL    HW131922   2.059   3.310   2.117
10341SOL    HW231923   2.101   3.402   2.244
10342SOL     OW31924   1.818   0.906   3.475
10342SOL    HW131925   1.792   0.809   3.472
10342SOL    HW231926   1.740   0.961   3.504
10343SOL     OW31927   2.346   5.495   0.839
10343SOL    HW131928   2.364   5.414   0.783
10343SOL    HW231929   2.362   5.472   0.935
10344SOL     OW31930   3.527   3.695   6.513
10344SOL    HW131931   3.560   3.762   6.580
10344SOL    HW231932   3.427   3.698   6.510
10345SOL     OW31933   1.074   3.042   5.341
10345SOL    HW131934   1.011   3.073   5.269
10345SOL    HW231935   1.163   3.086   5.328
10346SOL     OW31936   0.277   5.798   1.428
10346SOL    HW131937   0.306   5.703   1.444
10346SOL    HW231938   0.218   5.828   1.503
10347SOL     OW31939   4.470   1.294   3.632
10347SOL    HW131940   4.538   1.258   3.696
10347SOL    HW231941   4.511   1.305   3.542
10348SOL     OW31942   6.323   3.076   0.414
10348SOL    HW131943   6.333   3.175   0.402
10348SOL    HW231944   6.400   3.041   0.466
10349SOL     OW31945   0.993   0.099   6.494
10349SOL    HW131946   0.927   0.047   6.549
10349SOL    HW231947   0.947   0.137   6.414
10350SOL     OW31948   2.761   6.063   5.082
10350SOL    HW131949   2.727   6.128   5.014
10350SOL    HW231950   2.827   6.109   5.142
10351SOL     OW31951   5.001   5.440   5.572
10351SOL    HW131952   4.987   5.346   5.603
10351SOL    HW231953   5.031   5.439   5.477
10352SOL     OW31954   3.695   1.077   6.314
10352SOL    HW131955   3.706   1.008   6.243
10352SOL    HW231956   3.785   1.099   6.353
10353SOL     OW31957   6.686   3.048   4.619
10353SOL    HW131958   6.607   3.090   4.662
10353SOL    HW231959   6.767   3.104   4.636
10354SOL     OW31960   5.466   0.636   1.447
10354SOL    HW131961   5.539   0.632   1.516
10354SOL    HW231962   5.497   0.691   1.369
10355SOL     OW31963   2.482   6.390   2.266
10355SOL    HW131964   2.451   6.406   2.359
10355SOL    HW231965   2.503   6.477   2.222
10356SOL     OW31966   6.565   3.997   5.453
10356SOL    HW131967   6.585   4.093   5.434
10356SOL    HW231968   6.637   3.959   5.512
10357SOL     OW31969   2.289   2.468   6.542
10357SOL    HW131970   2.260   2.499   6.451
10357SOL    HW231971   2.215   2.417   6.585
10358SOL     OW31972   0.279   2.533   2.693
10358SOL    HW131973   0.354   2.563   2.751
10358SOL    HW231974   0.213   2.607   2.683
10359SOL     OW31975   0.122   1.467   1.442
10359SOL    HW131976   0.222   1.467   1.434
10359SOL    HW231977   0.091   1.373   1.456
10360SOL     OW31978   4.969   6.134   3.059
10360SOL    HW131979   5.004   6.224   3.085
10360SOL    HW231980   5.039   6.064   3.075
10361SOL     OW31981   3.022   5.735   2.546
10361SOL    HW131982   2.923   5.721   2.550
10361SOL    HW231983   3.063   5.667   2.485
10362SOL     OW31984   2.280   4.758   5.007
10362SOL    HW131985   2.361   4.711   5.040
10362SOL    HW231986   2.204   4.693   5.000
10363SOL     OW31987   5.190   0.373   2.585
10363SOL    HW131988   5.224   0.428   2.508
10363SOL    HW231989   5.144   0.433   2.650
10364SOL     OW31990   2.254   4.114   1.396
10364SOL    HW131991   2.240   4.019   1.426
10364SOL    HW231992   2.188   4.136   1.324
10365SOL     OW31993   4.637   5.265   0.319
10365SOL    HW131994   4.666   5.206   0.244
10365SOL    HW231995   4.614   5.356   0.283
10366SOL     OW31996   2.517   6.912   4.056
10366SOL    HW131997   2.562   7.001   4.052
10366SOL    HW231998   2.432   6.919   4.109
10367SOL     OW31999   6.279   2.687   3.057
10367SOL    HW132000   6.197   2.630   3.051
10367SOL    HW232001   6.252   2.783   3.057
10368SOL     OW32002   2.177   1.260   2.209
10368SOL    HW132003   2.258   1.219   2.250
10368SOL    HW232004   2.136   1.325   2.273
10369SOL     OW32005   3.912   1.633   0.855
10369SOL    HW132006   3.812   1.639   0.855
10369SOL    HW232007   3.945   1.620   0.949
10370SOL     OW32008   4.126   1.031   5.034
10370SOL    HW132009   4.133   0.931   5.033
10370SOL    HW232010   4.038   1.059   4.996
10371SOL     OW32011   4.175   5.956   5.071
10371SOL    HW132012   4.169   6.048   5.110
10371SOL    HW232013   4.262   5.945   5.025
10372SOL     OW32014   2.221   0.986   4.316
10372SOL    HW132015   2.305   1.039   4.332
10372SOL    HW232016   2.220   0.907   4.376
10373SOL     OW32017   0.881   6.302   4.632
10373SOL    HW132018   0.956   6.246   4.669
10373SOL    HW232019   0.825   6.246   4.571
10374SOL     OW32020   3.136   1.779   3.073
10374SOL    HW132021   3.194   1.837   3.130
10374SOL    HW232022   3.062   1.742   3.129
10375SOL     OW32023   5.499   2.210   1.181
10375SOL    HW132024   5.546   2.158   1.110
10375SOL    HW232025   5.552   2.206   1.266
10376SOL     OW32026   6.980   1.186   3.433
10376SOL    HW132027   6.967   1.112   3.366
10376SOL    HW232028   0.014   1.154   3.505
10377SOL     OW32029   0.201   0.699   3.975
10377SOL    HW132030   0.199   0.599   3.967
10377SOL    HW232031   0.282   0.734   3.927
10378SOL     OW32032   6.655   0.476   6.290
10378SOL    HW132033   6.574   0.522   6.253
10378SOL    HW232034   6.629   0.388   6.329
10379SOL     OW32035   5.352   0.622   4.823
10379SOL    HW132036   5.415   0.623   4.745
10379SOL    HW232037   5.259   0.641   4.792
10380SOL     OW32038   5.284   7.003   2.507
10380SOL    HW132039   5.351   6.974   2.438
10380SOL    HW232040   5.265   6.926   2.569
10381SOL     OW32041   4.746   4.924   5.580
10381SOL    HW132042   4.691   5.005   5.602
10381SOL    HW232043   4.749   4.912   5.481
10382SOL     OW32044   2.435   5.527   6.678
10382SOL    HW132045   2.429   5.437   6.636
10382SOL    HW232046   2.373   5.533   6.756
10383SOL     OW32047   0.839   2.498   1.381
10383SOL    HW132048   0.751   2.545   1.379
10383SOL    HW232049   0.885   2.507   1.293
10384SOL     OW32050   6.633   6.831   0.353
10384SOL    HW132051   6.567   6.783   0.410
10384SOL    HW232052   6.722   6.786   0.359
10385SOL     OW32053   6.376   0.948   6.133
10385SOL    HW132054   6.382   1.030   6.189
10385SOL    HW232055   6.306   0.961   6.062
10386SOL     OW32056   6.256   2.821   5.101
10386SOL    HW132057   6.160   2.836   5.077
10386SOL    HW232058   6.264   2.741   5.160
10387SOL     OW32059   1.983   3.007   3.239
10387SOL    HW132060   2.002   2.917   3.279
10387SOL    HW232061   1.937   2.995   3.151
10388SOL     OW32062   1.512   4.839   3.229
10388SOL    HW132063   1.460   4.779   3.290
10388SOL    HW232064   1.535   4.924   3.277
10389SOL     OW32065   0.888   4.883   3.692
10389SOL    HW132066   0.876   4.802   3.633
10389SOL    HW232067   0.912   4.853   3.784
10390SOL     OW32068   1.227   3.068   3.144
10390SOL    HW132069   1.297   3.023   3.200
10390SOL    HW232070   1.169   3.125   3.203
10391SOL     OW32071   2.584   6.387   6.530
10391SOL    HW132072   2.558   6.476   6.494
10391SOL    HW232073   2.552   6.315   6.467
10392SOL     OW32074   6.478   5.045   0.904
10392SOL    HW132075   6.443   5.043   0.997
10392SOL    HW232076   6.425   5.110   0.849
10393SOL     OW32077   0.754   1.140   4.119
10393SOL    HW132078   0.780   1.050   4.083
10393SOL    HW232079   0.835   1.183   4.161
10394SOL     OW32080   2.342   6.342   0.016
10394SOL    HW132081   2.382   6.252   7.026
10394SOL    HW232082   2.251   6.331   0.056
10395SOL     OW32083   0.366   0.901   4.976
10395SOL    HW132084   0.271   0.871   4.983
10395SOL    HW232085   0.421   0.831   4.931
10396SOL     OW32086   1.090   6.850   4.820
10396SOL    HW132087   1.012   6.824   4.765
10396SOL    HW232088   1.082   6.809   4.911
10397SOL     OW32089   3.606   1.522   3.272
10397SOL    HW132090   3.684   1.558   3.323
10397SOL    HW232091   3.639   1.468   3.194
10398SOL     OW32092   6.159   2.609   2.152
10398SOL    HW132093   6.240   2.616   2.210
10398SOL    HW232094   6.116   2.698   2.144
10399SOL     OW32095   5.483   2.611   5.095
10399SOL    HW132096   5.437   2.663   5.167
10399SOL    HW232097   5.415   2.571   5.034
10400SOL     OW32098   2.710   5.684   2.312
10400SOL    HW132099   2.741   5.693   2.407
10400SOL    HW232100   2.677   5.773   2.279
10401SOL     OW32101   0.930   5.780   1.998
10401SOL    HW132102   0.948   5.688   2.035
10401SOL    HW232103   0.953   5.848   2.067
10402SOL     OW32104   0.724   3.257   4.521
10402SOL    HW132105   0.679   3.191   4.461
10402SOL    HW232106   0.703   3.350   4.490
10403SOL     OW32107   5.717   1.027   2.038
10403SOL    HW132108   5.689   1.091   1.966
10403SOL    HW232109   5.719   0.934   2.000
10404SOL     OW32110   0.555   6.580   3.904
10404SOL    HW132111   0.562   6.600   4.002
10404SOL    HW232112   0.575   6.662   3.851
10405SOL     OW32113   1.746   6.383   5.791
10405SOL    HW132114   1.721   6.343   5.703
10405SOL    HW232115   1.757   6.309   5.859
10406SOL     OW32116   2.356   4.276   5.961
10406SOL    HW132117   2.448   4.291   5.998
10406SOL    HW232118   2.363   4.230   5.872
10407SOL     OW32119   0.759   2.330   7.021
10407SOL    HW132120   0.712   2.378   0.068
10407SOL    HW232121   0.776   2.236   0.019
10408SOL     OW32122   4.891   5.452   3.011
10408SOL    HW132123   4.800   5.426   2.979
10408SOL    HW232124   4.886   5.479   3.107
10409SOL     OW32125   0.130   4.575   2.242
10409SOL    HW132126   0.056   4.574   2.308
10409SOL    HW232127   0.217   4.557   2.288
10410SOL     OW32128   4.812   0.420   0.929
10410SOL    HW132129   4.879   0.472   0.981
10410SOL    HW232130   4.781   0.473   0.851
10411SOL     OW32131   2.111   4.509   3.041
10411SOL    HW132132   2.137   4.601   3.072
10411SOL    HW232133   2.185   4.471   2.985
10412SOL     OW32134   0.905   2.055   0.638
10412SOL    HW132135   0.895   2.005   0.724
10412SOL    HW232136   0.986   2.023   0.590
10413SOL     OW32137   6.872   2.526   0.052
10413SOL    HW132138   6.929   2.444   0.060
10413SOL    HW232139   6.930   2.605   0.037
10414SOL     OW32140   5.787   6.539   5.905
10414SOL    HW132141   5.837   6.510   5.986
10414SOL    HW232142   5.848   6.595   5.847
10415SOL     OW32143   0.675   6.000   3.731
10415SOL    HW132144   0.720   5.918   3.767
10415SOL    HW232145   0.729   6.038   3.656
10416SOL     OW32146   6.050   1.323   5.171
10416SOL    HW132147   5.992   1.291   5.246
10416SOL    HW232148   6.143   1.290   5.184
10417SOL     OW32149   4.012   4.859   4.111
10417SOL    HW132150   4.100   4.820   4.082
10417SOL    HW232151   4.027   4.925   4.185
10418SOL     OW32152   6.235   3.903   6.919
10418SOL    HW132153   6.294   3.823   6.933
10418SOL    HW232154   6.292   3.985   6.918
10419SOL     OW32155   3.251   1.100   4.391
10419SOL    HW132156   3.278   1.176   4.333
10419SOL    HW232157   3.277   1.119   4.486
10420SOL     OW32158   6.902   3.775   3.433
10420SOL    HW132159   6.860   3.858   3.397
10420SOL    HW232160   6.997   3.794   3.457
10421SOL     OW32161   1.194   4.370   4.463
10421SOL    HW132162   1.165   4.324   4.547
10421SOL    HW232163   1.182   4.469   4.474
10422SOL     OW32164   6.452   3.699   4.970
10422SOL    HW132165   6.467   3.600   4.966
10422SOL    HW232166   6.539   3.746   4.960
10423SOL     OW32167   3.277   5.014   3.941
10423SOL    HW132168   3.334   4.934   3.921
10423SOL    HW232169   3.197   4.986   3.993
10424SOL     OW32170   3.508   1.041   0.574
10424SOL    HW132171   3.574   0.967   0.591
10424SOL    HW232172   3.426   1.003   0.532
10425SOL     OW32173   2.004   1.559   1.007
10425SOL    HW132174   1.948   1.529   1.084
10425SOL    HW232175   1.947   1.568   0.926
10426SOL     OW32176   6.040   2.218   5.990
10426SOL    HW132177   6.124   2.272   5.986
10426SOL    HW232178   6.061   2.122   5.972
10427SOL     OW32179   5.581   7.021   4.097
10427SOL    HW132180   5.558   0.019   4.191
10427SOL    HW232181   5.663   6.963   4.097
10428SOL     OW32182   2.378   0.529   4.127
10428SOL    HW132183   2.294   0.558   4.174
10428SOL    HW232184   2.355   0.496   4.035
10429SOL     OW32185   0.717   2.695   2.048
10429SOL    HW132186   0.678   2.638   1.976
10429SOL    HW232187   0.813   2.713   2.028
10430SOL     OW32188   3.136   0.220   3.326
10430SOL    HW132189   3.146   0.207   3.425
10430SOL    HW232190   3.180   0.145   3.278
10431SOL     OW32191   3.510   0.258   3.094
10431SOL    HW132192   3.560   0.204   3.162
10431SOL    HW232193   3.503   0.353   3.126
10432SOL     OW32194   0.959   5.404   5.775
10432SOL    HW132195   0.994   5.418   5.867
10432SOL    HW232196   1.030   5.428   5.708
10433SOL     OW32197   2.642   0.067   2.819
10433SOL    HW132198   2.683   7.004   2.814
10433SOL    HW232199   2.542   0.059   2.810
10434SOL     OW32200   4.535   6.870   5.708
10434SOL    HW132201   4.526   6.967   5.730
10434SOL    HW232202   4.444   6.828   5.705
10435SOL     OW32203   2.293   1.960   6.981
10435SOL    HW132204   2.374   1.942   0.009
10435SOL    HW232205   2.321   1.978   6.887
10436SOL     OW32206   6.163   3.453   5.153
10436SOL    HW132207   6.194   3.518   5.223
10436SOL    HW232208   6.106   3.383   5.195
10437SOL     OW32209   5.482   6.375   4.828
10437SOL    HW132210   5.500   6.449   4.893
10437SOL    HW232211   5.387   6.379   4.798
10438SOL     OW32212   6.929   6.340   6.838
10438SOL    HW132213   6.950   6.249   6.803
10438SOL    HW232214   6.883   6.393   6.767
10439SOL     OW32215   6.763   6.346   5.153
10439SOL    HW132216   6.747   6.392   5.240
10439SOL    HW232217   6.836   6.393   5.103
10440SOL     OW32218   0.033   2.540   0.343
10440SOL    HW132219   0.040   2.569   0.438
10440SOL    HW232220   6.965   2.530   0.318
10441SOL     OW32221   3.932   1.829   0.481
10441SOL    HW132222   3.938   1.820   0.382
10441SOL    HW232223   3.929   1.739   0.523
10442SOL     OW32224   2.184   1.643   6.023
10442SOL    HW132225   2.141   1.733   6.030
10442SOL    HW232226   2.278   1.649   6.057
10443SOL     OW32227   0.357   1.501   3.176
10443SOL    HW132228   0.445   1.461   3.155
10443SOL    HW232229   0.364   1.556   3.260
10444SOL     OW32230   4.061   6.061   4.183
10444SOL    HW132231   3.996   6.130   4.216
10444SOL    HW232232   4.022   6.014   4.104
10445SOL     OW32233   1.298   4.053   2.949
10445SOL    HW132234   1.385   4.007   2.967
10445SOL    HW232235   1.279   4.051   2.851
10446SOL     OW32236   1.725   4.214   5.490
10446SOL    HW132237   1.732   4.312   5.511
10446SOL    HW232238   1.630   4.185   5.501
10447SOL     OW32239   0.236   2.071   3.073
10447SOL    HW132240   0.282   2.053   2.985
10447SOL    HW232241   0.302   2.061   3.147
10448SOL     OW32242   2.805   6.413   2.953
10448SOL    HW132243   2.753   6.416   2.868
10448SOL    HW232244   2.748   6.443   3.029
10449SOL     OW32245   3.935   5.341   4.723
10449SOL    HW132246   4.005   5.288   4.675
10449SOL    HW232247   3.978   5.395   4.795
10450SOL     OW32248   6.975   0.834   6.087
10450SOL    HW132249   6.894   0.778   6.103
10450SOL    HW232250   6.946   0.924   6.052
10451SOL     OW32251   2.996   0.839   3.437
10451SOL    HW132252   2.993   0.838   3.537
10451SOL    HW232253   2.949   0.758   3.402
10452SOL     OW32254   0.165   3.630   4.310
10452SOL    HW132255   0.184   3.565   4.384
10452SOL    HW232256   0.183   3.723   4.342
10453SOL     OW32257   3.828   5.965   3.443
10453SOL    HW132258   3.894   6.025   3.488
10453SOL    HW232259   3.814   5.883   3.498
10454SOL     OW32260   6.630   0.857   6.118
10454SOL    HW132261   6.682   0.942   6.119
10454SOL    HW232262   6.534   0.875   6.137
10455SOL     OW32263   6.315   5.968   3.618
10455SOL    HW132264   6.381   5.894   3.633
10455SOL    HW232265   6.363   6.049   3.584
10456SOL     OW32266   1.056   5.171   6.881
10456SOL    HW132267   1.147   5.152   6.917
10456SOL    HW232268   1.015   5.087   6.846
10457SOL     OW32269   3.352   2.384   6.541
10457SOL    HW132270   3.439   2.395   6.589
10457SOL    HW232271   3.299   2.311   6.584
10458SOL     OW32272   6.880   5.891   6.431
10458SOL    HW132273   6.813   5.817   6.422
10458SOL    HW232274   6.839   5.966   6.484
10459SOL     OW32275   0.007   5.158   0.385
10459SOL    HW132276   0.038   5.233   0.327
10459SOL    HW232277   6.955   5.188   0.439
10460SOL     OW32278   0.692   2.194   0.506
10460SOL    HW132279   0.671   2.153   0.417
10460SOL    HW232280   0.786   2.171   0.532
10461SOL     OW32281   6.708   5.142   5.853
10461SOL    HW132282   6.784   5.094   5.810
10461SOL    HW232283   6.622   5.106   5.818
10462SOL     OW32284   4.224   2.050   0.887
10462SOL    HW132285   4.193   2.004   0.805
10462SOL    HW232286   4.241   2.147   0.867
10463SOL     OW32287   4.675   2.898   6.113
10463SOL    HW132288   4.629   2.986   6.104
10463SOL    HW232289   4.614   2.825   6.082
10464SOL     OW32290   6.477   4.945   2.101
10464SOL    HW132291   6.402   4.952   2.166
10464SOL    HW232292   6.443   4.908   2.014
10465SOL     OW32293   5.173   4.452   1.669
10465SOL    HW132294   5.104   4.399   1.718
10465SOL    HW232295   5.142   4.467   1.575
10466SOL     OW32296   5.970   5.133   6.805
10466SOL    HW132297   5.965   5.119   6.904
10466SOL    HW232298   5.878   5.150   6.769
10467SOL     OW32299   1.347   2.529   0.040
10467SOL    HW132300   1.256   2.566   0.060
10467SOL    HW232301   1.416   2.587   0.083
10468SOL     OW32302   2.853   4.735   3.496
10468SOL    HW132303   2.802   4.710   3.413
10468SOL    HW232304   2.947   4.759   3.471
10469SOL     OW32305   6.856   1.386   4.421
10469SOL    HW132306   6.913   1.408   4.343
10469SOL    HW232307   6.764   1.424   4.408
10470SOL     OW32308   2.345   2.808   3.365
10470SOL    HW132309   2.391   2.741   3.306
10470SOL    HW232310   2.390   2.810   3.454
10471SOL     OW32311   3.426   6.934   6.819
10471SOL    HW132312   3.341   6.902   6.860
10471SOL    HW232313   3.501   6.920   6.882
10472SOL     OW32314   3.601   5.145   6.084
10472SOL    HW132315   3.535   5.220   6.083
10472SOL    HW232316   3.589   5.091   6.168
10473SOL     OW32317   4.855   5.532   0.266
10473SOL    HW132318   4.920   5.592   0.218
10473SOL    HW232319   4.890   5.439   0.267
10474SOL     OW32320   4.938   1.004   4.181
10474SOL    HW132321   4.966   0.936   4.113
10474SOL    HW232322   4.908   0.957   4.265
10475SOL     OW32323   1.372   6.924   1.221
10475SOL    HW132324   1.288   6.968   1.254
10475SOL    HW232325   1.436   6.914   1.297
10476SOL     OW32326   3.607   5.629   6.669
10476SOL    HW132327   3.520   5.580   6.659
10476SOL    HW232328   3.628   5.676   6.583
10477SOL     OW32329   6.502   5.764   3.667
10477SOL    HW132330   6.529   5.732   3.576
10477SOL    HW232331   6.468   5.686   3.720
10478SOL     OW32332   5.607   0.877   0.228
10478SOL    HW132333   5.561   0.799   0.271
10478SOL    HW232334   5.701   0.881   0.260
10479SOL     OW32335   1.053   2.455   1.973
10479SOL    HW132336   1.134   2.417   2.017
10479SOL    HW232337   0.977   2.390   1.978
10480SOL     OW32338   2.266   0.084   2.550
10480SOL    HW132339   2.195   0.152   2.532
10480SOL    HW232340   2.327   0.118   2.622
10481SOL     OW32341   0.169   1.505   2.363
10481SOL    HW132342   0.106   1.564   2.413
10481SOL    HW232343   0.185   1.421   2.415
10482SOL     OW32344   5.138   3.969   4.255
10482SOL    HW132345   5.139   3.934   4.349
10482SOL    HW232346   5.052   4.018   4.239
10483SOL     OW32347   6.158   5.949   0.011
10483SOL    HW132348   6.106   5.875   0.054
10483SOL    HW232349   6.170   6.023   0.077
10484SOL     OW32350   6.193   0.793   2.150
10484SOL    HW132351   6.223   0.853   2.075
10484SOL    HW232352   6.095   0.804   2.164
10485SOL     OW32353   5.773   3.619   5.511
10485SOL    HW132354   5.708   3.564   5.459
10485SOL    HW232355   5.726   3.663   5.588
10486SOL     OW32356   5.370   2.722   1.772
10486SOL    HW132357   5.445   2.728   1.706
10486SOL    HW232358   5.308   2.798   1.759
10487SOL     OW32359   6.050   6.729   1.842
10487SOL    HW132360   6.108   6.649   1.827
10487SOL    HW232361   6.091   6.809   1.798
10488SOL     OW32362   2.502   2.367   6.294
10488SOL    HW132363   2.477   2.279   6.335
10488SOL    HW232364   2.584   2.355   6.238
10489SOL     OW32365   0.652   5.654   6.225
10489SOL    HW132366   0.729   5.686   6.169
10489SOL    HW232367   0.635   5.557   6.206
10490SOL     OW32368   6.807   1.312   3.599
10490SOL    HW132369   6.868   1.267   3.535
10490SOL    HW232370   6.787   1.405   3.566
10491SOL     OW32371   1.636   4.532   5.888
10491SOL    HW132372   1.688   4.448   5.900
10491SOL    HW232373   1.546   4.523   5.931
10492SOL     OW32374   5.290   3.566   5.140
10492SOL    HW132375   5.287   3.468   5.160
10492SOL    HW232376   5.208   3.609   5.176
10493SOL     OW32377   3.074   1.289   1.825
10493SOL    HW132378   3.049   1.384   1.808
10493SOL    HW232379   3.173   1.278   1.811
10494SOL     OW32380   6.096   2.269   4.508
10494SOL    HW132381   6.176   2.328   4.510
10494SOL    HW232382   6.050   2.271   4.597
10495SOL     OW32383   1.316   6.397   0.690
10495SOL    HW132384   1.343   6.312   0.736
10495SOL    HW232385   1.362   6.403   0.602
10496SOL     OW32386   0.154   0.185   6.184
10496SOL    HW132387   0.198   0.107   6.229
10496SOL    HW232388   0.056   0.184   6.205
10497SOL     OW32389   1.471   1.058   1.094
10497SOL    HW132390   1.443   0.962   1.090
10497SOL    HW232391   1.528   1.072   1.175
10498SOL     OW32392   2.297   6.569   6.116
10498SOL    HW132393   2.388   6.599   6.087
10498SOL    HW232394   2.230   6.594   6.046
10499SOL     OW32395   3.284   5.872   3.334
10499SOL    HW132396   3.190   5.840   3.320
10499SOL    HW232397   3.346   5.794   3.334
10500SOL     OW32398   1.403   1.809   6.034
10500SOL    HW132399   1.397   1.903   5.999
10500SOL    HW232400   1.376   1.809   6.131
10501SOL     OW32401   1.446   3.772   2.774
10501SOL    HW132402   1.518   3.807   2.714
10501SOL    HW232403   1.457   3.673   2.784
10502SOL     OW32404   3.245   6.292   6.580
10502SOL    HW132405   3.329   6.286   6.527
10502SOL    HW232406   3.242   6.219   6.647
10503SOL     OW32407   3.156   2.679   6.919
10503SOL    HW132408   3.230   2.743   6.899
10503SOL    HW232409   3.188   2.585   6.905
10504SOL     OW32410   2.755   3.724   0.892
10504SOL    HW132411   2.704   3.783   0.830
10504SOL    HW232412   2.771   3.772   0.978
10505SOL     OW32413   6.770   5.961   1.636
10505SOL    HW132414   6.805   5.929   1.548
10505SOL    HW232415   6.735   6.054   1.626
10506SOL     OW32416   0.474   4.016   6.002
10506SOL    HW132417   0.426   4.083   6.058
10506SOL    HW232418   0.495   3.936   6.058
10507SOL     OW32419   1.008   0.325   5.917
10507SOL    HW132420   0.984   0.251   5.979
10507SOL    HW232421   1.069   0.291   5.846
10508SOL     OW32422   5.454   4.379   3.023
10508SOL    HW132423   5.391   4.455   3.033
10508SOL    HW232424   5.468   4.359   2.926
10509SOL     OW32425   1.507   6.644   6.748
10509SOL    HW132426   1.575   6.642   6.822
10509SOL    HW232427   1.464   6.734   6.746
10510SOL     OW32428   6.217   5.599   0.198
10510SOL    HW132429   6.159   5.523   0.224
10510SOL    HW232430   6.197   5.626   0.104
10511SOL     OW32431   4.230   2.918   0.631
10511SOL    HW132432   4.157   2.896   0.566
10511SOL    HW232433   4.294   2.981   0.589
10512SOL     OW32434   4.199   6.942   5.601
10512SOL    HW132435   4.221   6.850   5.634
10512SOL    HW232436   4.110   6.970   5.637
10513SOL     OW32437   0.716   2.578   6.808
10513SOL    HW132438   0.707   2.635   6.889
10513SOL    HW232439   0.758   2.491   6.832
10514SOL     OW32440   0.403   4.690   0.413
10514SOL    HW132441   0.453   4.669   0.329
10514SOL    HW232442   0.386   4.605   0.463
10515SOL     OW32443   6.968   2.118   3.476
10515SOL    HW132444   7.004   2.037   3.523
10515SOL    HW232445   6.868   2.117   3.482
10516SOL     OW32446   4.105   1.015   5.876
10516SOL    HW132447   4.164   1.064   5.812
10516SOL    HW232448   4.153   0.934   5.910
10517SOL     OW32449   6.562   1.307   2.159
10517SOL    HW132450   6.490   1.239   2.173
10517SOL    HW232451   6.651   1.267   2.179
10518SOL     OW32452   0.509   6.522   1.059
10518SOL    HW132453   0.491   6.425   1.073
10518SOL    HW232454   0.602   6.544   1.087
10519SOL     OW32455   3.396   3.281   5.851
10519SOL    HW132456   3.319   3.308   5.794
10519SOL    HW232457   3.430   3.361   5.901
10520SOL     OW32458   3.612   2.608   0.076
10520SOL    HW132459   3.622   2.665   0.158
10520SOL    HW232460   3.657   2.652   7.026
10521SOL     OW32461   6.653   5.669   1.244
10521SOL    HW132462   6.726   5.696   1.181
10521SOL    HW232463   6.588   5.611   1.196
10522SOL     OW32464   6.671   0.605   0.982
10522SOL    HW132465   6.695   0.696   1.016
10522SOL    HW232466   6.626   0.613   0.893
10523SOL     OW32467   0.491   5.577   5.914
10523SOL    HW132468   0.497   5.517   5.994
10523SOL    HW232469   0.584   5.595   5.880
10524SOL     OW32470   2.620   0.572   4.269
10524SOL    HW132471   2.540   0.552   4.213
10524SOL    HW232472   2.593   0.627   4.348
10525SOL     OW32473   1.980   6.299   4.985
10525SOL    HW132474   2.059   6.261   5.032
10525SOL    HW232475   1.986   6.399   4.984
10526SOL     OW32476   0.081   0.941   2.419
10526SOL    HW132477   7.023   0.890   2.428
10526SOL    HW232478   0.087   1.008   2.493
10527SOL     OW32479   0.786   2.882   4.592
10527SOL    HW132480   0.705   2.844   4.547
10527SOL    HW232481   0.757   2.938   4.669
10528SOL     OW32482   0.155   4.758   5.303
10528SOL    HW132483   0.075   4.715   5.345
10528SOL    HW232484   0.151   4.747   5.204
10529SOL     OW32485   6.544   0.302   3.888
10529SOL    HW132486   6.548   0.266   3.982
10529SOL    HW232487   6.482   0.245   3.834
10530SOL     OW32488   2.797   2.009   6.219
10530SOL    HW132489   2.867   2.046   6.280
10530SOL    HW232490   2.841   1.965   6.141
10531SOL     OW32491   1.927   3.089   4.864
10531SOL    HW132492   1.953   3.049   4.776
10531SOL    HW232493   1.984   3.050   4.936
10532SOL     OW32494   4.317   2.661   5.893
10532SOL    HW132495   4.297   2.733   5.827
10532SOL    HW232496   4.316   2.572   5.848
10533SOL     OW32497   2.541   1.645   5.853
10533SOL    HW132498   2.575   1.553   5.832
10533SOL    HW232499   2.460   1.664   5.799
10534SOL     OW32500   0.290   5.245   0.566
10534SOL    HW132501   0.216   5.270   0.503
10534SOL    HW232502   0.339   5.165   0.532
10535SOL     OW32503   0.622   1.351   2.270
10535SOL    HW132504   0.610   1.433   2.326
10535SOL    HW232505   0.554   1.283   2.297
10536SOL     OW32506   4.534   0.235   2.498
10536SOL    HW132507   4.577   0.177   2.429
10536SOL    HW232508   4.497   0.178   2.572
10537SOL     OW32509   1.814   5.149   2.081
10537SOL    HW132510   1.845   5.109   1.995
10537SOL    HW232511   1.742   5.092   2.121
10538SOL     OW32512   4.239   4.238   0.032
10538SOL    HW132513   4.231   4.153   0.084
10538SOL    HW232514   4.330   4.277   0.045
10539SOL     OW32515   0.543   3.669   6.599
10539SOL    HW132516   0.447   3.670   6.627
10539SOL    HW232517   0.574   3.574   6.589
10540SOL     OW32518   1.727   0.364   6.611
10540SOL    HW132519   1.645   0.411   6.579
10540SOL    HW232520   1.744   0.283   6.554
10541SOL     OW32521   3.439   3.331   0.177
10541SOL    HW132522   3.423   3.421   0.217
10541SOL    HW232523   3.537   3.318   0.161
10542SOL     OW32524   0.235   2.340   0.352
10542SOL    HW132525   0.167   2.411   0.335
10542SOL    HW232526   0.222   2.302   0.443
10543SOL     OW32527   0.690   1.400   5.589
10543SOL    HW132528   0.590   1.400   5.583
10543SOL    HW232529   0.727   1.446   5.508
10544SOL     OW32530   2.108   2.019   2.252
10544SOL    HW132531   2.082   2.012   2.156
10544SOL    HW232532   2.205   2.001   2.262
10545SOL     OW32533   6.581   0.898   2.617
10545SOL    HW132534   6.678   0.874   2.623
10545SOL    HW232535   6.542   0.905   2.709
10546SOL     OW32536   2.345   0.392   4.453
10546SOL    HW132537   2.427   0.352   4.411
10546SOL    HW232538   2.266   0.332   4.437
10547SOL     OW32539   4.370   1.792   1.225
10547SOL    HW132540   4.371   1.857   1.149
10547SOL    HW232541   4.456   1.741   1.226
10548SOL     OW32542   4.847   3.943   4.659
10548SOL    HW132543   4.785   3.892   4.599
10548SOL    HW232544   4.881   4.024   4.612
10549SOL     OW32545   0.952   1.012   1.847
10549SOL    HW132546   0.979   1.046   1.757
10549SOL    HW232547   0.930   1.089   1.907
10550SOL     OW32548   5.683   0.231   3.990
10550SOL    HW132549   5.605   0.294   3.991
10550SOL    HW232550   5.651   0.138   4.012
10551SOL     OW32551   1.294   2.062   6.035
10551SOL    HW132552   1.221   1.994   6.043
10551SOL    HW232553   1.268   2.145   6.085
10552SOL     OW32554   3.284   2.316   5.485
10552SOL    HW132555   3.373   2.269   5.483
10552SOL    HW232556   3.251   2.330   5.392
10553SOL     OW32557   1.042   5.599   0.228
10553SOL    HW132558   1.058   5.543   0.309
10553SOL    HW232559   1.094   5.685   0.236
10554SOL     OW32560   6.747   4.902   0.051
10554SOL    HW132561   6.691   4.981   0.077
10554SOL    HW232562   6.694   4.819   0.064
10555SOL     OW32563   3.888   1.375   1.988
10555SOL    HW132564   3.937   1.460   2.011
10555SOL    HW232565   3.807   1.397   1.934
10556SOL     OW32566   1.979   3.298   5.274
10556SOL    HW132567   1.933   3.312   5.362
10556SOL    HW232568   2.056   3.235   5.286
10557SOL     OW32569   6.759   2.986   3.048
10557SOL    HW132570   6.731   2.964   3.142
10557SOL    HW232571   6.736   2.909   2.988
10558SOL     OW32572   4.686   6.036   5.359
10558SOL    HW132573   4.587   6.037   5.349
10558SOL    HW232574   4.711   6.080   5.445
10559SOL     OW32575   4.866   2.130   0.701
10559SOL    HW132576   4.824   2.145   0.611
10559SOL    HW232577   4.817   2.183   0.770
10560SOL     OW32578   1.040   3.748   4.713
10560SOL    HW132579   1.085   3.680   4.655
10560SOL    HW232580   1.059   3.840   4.678
10561SOL     OW32581   2.129   4.348   6.788
10561SOL    HW132582   2.042   4.373   6.745
10561SOL    HW232583   2.127   4.373   6.884
10562SOL     OW32584   4.219   1.254   0.803
10562SOL    HW132585   4.286   1.263   0.877
10562SOL    HW232586   4.243   1.176   0.745
10563SOL     OW32587   1.643   2.030   5.577
10563SOL    HW132588   1.684   1.979   5.653
10563SOL    HW232589   1.709   2.035   5.501
10564SOL     OW32590   5.727   1.261   1.884
10564SOL    HW132591   5.793   1.247   1.810
10564SOL    HW232592   5.774   1.299   1.964
10565SOL     OW32593   6.167   1.429   4.833
10565SOL    HW132594   6.106   1.486   4.778
10565SOL    HW232595   6.225   1.487   4.890
10566SOL     OW32596   3.848   3.871   6.212
10566SOL    HW132597   3.854   3.909   6.119
10566SOL    HW232598   3.756   3.837   6.228
10567SOL     OW32599   1.616   3.752   4.168
10567SOL    HW132600   1.685   3.731   4.237
10567SOL    HW232601   1.534   3.699   4.186
10568SOL     OW32602   5.014   1.233   2.751
10568SOL    HW132603   5.036   1.141   2.784
10568SOL    HW232604   4.953   1.278   2.817
10569SOL     OW32605   5.568   2.739   4.276
10569SOL    HW132606   5.478   2.697   4.274
10569SOL    HW232607   5.560   2.833   4.309
10570SOL     OW32608   2.027   4.758   2.599
10570SOL    HW132609   2.072   4.673   2.628
10570SOL    HW232610   2.006   4.754   2.502
10571SOL     OW32611   6.545   6.106   2.945
10571SOL    HW132612   6.645   6.100   2.948
10571SOL    HW232613   6.508   6.028   2.895
10572SOL     OW32614   5.450   3.341   2.339
10572SOL    HW132615   5.515   3.348   2.263
10572SOL    HW232616   5.495   3.369   2.424
10573SOL     OW32617   6.104   5.335   4.887
10573SOL    HW132618   6.053   5.417   4.915
10573SOL    HW232619   6.133   5.285   4.968
10574SOL     OW32620   0.140   1.540   3.613
10574SOL    HW132621   0.103   1.514   3.523
10574SOL    HW232622   0.215   1.604   3.600
10575SOL     OW32623   1.057   0.278   5.151
10575SOL    HW132624   1.005   0.197   5.178
10575SOL    HW232625   1.035   0.302   5.056
10576SOL     OW32626   1.854   5.615   4.626
10576SOL    HW132627   1.776   5.671   4.599
10576SOL    HW232628   1.926   5.622   4.556
10577SOL     OW32629   1.845   3.457   6.052
10577SOL    HW132630   1.756   3.497   6.070
10577SOL    HW232631   1.902   3.522   6.001
10578SOL     OW32632   5.833   0.169   5.359
10578SOL    HW132633   5.833   0.083   5.409
10578SOL    HW232634   5.769   0.233   5.403
10579SOL     OW32635   4.586   1.709   0.435
10579SOL    HW132636   4.631   1.712   0.524
10579SOL    HW232637   4.586   1.801   0.395
10580SOL     OW32638   6.941   6.353   0.097
10580SOL    HW132639   6.972   6.359   0.002
10580SOL    HW232640   6.905   6.261   0.114
10581SOL     OW32641   5.697   0.389   3.309
10581SOL    HW132642   5.769   0.407   3.377
10581SOL    HW232643   5.648   0.306   3.334
10582SOL     OW32644   3.934   4.957   6.726
10582SOL    HW132645   3.856   4.895   6.718
10582SOL    HW232646   3.958   4.967   6.823
10583SOL     OW32647   3.950   1.149   0.004
10583SOL    HW132648   4.038   1.184   6.998
10583SOL    HW232649   3.940   1.053   7.004
10584SOL     OW32650   5.716   6.842   1.145
10584SOL    HW132651   5.646   6.913   1.142
10584SOL    HW232652   5.737   6.820   1.240
10585SOL     OW32653   0.576   3.152   6.570
10585SOL    HW132654   0.568   3.157   6.669
10585SOL    HW232655   0.486   3.142   6.528
10586SOL     OW32656   2.589   5.899   5.705
10586SOL    HW132657   2.582   5.822   5.642
10586SOL    HW232658   2.666   5.884   5.767
10587SOL     OW32659   5.917   3.439   0.862
10587SOL    HW132660   5.926   3.358   0.920
10587SOL    HW232661   5.895   3.411   0.768
10588SOL     OW32662   0.988   4.915   3.229
10588SOL    HW132663   0.995   4.827   3.184
10588SOL    HW232664   1.061   4.925   3.296
10589SOL     OW32665   5.703   1.946   4.081
10589SOL    HW132666   5.750   1.989   4.003
10589SOL    HW232667   5.605   1.963   4.074
10590SOL     OW32668   1.184   0.223   3.550
10590SOL    HW132669   1.222   0.291   3.613
10590SOL    HW232670   1.235   0.224   3.465
10591SOL     OW32671   1.033   1.923   6.643
10591SOL    HW132672   0.983   1.887   6.564
10591SOL    HW232673   0.970   1.935   6.719
10592SOL     OW32674   6.144   1.431   0.349
10592SOL    HW132675   6.236   1.466   0.330
10592SOL    HW232676   6.112   1.466   0.437
10593SOL     OW32677   1.939   5.569   1.559
10593SOL    HW132678   1.943   5.594   1.656
10593SOL    HW232679   2.001   5.627   1.507
10594SOL     OW32680   6.369   1.871   4.162
10594SOL    HW132681   6.424   1.808   4.108
10594SOL    HW232682   6.272   1.854   4.146
10595SOL     OW32683   3.821   6.563   6.315
10595SOL    HW132684   3.840   6.508   6.397
10595SOL    HW232685   3.803   6.657   6.343
10596SOL     OW32686   4.014   6.745   2.235
10596SOL    HW132687   4.033   6.838   2.265
10596SOL    HW232688   3.939   6.745   2.169
10597SOL     OW32689   1.652   1.036   4.772
10597SOL    HW132690   1.588   1.071   4.840
10597SOL    HW232691   1.665   1.104   4.700
10598SOL     OW32692   2.059   2.331   6.677
10598SOL    HW132693   2.032   2.239   6.706
10598SOL    HW232694   1.988   2.397   6.703
10599SOL     OW32695   5.976   1.316   6.796
10599SOL    HW132696   5.896   1.288   6.850
10599SOL    HW232697   6.057   1.319   6.855
10600SOL     OW32698   2.084   2.932   5.670
10600SOL    HW132699   2.011   2.864   5.669
10600SOL    HW232700   2.094   2.968   5.763
10601SOL     OW32701   2.880   6.631   6.181
10601SOL    HW132702   2.965   6.629   6.129
10601SOL    HW232703   2.834   6.542   6.172
10602SOL     OW32704   4.653   1.850   1.444
10602SOL    HW132705   4.645   1.778   1.376
10602SOL    HW232706   4.599   1.826   1.525
10603SOL     OW32707   1.975   5.461   3.981
10603SOL    HW132708   1.947   5.492   3.890
10603SOL    HW232709   2.041   5.386   3.973
10604SOL     OW32710   6.585   4.106   4.004
10604SOL    HW132711   6.499   4.105   4.054
10604SOL    HW232712   6.660   4.085   4.067
10605SOL     OW32713   1.159   5.176   6.396
10605SOL    HW132714   1.238   5.236   6.414
10605SOL    HW232715   1.187   5.081   6.402
10606SOL     OW32716   0.660   0.433   1.856
10606SOL    HW132717   0.685   0.387   1.771
10606SOL    HW232718   0.609   0.371   1.915
10607SOL     OW32719   5.122   4.535   6.944
10607SOL    HW132720   5.116   4.441   6.978
10607SOL    HW232721   5.141   4.533   6.846
10608SOL     OW32722   6.011   1.611   3.921
10608SOL    HW132723   6.074   1.537   3.946
10608SOL    HW232724   5.925   1.572   3.889
10609SOL     OW32725   3.840   6.584   0.967
10609SOL    HW132726   3.929   6.567   1.008
10609SOL    HW232727   3.800   6.498   0.936
10610SOL     OW32728   1.221   2.853   5.683
10610SOL    HW132729   1.285   2.887   5.614
10610SOL    HW232730   1.141   2.813   5.638
10611SOL     OW32731   5.781   2.582   5.983
10611SOL    HW132732   5.774   2.493   6.027
10611SOL    HW232733   5.875   2.596   5.951
10612SOL     OW32734   2.434   0.574   6.833
10612SOL    HW132735   2.484   0.655   6.801
10612SOL    HW232736   2.372   0.542   6.762
10613SOL     OW32737   0.433   6.183   5.897
10613SOL    HW132738   0.465   6.258   5.954
10613SOL    HW232739   0.490   6.102   5.912
10614SOL     OW32740   6.548   1.316   4.114
10614SOL    HW132741   6.517   1.222   4.130
10614SOL    HW232742   6.493   1.357   4.041
10615SOL     OW32743   5.029   5.454   5.009
10615SOL    HW132744   4.966   5.403   5.068
10615SOL    HW232745   4.990   5.544   4.988
10616SOL     OW32746   3.197   6.112   6.764
10616SOL    HW132747   3.109   6.065   6.767
10616SOL    HW232748   3.271   6.046   6.774
10617SOL     OW32749   2.358   2.204   0.403
10617SOL    HW132750   2.355   2.104   0.415
10617SOL    HW232751   2.350   2.248   0.493
10618SOL     OW32752   6.219   3.318   0.194
10618SOL    HW132753   6.182   3.228   0.171
10618SOL    HW232754   6.203   3.381   0.117
10619SOL     OW32755   1.104   4.302   4.210
10619SOL    HW132756   1.157   4.324   4.293
10619SOL    HW232757   1.006   4.314   4.229
10620SOL     OW32758   1.509   6.092   4.852
10620SOL    HW132759   1.435   6.159   4.846
10620SOL    HW232760   1.596   6.137   4.834
10621SOL     OW32761   1.659   6.196   0.190
10621SOL    HW132762   1.618   6.193   0.099
10621SOL    HW232763   1.725   6.122   0.200
10622SOL     OW32764   3.851   0.400   1.499
10622SOL    HW132765   3.830   0.399   1.597
10622SOL    HW232766   3.885   0.310   1.471
10623SOL     OW32767   5.784   2.369   3.931
10623SOL    HW132768   5.745   2.460   3.924
10623SOL    HW232769   5.711   2.301   3.935
10624SOL     OW32770   1.530   0.650   4.680
10624SOL    HW132771   1.468   0.721   4.647
10624SOL    HW232772   1.624   0.683   4.677
10625SOL     OW32773   0.801   3.089   0.158
10625SOL    HW132774   0.844   3.132   0.238
10625SOL    HW232775   0.704   3.074   0.177
10626SOL     OW32776   0.816   1.758   2.038
10626SOL    HW132777   0.787   1.784   1.946
10626SOL    HW232778   0.737   1.757   2.099
10627SOL     OW32779   6.619   6.489   3.352
10627SOL    HW132780   6.627   6.393   3.325
10627SOL    HW232781   6.602   6.495   3.450
10628SOL     OW32782   6.036   5.700   5.547
10628SOL    HW132783   5.939   5.680   5.537
10628SOL    HW232784   6.084   5.619   5.581
10629SOL     OW32785   2.507   5.306   5.601
10629SOL    HW132786   2.486   5.242   5.675
10629SOL    HW232787   2.439   5.379   5.601
10630SOL     OW32788   6.100   1.718   3.133
10630SOL    HW132789   6.021   1.707   3.071
10630SOL    HW232790   6.177   1.666   3.097
10631SOL     OW32791   0.827   0.126   3.990
10631SOL    HW132792   0.917   0.157   3.960
10631SOL    HW232793   0.829   0.106   4.088
10632SOL     OW32794   6.801   1.791   4.807
10632SOL    HW132795   6.752   1.741   4.879
10632SOL    HW232796   6.845   1.726   4.746
10633SOL     OW32797   2.589   5.741   1.636
10633SOL    HW132798   2.681   5.749   1.599
10633SOL    HW232799   2.539   5.826   1.619
10634SOL     OW32800   3.701   6.348   0.920
10634SOL    HW132801   3.665   6.349   0.827
10634SOL    HW232802   3.627   6.365   0.985
10635SOL     OW32803   2.463   0.683   1.218
10635SOL    HW132804   2.384   0.640   1.263
10635SOL    HW232805   2.449   0.683   1.119
10636SOL     OW32806   1.009   2.023   1.305
10636SOL    HW132807   1.023   2.001   1.402
10636SOL    HW232808   0.938   2.094   1.297
10637SOL     OW32809   3.259   4.126   4.546
10637SOL    HW132810   3.334   4.158   4.488
10637SOL    HW232811   3.172   4.161   4.510
10638SOL     OW32812   7.003   6.401   4.990
10638SOL    HW132813   6.978   6.469   4.921
10638SOL    HW232814   7.014   6.311   4.947
10639SOL     OW32815   1.821   1.079   5.094
10639SOL    HW132816   1.818   1.137   5.175
10639SOL    HW232817   1.741   1.020   5.092
10640SOL     OW32818   5.009   1.405   0.333
10640SOL    HW132819   4.928   1.399   0.393
10640SOL    HW232820   5.047   1.497   0.337
10641SOL     OW32821   5.914   1.527   0.017
10641SOL    HW132822   5.931   1.434   0.049
10641SOL    HW232823   5.847   1.525   6.971
10642SOL     OW32824   0.380   2.846   1.636
10642SOL    HW132825   0.328   2.908   1.694
10642SOL    HW232826   0.345   2.753   1.647
10643SOL     OW32827   2.586   3.569   5.546
10643SOL    HW132828   2.556   3.512   5.470
10643SOL    HW232829   2.683   3.588   5.538
10644SOL     OW32830   4.588   1.241   3.874
10644SOL    HW132831   4.639   1.173   3.927
10644SOL    HW232832   4.621   1.333   3.897
10645SOL     OW32833   2.478   6.986   4.963
10645SOL    HW132834   2.438   0.040   4.919
10645SOL    HW232835   2.448   6.981   5.058
10646SOL     OW32836   1.234   3.411   6.431
10646SOL    HW132837   1.324   3.429   6.470
10646SOL    HW232838   1.163   3.438   6.497
10647SOL     OW32839   6.780   5.056   0.749
10647SOL    HW132840   6.748   5.123   0.682
10647SOL    HW232841   6.780   4.965   0.707
10648SOL     OW32842   4.581   2.656   6.791
10648SOL    HW132843   4.601   2.708   6.708
10648SOL    HW232844   4.485   2.629   6.791
10649SOL     OW32845   6.924   4.944   5.807
10649SOL    HW132846   7.021   4.970   5.801
10649SOL    HW232847   6.915   4.861   5.860
10650SOL     OW32848   2.861   6.184   3.766
10650SOL    HW132849   2.762   6.185   3.781
10650SOL    HW232850   2.896   6.093   3.784
10651SOL     OW32851   4.671   6.130   6.404
10651SOL    HW132852   4.599   6.184   6.447
10651SOL    HW232853   4.637   6.090   6.319
10652SOL     OW32854   3.854   0.537   6.435
10652SOL    HW132855   3.815   0.540   6.342
10652SOL    HW232856   3.817   0.614   6.488
10653SOL     OW32857   5.303   3.846   4.015
10653SOL    HW132858   5.229   3.874   4.076
10653SOL    HW232859   5.278   3.761   3.968
10654SOL     OW32860   3.956   1.130   0.868
10654SOL    HW132861   4.044   1.169   0.843
10654SOL    HW232862   3.962   1.088   0.958
10655SOL     OW32863   2.985   6.158   1.055
10655SOL    HW132864   3.009   6.254   1.070
10655SOL    HW232865   3.009   6.131   0.962
10656SOL     OW32866   6.499   2.301   6.834
10656SOL    HW132867   6.495   2.346   6.923
10656SOL    HW232868   6.512   2.203   6.846
10657SOL     OW32869   6.215   0.829   1.103
10657SOL    HW132870   6.200   0.781   1.189
10657SOL    HW232871   6.300   0.881   1.108
10658SOL     OW32872   0.145   5.356   4.601
10658SOL    HW132873   0.096   5.271   4.620
10658SOL    HW232874   0.173   5.399   4.687
10659SOL     OW32875   6.046   0.326   0.394
10659SOL    HW132876   6.107   0.289   0.324
10659SOL    HW232877   5.955   0.340   0.356
10660SOL     OW32878   4.552   5.136   5.617
10660SOL    HW132879   4.583   5.184   5.535
10660SOL    HW232880   4.462   5.170   5.643
10661SOL     OW32881   0.510   6.582   2.667
10661SOL    HW132882   0.529   6.498   2.616
10661SOL    HW232883   0.411   6.591   2.680
10662SOL     OW32884   6.089   1.591   0.822
10662SOL    HW132885   6.123   1.501   0.851
10662SOL    HW232886   6.086   1.652   0.901
10663SOL     OW32887   6.792   0.189   0.272
10663SOL    HW132888   6.812   0.224   0.180
10663SOL    HW232889   6.877   0.165   0.318
10664SOL     OW32890   2.154   5.618   0.028
10664SOL    HW132891   2.244   5.659   0.012
10664SOL    HW232892   2.106   5.670   0.099
10665SOL     OW32893   6.504   1.385   0.879
10665SOL    HW132894   6.445   1.304   0.876
10665SOL    HW232895   6.577   1.376   0.811
10666SOL     OW32896   1.854   6.868   7.010
10666SOL    HW132897   1.895   6.953   0.014
10666SOL    HW232898   1.926   6.804   6.983
10667SOL     OW32899   3.181   2.043   5.450
10667SOL    HW132900   3.207   2.136   5.473
10667SOL    HW232901   3.085   2.028   5.477
10668SOL     OW32902   1.530   1.309   6.090
10668SOL    HW132903   1.624   1.340   6.104
10668SOL    HW232904   1.474   1.386   6.058
10669SOL     OW32905   1.327   6.993   6.993
10669SOL    HW132906   1.367   6.922   0.024
10669SOL    HW232907   1.287   0.037   0.022
10670SOL     OW32908   6.058   4.537   5.897
10670SOL    HW132909   6.107   4.599   5.836
10670SOL    HW232910   6.108   4.451   5.905
10671SOL     OW32911   2.161   1.219   3.699
10671SOL    HW132912   2.200   1.311   3.706
10671SOL    HW232913   2.214   1.166   3.633
10672SOL     OW32914   0.020   3.002   1.218
10672SOL    HW132915   6.968   3.031   1.271
10672SOL    HW232916   0.028   2.903   1.220
10673SOL     OW32917   2.745   2.999   5.314
10673SOL    HW132918   2.649   3.017   5.294
10673SOL    HW232919   2.771   2.910   5.277
10674SOL     OW32920   3.567   2.922   1.519
10674SOL    HW132921   3.498   2.937   1.590
10674SOL    HW232922   3.658   2.941   1.556
10675SOL     OW32923   0.141   0.259   5.687
10675SOL    HW132924   0.137   0.231   5.592
10675SOL    HW232925   0.191   0.346   5.695
10676SOL     OW32926   6.365   0.201   6.114
10676SOL    HW132927   6.366   0.297   6.144
10676SOL    HW232928   6.394   0.195   6.019
10677SOL     OW32929   0.457   0.411   1.138
10677SOL    HW132930   0.366   0.373   1.158
10677SOL    HW232931   0.447   0.501   1.097
10678SOL     OW32932   2.430   6.367   2.564
10678SOL    HW132933   2.335   6.338   2.571
10678SOL    HW232934   2.489   6.287   2.555
10679SOL     OW32935   5.519   4.901   4.681
10679SOL    HW132936   5.489   4.854   4.764
10679SOL    HW232937   5.544   4.995   4.703
10680SOL     OW32938   1.458   2.693   2.962
10680SOL    HW132939   1.478   2.790   2.975
10680SOL    HW232940   1.533   2.638   2.999
10681SOL     OW32941   0.096   1.965   6.071
10681SOL    HW132942   0.035   2.027   6.120
10681SOL    HW232943   0.143   1.906   6.136
10682SOL     OW32944   7.000   1.982   3.132
10682SOL    HW132945   0.071   1.993   3.124
10682SOL    HW232946   6.954   2.039   3.064
10683SOL     OW32947   1.958   1.236   4.585
10683SOL    HW132948   1.911   1.266   4.669
10683SOL    HW232949   1.896   1.180   4.531
10684SOL     OW32950   6.123   4.902   0.030
10684SOL    HW132951   6.134   4.811   7.017
10684SOL    HW232952   6.150   4.898   0.127
10685SOL     OW32953   0.175   2.934   2.790
10685SOL    HW132954   0.150   2.882   2.708
10685SOL    HW232955   0.164   2.875   2.871
10686SOL     OW32956   3.248   5.204   0.343
10686SOL    HW132957   3.210   5.295   0.332
10686SOL    HW232958   3.339   5.210   0.382
10687SOL     OW32959   0.210   4.893   3.012
10687SOL    HW132960   0.113   4.908   2.991
10687SOL    HW232961   0.265   4.915   2.931
10688SOL     OW32962   6.388   5.415   2.146
10688SOL    HW132963   6.442   5.498   2.160
10688SOL    HW232964   6.301   5.423   2.196
10689SOL     OW32965   0.645   1.133   2.975
10689SOL    HW132966   0.709   1.131   3.051
10689SOL    HW232967   0.690   1.173   2.894
10690SOL     OW32968   4.470   4.987   1.881
10690SOL    HW132969   4.434   4.920   1.945
10690SOL    HW232970   4.522   5.056   1.931
10691SOL     OW32971   6.950   1.295   1.746
10691SOL    HW132972   6.903   1.316   1.661
10691SOL    HW232973   6.907   1.216   1.790
10692SOL     OW32974   3.549   5.896   3.656
10692SOL    HW132975   3.597   5.861   3.736
10692SOL    HW232976   3.590   5.858   3.573
10693SOL     OW32977   6.718   1.924   1.743
10693SOL    HW132978   6.730   1.973   1.657
10693SOL    HW232979   6.802   1.875   1.766
10694SOL     OW32980   3.525   6.319   0.657
10694SOL    HW132981   3.513   6.409   0.615
10694SOL    HW232982   3.591   6.266   0.604
10695SOL     OW32983   0.039   2.940   3.931
10695SOL    HW132984   0.045   3.019   3.870
10695SOL    HW232985   6.980   2.943   3.980
10696SOL     OW32986   6.649   6.235   1.749
10696SOL    HW132987   6.668   6.239   1.848
10696SOL    HW232988   6.709   6.299   1.701
10697SOL     OW32989   2.469   5.577   3.214
10697SOL    HW132990   2.378   5.587   3.174
10697SOL    HW232991   2.485   5.653   3.278
10698SOL     OW32992   2.850   0.003   3.650
10698SOL    HW132993   2.908   0.028   3.572
10698SOL    HW232994   2.877   0.058   3.729
10699SOL     OW32995   2.517   2.119   2.983
10699SOL    HW132996   2.444   2.129   3.051
10699SOL    HW232997   2.588   2.188   3.001
10700SOL     OW32998   0.087   6.843   1.231
10700SOL    HW132999   0.159   6.856   1.163
10700SOL    HW233000   7.026   6.836   1.186
10701SOL     OW33001   3.040   6.288   0.797
10701SOL    HW133002   3.046   6.243   0.708
10701SOL    HW233003   2.949   6.328   0.808
10702SOL     OW33004   6.389   2.986   1.529
10702SOL    HW133005   6.464   2.921   1.537
10702SOL    HW233006   6.393   3.051   1.604
10703SOL     OW33007   3.927   3.640   3.619
10703SOL    HW133008   3.983   3.592   3.552
10703SOL    HW233009   3.974   3.642   3.707
10704SOL     OW33010   5.129   6.725   1.909
10704SOL    HW133011   5.050   6.669   1.934
10704SOL    HW233012   5.188   6.673   1.847
10705SOL     OW33013   0.130   2.557   6.443
10705SOL    HW133014   0.215   2.555   6.496
10705SOL    HW233015   0.136   2.491   6.369
10706SOL     OW33016   3.487   1.173   1.945
10706SOL    HW133017   3.558   1.158   2.014
10706SOL    HW233018   3.443   1.086   1.923
10707SOL     OW33019   5.932   0.333   6.202
10707SOL    HW133020   6.001   0.261   6.195
10707SOL    HW233021   5.857   0.303   6.262
10708SOL     OW33022   5.185   0.851   1.198
10708SOL    HW133023   5.255   0.912   1.236
10708SOL    HW233024   5.199   0.758   1.234
10709SOL     OW33025   0.159   5.732   6.082
10709SOL    HW133026   0.224   5.733   6.006
10709SOL    HW233027   0.112   5.644   6.084
10710SOL     OW33028   6.337   5.548   3.486
10710SOL    HW133029   6.287   5.485   3.426
10710SOL    HW233030   6.363   5.499   3.570
10711SOL     OW33031   1.537   6.521   4.042
10711SOL    HW133032   1.538   6.427   4.008
10711SOL    HW233033   1.563   6.584   3.969
10712SOL     OW33034   3.868   1.242   4.654
10712SOL    HW133035   3.787   1.298   4.639
10712SOL    HW233036   3.854   1.152   4.613
10713SOL     OW33037   0.887   6.095   1.242
10713SOL    HW133038   0.829   6.135   1.171
10713SOL    HW233039   0.879   5.996   1.240
10714SOL     OW33040   6.993   4.512   5.822
10714SOL    HW133041   0.046   4.552   5.777
10714SOL    HW233042   6.942   4.584   5.868
10715SOL     OW33043   5.988   1.329   4.502
10715SOL    HW133044   6.035   1.337   4.414
10715SOL    HW233045   5.889   1.343   4.488
10716SOL     OW33046   5.967   0.320   3.463
10716SOL    HW133047   6.009   0.314   3.553
10716SOL    HW233048   5.942   0.415   3.444
10717SOL     OW33049   7.022   6.528   1.407
10717SOL    HW133050   7.019   6.558   1.503
10717SOL    HW233051   0.081   6.558   1.366
10718SOL     OW33052   6.898   4.697   6.759
10718SOL    HW133053   6.978   4.756   6.770
10718SOL    HW233054   6.904   4.621   6.824
10719SOL     OW33055   5.085   0.776   2.253
10719SOL    HW133056   5.096   0.873   2.270
10719SOL    HW233057   4.993   0.758   2.218
10720SOL     OW33058   0.580   3.660   6.964
10720SOL    HW133059   0.494   3.698   6.930
10720SOL    HW233060   0.603   3.578   6.912
10721SOL     OW33061   4.602   2.659   4.334
10721SOL    HW133062   4.527   2.600   4.362
10721SOL    HW233063   4.621   2.645   4.237
10722SOL     OW33064   0.353   3.968   0.147
10722SOL    HW133065   0.343   3.899   0.219
10722SOL    HW233066   0.402   4.047   0.184
10723SOL     OW33067   6.462   4.093   0.280
10723SOL    HW133068   6.553   4.052   0.272
10723SOL    HW233069   6.469   4.192   0.269
10724SOL     OW33070   3.376   6.280   5.649
10724SOL    HW133071   3.444   6.210   5.625
10724SOL    HW233072   3.290   6.261   5.601
10725SOL     OW33073   6.722   6.208   4.671
10725SOL    HW133074   6.652   6.269   4.709
10725SOL    HW233075   6.677   6.131   4.625
10726SOL     OW33076   5.513   0.588   4.156
10726SOL    HW133077   5.520   0.678   4.199
10726SOL    HW233078   5.565   0.522   4.210
10727SOL     OW33079   2.377   5.671   6.937
10727SOL    HW133080   2.363   5.753   6.881
10727SOL    HW233081   2.468   5.675   6.979
10728SOL     OW33082   5.172   5.698   3.374
10728SOL    HW133083   5.134   5.769   3.432
10728SOL    HW233084   5.267   5.721   3.349
10729SOL     OW33085   6.102   3.132   4.032
10729SOL    HW133086   6.140   3.107   4.121
10729SOL    HW233087   6.018   3.184   4.046
10730SOL     OW33088   1.758   5.994   3.181
10730SOL    HW133089   1.816   6.008   3.101
10730SOL    HW233090   1.810   5.949   3.253
10731SOL     OW33091   4.858   6.444   6.759
10731SOL    HW133092   4.772   6.479   6.722
10731SOL    HW233093   4.840   6.362   6.813
10732SOL     OW33094   6.143   5.975   3.401
10732SOL    HW133095   6.072   5.905   3.403
10732SOL    HW233096   6.184   5.984   3.491
10733SOL     OW33097   0.379   1.023   6.370
10733SOL    HW133098   0.300   1.084   6.363
10733SOL    HW233099   0.402   0.986   6.280
10734SOL     OW33100   1.127   1.516   5.001
10734SOL    HW133101   1.115   1.566   4.916
10734SOL    HW233102   1.088   1.568   5.077
10735SOL     OW33103   0.638   5.568   1.973
10735SOL    HW133104   0.549   5.546   2.013
10735SOL    HW233105   0.631   5.654   1.922
10736SOL     OW33106   5.830   6.438   3.944
10736SOL    HW133107   5.752   6.453   3.883
10736SOL    HW233108   5.803   6.375   4.017
10737SOL     OW33109   6.375   1.079   2.270
10737SOL    HW133110   6.449   1.017   2.296
10737SOL    HW233111   6.296   1.026   2.238
10738SOL     OW33112   3.522   1.425   1.686
10738SOL    HW133113   3.461   1.463   1.756
10738SOL    HW233114   3.604   1.483   1.680
10739SOL     OW33115   5.835   2.866   3.475
10739SOL    HW133116   5.860   2.793   3.539
10739SOL    HW233117   5.901   2.868   3.400
10740SOL     OW33118   2.069   0.359   5.991
10740SOL    HW133119   2.135   0.329   5.923
10740SOL    HW233120   2.021   0.441   5.958
10741SOL     OW33121   2.484   2.205   3.292
10741SOL    HW133122   2.557   2.149   3.333
10741SOL    HW233123   2.425   2.240   3.365
10742SOL     OW33124   6.221   6.211   2.679
10742SOL    HW133125   6.319   6.191   2.683
10742SOL    HW233126   6.205   6.305   2.709
10743SOL     OW33127   2.919   0.989   5.709
10743SOL    HW133128   2.914   1.089   5.708
10743SOL    HW233129   2.871   0.954   5.789
10744SOL     OW33130   2.248   1.035   0.561
10744SOL    HW133131   2.207   0.956   0.606
10744SOL    HW233132   2.269   1.105   0.629
10745SOL     OW33133   1.402   4.737   2.207
10745SOL    HW133134   1.437   4.647   2.183
10745SOL    HW233135   1.478   4.798   2.228
10746SOL     OW33136   2.157   6.118   6.667
10746SOL    HW133137   2.228   6.172   6.712
10746SOL    HW233138   2.067   6.146   6.700
10747SOL     OW33139   6.265   1.298   4.606
10747SOL    HW133140   6.277   1.205   4.641
10747SOL    HW233141   6.227   1.356   4.678
10748SOL     OW33142   3.817   5.808   1.078
10748SOL    HW133143   3.742   5.840   1.136
10748SOL    HW233144   3.871   5.887   1.047
10749SOL     OW33145   5.571   5.138   1.746
10749SOL    HW133146   5.648   5.202   1.751
10749SOL    HW233147   5.515   5.160   1.666
10750SOL     OW33148   4.752   2.382   4.199
10750SOL    HW133149   4.674   2.429   4.158
10750SOL    HW233150   4.790   2.317   4.134
10751SOL     OW33151   0.409   4.799   5.215
10751SOL    HW133152   0.411   4.833   5.121
10751SOL    HW233153   0.314   4.797   5.248
10752SOL     OW33154   6.639   6.472   0.363
10752SOL    HW133155   6.593   6.485   0.275
10752SOL    HW233156   6.603   6.537   0.430
10753SOL     OW33157   4.916   7.013   4.075
10753SOL    HW133158   4.918   6.968   4.164
10753SOL    HW233159   5.009   7.018   4.039
10754SOL     OW33160   0.958   3.853   2.287
10754SOL    HW133161   0.912   3.893   2.208
10754SOL    HW233162   1.031   3.792   2.256
10755SOL     OW33163   6.773   2.944   1.368
10755SOL    HW133164   6.743   2.928   1.463
10755SOL    HW233165   6.754   2.863   1.313
10756SOL     OW33166   0.819   1.345   0.112
10756SOL    HW133167   0.831   1.408   0.188
10756SOL    HW233168   0.753   1.383   0.047
10757SOL     OW33169   0.077   4.231   2.083
10757SOL    HW133170   0.038   4.322   2.072
10757SOL    HW233171   0.167   4.227   2.038
10758SOL     OW33172   0.558   0.746   6.683
10758SOL    HW133173   0.635   0.687   6.705
10758SOL    HW233174   0.472   0.696   6.697
10759SOL     OW33175   2.918   1.940   5.995
10759SOL    HW133176   2.924   1.841   5.997
10759SOL    HW233177   2.984   1.977   5.930
10760SOL     OW33178   1.314   5.227   0.206
10760SOL    HW133179   1.240   5.160   0.218
10760SOL    HW233180   1.401   5.184   0.231
10761SOL     OW33181   0.411   1.232   5.924
10761SOL    HW133182   0.477   1.166   5.888
10761SOL    HW233183   0.454   1.290   5.993
10762SOL     OW33184   2.983   6.205   6.458
10762SOL    HW133185   2.996   6.166   6.366
10762SOL    HW233186   3.071   6.228   6.498
10763SOL     OW33187   5.057   0.194   3.805
10763SOL    HW133188   5.061   0.251   3.722
10763SOL    HW233189   5.008   0.110   3.784
10764SOL     OW33190   4.452   0.212   4.257
10764SOL    HW133191   4.525   0.258   4.308
10764SOL    HW233192   4.477   0.116   4.242
10765SOL     OW33193   0.201   2.108   2.259
10765SOL    HW133194   0.210   2.091   2.357
10765SOL    HW233195   0.192   2.021   2.210
10766SOL     OW33196   1.527   5.567   6.703
10766SOL    HW133197   1.575   5.480   6.717
10766SOL    HW233198   1.588   5.642   6.729
10767SOL     OW33199   1.472   5.292   0.526
10767SOL    HW133200   1.523   5.365   0.573
10767SOL    HW233201   1.378   5.291   0.561
10768SOL     OW33202   5.223   5.981   0.581
10768SOL    HW133203   5.185   5.905   0.634
10768SOL    HW233204   5.323   5.978   0.586
10769SOL     OW33205   3.654   2.968   4.574
10769SOL    HW133206   3.740   3.018   4.558
10769SOL    HW233207   3.620   2.990   4.666
10770SOL     OW33208   5.555   0.168   3.376
10770SOL    HW133209   5.538   0.160   3.474
10770SOL    HW233210   5.627   0.104   3.349
10771SOL     OW33211   4.739   6.149   5.610
10771SOL    HW133212   4.725   6.247   5.615
10771SOL    HW233213   4.674   6.102   5.670
10772SOL     OW33214   5.404   5.850   2.547
10772SOL    HW133215   5.313   5.889   2.564
10772SOL    HW233216   5.416   5.834   2.449
10773SOL     OW33217   0.105   3.555   1.710
10773SOL    HW133218   0.076   3.467   1.671
10773SOL    HW233219   0.184   3.589   1.660
10774SOL     OW33220   0.938   2.670   0.425
10774SOL    HW133221   0.852   2.653   0.376
10774SOL    HW233222   0.918   2.694   0.520
10775SOL     OW33223   1.305   4.123   0.299
10775SOL    HW133224   1.296   4.034   0.343
10775SOL    HW233225   1.283   4.114   0.202
10776SOL     OW33226   0.916   2.871   3.502
10776SOL    HW133227   0.934   2.854   3.406
10776SOL    HW233228   0.948   2.793   3.557
10777SOL     OW33229   3.354   1.436   1.976
10777SOL    HW133230   3.259   1.443   1.945
10777SOL    HW233231   3.391   1.347   1.950
10778SOL     OW33232   6.477   0.208   3.364
10778SOL    HW133233   6.524   0.229   3.278
10778SOL    HW233234   6.418   0.129   3.350
10779SOL     OW33235   5.315   3.939   4.762
10779SOL    HW133236   5.281   3.871   4.826
10779SOL    HW233237   5.305   3.904   4.668
10780SOL     OW33238   1.849   5.737   5.100
10780SOL    HW133239   1.764   5.784   5.077
10780SOL    HW233240   1.849   5.714   5.198
10781SOL     OW33241   6.252   2.258   5.231
10781SOL    HW133242   6.191   2.189   5.269
10781SOL    HW233243   6.204   2.311   5.161
10782SOL     OW33244   1.162   2.176   5.129
10782SOL    HW133245   1.086   2.196   5.067
10782SOL    HW233246   1.137   2.203   5.222
10783SOL     OW33247   1.177   2.717   3.421
10783SOL    HW133248   1.263   2.668   3.414
10783SOL    HW233249   1.162   2.746   3.515
10784SOL     OW33250   3.547   5.867   2.534
10784SOL    HW133251   3.473   5.894   2.473
10784SOL    HW233252   3.621   5.934   2.528
10785SOL     OW33253   1.693   5.544   2.481
10785SOL    HW133254   1.679   5.485   2.560
10785SOL    HW233255   1.758   5.502   2.418
10786SOL     OW33256   4.268   1.178   2.044
10786SOL    HW133257   4.342   1.214   2.101
10786SOL    HW233258   4.236   1.249   1.982
10787SOL     OW33259   4.317   0.714   3.031
10787SOL    HW133260   4.388   0.698   3.100
10787SOL    HW233261   4.316   0.639   2.965
10788SOL     OW33262   1.312   4.556   0.478
10788SOL    HW133263   1.392   4.608   0.508
10788SOL    HW233264   1.242   4.620   0.446
10789SOL     OW33265   6.361   1.272   1.786
10789SOL    HW133266   6.262   1.287   1.781
10789SOL    HW233267   6.401   1.336   1.852
10790SOL     OW33268   0.693   1.879   5.139
10790SOL    HW133269   0.646   1.883   5.227
10790SOL    HW233270   0.638   1.827   5.074
10791SOL     OW33271   1.105   1.913   3.941
10791SOL    HW133272   1.126   2.007   3.969
10791SOL    HW233273   1.007   1.896   3.952
10792SOL     OW33274   4.036   1.931   2.176
10792SOL    HW133275   3.995   2.000   2.117
10792SOL    HW233276   3.967   1.896   2.240
10793SOL     OW33277   4.396   2.077   4.854
10793SOL    HW133278   4.403   2.046   4.759
10793SOL    HW233279   4.487   2.102   4.887
10794SOL     OW33280   5.156   2.422   0.698
10794SOL    HW133281   5.075   2.478   0.684
10794SOL    HW233282   5.151   2.379   0.789
10795SOL     OW33283   0.358   3.959   3.308
10795SOL    HW133284   0.397   4.046   3.339
10795SOL    HW233285   0.294   3.976   3.233
10796SOL     OW33286   0.252   6.988   6.300
10796SOL    HW133287   0.221   6.926   6.373
10796SOL    HW233288   0.350   7.004   6.308
10797SOL     OW33289   3.995   4.250   6.919
10797SOL    HW133290   4.014   4.290   6.830
10797SOL    HW233291   4.070   4.272   6.982
10798SOL     OW33292   1.779   0.104   0.008
10798SOL    HW133293   1.832   0.167   6.979
10798SOL    HW233294   1.693   0.082   6.989
10799SOL     OW33295   3.286   0.912   2.851
10799SOL    HW133296   3.208   0.851   2.839
10799SOL    HW233297   3.271   0.971   2.930
10800SOL     OW33298   1.877   0.231   5.782
10800SOL    HW133299   1.913   0.143   5.753
10800SOL    HW233300   1.933   0.268   5.856
10801SOL     OW33301   2.542   6.669   6.021
10801SOL    HW133302   2.495   6.697   5.938
10801SOL    HW233303   2.640   6.663   6.005
10802SOL     OW33304   0.748   4.617   4.576
10802SOL    HW133305   0.739   4.637   4.674
10802SOL    HW233306   0.701   4.688   4.523
10803SOL     OW33307   0.404   4.111   4.765
10803SOL    HW133308   0.467   4.034   4.775
10803SOL    HW233309   0.314   4.077   4.735
10804SOL     OW33310   4.956   4.725   1.124
10804SOL    HW133311   4.908   4.813   1.127
10804SOL    HW233312   4.977   4.695   1.217
10805SOL     OW33313   3.744   6.164   0.143
10805SOL    HW133314   3.684   6.142   0.066
10805SOL    HW233315   3.754   6.084   0.202
10806SOL     OW33316   5.838   4.157   6.635
10806SOL    HW133317   5.913   4.108   6.679
10806SOL    HW233318   5.832   4.131   6.539
10807SOL     OW33319   4.734   0.363   3.541
10807SOL    HW133320   4.664   0.315   3.595
10807SOL    HW233321   4.825   0.338   3.575
10808SOL     OW33322   0.031   2.517   6.691
10808SOL    HW133323   0.058   2.557   6.603
10808SOL    HW233324   6.970   2.554   6.718
10809SOL     OW33325   3.537   0.818   2.845
10809SOL    HW133326   3.451   0.868   2.854
10809SOL    HW233327   3.520   0.721   2.861
10810SOL     OW33328   0.611   2.053   6.540
10810SOL    HW133329   0.593   1.956   6.528
10810SOL    HW233330   0.666   2.067   6.623
10811SOL     OW33331   5.084   4.676   5.548
10811SOL    HW133332   5.033   4.722   5.620
10811SOL    HW233333   5.128   4.594   5.586
10812SOL     OW33334   6.626   2.307   3.166
10812SOL    HW133335   6.706   2.329   3.221
10812SOL    HW233336   6.647   2.324   3.069
10813SOL     OW33337   2.348   6.007   2.715
10813SOL    HW133338   2.302   6.033   2.631
10813SOL    HW233339   2.319   5.916   2.743
10814SOL     OW33340   1.806   6.630   5.206
10814SOL    HW133341   1.820   6.604   5.301
10814SOL    HW233342   1.744   6.709   5.202
10815SOL     OW33343   4.740   2.440   2.903
10815SOL    HW133344   4.676   2.476   2.970
10815SOL    HW233345   4.704   2.354   2.865
10816SOL     OW33346   2.002   1.992   2.496
10816SOL    HW133347   2.029   1.964   2.404
10816SOL    HW233348   1.993   1.911   2.554
10817SOL     OW33349   4.949   6.581   2.080
10817SOL    HW133350   4.868   6.580   2.022
10817SOL    HW233351   4.927   6.622   2.168
10818SOL     OW33352   4.903   3.097   0.157
10818SOL    HW133353   4.854   3.157   0.220
10818SOL    HW233354   4.915   3.143   0.069
10819SOL     OW33355   0.450   3.833   6.237
10819SOL    HW133356   0.397   3.749   6.229
10819SOL    HW233357   0.547   3.810   6.249
10820SOL     OW33358   0.081   0.146   4.293
10820SOL    HW133359   0.148   0.208   4.336
10820SOL    HW233360   0.130   0.081   4.234
10821SOL     OW33361   0.304   6.868   0.278
10821SOL    HW133362   0.296   6.769   0.285
10821SOL    HW233363   0.221   6.911   0.315
10822SOL     OW33364   1.283   4.948   0.920
10822SOL    HW133365   1.210   5.016   0.922
10822SOL    HW233366   1.251   4.866   0.871
10823SOL     OW33367   1.479   1.495   1.884
10823SOL    HW133368   1.556   1.483   1.821
10823SOL    HW233369   1.512   1.493   1.978
10824SOL     OW33370   5.675   0.337   2.530
10824SOL    HW133371   5.602   0.301   2.472
10824SOL    HW233372   5.640   0.350   2.623
10825SOL     OW33373   3.510   1.954   1.049
10825SOL    HW133374   3.438   1.899   1.092
10825SOL    HW233375   3.470   2.037   1.011
10826SOL     OW33376   6.922   2.837   1.642
10826SOL    HW133377   6.824   2.820   1.635
10826SOL    HW233378   6.941   2.887   1.726
10827SOL     OW33379   0.893   2.323   4.408
10827SOL    HW133380   0.885   2.416   4.443
10827SOL    HW233381   0.845   2.260   4.469
10828SOL     OW33382   1.212   5.884   0.002
10828SOL    HW133383   1.130   5.827   0.011
10828SOL    HW233384   1.187   5.980   0.018
10829SOL     OW33385   2.608   3.788   1.639
10829SOL    HW133386   2.630   3.738   1.555
10829SOL    HW233387   2.511   3.777   1.660
10830SOL     OW33388   4.842   1.569   3.805
10830SOL    HW133389   4.771   1.571   3.736
10830SOL    HW233390   4.895   1.653   3.801
10831SOL     OW33391   5.138   2.769   3.458
10831SOL    HW133392   5.187   2.702   3.513
10831SOL    HW233393   5.074   2.722   3.397
10832SOL     OW33394   0.056   2.437   1.764
10832SOL    HW133395   0.078   2.339   1.756
10832SOL    HW233396   0.093   2.471   1.851
10833SOL     OW33397   2.865   6.643   4.192
10833SOL    HW133398   2.774   6.678   4.170
10833SOL    HW233399   2.889   6.570   4.128
10834SOL     OW33400   0.319   0.838   5.364
10834SOL    HW133401   0.229   0.881   5.356
10834SOL    HW233402   0.389   0.903   5.334
10835SOL     OW33403   6.951   2.166   2.044
10835SOL    HW133404   0.014   2.156   2.084
10835SOL    HW233405   6.958   2.161   1.944
10836SOL     OW33406   1.571   2.081   0.078
10836SOL    HW133407   1.479   2.116   0.066
10836SOL    HW233408   1.570   2.004   0.142
10837SOL     OW33409   0.423   6.032   1.479
10837SOL    HW133410   0.362   6.082   1.418
10837SOL    HW233411   0.420   5.935   1.458
10838SOL     OW33412   6.389   6.561   1.175
10838SOL    HW133413   6.370   6.648   1.128
10838SOL    HW233414   6.469   6.518   1.135
10839SOL     OW33415   2.254   1.998   0.801
10839SOL    HW133416   2.192   2.069   0.768
10839SOL    HW233417   2.211   1.948   0.876
10840SOL     OW33418   3.746   4.905   2.689
10840SOL    HW133419   3.739   4.856   2.776
10840SOL    HW233420   3.693   4.990   2.694
10841SOL     OW33421   4.638   4.253   5.894
10841SOL    HW133422   4.589   4.323   5.946
10841SOL    HW233423   4.584   4.227   5.814
10842SOL     OW33424   6.609   2.834   1.635
10842SOL    HW133425   6.581   2.853   1.729
10842SOL    HW233426   6.571   2.746   1.606
10843SOL     OW33427   0.293   1.040   1.703
10843SOL    HW133428   0.306   0.999   1.793
10843SOL    HW233429   0.378   1.037   1.651
10844SOL     OW33430   3.390   6.551   3.623
10844SOL    HW133431   3.395   6.489   3.701
10844SOL    HW233432   3.303   6.600   3.625
10845SOL     OW33433   1.552   2.923   0.979
10845SOL    HW133434   1.574   2.907   1.075
10845SOL    HW233435   1.547   3.021   0.961
10846SOL     OW33436   3.440   2.029   1.956
10846SOL    HW133437   3.522   2.063   2.002
10846SOL    HW233438   3.400   2.103   1.902
10847SOL     OW33439   3.803   2.670   5.556
10847SOL    HW133440   3.748   2.715   5.485
10847SOL    HW233441   3.820   2.575   5.530
10848SOL     OW33442   1.811   1.278   0.382
10848SOL    HW133443   1.863   1.344   0.329
10848SOL    HW233444   1.873   1.210   0.420
10849SOL     OW33445   2.364   4.866   4.749
10849SOL    HW133446   2.345   4.829   4.840
10849SOL    HW233447   2.382   4.964   4.757
10850SOL     OW33448   5.747   0.623   1.544
10850SOL    HW133449   5.811   0.699   1.553
10850SOL    HW233450   5.797   0.541   1.517
10851SOL     OW33451   4.272   2.159   6.272
10851SOL    HW133452   4.368   2.137   6.290
10851SOL    HW233453   4.266   2.244   6.220
10852SOL     OW33454   0.406   6.505   6.540
10852SOL    HW133455   0.448   6.527   6.452
10852SOL    HW233456   0.340   6.577   6.564
10853SOL     OW33457   2.073   1.502   4.585
10853SOL    HW133458   2.163   1.502   4.540
10853SOL    HW233459   2.027   1.415   4.567
10854SOL     OW33460   0.629   6.282   0.124
10854SOL    HW133461   0.703   6.220   0.098
10854SOL    HW233462   0.541   6.242   0.097
10855SOL     OW33463   1.471   5.948   1.945
10855SOL    HW133464   1.419   6.000   1.877
10855SOL    HW233465   1.542   5.895   1.899
10856SOL     OW33466   6.110   0.495   6.801
10856SOL    HW133467   6.105   0.445   6.715
10856SOL    HW233468   6.093   0.592   6.784
10857SOL     OW33469   6.318   0.363   4.862
10857SOL    HW133470   6.389   0.378   4.931
10857SOL    HW233471   6.360   0.325   4.779
10858SOL     OW33472   2.112   2.150   0.040
10858SOL    HW133473   2.070   2.177   6.981
10858SOL    HW233474   2.165   2.066   0.027
10859SOL     OW33475   0.924   5.240   2.199
10859SOL    HW133476   0.847   5.280   2.248
10859SOL    HW233477   0.896   5.155   2.154
10860SOL     OW33478   6.072   2.818   0.873
10860SOL    HW133479   6.016   2.792   0.951
10860SOL    HW233480   6.033   2.778   0.790
10861SOL     OW33481   3.371   2.880   2.139
10861SOL    HW133482   3.469   2.902   2.136
10861SOL    HW233483   3.353   2.804   2.077
10862SOL     OW33484   3.679   3.095   5.772
10862SOL    HW133485   3.590   3.107   5.814
10862SOL    HW233486   3.704   2.998   5.772
10863SOL     OW33487   2.420   1.178   3.404
10863SOL    HW133488   2.491   1.116   3.369
10863SOL    HW233489   2.367   1.213   3.327
10864SOL     OW33490   3.115   4.694   1.819
10864SOL    HW133491   3.061   4.615   1.849
10864SOL    HW233492   3.059   4.777   1.825
10865SOL     OW33493   3.869   1.191   2.486
10865SOL    HW133494   3.951   1.243   2.465
10865SOL    HW233495   3.790   1.233   2.441
10866SOL     OW33496   6.952   3.448   3.046
10866SOL    HW133497   0.001   3.508   3.026
10866SOL    HW233498   6.867   3.500   3.045
10867SOL     OW33499   4.189   3.273   0.607
10867SOL    HW133500   4.238   3.349   0.565
10867SOL    HW233501   4.163   3.297   0.700
10868SOL     OW33502   1.590   0.921   5.141
10868SOL    HW133503   1.517   0.984   5.116
10868SOL    HW233504   1.567   0.829   5.109
10869NA      NA33505   7.007   1.954   5.861
10870NA      NA33506   4.568   4.447   5.085
10871NA      NA33507   1.461   4.762   2.997
10872NA      NA33508   6.021   3.905   3.308
10873NA      NA33509   3.673   2.353   5.373
10874NA      NA33510   2.308   5.064   0.379
10875NA      NA33511   1.118   5.406   6.843
10876NA      NA33512   3.725   4.295   1.053
10877NA      NA33513   4.012   5.158   0.504
10878NA      NA33514   3.523   1.201   6.414
10879NA      NA33515   5.550   6.857   1.686
10880NA      NA33516   2.204   6.579   5.247
10881NA      NA33517   4.089   5.313   1.782
10882NA      NA33518   3.539   3.267   6.554
   7.02765   7.02765   7.02765
